 Entering Gaussian System, Link 0=g16
 Initial command:
 /home1/apps/gaussian/16rA.03/g16/l1.exe "/tmp/Gau-275624.inp" -scrdir="/tmp/"
 Entering Link 1 = /home1/apps/gaussian/16rA.03/g16/l1.exe PID=    275625.
  
 Copyright (c) 1988,1990,1992,1993,1995,1998,2003,2009,2016,
            Gaussian, Inc.  All Rights Reserved.
  
 This is part of the Gaussian(R) 16 program.  It is based on
 the Gaussian(R) 09 system (copyright 2009, Gaussian, Inc.),
 the Gaussian(R) 03 system (copyright 2003, Gaussian, Inc.),
 the Gaussian(R) 98 system (copyright 1998, Gaussian, Inc.),
 the Gaussian(R) 94 system (copyright 1995, Gaussian, Inc.),
 the Gaussian 92(TM) system (copyright 1992, Gaussian, Inc.),
 the Gaussian 90(TM) system (copyright 1990, Gaussian, Inc.),
 the Gaussian 88(TM) system (copyright 1988, Gaussian, Inc.),
 the Gaussian 86(TM) system (copyright 1986, Carnegie Mellon
 University), and the Gaussian 82(TM) system (copyright 1983,
 Carnegie Mellon University). Gaussian is a federally registered
 trademark of Gaussian, Inc.
  
 This software contains proprietary and confidential information,
 including trade secrets, belonging to Gaussian, Inc.
  
 This software is provided under written license and may be
 used, copied, transmitted, or stored only in accord with that
 written license.
  
 The following legend is applicable only to US Government
 contracts under FAR:
  
                    RESTRICTED RIGHTS LEGEND
  
 Use, reproduction and disclosure by the US Government is
 subject to restrictions as set forth in subparagraphs (a)
 and (c) of the Commercial Computer Software - Restricted
 Rights clause in FAR 52.227-19.
  
 Gaussian, Inc.
 340 Quinnipiac St., Bldg. 40, Wallingford CT 06492
  
  
 ---------------------------------------------------------------
 Warning -- This program may not be used in any manner that
 competes with the business of Gaussian, Inc. or will provide
 assistance to any competitor of Gaussian, Inc.  The licensee
 of this program is prohibited from giving any competitor of
 Gaussian, Inc. access to this program.  By using this program,
 the user acknowledges that Gaussian, Inc. is engaged in the
 business of creating and licensing software in the field of
 computational chemistry and represents and warrants to the
 licensee that it is not a competitor of Gaussian, Inc. and that
 it will not use this program in any manner prohibited above.
 ---------------------------------------------------------------
  

 Cite this work as:
 Gaussian 16, Revision A.03,
 M. J. Frisch, G. W. Trucks, H. B. Schlegel, G. E. Scuseria, 
 M. A. Robb, J. R. Cheeseman, G. Scalmani, V. Barone, 
 G. A. Petersson, H. Nakatsuji, X. Li, M. Caricato, A. V. Marenich, 
 J. Bloino, B. G. Janesko, R. Gomperts, B. Mennucci, H. P. Hratchian, 
 J. V. Ortiz, A. F. Izmaylov, J. L. Sonnenberg, D. Williams-Young, 
 F. Ding, F. Lipparini, F. Egidi, J. Goings, B. Peng, A. Petrone, 
 T. Henderson, D. Ranasinghe, V. G. Zakrzewski, J. Gao, N. Rega, 
 G. Zheng, W. Liang, M. Hada, M. Ehara, K. Toyota, R. Fukuda, 
 J. Hasegawa, M. Ishida, T. Nakajima, Y. Honda, O. Kitao, H. Nakai, 
 T. Vreven, K. Throssell, J. A. Montgomery, Jr., J. E. Peralta, 
 F. Ogliaro, M. J. Bearpark, J. J. Heyd, E. N. Brothers, K. N. Kudin, 
 V. N. Staroverov, T. A. Keith, R. Kobayashi, J. Normand, 
 K. Raghavachari, A. P. Rendell, J. C. Burant, S. S. Iyengar, 
 J. Tomasi, M. Cossi, J. M. Millam, M. Klene, C. Adamo, R. Cammi, 
 J. W. Ochterski, R. L. Martin, K. Morokuma, O. Farkas, 
 J. B. Foresman, and D. J. Fox, Gaussian, Inc., Wallingford CT, 2016.
 
 ******************************************
 Gaussian 16:  ES64L-G16RevA.03 25-Dec-2016
                13-Feb-2018 
 ******************************************
 %mem=64GB
 %cpu=0-31
 SetSPE:  set environment variable "MP_BIND" = "yes"
 SetSPE:  set environment variable "MP_BLIST" = "0,1,2,3,4,5,6,7,8,9,10,11,12,13,14,15,16,17,18,19,20,21,22,23,24,25,26,27,28,29,30,31"
 Will use up to   32 processors via shared memory.
 %chk=ScH
 ----------------------------------------------------------------------
 #P ROCCSD(T)=(maxcyc=150, Full)/Gen 5d 7f SCF=(maxcycles=300) Integral
 (NoXCTest) MaxDisk=500GB Pop=Regular Pseudo=Read IOp(5/15=2) Guess=Rea
 d
 ----------------------------------------------------------------------
 1/38=1,172=1/1;
 2/12=2,17=6,18=5,40=1/2;
 3/5=7,8=11,11=2,16=1,17=8,25=1,30=1,47=8,116=101/1,2,3;
 4/5=1/1;
 5/5=2,7=300,15=2,38=6/2;
 8/5=-1,6=4,9=120000,10=90/1,4;
 9/5=7,6=150,14=2/13;
 6//1;
 99/5=1,9=1/99;
 Leave Link    1 at Tue Feb 13 15:21:49 2018, MaxMem=  8589934592 cpu:               6.2 elap:               0.2
 (Enter /home1/apps/gaussian/16rA.03/g16/l101.exe)
 ---
 ScH
 ---
 Symbolic Z-matrix:
 Charge =  0 Multiplicity = 1
 Sc                    0.        0.        0. 
 H                     0.        0.        1. 
 
 ITRead=  0  0
 MicOpt= -1 -1
 NAtoms=      2 NQM=        2 NQMF=       0 NMMI=      0 NMMIF=      0
                NMic=       0 NMicF=      0.
                    Isotopes and Nuclear Properties:
 (Nuclear quadrupole moments (NQMom) in fm**2, nuclear magnetic moments (NMagM)
  in nuclear magnetons)

  Atom         1           2
 IAtWgt=          45           1
 AtmWgt=  44.9559136   1.0078250
 NucSpn=           7           1
 AtZEff=  -0.0000000  -0.0000000
 NQMom=  -22.0000000   0.0000000
 NMagM=    4.7564830   2.7928460
 AtZNuc=  21.0000000   1.0000000
 Leave Link  101 at Tue Feb 13 15:21:49 2018, MaxMem=  8589934592 cpu:               2.8 elap:               0.1
 (Enter /home1/apps/gaussian/16rA.03/g16/l202.exe)
                          Input orientation:                          
 ---------------------------------------------------------------------
 Center     Atomic      Atomic             Coordinates (Angstroms)
 Number     Number       Type             X           Y           Z
 ---------------------------------------------------------------------
      1         21           0        0.000000    0.000000    0.000000
      2          1           0        0.000000    0.000000    1.000000
 ---------------------------------------------------------------------
 Stoichiometry    HSc
 Framework group  C*V[C*(HSc)]
 Deg. of freedom     1
 Full point group                 C*V     NOp   4
 Largest Abelian subgroup         C2V     NOp   4
 Largest concise Abelian subgroup C1      NOp   1
                         Standard orientation:                         
 ---------------------------------------------------------------------
 Center     Atomic      Atomic             Coordinates (Angstroms)
 Number     Number       Type             X           Y           Z
 ---------------------------------------------------------------------
      1         21           0        0.000000    0.000000    0.045455
      2          1           0        0.000000    0.000000   -0.954545
 ---------------------------------------------------------------------
 Rotational constants (GHZ):           0.0000000         512.6967625         512.6967625
 Leave Link  202 at Tue Feb 13 15:21:49 2018, MaxMem=  8589934592 cpu:               0.6 elap:               0.0
 (Enter /home1/apps/gaussian/16rA.03/g16/l301.exe)
 General basis read from cards:  (5D, 7F)
 Centers:       1
 S 1 1.00
     Exponent=  8.4179090000D+06 Coefficients=  1.0000000000D+00
 S 1 1.00
     Exponent=  1.2603120000D+06 Coefficients=  1.0000000000D+00
 S 1 1.00
     Exponent=  2.8679840000D+05 Coefficients=  1.0000000000D+00
 S 1 1.00
     Exponent=  8.1234690000D+04 Coefficients=  1.0000000000D+00
 S 1 1.00
     Exponent=  2.6503110000D+04 Coefficients=  1.0000000000D+00
 S 1 1.00
     Exponent=  9.5687010000D+03 Coefficients=  1.0000000000D+00
 S 1 1.00
     Exponent=  3.7324970000D+03 Coefficients=  1.0000000000D+00
 S 1 1.00
     Exponent=  1.5484220000D+03 Coefficients=  1.0000000000D+00
 S 1 1.00
     Exponent=  6.7554200000D+02 Coefficients=  1.0000000000D+00
 S 1 1.00
     Exponent=  3.0725220000D+02 Coefficients=  1.0000000000D+00
 S 1 1.00
     Exponent=  1.4466720000D+02 Coefficients=  1.0000000000D+00
 S 1 1.00
     Exponent=  7.0043870000D+01 Coefficients=  1.0000000000D+00
 S 1 1.00
     Exponent=  3.4322500000D+01 Coefficients=  1.0000000000D+00
 S 1 1.00
     Exponent=  1.5612240000D+01 Coefficients=  1.0000000000D+00
 S 1 1.00
     Exponent=  7.7437220000D+00 Coefficients=  1.0000000000D+00
 S 1 1.00
     Exponent=  3.8442600000D+00 Coefficients=  1.0000000000D+00
 S 1 1.00
     Exponent=  1.7197660000D+00 Coefficients=  1.0000000000D+00
 S 1 1.00
     Exponent=  8.3252300000D-01 Coefficients=  1.0000000000D+00
 S 1 1.00
     Exponent=  3.8556400000D-01 Coefficients=  1.0000000000D+00
 S 1 1.00
     Exponent=  9.6700000000D-02 Coefficients=  1.0000000000D+00
 S 1 1.00
     Exponent=  4.7778000000D-02 Coefficients=  1.0000000000D+00
 S 1 1.00
     Exponent=  2.2363000000D-02 Coefficients=  1.0000000000D+00
 S 1 1.00
     Exponent=  3.1672000000D+00 Coefficients=  1.0000000000D+00
 S 1 1.00
     Exponent=  1.6879000000D+00 Coefficients=  1.0000000000D+00
 S 1 1.00
     Exponent=  1.0470000000D-02 Coefficients=  1.0000000000D+00
 P 1 1.00
     Exponent=  2.2640970000D+04 Coefficients=  1.0000000000D+00
 P 1 1.00
     Exponent=  5.3575450000D+03 Coefficients=  1.0000000000D+00
 P 1 1.00
     Exponent=  1.7403730000D+03 Coefficients=  1.0000000000D+00
 P 1 1.00
     Exponent=  6.6661630000D+02 Coefficients=  1.0000000000D+00
 P 1 1.00
     Exponent=  2.8363840000D+02 Coefficients=  1.0000000000D+00
 P 1 1.00
     Exponent=  1.2979760000D+02 Coefficients=  1.0000000000D+00
 P 1 1.00
     Exponent=  6.2679560000D+01 Coefficients=  1.0000000000D+00
 P 1 1.00
     Exponent=  3.1504410000D+01 Coefficients=  1.0000000000D+00
 P 1 1.00
     Exponent=  1.6235250000D+01 Coefficients=  1.0000000000D+00
 P 1 1.00
     Exponent=  8.5183240000D+00 Coefficients=  1.0000000000D+00
 P 1 1.00
     Exponent=  4.5190050000D+00 Coefficients=  1.0000000000D+00
 P 1 1.00
     Exponent=  2.3665910000D+00 Coefficients=  1.0000000000D+00
 P 1 1.00
     Exponent=  1.2152350000D+00 Coefficients=  1.0000000000D+00
 P 1 1.00
     Exponent=  6.1434800000D-01 Coefficients=  1.0000000000D+00
 P 1 1.00
     Exponent=  3.0074500000D-01 Coefficients=  1.0000000000D+00
 P 1 1.00
     Exponent=  1.2583400000D-01 Coefficients=  1.0000000000D+00
 P 1 1.00
     Exponent=  5.4719000000D-02 Coefficients=  1.0000000000D+00
 P 1 1.00
     Exponent=  2.3488000000D-02 Coefficients=  1.0000000000D+00
 P 1 1.00
     Exponent=  4.0719000000D+00 Coefficients=  1.0000000000D+00
 P 1 1.00
     Exponent=  9.9940000000D-01 Coefficients=  1.0000000000D+00
 P 1 1.00
     Exponent=  1.0080000000D-02 Coefficients=  1.0000000000D+00
 D 1 1.00
     Exponent=  1.4802800000D+02 Coefficients=  1.0000000000D+00
 D 1 1.00
     Exponent=  4.3852800000D+01 Coefficients=  1.0000000000D+00
 D 1 1.00
     Exponent=  1.6664600000D+01 Coefficients=  1.0000000000D+00
 D 1 1.00
     Exponent=  6.9789300000D+00 Coefficients=  1.0000000000D+00
 D 1 1.00
     Exponent=  3.1236900000D+00 Coefficients=  1.0000000000D+00
 D 1 1.00
     Exponent=  1.4468700000D+00 Coefficients=  1.0000000000D+00
 D 1 1.00
     Exponent=  6.6740700000D-01 Coefficients=  1.0000000000D+00
 D 1 1.00
     Exponent=  3.0163300000D-01 Coefficients=  1.0000000000D+00
 D 1 1.00
     Exponent=  1.3267400000D-01 Coefficients=  1.0000000000D+00
 D 1 1.00
     Exponent=  5.6739000000D-02 Coefficients=  1.0000000000D+00
 D 1 1.00
     Exponent=  2.3175000000D-02 Coefficients=  1.0000000000D+00
 D 1 1.00
     Exponent=  2.1282000000D+00 Coefficients=  1.0000000000D+00
 D 1 1.00
     Exponent=  9.6910000000D-01 Coefficients=  1.0000000000D+00
 D 1 1.00
     Exponent=  9.4700000000D-03 Coefficients=  1.0000000000D+00
 F 1 1.00
     Exponent=  2.7590000000D+00 Coefficients=  1.0000000000D+00
 F 1 1.00
     Exponent=  1.0490000000D+00 Coefficients=  1.0000000000D+00
 F 1 1.00
     Exponent=  3.9890000000D-01 Coefficients=  1.0000000000D+00
 F 1 1.00
     Exponent=  1.1060000000D-01 Coefficients=  1.0000000000D+00
 F 1 1.00
     Exponent=  3.0670000000D-02 Coefficients=  1.0000000000D+00
 G 1 1.00
     Exponent=  2.4852000000D+00 Coefficients=  1.0000000000D+00
 G 1 1.00
     Exponent=  9.0670000000D-01 Coefficients=  1.0000000000D+00
 G 1 1.00
     Exponent=  2.5300000000D-01 Coefficients=  1.0000000000D+00
 G 1 1.00
     Exponent=  7.0600000000D-02 Coefficients=  1.0000000000D+00
 H 1 1.00
     Exponent=  2.0405000000D+00 Coefficients=  1.0000000000D+00
 H 1 1.00
     Exponent=  4.9340000000D-01 Coefficients=  1.0000000000D+00
 H 1 1.00
     Exponent=  1.1931000000D-01 Coefficients=  1.0000000000D+00
 ****
 Centers:       2
 S 1 1.00
     Exponent=  8.2640000000D+01 Coefficients=  1.0000000000D+00
 S 1 1.00
     Exponent=  1.2410000000D+01 Coefficients=  1.0000000000D+00
 S 1 1.00
     Exponent=  2.8240000000D+00 Coefficients=  1.0000000000D+00
 S 1 1.00
     Exponent=  7.9770000000D-01 Coefficients=  1.0000000000D+00
 S 1 1.00
     Exponent=  2.5810000000D-01 Coefficients=  1.0000000000D+00
 S 1 1.00
     Exponent=  8.9890000000D-02 Coefficients=  1.0000000000D+00
 S 1 1.00
     Exponent=  2.3630000000D-02 Coefficients=  1.0000000000D+00
 P 1 1.00
     Exponent=  2.2920000000D+00 Coefficients=  1.0000000000D+00
 P 1 1.00
     Exponent=  8.3800000000D-01 Coefficients=  1.0000000000D+00
 P 1 1.00
     Exponent=  2.9200000000D-01 Coefficients=  1.0000000000D+00
 P 1 1.00
     Exponent=  8.4800000000D-02 Coefficients=  1.0000000000D+00
 D 1 1.00
     Exponent=  2.0620000000D+00 Coefficients=  1.0000000000D+00
 D 1 1.00
     Exponent=  6.6200000000D-01 Coefficients=  1.0000000000D+00
 D 1 1.00
     Exponent=  1.9000000000D-01 Coefficients=  1.0000000000D+00
 F 1 1.00
     Exponent=  1.3970000000D+00 Coefficients=  1.0000000000D+00
 F 1 1.00
     Exponent=  3.6000000000D-01 Coefficients=  1.0000000000D+00
 ****
 ======================================================================================================
                                       Pseudopotential Parameters
 ======================================================================================================
  Center     Atomic      Valence      Angular      Power
  Number     Number     Electrons     Momentum     of R      Exponent        Coefficient   SO-Coeffient
 ======================================================================================================
    1         21           11
                                      F and up 
                                                     1        8.6843244       11.00000000    0.00000000
                                                     2       12.9608105     1293.12711495    0.00000000
                                                     2        3.4272602      -59.34807006    0.00000000
                                                     2       13.9264987    -6626.33658022    0.00000000
                                                     2       14.1135521     5365.41708240    0.00000000
                                                     3        3.8783422       95.52756785    0.00000000
                                      S - F
                                                     2       14.1143229    -1492.86349923    0.00000000
                                                     2        4.4283560     1499.37242000    0.00000000
                                                     2        7.4604557     1088.20049735    0.00000000
                                                     2       10.2353388    -1981.91696501    0.00000000
                                                     2        4.5248959    -1710.45115474    0.00000000
                                                     2       13.0788594     2625.43810581    0.00000000
                                      P - F
                                                     2        9.8399764    -2070.12504374    0.00000000
                                                     2        7.2507207     5801.02991534    0.00000000
                                                     2       11.8197475     1554.97375552    0.00000000
                                                     2       14.0743327     -853.69420879    0.00000000
                                                     2        7.0846032    -4878.01776292    0.00000000
                                                     2       14.0716643      462.12967346    0.00000000
                                      D - F
                                                     2       11.2984945     -570.27953430    0.00000000
                                                     2        5.7211985     -549.43824610    0.00000000
                                                     2        6.5323409     1672.92599442    0.00000000
                                                     2        8.1143102    -2704.80905453    0.00000000
                                                     2        9.9572828     4666.19773963    0.00000000
                                                     2       10.2402945    -2524.96335631    0.00000000
    2          1            1
                                      P and up 
                                                     2       21.7769666      -10.85192405    0.00000000
                                                     1       21.2435951        1.00000000    0.00000000
                                                     3       21.2435951       21.24359508    0.00000000
                                      S - P
                                                     2        1.0000000        0.00000000    0.00000000
 ======================================================================================================
 Ernie: Thresh=  0.10000D-02 Tol=  0.10000D-05 Strict=F.
 There are   171 symmetry adapted cartesian basis functions of A1  symmetry.
 There are    45 symmetry adapted cartesian basis functions of A2  symmetry.
 There are    93 symmetry adapted cartesian basis functions of B1  symmetry.
 There are    93 symmetry adapted cartesian basis functions of B2  symmetry.
 There are   126 symmetry adapted basis functions of A1  symmetry.
 There are    38 symmetry adapted basis functions of A2  symmetry.
 There are    73 symmetry adapted basis functions of B1  symmetry.
 There are    73 symmetry adapted basis functions of B2  symmetry.
   310 basis functions,   402 primitive gaussians,   402 cartesian basis functions
     6 alpha electrons        6 beta electrons
       nuclear repulsion energy         5.8209493201 Hartrees.
 IExCor=    0 DFT=F Ex=HF Corr=None ExCW=0 ScaHFX=  1.000000
 ScaDFX=  1.000000  1.000000  1.000000  1.000000 ScalE2=  1.000000  1.000000
 IRadAn=      5 IRanWt=     -1 IRanGd=            0 ICorTp=0 IEmpDi=  4
 NAtoms=    2 NActive=    2 NUniq=    2 SFac= 1.00D+00 NAtFMM=   60 NAOKFM=F Big=F
 Integral buffers will be    131072 words long.
 Raffenetti 2 integral format.
 Two-electron integral symmetry is turned on.
 Leave Link  301 at Tue Feb 13 15:21:49 2018, MaxMem=  8589934592 cpu:               8.6 elap:               0.3
 (Enter /home1/apps/gaussian/16rA.03/g16/l302.exe)
 NPDir=0 NMtPBC=     1 NCelOv=     1 NCel=       1 NClECP=     1 NCelD=      1
         NCelK=      1 NCelE2=     1 NClLst=     1 CellRange=     0.0.
 One-electron integrals computed using PRISM.
 One-electron integral symmetry used in STVInt
   4 Symmetry operations used in ECPInt.
 ECPInt:  NShTT=    3916 NPrTT=    3916 LenC2=    3894 LenP2D=    3893.
 LDataN:  DoStor=T MaxTD1=10 Len=  848
 NBasis=   310 RedAO= T EigKep=  1.19D-06  NBF=   126    38    73    73
 NBsUse=   308 1.00D-06 EigRej=  9.80D-07 NBFU=   124    38    73    73
 Leave Link  302 at Tue Feb 13 15:21:52 2018, MaxMem=  8589934592 cpu:              92.8 elap:               2.9
 (Enter /home1/apps/gaussian/16rA.03/g16/l303.exe)
 DipDrv:  MaxL=1.
 Leave Link  303 at Tue Feb 13 15:21:53 2018, MaxMem=  8589934592 cpu:               2.8 elap:               0.1
 (Enter /home1/apps/gaussian/16rA.03/g16/l401.exe)
 Initial guess from the checkpoint file:  "ScH.chk"
 B after Tr=     0.000000    0.000000    0.000000
         Rot=    1.000000    0.000000    0.000000    0.000000 Ang=   0.00 deg.
 Guess basis will be translated and rotated to current coordinates.
 JPrj=2 DoOrth=T DoCkMO=T.
 Initial guess orbital symmetries:
       Occupied  (SG) (SG) (PI) (PI) (SG) (SG)
       Virtual   (SG) (PI) (PI) (SG) (SG) (PI) (PI) (DLTA) (DLTA)
                 (SG) (PI) (PI) (SG) (PI) (PI) (DLTA) (DLTA) (SG)
                 (SG) (SG) (PI) (PI) (DLTA) (DLTA) (PHI) (PHI)
                 (PI) (PI) (PI) (PI) (DLTA) (DLTA) (SG) (SG) (SG)
                 (PI) (PI) (SG) (PI) (PI) (SG) (DLTA) (DLTA) (PHI)
                 (PHI) (?A) (?A) (DLTA) (DLTA) (SG) (PI) (PI) (PI)
                 (PI) (DLTA) (DLTA) (PHI) (PHI) (SG) (PI) (PI)
                 (SG) (SG) (SG) (PI) (PI) (DLTA) (DLTA) (SG) (DLTA)
                 (DLTA) (PI) (PI) (SG) (PI) (PI) (PI) (PI) (PHI)
                 (PHI) (?A) (?A) (SG) (SG) (DLTA) (DLTA) (PI) (PI)
                 (PHI) (PHI) (DLTA) (DLTA) (SG) (SG) (PI) (PI)
                 (DLTA) (DLTA) (PI) (PI) (SG) (SG) (PI) (PI) (SG)
                 (DLTA) (DLTA) (PI) (PI) (SG) (PI) (PI) (SG) (SG)
                 (DLTA) (DLTA) (PI) (PI) (PHI) (PHI) (DLTA) (DLTA)
                 (PI) (PI) (PHI) (PHI) (?A) (?A) (SG) (DLTA) (DLTA)
                 (SG) (PI) (PI) (PI) (PI) (SG) (SG) (SG) (DLTA)
                 (DLTA) (PI) (PI) (SG) (SG) (PI) (PI) (SG) (SG)
                 (DLTA) (DLTA) (PI) (PI) (SG) (PI) (PI) (SG) (SG)
                 (SG) (DLTA) (DLTA) (PI) (PI) (SG) (PI) (PI) (SG)
                 (SG) (PI) (PI) (SG) (SG) (SG) (DLTA) (DLTA) (PI)
                 (PI) (PI) (PI) (SG) (SG) (PI) (PI) (SG) (SG) (PI)
                 (PI) (SG) (SG) (PI) (PI) (SG) (SG) (PI) (PI) (SG)
                 (SG) (SG) (PI) (PI) (SG) (SG) (SG) (SG) (SG) (DLTA)
                 (SG) (SG) (DLTA) (SG) (SG) (DLTA) (SG) (SG) (DLTA)
                 (SG) (SG) (SG) (DLTA) (SG) (DLTA) (SG) (?A) (DLTA)
                 (SG) (DLTA) (SG) (SG) (DLTA) (?A) (SG) (DLTA)
                 (DLTA) (?A) (SG) (?A) (SG) (DLTA) (DLTA) (DLTA)
                 (DLTA) (DLTA) (DLTA) (?A) (DLTA) (DLTA) (DLTA)
                 (?A) (DLTA) (DLTA) (?A) (?A) (PI) (PI) (PI) (PI)
                 (PHI) (PI) (PI) (PI) (PI) (PHI) (PI) (PI) (PI)
                 (PHI) (PHI) (PI) (?B) (PHI) (PI) (PI) (PHI) (PI)
                 (?B) (PHI) (?B) (PI) (PI) (PI) (PI) (PHI) (PI)
                 (PI) (PI) (PI) (PHI) (PI) (PI) (PI) (PHI) (PHI)
                 (PI) (?B) (PHI) (PI) (PI) (PHI) (PI) (?B) (PHI)
                 (?B)
 The electronic state of the initial guess is 1-SG.
 Leave Link  401 at Tue Feb 13 15:21:53 2018, MaxMem=  8589934592 cpu:              15.5 elap:               0.6
 (Enter /home1/apps/gaussian/16rA.03/g16/l502.exe)
 Keep R1 and R2 ints in memory in symmetry-blocked form, NReq=1456552531.
 FoFCou: FMM=F IPFlag=           8 FMFlag=           0 FMFlg1=           0
         NFxFlg=           0 DoJE=F BraDBF=F KetDBF=F FulRan=T
         wScrn=  0.000000 ICntrl=       600 IOpCl=  0 I1Cent=           0 NGrid=           0
         NMat0=    1 NMatS0=  48205 NMatT0=    0 NMatD0=    1 NMtDS0=    0 NMtDT0=    0
 Petite list used in FoFCou.
 Restricted open shell SCF:
 Using DIIS extrapolation, IDIIS=  1040.
 NGot=  8589934592 LenX=  8000373618 LenY=  8000211573
 Requested convergence on RMS density matrix=1.00D-08 within 300 cycles.
 Requested convergence on MAX density matrix=1.00D-06.
 Requested convergence on             energy=1.00D-06.
 No special actions if energy rises.

 Cycle   1  Pass 1  IDiag  1:
 E= -46.3210881948648    
 DIIS: error= 2.46D+00 at cycle   1 NSaved=   1.
 NSaved= 1 IEnMin= 1 EnMin= -46.3210881948648     IErMin= 1 ErrMin= 2.46D+00
 ErrMax= 2.46D+00  0.00D+00 EMaxC= 1.00D-01 BMatC= 6.88D+02 BMatP= 6.88D+02
 IDIUse=3 WtCom= 0.00D+00 WtEn= 1.00D+00
 Coeff-Com:  0.100D+01
 Coeff-En:   0.100D+01
 Coeff:      0.100D+01
 Gap=     0.226 Goal=   None    Shift=    0.000
 GapD=    0.226 DampG=1.000 DampE=0.125 DampFc=0.1250 IDamp=-1.
 Damping current iteration by 1.25D-01
 RMSDP=1.10D-02 MaxDP=1.36D+00              OVMax= 4.57D-03

 Cycle   2  Pass 1  IDiag  1:
 E= -46.3214891137497     Delta-E=       -0.000400918885 Rises=F Damp=T
 DIIS: error= 2.15D+00 at cycle   2 NSaved=   2.
 NSaved= 2 IEnMin= 2 EnMin= -46.3214891137497     IErMin= 2 ErrMin= 2.15D+00
 ErrMax= 2.15D+00  0.00D+00 EMaxC= 1.00D-01 BMatC= 5.27D+02 BMatP= 6.88D+02
 IDIUse=3 WtCom= 0.00D+00 WtEn= 1.00D+00
 Coeff-Com: -0.700D+01 0.800D+01
 Coeff-En:   0.000D+00 0.100D+01
 Coeff:      0.000D+00 0.100D+01
 Gap=     0.225 Goal=   None    Shift=    0.000
 RMSDP=9.65D-03 MaxDP=1.20D+00 DE=-4.01D-04 OVMax= 5.46D-05

 Cycle   3  Pass 1  IDiag  1:
 E= -46.3243346056173     Delta-E=       -0.002845491868 Rises=F Damp=F
 DIIS: error= 4.13D-04 at cycle   3 NSaved=   3.
 NSaved= 3 IEnMin= 3 EnMin= -46.3243346056173     IErMin= 3 ErrMin= 4.13D-04
 ErrMax= 4.13D-04  0.00D+00 EMaxC= 1.00D-01 BMatC= 1.13D-05 BMatP= 5.27D+02
 IDIUse=3 WtCom= 9.96D-01 WtEn= 4.13D-03
 Large coefficients: NSaved=  3 BigCof=   58.26 CofMax=   10.00 Det=-3.30D-09
 Inversion failed.  Reducing to  2 matrices.
 Coeff-Com: -0.202D-05 0.100D+01
 Coeff-En:   0.000D+00 0.100D+01
 Coeff:     -0.201D-05 0.100D+01
 Gap=     0.225 Goal=   None    Shift=    0.000
 RMSDP=2.64D-04 MaxDP=3.00D-02 DE=-2.85D-03 OVMax= 3.95D-04

 Cycle   4  Pass 1  IDiag  1:
 E= -46.3243365314009     Delta-E=       -0.000001925784 Rises=F Damp=F
 DIIS: error= 2.42D-05 at cycle   4 NSaved=   3.
 NSaved= 3 IEnMin= 3 EnMin= -46.3243365314009     IErMin= 3 ErrMin= 2.42D-05
 ErrMax= 2.42D-05  0.00D+00 EMaxC= 1.00D-01 BMatC= 4.75D-08 BMatP= 1.13D-05
 IDIUse=1 WtCom= 1.00D+00 WtEn= 0.00D+00
 Coeff-Com:  0.558D-07-0.364D-01 0.104D+01
 Coeff:      0.558D-07-0.364D-01 0.104D+01
 Gap=     0.225 Goal=   None    Shift=    0.000
 RMSDP=1.56D-05 MaxDP=9.63D-04 DE=-1.93D-06 OVMax= 1.52D-04

 Cycle   5  Pass 1  IDiag  1:
 E= -46.3243366149005     Delta-E=       -0.000000083500 Rises=F Damp=F
 DIIS: error= 1.06D-05 at cycle   5 NSaved=   4.
 NSaved= 4 IEnMin= 4 EnMin= -46.3243366149005     IErMin= 4 ErrMin= 1.06D-05
 ErrMax= 1.06D-05  0.00D+00 EMaxC= 1.00D-01 BMatC= 7.62D-09 BMatP= 4.75D-08
 IDIUse=1 WtCom= 1.00D+00 WtEn= 0.00D+00
 Coeff-Com:  0.591D-08-0.280D-02-0.253D-01 0.103D+01
 Coeff:      0.591D-08-0.280D-02-0.253D-01 0.103D+01
 Gap=     0.225 Goal=   None    Shift=    0.000
 RMSDP=1.70D-06 MaxDP=1.25D-04 DE=-8.35D-08 OVMax= 9.15D-05

 Cycle   6  Pass 1  IDiag  1:
 E= -46.3243366366030     Delta-E=       -0.000000021703 Rises=F Damp=F
 DIIS: error= 7.02D-06 at cycle   6 NSaved=   5.
 NSaved= 5 IEnMin= 5 EnMin= -46.3243366366030     IErMin= 5 ErrMin= 7.02D-06
 ErrMax= 7.02D-06  0.00D+00 EMaxC= 1.00D-01 BMatC= 1.49D-09 BMatP= 7.62D-09
 IDIUse=1 WtCom= 1.00D+00 WtEn= 0.00D+00
 Coeff-Com: -0.768D-08 0.492D-02-0.134D+00-0.252D+00 0.138D+01
 Coeff:     -0.768D-08 0.492D-02-0.134D+00-0.252D+00 0.138D+01
 Gap=     0.225 Goal=   None    Shift=    0.000
 RMSDP=6.85D-07 MaxDP=3.55D-05 DE=-2.17D-08 OVMax= 9.88D-05

 Cycle   7  Pass 1  IDiag  1:
 E= -46.3243366469271     Delta-E=       -0.000000010324 Rises=F Damp=F
 DIIS: error= 2.34D-06 at cycle   7 NSaved=   6.
 NSaved= 6 IEnMin= 6 EnMin= -46.3243366469271     IErMin= 6 ErrMin= 2.34D-06
 ErrMax= 2.34D-06  0.00D+00 EMaxC= 1.00D-01 BMatC= 2.64D-10 BMatP= 1.49D-09
 IDIUse=1 WtCom= 1.00D+00 WtEn= 0.00D+00
 Coeff-Com:  0.273D-08-0.184D-02 0.633D-01-0.137D+00-0.381D+00 0.146D+01
 Coeff:      0.273D-08-0.184D-02 0.633D-01-0.137D+00-0.381D+00 0.146D+01
 Gap=     0.225 Goal=   None    Shift=    0.000
 RMSDP=4.17D-07 MaxDP=3.53D-05 DE=-1.03D-08 OVMax= 5.89D-05

 Cycle   8  Pass 1  IDiag  1:
 E= -46.3243366490974     Delta-E=       -0.000000002170 Rises=F Damp=F
 DIIS: error= 6.84D-07 at cycle   8 NSaved=   7.
 NSaved= 7 IEnMin= 7 EnMin= -46.3243366490974     IErMin= 7 ErrMin= 6.84D-07
 ErrMax= 6.84D-07  0.00D+00 EMaxC= 1.00D-01 BMatC= 2.61D-11 BMatP= 2.64D-10
 IDIUse=1 WtCom= 1.00D+00 WtEn= 0.00D+00
 Coeff-Com: -0.685D-09 0.501D-03-0.217D-01 0.100D+00 0.112D+00-0.103D+01
 Coeff-Com:  0.184D+01
 Coeff:     -0.685D-09 0.501D-03-0.217D-01 0.100D+00 0.112D+00-0.103D+01
 Coeff:      0.184D+01
 Gap=     0.225 Goal=   None    Shift=    0.000
 RMSDP=1.68D-07 MaxDP=1.08D-05 DE=-2.17D-09 OVMax= 2.85D-05

 Cycle   9  Pass 1  IDiag  1:
 E= -46.3243366493567     Delta-E=       -0.000000000259 Rises=F Damp=F
 DIIS: error= 9.25D-08 at cycle   9 NSaved=   8.
 NSaved= 8 IEnMin= 8 EnMin= -46.3243366493567     IErMin= 8 ErrMin= 9.25D-08
 ErrMax= 9.25D-08  0.00D+00 EMaxC= 1.00D-01 BMatC= 4.06D-13 BMatP= 2.61D-11
 IDIUse=1 WtCom= 1.00D+00 WtEn= 0.00D+00
 Coeff-Com:  0.722D-10-0.713D-04 0.364D-02-0.227D-01-0.880D-02 0.209D+00
 Coeff-Com: -0.491D+00 0.131D+01
 Coeff:      0.722D-10-0.713D-04 0.364D-02-0.227D-01-0.880D-02 0.209D+00
 Coeff:     -0.491D+00 0.131D+01
 Gap=     0.225 Goal=   None    Shift=    0.000
 RMSDP=3.38D-08 MaxDP=3.45D-06 DE=-2.59D-10 OVMax= 2.28D-06

 Cycle  10  Pass 1  IDiag  1:
 E= -46.3243366493590     Delta-E=       -0.000000000002 Rises=F Damp=F
 DIIS: error= 1.40D-08 at cycle  10 NSaved=   9.
 NSaved= 9 IEnMin= 9 EnMin= -46.3243366493590     IErMin= 9 ErrMin= 1.40D-08
 ErrMax= 1.40D-08  0.00D+00 EMaxC= 1.00D-01 BMatC= 1.66D-14 BMatP= 4.06D-13
 IDIUse=1 WtCom= 1.00D+00 WtEn= 0.00D+00
 Coeff-Com:  0.790D-10-0.234D-04 0.104D-02-0.560D-02-0.368D-02 0.502D-01
 Coeff-Com: -0.897D-01 0.783D-01 0.969D+00
 Coeff:      0.790D-10-0.234D-04 0.104D-02-0.560D-02-0.368D-02 0.502D-01
 Coeff:     -0.897D-01 0.783D-01 0.969D+00
 Gap=     0.225 Goal=   None    Shift=    0.000
 RMSDP=2.85D-09 MaxDP=2.78D-07 DE=-2.32D-12 OVMax= 2.15D-07

 SCF Done:  E(ROHF) =  -46.3243366494     A.U. after   10 cycles
            NFock= 10  Conv=0.28D-08     -V/T= 3.3452
 <Sx>= 0.0000 <Sy>= 0.0000 <Sz>= 0.0000 <S**2>=-0.0000 S=-0.0000
 <L.S>=  0.00000000000    
 KE= 1.975290041816D+01 PE=-1.078339117400D+02 EE= 3.593572535236D+01
 Annihilation of the first spin contaminant:
 S**2 before annihilation    -0.0000,   after     0.0000
 Leave Link  502 at Tue Feb 13 15:22:27 2018, MaxMem=  8589934592 cpu:            1031.5 elap:              34.1
 (Enter /home1/apps/gaussian/16rA.03/g16/l801.exe)
 Windowed orbitals will be sorted by symmetry type.
 GenMOA:  NOpAll=  4 NOp2=4 NOpUse=  4 JSym2X=1
 FoFJK:  IHMeth= 1 ICntrl=       0 DoSepK=F KAlg= 0 I1Cent=           0 FoldK=F
 IRaf=         0 NMat=       1 IRICut=       1 DoRegI=T DoRafI=F ISym2E= 1 IDoP0=0 IntGTp=1.
 FoFCou: FMM=F IPFlag=           8 FMFlag=      100000 FMFlg1=           0
         NFxFlg=           0 DoJE=F BraDBF=F KetDBF=F FulRan=T
         wScrn=  0.000000 ICntrl=         0 IOpCl=  1 I1Cent=           0 NGrid=           0
         NMat0=    1 NMatS0=      1 NMatT0=    0 NMatD0=    1 NMtDS0=    0 NMtDT0=    0
 Petite list used in FoFCou.
 <Sx>= 0.0000 <Sy>= 0.0000 <Sz>= 0.0000 <S**2>=-0.0000 S=-0.0000
 Range of M.O.s used for correlation:     1   308
 NBasis=   310 NAE=     6 NBE=     6 NFC=     0 NFV=     0
 NROrb=    308 NOA=     6 NOB=     6 NVA=   302 NVB=   302

 **** Warning!!: The largest alpha MO coefficient is  0.31308584D+03


 **** Warning!!: The largest beta MO coefficient is  0.31308584D+03

 Singles contribution to E2=   -0.4886649789D-14
 Leave Link  801 at Tue Feb 13 15:22:40 2018, MaxMem=  8589934592 cpu:             407.6 elap:              12.8
 (Enter /home1/apps/gaussian/16rA.03/g16/l804.exe)
 Open-shell transformation, MDV=  8589934592 ITran=4 ISComp=2.
 Unit  1 TFree=       2911068 TCopy=       2142645.
 Semi-Direct transformation.
 ModeAB=           2 MOrb=             6 LenV=    8586985825
 LASXX=     22176492 LTotXX=    22176492 LenRXX=    22176492
 LTotAB=    22461525 MaxLAS=   149693544 LenRXY=   149693544
 NonZer=   152735352 LenScr=   230001664 LnRSAI=           0
 LnScr1=           0 LExtra=     6900106 Total=    408771806
 MaxDsk= 67108864000 SrtSym=           F ITran=            4
 DoSDTr:  NPSUse= 32
 JobTyp=1 Pass  1:  I=   1 to   6.
 (rs|ai) integrals will be sorted in core.
 Complete sort for first half transformation.
 First half transformation complete.
 Complete sort for second half transformation.
 Second half transformation complete.
 ModeAB=           2 MOrb=             6 LenV=    8586985825
 LASXX=     22176492 LTotXX=    22176492 LenRXX=   149693544
 LTotAB=    21563820 MaxLAS=   149693544 LenRXY=    21563820
 NonZer=   152735352 LenScr=   230001664 LnRSAI=           0
 LnScr1=           0 LExtra=   178770142 Total=    580029170
 MaxDsk= 67108864000 SrtSym=           F ITran=            4
 DoSDTr:  NPSUse= 32
 JobTyp=2 Pass  1:  I=   1 to   6.
 (rs|ai) integrals will be sorted in core.
 Complete sort for first half transformation.
 First half transformation complete.
 Complete sort for second half transformation.
 Second half transformation complete.
 Spin components of T(2) and E(2):
     alpha-alpha T2 =       0.1219956020D-01 E2=     -0.5108772364D-01
     alpha-beta  T2 =       0.9057426859D-01 E2=     -0.3293085355D+00
     beta-beta   T2 =       0.1219956020D-01 E2=     -0.5108772364D-01
 ANorm=    0.1055923003D+01
 E2 =    -0.4314839828D+00 EUMP2 =    -0.46755820632117D+02
 (S**2,0)=  0.00000D+00           (S**2,1)=  0.00000D+00
 E(PUHF)=      -0.46324336649D+02        E(PMP2)=      -0.46755820632D+02
 Leave Link  804 at Tue Feb 13 15:29:12 2018, MaxMem=  8589934592 cpu:           12533.9 elap:             391.7
 (Enter /home1/apps/gaussian/16rA.03/g16/l913.exe)
 CIDS:  MDV=  8589934592.
 IFCWin=0 IBDFC=1 NFBD=     0     0 NFCmp=     0     0 NFFFC=     0     0
 Using original routines for 1st iteration.
 Using DD4UQ or CC4UQ for 2nd and later iterations.
 Keep R2 and R3 ints in memory in symmetry-blocked form, NReq=1456564325.
 FoFCou: FMM=F IPFlag=           8 FMFlag=           0 FMFlg1=           0
         NFxFlg=           0 DoJE=F BraDBF=F KetDBF=F FulRan=T
         wScrn=  0.000000 ICntrl=       600 IOpCl=  0 I1Cent=           0 NGrid=           0
         NMat0=    1 NMatS0=  48205 NMatT0=    0 NMatD0=    1 NMtDS0=    0 NMtDT0=    0
 Petite list used in FoFCou.
 CIDS: In Core Option IDoMem=           1.
 CCSD(T)
 =======
 Iterations= 150 Convergence= 0.100D-06
 Produce multiple copies of IABC intergrals
 Iteration Nr.   1
 **********************
 DD1Dir will call FoFMem   1 times, MxPair=       102
 NAB=    36 NAA=    15 NBB=    15.
 DD1Dir will call FoFMem   1 times, MxPair=       102
 NAB=    36 NAA=    15 NBB=    15.
 MP4(R+Q)=  0.30960168D-01
 Maximum subspace dimension=  5
 A-vector RMS=  2.2491865D-05 Max=  5.4212699D-03 conv= 1.00D-05.
 RLE energy=       -0.4203214446
 E3=       -0.19501185D-01        EROMP3=      -0.46775321817D+02
 E4(SDQ)=   0.60210167D-03        ROMP4(SDQ)=  -0.46774719716D+02
 VARIATIONAL ENERGIES WITH THE FIRST-ORDER WAVEFUNCTION:
 DE(Corr)= -0.42002500     E(Corr)=     -46.744361649    
 NORM(A)=   0.10505114D+01
 Iteration Nr.   2
 **********************
 DD1Dir will call FoFMem   1 times, MxPair=       102
 NAB=    36 NAA=    15 NBB=    15.
 A-vector RMS=  2.2908539D-03 Max=  2.9469306D-02 conv= 1.00D-05.
 RLE energy=       -0.4268273201
 DE(Corr)= -0.43925411     E(CORR)=     -46.763590757     Delta=-1.92D-02
 NORM(A)=   0.10535778D+01
 Iteration Nr.   3
 **********************
 DD1Dir will call FoFMem   1 times, MxPair=       102
 NAB=    36 NAA=    15 NBB=    15.
 A-vector RMS=  1.6272462D-03 Max=  2.1172893D-02 conv= 1.00D-05.
 RLE energy=       -0.4368178096
 DE(Corr)= -0.44222626     E(CORR)=     -46.766562909     Delta=-2.97D-03
 NORM(A)=   0.10597644D+01
 Iteration Nr.   4
 **********************
 DD1Dir will call FoFMem   1 times, MxPair=       102
 NAB=    36 NAA=    15 NBB=    15.
 A-vector RMS=  1.1736896D-03 Max=  1.5271592D-02 conv= 1.00D-05.
 RLE energy=       -0.4488481466
 DE(Corr)= -0.44497276     E(CORR)=     -46.769309405     Delta=-2.75D-03
 NORM(A)=   0.10713944D+01
 Iteration Nr.   5
 **********************
 DD1Dir will call FoFMem   1 times, MxPair=       102
 NAB=    36 NAA=    15 NBB=    15.
 A-vector RMS=  1.2005435D-04 Max=  1.5428182D-03 conv= 1.00D-05.
 RLE energy=       -0.4512230981
 DE(Corr)= -0.44971522     E(CORR)=     -46.774051869     Delta=-4.74D-03
 NORM(A)=   0.10744864D+01
 Iteration Nr.   6
 **********************
 DD1Dir will call FoFMem   1 times, MxPair=       102
 NAB=    36 NAA=    15 NBB=    15.
 A-vector RMS=  7.1246143D-05 Max=  8.5974290D-04 conv= 1.00D-05.
 RLE energy=       -0.4502296232
 DE(Corr)= -0.45059442     E(CORR)=     -46.774931073     Delta=-8.79D-04
 NORM(A)=   0.10734864D+01
 Iteration Nr.   7
 **********************
 DD1Dir will call FoFMem   1 times, MxPair=       102
 NAB=    36 NAA=    15 NBB=    15.
 A-vector RMS=  8.4492863D-06 Max=  1.0478671D-04 conv= 1.00D-05.
 RLE energy=       -0.4502307710
 DE(Corr)= -0.45022641     E(CORR)=     -46.774563058     Delta= 3.68D-04
 NORM(A)=   0.10735187D+01
 Iteration Nr.   8
 **********************
 DD1Dir will call FoFMem   1 times, MxPair=       102
 NAB=    36 NAA=    15 NBB=    15.
 A-vector RMS=  6.4089731D-06 Max=  7.6875646D-05 conv= 1.00D-05.
 RLE energy=       -0.4502353351
 DE(Corr)= -0.45023635     E(CORR)=     -46.774573000     Delta=-9.94D-06
 NORM(A)=   0.10735048D+01
 Iteration Nr.   9
 **********************
 DD1Dir will call FoFMem   1 times, MxPair=       102
 NAB=    36 NAA=    15 NBB=    15.
 A-vector RMS=  2.7732358D-06 Max=  3.4430061D-05 conv= 1.00D-05.
 RLE energy=       -0.4502336948
 DE(Corr)= -0.45023267     E(CORR)=     -46.774569322     Delta= 3.68D-06
 NORM(A)=   0.10734982D+01
 Iteration Nr.  10
 **********************
 DD1Dir will call FoFMem   1 times, MxPair=       102
 NAB=    36 NAA=    15 NBB=    15.
 A-vector RMS=  1.4386007D-06 Max=  1.7598400D-05 conv= 1.00D-05.
 RLE energy=       -0.4502331575
 DE(Corr)= -0.45023303     E(CORR)=     -46.774569681     Delta=-3.60D-07
 NORM(A)=   0.10734967D+01
 Iteration Nr.  11
 **********************
 DD1Dir will call FoFMem   1 times, MxPair=       102
 NAB=    36 NAA=    15 NBB=    15.
 A-vector RMS=  6.4514486D-07 Max=  7.0797369D-06 conv= 1.00D-05.
 RLE energy=       -0.4502331971
 DE(Corr)= -0.45023284     E(CORR)=     -46.774569490     Delta= 1.92D-07
 NORM(A)=   0.10734986D+01
 Iteration Nr.  12
 **********************
 DD1Dir will call FoFMem   1 times, MxPair=       102
 NAB=    36 NAA=    15 NBB=    15.
 A-vector RMS=  1.8925275D-07 Max=  1.7208615D-06 conv= 1.00D-05.
 RLE energy=       -0.4502330831
 DE(Corr)= -0.45023307     E(CORR)=     -46.774569720     Delta=-2.30D-07
 NORM(A)=   0.10734992D+01
 Iteration Nr.  13
 **********************
 DD1Dir will call FoFMem   1 times, MxPair=       102
 NAB=    36 NAA=    15 NBB=    15.
 A-vector RMS=  1.1883061D-07 Max=  1.0813653D-06 conv= 1.00D-05.
 RLE energy=       -0.4502331528
 DE(Corr)= -0.45023311     E(CORR)=     -46.774569755     Delta=-3.56D-08
 NORM(A)=   0.10734997D+01
 CI/CC converged in   13 iterations to DelEn=-3.56D-08 Conv= 1.00D-07 ErrA1= 1.19D-07 Conv= 1.00D-05
 Wavefunction amplitudes converged. E(Corr)=     -46.774569755    
 Largest amplitude= 5.32D-02
 Time for triples=    20960.32 seconds.
 T4(CCSD)= -0.18289441D-01
 T5(CCSD)=  0.46491024D-03
 CCSD(T)= -0.46792394286D+02
 Discarding MO integrals.
 Leave Link  913 at Tue Feb 13 15:43:20 2018, MaxMem=  8589934592 cpu:           27048.2 elap:             847.8
 (Enter /home1/apps/gaussian/16rA.03/g16/l601.exe)
 Copying SCF densities to generalized density rwf, IOpCl= 0 IROHF=1.

 **********************************************************************

            Population analysis using the SCF density.

 **********************************************************************

 Orbital symmetries:
       Occupied  (SG) (SG) (PI) (PI) (SG) (SG)
       Virtual   (SG) (PI) (PI) (SG) (PI) (PI) (SG) (DLTA) (DLTA)
                 (SG) (PI) (PI) (PI) (PI) (DLTA) (DLTA) (SG) (SG)
                 (SG) (PI) (PI) (DLTA) (DLTA) (PHI) (PHI) (SG)
                 (PI) (PI) (PI) (PI) (DLTA) (DLTA) (SG) (PI) (PI)
                 (DLTA) (DLTA) (SG) (SG) (PI) (PI) (SG) (PI) (PI)
                 (DLTA) (DLTA) (PHI) (PHI) (?A) (?A) (SG) (DLTA)
                 (DLTA) (PI) (PI) (PHI) (PHI) (SG) (PI) (PI) (DLTA)
                 (DLTA) (SG) (SG) (PI) (PI) (SG) (DLTA) (DLTA)
                 (PHI) (PHI) (PI) (PI) (?A) (?A) (?B) (?B) (SG)
                 (PI) (PI) (DLTA) (DLTA) (SG) (SG) (PI) (PI) (PI)
                 (PI) (PHI) (PHI) (?A) (?A) (DLTA) (DLTA) (SG)
                 (PHI) (PHI) (SG) (PI) (PI) (DLTA) (DLTA) (SG)
                 (PI) (PI) (DLTA) (DLTA) (SG) (PI) (PI) (SG) (DLTA)
                 (DLTA) (PHI) (PHI) (PI) (PI) (SG) (SG) (PI) (PI)
                 (?A) (?A) (SG) (?B) (?B) (PI) (PI) (DLTA) (DLTA)
                 (SG) (PI) (PI) (DLTA) (DLTA) (SG) (DLTA) (DLTA)
                 (PHI) (PHI) (PI) (PI) (SG) (PI) (PI) (PHI) (PHI)
                 (SG) (DLTA) (DLTA) (?A) (?A) (PHI) (PHI) (PI)
                 (PI) (DLTA) (DLTA) (SG) (DLTA) (DLTA) (PI) (PI)
                 (SG) (SG) (PI) (PI) (PI) (PI) (SG) (SG) (PHI)
                 (PHI) (SG) (PI) (PI) (DLTA) (DLTA) (SG) (DLTA)
                 (DLTA) (PI) (PI) (SG) (PHI) (PHI) (PI) (PI) (DLTA)
                 (DLTA) (SG) (DLTA) (DLTA) (PI) (PI) (PI) (PI)
                 (SG) (PI) (PI) (SG) (?A) (?A) (?B) (?B) (PHI)
                 (PHI) (?A) (?A) (PHI) (PHI) (SG) (DLTA) (DLTA)
                 (DLTA) (DLTA) (PI) (PI) (SG) (SG) (PI) (PI) (SG)
                 (DLTA) (DLTA) (PI) (PI) (SG) (PI) (PI) (SG) (SG)
                 (SG) (PI) (PI) (SG) (DLTA) (DLTA) (PI) (PI) (SG)
                 (SG) (SG) (PI) (PI) (DLTA) (DLTA) (PI) (PI) (SG)
                 (SG) (SG) (PI) (PI) (SG) (SG) (SG) (PI) (PI) (DLTA)
                 (DLTA) (PI) (PI) (SG) (SG) (SG) (PI) (PI) (SG)
                 (DLTA) (DLTA) (PI) (PI) (SG) (SG) (PI) (PI) (SG)
                 (SG) (PI) (PI) (SG) (SG) (PI) (PI) (SG) (SG) (PI)
                 (PI) (SG) (SG) (PI) (PI) (SG) (SG) (PI) (PI) (SG)
                 (SG) (SG) (SG) (SG)
 The electronic state is 1-SG.
 Alpha  occ. eigenvalues --   -2.61216  -1.66963  -1.56629  -1.56629  -0.47756
 Alpha  occ. eigenvalues --   -0.21284
 Alpha virt. eigenvalues --    0.01210   0.01352   0.01352   0.02147   0.02883
 Alpha virt. eigenvalues --    0.02883   0.02906   0.02907   0.02907   0.04383
 Alpha virt. eigenvalues --    0.04543   0.04543   0.08269   0.08269   0.08436
 Alpha virt. eigenvalues --    0.08436   0.08909   0.10188   0.12140   0.12356
 Alpha virt. eigenvalues --    0.12356   0.12944   0.12944   0.13190   0.13190
 Alpha virt. eigenvalues --    0.13701   0.14658   0.14658   0.14875   0.14875
 Alpha virt. eigenvalues --    0.15137   0.15137   0.22219   0.26672   0.26672
 Alpha virt. eigenvalues --    0.28867   0.28867   0.29429   0.32364   0.34448
 Alpha virt. eigenvalues --    0.34448   0.34471   0.35173   0.35173   0.35891
 Alpha virt. eigenvalues --    0.35891   0.36924   0.36924   0.37078   0.37078
 Alpha virt. eigenvalues --    0.37577   0.42883   0.42883   0.43224   0.43224
 Alpha virt. eigenvalues --    0.46508   0.46508   0.52318   0.57223   0.57223
 Alpha virt. eigenvalues --    0.64562   0.64562   0.64663   0.67463   0.70470
 Alpha virt. eigenvalues --    0.70470   0.71865   0.72630   0.72630   0.73405
 Alpha virt. eigenvalues --    0.73405   0.73787   0.73787   0.74536   0.74536
 Alpha virt. eigenvalues --    0.74698   0.74698   0.84591   0.86045   0.86045
 Alpha virt. eigenvalues --    0.89648   0.89648   0.97242   1.09372   1.16641
 Alpha virt. eigenvalues --    1.16641   1.24550   1.24550   1.28078   1.28078
 Alpha virt. eigenvalues --    1.29331   1.29331   1.29503   1.29503   1.36076
 Alpha virt. eigenvalues --    1.40587   1.40587   1.40725   1.43562   1.43562
 Alpha virt. eigenvalues --    1.45466   1.45466   1.59686   1.65276   1.65276
 Alpha virt. eigenvalues --    1.79502   1.79502   1.86518   1.90826   1.90826
 Alpha virt. eigenvalues --    1.92575   2.04164   2.04164   2.06333   2.06333
 Alpha virt. eigenvalues --    2.27371   2.27371   2.52062   2.75418   2.87748
 Alpha virt. eigenvalues --    2.87748   2.94095   2.94095   2.94471   2.94639
 Alpha virt. eigenvalues --    2.94639   2.97567   2.97567   3.04157   3.04157
 Alpha virt. eigenvalues --    3.06047   3.08524   3.08524   3.15301   3.15301
 Alpha virt. eigenvalues --    3.19470   3.20987   3.20987   3.21607   3.21607
 Alpha virt. eigenvalues --    3.40006   3.40006   3.54919   3.72270   3.72270
 Alpha virt. eigenvalues --    3.90032   3.90032   4.04151   4.04477   4.04477
 Alpha virt. eigenvalues --    4.23524   4.23524   4.24645   4.24645   4.87034
 Alpha virt. eigenvalues --    4.87034   5.14022   5.14022   5.17762   5.83152
 Alpha virt. eigenvalues --    5.83152   5.84864   5.84864   5.85510   5.87803
 Alpha virt. eigenvalues --    5.94805   5.94805   6.00714   6.00714   6.07686
 Alpha virt. eigenvalues --    6.58767   6.80490   6.80490   7.82610   7.91907
 Alpha virt. eigenvalues --    7.91907   7.95134   7.95134   8.12974   8.70055
 Alpha virt. eigenvalues --    8.70055   8.90996   8.90996   9.53794   9.90050
 Alpha virt. eigenvalues --    9.90050  10.11267  10.11267  10.14081  10.14081
 Alpha virt. eigenvalues --   10.45615  10.48724  10.48724  10.56313  10.56313
 Alpha virt. eigenvalues --   10.80862  10.80862  10.82761  11.06137  11.06137
 Alpha virt. eigenvalues --   11.40635  11.43973  11.43973  11.44775  11.44775
 Alpha virt. eigenvalues --   11.60407  11.60407  11.78566  11.78566  11.82052
 Alpha virt. eigenvalues --   11.82052  11.85282  12.17761  12.17761  12.58831
 Alpha virt. eigenvalues --   12.58831  12.81163  12.81163  12.93472  14.61066
 Alpha virt. eigenvalues --   14.87015  14.87015  16.27958  18.45393  18.45393
 Alpha virt. eigenvalues --   18.55073  18.55073  18.76101  19.14174  19.14174
 Alpha virt. eigenvalues --   19.63553  23.32479  28.66726  32.25816  32.25816
 Alpha virt. eigenvalues --   32.28242  33.28897  33.28897  33.37640  33.37640
 Alpha virt. eigenvalues --   33.65308  41.63643  54.19742  54.38493  54.38493
 Alpha virt. eigenvalues --   71.72227  71.72227  71.79296  71.79296  71.98976
 Alpha virt. eigenvalues --   76.71493  93.72843  94.04616  94.04616 145.54187
 Alpha virt. eigenvalues --  164.50268 168.99586 169.32081 169.32081 192.04482
 Alpha virt. eigenvalues --  192.04482 192.09693 192.09693 192.25133 285.69756
 Alpha virt. eigenvalues --  318.69342 318.96885 318.96885 577.03271 627.92759
 Alpha virt. eigenvalues --  627.92759 627.96007 627.96007 628.04866 629.84321
 Alpha virt. eigenvalues --  630.05782 630.057821195.734311312.255931312.44325
 Alpha virt. eigenvalues -- 1312.443252550.426322921.008512921.165682921.16568
 Alpha virt. eigenvalues -- 5636.116487127.045597127.176967127.17696**********
 Alpha virt. eigenvalues -- **************************************************
 Alpha virt. eigenvalues -- **************************************************
 Alpha virt. eigenvalues -- ********************
     Molecular Orbital Coefficients:
                           2         3         4         5         6
                           O         O         O         O         O
     Eigenvalues --    -1.66963  -1.56629  -1.56629  -0.47756  -0.21284
   1 1   Sc 1S          0.00000   0.00000   0.00000   0.00000   0.00000
   2        2S         -0.00000   0.00000   0.00000  -0.00000  -0.00000
   3        3S          0.00000   0.00000   0.00000   0.00000   0.00000
   4        4S         -0.00000   0.00000   0.00000  -0.00000  -0.00000
   5        5S          0.00000   0.00000   0.00000   0.00000   0.00000
   6        6S         -0.00000   0.00000   0.00000  -0.00000  -0.00000
   7        7S          0.00000   0.00000   0.00000   0.00000   0.00001
   8        8S         -0.00001   0.00000   0.00000  -0.00001  -0.00002
   9        9S          0.00002   0.00000   0.00000   0.00004   0.00006
  10       10S         -0.00005   0.00000   0.00000  -0.00011  -0.00017
  11       11S          0.00012   0.00000   0.00000   0.00029   0.00043
  12       12S         -0.00024   0.00000   0.00000  -0.00065  -0.00095
  13       13S          0.00021   0.00000   0.00000   0.00103   0.00151
  14       14S          0.00301   0.00000   0.00000   0.00212   0.00297
  15       15S         -0.03342   0.00000   0.00000  -0.04274  -0.06094
  16       16S          0.21771   0.00000   0.00000   0.29738   0.41547
  17       17S         -0.00082   0.00000   0.00000  -0.01253  -0.01937
  18       18S         -0.10287   0.00000   0.00000  -0.18380  -0.27665
  19       19S         -0.08778   0.00000   0.00000  -0.15270  -0.22247
  20       20S         -0.03478   0.00000   0.00000  -0.12880   0.36011
  21       21S          0.00287   0.00000   0.00000  -0.01576   0.55851
  22       22S          0.10752   0.00000   0.00000  -0.06165   0.15600
  23       23S         -0.17595   0.00000   0.00000  -0.22847  -0.31052
  24       24S          0.02646   0.00000   0.00000   0.02947   0.03364
  25       25S          0.00028   0.00000   0.00000  -0.00201  -0.00030
  26       26PX         0.00000   0.00000  -0.00000   0.00000   0.00000
  27       26PY         0.00000  -0.00000   0.00000   0.00000   0.00000
  28       26PZ        -0.00000   0.00000   0.00000   0.00000   0.00000
  29       27PX         0.00000   0.00000   0.00000   0.00000   0.00000
  30       27PY         0.00000   0.00000   0.00000   0.00000   0.00000
  31       27PZ         0.00000   0.00000   0.00000  -0.00000  -0.00000
  32       28PX         0.00000   0.00000  -0.00000   0.00000   0.00000
  33       28PY         0.00000  -0.00000   0.00000   0.00000   0.00000
  34       28PZ        -0.00000   0.00000   0.00000   0.00000   0.00000
  35       29PX         0.00000   0.00000   0.00001   0.00000   0.00000
  36       29PY         0.00000   0.00001   0.00000   0.00000   0.00000
  37       29PZ         0.00001   0.00000   0.00000  -0.00000  -0.00000
  38       30PX         0.00000   0.00000  -0.00004   0.00000   0.00000
  39       30PY         0.00000  -0.00004   0.00000   0.00000   0.00000
  40       30PZ        -0.00004   0.00000   0.00000   0.00001   0.00000
  41       31PX         0.00000   0.00000   0.00013   0.00000   0.00000
  42       31PY         0.00000   0.00013   0.00000   0.00000   0.00000
  43       31PZ         0.00013   0.00000   0.00000  -0.00005  -0.00000
  44       32PX         0.00000   0.00000  -0.00038   0.00000   0.00000
  45       32PY         0.00000  -0.00038   0.00000   0.00000   0.00000
  46       32PZ        -0.00036   0.00000   0.00000   0.00013   0.00001
  47       33PX         0.00000   0.00000   0.00077   0.00000   0.00000
  48       33PY         0.00000   0.00077   0.00000   0.00000   0.00000
  49       33PZ         0.00073   0.00000   0.00000  -0.00029  -0.00003
  50       34PX         0.00000   0.00000   0.00124   0.00000   0.00000
  51       34PY         0.00000   0.00124   0.00000   0.00000   0.00000
  52       34PZ         0.00114   0.00000   0.00000  -0.00015   0.00006
  53       35PX         0.00000   0.00000  -0.03845   0.00000   0.00000
  54       35PY         0.00000  -0.03845   0.00000   0.00000   0.00000
  55       35PZ        -0.03574   0.00000   0.00000   0.01121   0.00018
  56       36PX         0.00000   0.00000   0.56261   0.00000   0.00000
  57       36PY         0.00000   0.56261   0.00000   0.00000   0.00000
  58       36PZ         0.51732   0.00000   0.00000  -0.18495  -0.00210
  59       37PX         0.00000   0.00000  -0.08426   0.00000   0.00000
  60       37PY         0.00000  -0.08426   0.00000   0.00000   0.00000
  61       37PZ        -0.08094   0.00000   0.00000   0.02570   0.00357
  62       38PX         0.00000   0.00000  -0.52878   0.00000   0.00000
  63       38PY         0.00000  -0.52878   0.00000   0.00000   0.00000
  64       38PZ        -0.49819   0.00000   0.00000   0.18165   0.00744
  65       39PX         0.00000   0.00000  -0.42767   0.00000   0.00000
  66       39PY         0.00000  -0.42767   0.00000   0.00000   0.00000
  67       39PZ        -0.36458   0.00000   0.00000   0.17894   0.01149
  68       40PX         0.00000   0.00000  -0.16064   0.00000   0.00000
  69       40PY         0.00000  -0.16064   0.00000   0.00000   0.00000
  70       40PZ        -0.14920   0.00000   0.00000   0.08120  -0.02862
  71       41PX         0.00000   0.00000  -0.01997   0.00000   0.00000
  72       41PY         0.00000  -0.01997   0.00000   0.00000   0.00000
  73       41PZ        -0.00318   0.00000   0.00000   0.06429  -0.02562
  74       42PX         0.00000   0.00000  -0.00015   0.00000   0.00000
  75       42PY         0.00000  -0.00015   0.00000   0.00000   0.00000
  76       42PZ         0.00382   0.00000   0.00000   0.00986  -0.00847
  77       43PX         0.00000   0.00000  -0.00073   0.00000   0.00000
  78       43PY         0.00000  -0.00073   0.00000   0.00000   0.00000
  79       43PZ        -0.03308   0.00000   0.00000   0.01431   0.01718
  80       44PX         0.00000   0.00000  -0.49715   0.00000   0.00000
  81       44PY         0.00000  -0.49715   0.00000   0.00000   0.00000
  82       44PZ        -0.45369   0.00000   0.00000   0.16984  -0.00004
  83       45PX         0.00000   0.00000   0.12073   0.00000   0.00000
  84       45PY         0.00000   0.12073   0.00000   0.00000   0.00000
  85       45PZ         0.11421   0.00000   0.00000  -0.05506  -0.00221
  86       46PX         0.00000   0.00000   0.00020   0.00000   0.00000
  87       46PY         0.00000   0.00020   0.00000   0.00000   0.00000
  88       46PZ        -0.00018   0.00000   0.00000   0.00173   0.00009
  89       47D 0       -0.00000   0.00000   0.00000   0.00001  -0.00000
  90       47D+1        0.00000   0.00000   0.00000   0.00000   0.00000
  91       47D-1        0.00000   0.00000   0.00000   0.00000   0.00000
  92       47D+2        0.00000   0.00000   0.00000  -0.00000   0.00000
  93       47D-2        0.00000   0.00000   0.00000   0.00000   0.00000
  94       48D 0        0.00001   0.00000   0.00000  -0.00001   0.00000
  95       48D+1        0.00000   0.00000  -0.00000   0.00000   0.00000
  96       48D-1        0.00000  -0.00000   0.00000   0.00000   0.00000
  97       48D+2        0.00000   0.00000   0.00000   0.00000  -0.00000
  98       48D-2        0.00000   0.00000   0.00000   0.00000   0.00000
  99       49D 0       -0.00021   0.00000   0.00000  -0.00239   0.00087
 100       49D+1        0.00000   0.00000  -0.00010   0.00000   0.00000
 101       49D-1        0.00000  -0.00010   0.00000   0.00000   0.00000
 102       49D+2        0.00000   0.00000   0.00000  -0.00000  -0.00000
 103       49D-2        0.00000   0.00000   0.00000   0.00000   0.00000
 104       50D 0        0.00437   0.00000   0.00000   0.06620  -0.02399
 105       50D+1        0.00000   0.00000   0.00300   0.00000   0.00000
 106       50D-1        0.00000   0.00300   0.00000   0.00000   0.00000
 107       50D+2       -0.00000   0.00000   0.00000  -0.00000   0.00000
 108       50D-2        0.00000   0.00000   0.00000   0.00000   0.00000
 109       51D 0        0.00323   0.00000   0.00000   0.07841  -0.02743
 110       51D+1        0.00000   0.00000   0.00422   0.00000   0.00000
 111       51D-1        0.00000   0.00422   0.00000   0.00000   0.00000
 112       51D+2       -0.00000   0.00000   0.00000  -0.00000   0.00000
 113       51D-2        0.00000   0.00000   0.00000   0.00000   0.00000
 114       52D 0        0.01278   0.00000   0.00000   0.14203  -0.04300
 115       52D+1        0.00000   0.00000   0.01015   0.00000   0.00000
 116       52D-1        0.00000   0.01015   0.00000   0.00000   0.00000
 117       52D+2        0.00000   0.00000   0.00000  -0.00000   0.00000
 118       52D-2        0.00000   0.00000   0.00000   0.00000   0.00000
 119       53D 0        0.00208   0.00000   0.00000   0.21683  -0.07587
 120       53D+1        0.00000   0.00000   0.01029   0.00000   0.00000
 121       53D-1        0.00000   0.01029   0.00000   0.00000   0.00000
 122       53D+2        0.00000   0.00000   0.00000  -0.00000   0.00000
 123       53D-2        0.00000   0.00000   0.00000   0.00000   0.00000
 124       54D 0        0.00410   0.00000   0.00000   0.20635  -0.08733
 125       54D+1        0.00000   0.00000   0.00220   0.00000   0.00000
 126       54D-1        0.00000   0.00220   0.00000   0.00000   0.00000
 127       54D+2       -0.00000   0.00000   0.00000   0.00000  -0.00000
 128       54D-2        0.00000   0.00000   0.00000   0.00000   0.00000
 129       55D 0       -0.00453   0.00000   0.00000   0.07512  -0.06789
 130       55D+1        0.00000   0.00000   0.00065   0.00000   0.00000
 131       55D-1        0.00000   0.00065   0.00000   0.00000   0.00000
 132       55D+2       -0.00000   0.00000   0.00000   0.00000  -0.00000
 133       55D-2        0.00000   0.00000   0.00000   0.00000   0.00000
 134       56D 0        0.00093   0.00000   0.00000   0.01162  -0.03108
 135       56D+1        0.00000   0.00000   0.00044   0.00000   0.00000
 136       56D-1        0.00000   0.00044   0.00000   0.00000   0.00000
 137       56D+2        0.00000   0.00000   0.00000  -0.00000   0.00000
 138       56D-2        0.00000   0.00000   0.00000   0.00000   0.00000
 139       57D 0        0.00516   0.00000   0.00000  -0.00358  -0.00617
 140       57D+1        0.00000   0.00000  -0.00010   0.00000   0.00000
 141       57D-1        0.00000  -0.00010   0.00000   0.00000   0.00000
 142       57D+2       -0.00000   0.00000   0.00000   0.00000  -0.00000
 143       57D-2        0.00000   0.00000   0.00000   0.00000   0.00000
 144       58D 0        0.00582   0.00000   0.00000   0.05061  -0.02239
 145       58D+1        0.00000   0.00000   0.00111   0.00000   0.00000
 146       58D-1        0.00000   0.00111   0.00000   0.00000   0.00000
 147       58D+2       -0.00000   0.00000   0.00000   0.00000  -0.00000
 148       58D-2        0.00000   0.00000   0.00000   0.00000   0.00000
 149       59D 0       -0.00100   0.00000   0.00000   0.03169  -0.02049
 150       59D+1        0.00000   0.00000   0.00015   0.00000   0.00000
 151       59D-1        0.00000   0.00015   0.00000   0.00000   0.00000
 152       59D+2       -0.00000   0.00000   0.00000   0.00000  -0.00000
 153       59D-2        0.00000   0.00000   0.00000   0.00000   0.00000
 154       60D 0        0.00006   0.00000   0.00000   0.00014   0.00008
 155       60D+1        0.00000   0.00000   0.00003   0.00000   0.00000
 156       60D-1        0.00000   0.00003   0.00000   0.00000   0.00000
 157       60D+2        0.00000   0.00000   0.00000  -0.00000   0.00000
 158       60D-2        0.00000   0.00000   0.00000   0.00000   0.00000
 159       61F 0       -0.00415   0.00000   0.00000  -0.00578   0.00095
 160       61F+1        0.00000   0.00000   0.00197   0.00000   0.00000
 161       61F-1        0.00000   0.00197   0.00000   0.00000   0.00000
 162       61F+2       -0.00000   0.00000   0.00000   0.00000  -0.00000
 163       61F-2        0.00000   0.00000   0.00000   0.00000   0.00000
 164       61F+3        0.00000   0.00000  -0.00000   0.00000   0.00000
 165       61F-3        0.00000  -0.00000   0.00000   0.00000   0.00000
 166       62F 0       -0.00390   0.00000   0.00000  -0.01396   0.00163
 167       62F+1        0.00000   0.00000   0.00344   0.00000   0.00000
 168       62F-1        0.00000   0.00344   0.00000   0.00000   0.00000
 169       62F+2        0.00000   0.00000   0.00000   0.00000  -0.00000
 170       62F-2        0.00000   0.00000   0.00000   0.00000   0.00000
 171       62F+3        0.00000   0.00000   0.00000   0.00000   0.00000
 172       62F-3        0.00000   0.00000   0.00000   0.00000   0.00000
 173       63F 0       -0.00503   0.00000   0.00000  -0.01607  -0.00166
 174       63F+1        0.00000   0.00000   0.00275   0.00000   0.00000
 175       63F-1        0.00000   0.00275   0.00000   0.00000   0.00000
 176       63F+2        0.00000   0.00000   0.00000  -0.00000   0.00000
 177       63F-2        0.00000   0.00000   0.00000   0.00000   0.00000
 178       63F+3        0.00000   0.00000   0.00000   0.00000   0.00000
 179       63F-3        0.00000   0.00000   0.00000   0.00000   0.00000
 180       64F 0        0.00074   0.00000   0.00000  -0.00336  -0.00196
 181       64F+1        0.00000   0.00000   0.00018   0.00000   0.00000
 182       64F-1        0.00000   0.00018   0.00000   0.00000   0.00000
 183       64F+2        0.00000   0.00000   0.00000  -0.00000   0.00000
 184       64F-2        0.00000   0.00000   0.00000   0.00000   0.00000
 185       64F+3        0.00000   0.00000   0.00000   0.00000   0.00000
 186       64F-3        0.00000  -0.00000   0.00000   0.00000   0.00000
 187       65F 0       -0.00092   0.00000   0.00000   0.00027   0.00010
 188       65F+1        0.00000   0.00000  -0.00006   0.00000   0.00000
 189       65F-1        0.00000  -0.00006   0.00000   0.00000   0.00000
 190       65F+2       -0.00000   0.00000   0.00000   0.00000  -0.00000
 191       65F-2        0.00000   0.00000   0.00000   0.00000   0.00000
 192       65F+3        0.00000   0.00000  -0.00000   0.00000   0.00000
 193       65F-3        0.00000   0.00000   0.00000   0.00000   0.00000
 194       66G 0        0.00117   0.00000   0.00000   0.00078   0.00009
 195       66G+1        0.00000   0.00000   0.00043   0.00000   0.00000
 196       66G-1        0.00000   0.00043   0.00000   0.00000   0.00000
 197       66G+2       -0.00000   0.00000   0.00000  -0.00000   0.00000
 198       66G-2        0.00000   0.00000   0.00000   0.00000   0.00000
 199       66G+3        0.00000   0.00000   0.00000   0.00000   0.00000
 200       66G-3        0.00000   0.00000   0.00000   0.00000   0.00000
 201       66G+4       -0.00000   0.00000   0.00000  -0.00000   0.00000
 202       66G-4        0.00000   0.00000   0.00000   0.00000   0.00000
 203       67G 0        0.00002   0.00000   0.00000   0.00141   0.00078
 204       67G+1        0.00000   0.00000   0.00070   0.00000   0.00000
 205       67G-1        0.00000   0.00070   0.00000   0.00000   0.00000
 206       67G+2       -0.00000   0.00000   0.00000   0.00000  -0.00000
 207       67G-2        0.00000   0.00000   0.00000   0.00000   0.00000
 208       67G+3        0.00000   0.00000  -0.00000   0.00000   0.00000
 209       67G-3        0.00000  -0.00000   0.00000   0.00000   0.00000
 210       67G+4       -0.00000   0.00000   0.00000   0.00000  -0.00000
 211       67G-4        0.00000   0.00000   0.00000   0.00000   0.00000
 212       68G 0       -0.00144   0.00000   0.00000   0.00110  -0.00039
 213       68G+1        0.00000   0.00000   0.00037   0.00000   0.00000
 214       68G-1        0.00000   0.00037   0.00000   0.00000   0.00000
 215       68G+2       -0.00000   0.00000   0.00000   0.00000  -0.00000
 216       68G-2        0.00000   0.00000   0.00000   0.00000   0.00000
 217       68G+3        0.00000   0.00000  -0.00000   0.00000   0.00000
 218       68G-3        0.00000   0.00000   0.00000   0.00000   0.00000
 219       68G+4        0.00000   0.00000   0.00000  -0.00000  -0.00000
 220       68G-4        0.00000   0.00000   0.00000   0.00000   0.00000
 221       69G 0       -0.00020   0.00000   0.00000   0.00041  -0.00035
 222       69G+1        0.00000   0.00000   0.00013   0.00000   0.00000
 223       69G-1        0.00000   0.00013   0.00000   0.00000   0.00000
 224       69G+2        0.00000   0.00000   0.00000   0.00000  -0.00000
 225       69G-2        0.00000   0.00000   0.00000   0.00000   0.00000
 226       69G+3        0.00000   0.00000  -0.00000   0.00000   0.00000
 227       69G-3        0.00000  -0.00000   0.00000   0.00000   0.00000
 228       69G+4        0.00000   0.00000   0.00000   0.00000  -0.00000
 229       69G-4        0.00000   0.00000   0.00000   0.00000   0.00000
 230       70H 0        0.00030   0.00000   0.00000  -0.00121   0.00019
 231       70H+1        0.00000   0.00000   0.00010   0.00000   0.00000
 232       70H-1        0.00000   0.00010   0.00000   0.00000   0.00000
 233       70H+2        0.00000   0.00000   0.00000   0.00000  -0.00000
 234       70H-2        0.00000   0.00000   0.00000   0.00000   0.00000
 235       70H+3        0.00000   0.00000  -0.00000   0.00000   0.00000
 236       70H-3        0.00000  -0.00000   0.00000   0.00000   0.00000
 237       70H+4        0.00000   0.00000   0.00000   0.00000  -0.00000
 238       70H-4        0.00000   0.00000   0.00000   0.00000   0.00000
 239       70H+5        0.00000   0.00000  -0.00000   0.00000   0.00000
 240       70H-5        0.00000  -0.00000   0.00000   0.00000   0.00000
 241       71H 0        0.00043   0.00000   0.00000  -0.00066   0.00045
 242       71H+1        0.00000   0.00000  -0.00035   0.00000   0.00000
 243       71H-1        0.00000  -0.00035   0.00000   0.00000   0.00000
 244       71H+2        0.00000   0.00000   0.00000  -0.00000   0.00000
 245       71H-2        0.00000   0.00000   0.00000   0.00000   0.00000
 246       71H+3        0.00000   0.00000  -0.00000   0.00000   0.00000
 247       71H-3        0.00000   0.00000   0.00000   0.00000   0.00000
 248       71H+4       -0.00000   0.00000   0.00000  -0.00000   0.00000
 249       71H-4        0.00000   0.00000   0.00000   0.00000   0.00000
 250       71H+5        0.00000   0.00000   0.00000   0.00000   0.00000
 251       71H-5        0.00000   0.00000   0.00000   0.00000   0.00000
 252       72H 0        0.00024   0.00000   0.00000  -0.00004  -0.00002
 253       72H+1        0.00000   0.00000  -0.00016   0.00000   0.00000
 254       72H-1        0.00000  -0.00016   0.00000   0.00000   0.00000
 255       72H+2        0.00000   0.00000   0.00000  -0.00000   0.00000
 256       72H-2        0.00000   0.00000   0.00000   0.00000   0.00000
 257       72H+3        0.00000   0.00000  -0.00000   0.00000   0.00000
 258       72H-3        0.00000  -0.00000   0.00000   0.00000   0.00000
 259       72H+4       -0.00000   0.00000   0.00000  -0.00000  -0.00000
 260       72H-4        0.00000   0.00000   0.00000   0.00000   0.00000
 261       72H+5        0.00000   0.00000   0.00000   0.00000   0.00000
 262       72H-5        0.00000   0.00000   0.00000   0.00000   0.00000
 263 2   H  1S          0.00024   0.00000   0.00000   0.00042  -0.00002
 264        2S          0.00829   0.00000   0.00000   0.01522  -0.00048
 265        3S          0.03566   0.00000   0.00000   0.06961  -0.00256
 266        4S          0.11320   0.00000   0.00000   0.23415  -0.00909
 267        5S          0.04722   0.00000   0.00000   0.31041  -0.00507
 268        6S          0.02358   0.00000   0.00000   0.26662  -0.00091
 269        7S         -0.11304   0.00000   0.00000   0.07497   0.06095
 270        8PX         0.00000   0.00000  -0.00285   0.00000   0.00000
 271        8PY         0.00000  -0.00285   0.00000   0.00000   0.00000
 272        8PZ         0.01015   0.00000   0.00000   0.00488  -0.00453
 273        9PX         0.00000   0.00000  -0.00240   0.00000   0.00000
 274        9PY         0.00000  -0.00240   0.00000   0.00000   0.00000
 275        9PZ         0.02942   0.00000   0.00000   0.02228  -0.01003
 276       10PX         0.00000   0.00000   0.00070   0.00000   0.00000
 277       10PY         0.00000   0.00070   0.00000   0.00000   0.00000
 278       10PZ         0.00557   0.00000   0.00000   0.00138  -0.01896
 279       11PX         0.00000   0.00000   0.00116   0.00000   0.00000
 280       11PY         0.00000   0.00116   0.00000   0.00000   0.00000
 281       11PZ         0.00677   0.00000   0.00000   0.02662  -0.01302
 282       12D 0        0.00430   0.00000   0.00000   0.00247  -0.00182
 283       12D+1        0.00000   0.00000  -0.00139   0.00000   0.00000
 284       12D-1        0.00000  -0.00139   0.00000   0.00000   0.00000
 285       12D+2       -0.00000   0.00000   0.00000   0.00000  -0.00000
 286       12D-2        0.00000   0.00000   0.00000   0.00000   0.00000
 287       13D 0        0.00892   0.00000   0.00000   0.00361  -0.00109
 288       13D+1        0.00000   0.00000  -0.00018   0.00000   0.00000
 289       13D-1        0.00000  -0.00018   0.00000   0.00000   0.00000
 290       13D+2        0.00000   0.00000   0.00000  -0.00000   0.00000
 291       13D-2        0.00000   0.00000   0.00000   0.00000   0.00000
 292       14D 0        0.00491   0.00000   0.00000  -0.00067  -0.00048
 293       14D+1        0.00000   0.00000  -0.00054   0.00000   0.00000
 294       14D-1        0.00000  -0.00054   0.00000   0.00000   0.00000
 295       14D+2        0.00000   0.00000   0.00000  -0.00000   0.00000
 296       14D-2        0.00000   0.00000   0.00000   0.00000   0.00000
 297       15F 0        0.00135   0.00000   0.00000   0.00070  -0.00053
 298       15F+1        0.00000   0.00000  -0.00046   0.00000   0.00000
 299       15F-1        0.00000  -0.00046   0.00000   0.00000   0.00000
 300       15F+2       -0.00000   0.00000   0.00000  -0.00000   0.00000
 301       15F-2        0.00000   0.00000   0.00000   0.00000   0.00000
 302       15F+3        0.00000   0.00000   0.00000   0.00000   0.00000
 303       15F-3        0.00000   0.00000   0.00000   0.00000   0.00000
 304       16F 0        0.00278   0.00000   0.00000   0.00188   0.00109
 305       16F+1        0.00000   0.00000  -0.00002   0.00000   0.00000
 306       16F-1        0.00000  -0.00002   0.00000   0.00000   0.00000
 307       16F+2        0.00000   0.00000   0.00000  -0.00000   0.00000
 308       16F-2        0.00000   0.00000   0.00000   0.00000   0.00000
 309       16F+3        0.00000   0.00000  -0.00000   0.00000   0.00000
 310       16F-3        0.00000  -0.00000   0.00000   0.00000   0.00000
                           7         8         9        10        11
                           V         V         V         V         V
     Eigenvalues --     0.01210   0.01352   0.01352   0.02147   0.02883
   1 1   Sc 1S         -0.00000   0.00000   0.00000  -0.00000   0.00000
   2        2S          0.00000   0.00000   0.00000   0.00000   0.00000
   3        3S         -0.00000   0.00000   0.00000  -0.00000   0.00000
   4        4S          0.00000   0.00000   0.00000   0.00000   0.00000
   5        5S         -0.00000   0.00000   0.00000  -0.00000   0.00000
   6        6S          0.00000   0.00000   0.00000   0.00000   0.00000
   7        7S         -0.00000   0.00000   0.00000  -0.00000   0.00000
   8        8S          0.00000   0.00000   0.00000   0.00000   0.00000
   9        9S         -0.00001   0.00000   0.00000  -0.00001   0.00000
  10       10S          0.00004   0.00000   0.00000   0.00003   0.00000
  11       11S         -0.00010   0.00000   0.00000  -0.00008   0.00000
  12       12S          0.00025   0.00000   0.00000   0.00020   0.00000
  13       13S         -0.00059   0.00000   0.00000  -0.00058   0.00000
  14       14S          0.00213   0.00000   0.00000   0.00322   0.00000
  15       15S         -0.01021   0.00000   0.00000  -0.02175   0.00000
  16       16S          0.07767   0.00000   0.00000   0.16247   0.00000
  17       17S          0.01845   0.00000   0.00000   0.01298   0.00000
  18       18S         -0.08433   0.00000   0.00000  -0.11982   0.00000
  19       19S          0.10198   0.00000   0.00000   0.03840   0.00000
  20       20S          1.21446   0.00000   0.00000  -1.55043   0.00000
  21       21S         -0.04767   0.00000   0.00000  -2.47152   0.00000
  22       22S          0.59267   0.00000   0.00000   1.29540   0.00000
  23       23S         -0.08666   0.00000   0.00000  -0.16337   0.00000
  24       24S          0.02334   0.00000   0.00000   0.04988   0.00000
  25       25S         -0.81538   0.00000   0.00000  -2.67395   0.00000
  26       26PX         0.00000   0.00000   0.00000   0.00000   0.00000
  27       26PY         0.00000   0.00000   0.00000   0.00000   0.00000
  28       26PZ        -0.00000   0.00000   0.00000  -0.00000   0.00000
  29       27PX         0.00000   0.00000  -0.00000   0.00000   0.00000
  30       27PY         0.00000  -0.00000   0.00000   0.00000  -0.00000
  31       27PZ         0.00000   0.00000   0.00000   0.00000   0.00000
  32       28PX         0.00000   0.00000   0.00000   0.00000   0.00000
  33       28PY         0.00000   0.00000   0.00000   0.00000   0.00000
  34       28PZ        -0.00000   0.00000   0.00000  -0.00000   0.00000
  35       29PX         0.00000   0.00000  -0.00000   0.00000   0.00000
  36       29PY         0.00000  -0.00000   0.00000   0.00000  -0.00000
  37       29PZ         0.00000   0.00000   0.00000   0.00001   0.00000
  38       30PX         0.00000   0.00000   0.00001   0.00000   0.00000
  39       30PY         0.00000   0.00001   0.00000   0.00000   0.00001
  40       30PZ        -0.00000   0.00000   0.00000  -0.00004   0.00000
  41       31PX         0.00000   0.00000  -0.00002   0.00000   0.00000
  42       31PY         0.00000  -0.00002   0.00000   0.00000  -0.00004
  43       31PZ         0.00000   0.00000   0.00000   0.00012   0.00000
  44       32PX         0.00000   0.00000   0.00007   0.00000   0.00000
  45       32PY         0.00000   0.00007   0.00000   0.00000   0.00013
  46       32PZ        -0.00001   0.00000   0.00000  -0.00037   0.00000
  47       33PX         0.00000   0.00000  -0.00024   0.00000   0.00000
  48       33PY         0.00000  -0.00024   0.00000   0.00000  -0.00037
  49       33PZ         0.00006   0.00000   0.00000   0.00110   0.00000
  50       34PX         0.00000   0.00000   0.00102   0.00000   0.00000
  51       34PY         0.00000   0.00102   0.00000   0.00000   0.00113
  52       34PZ        -0.00046   0.00000   0.00000  -0.00338   0.00000
  53       35PX         0.00000   0.00000  -0.00671   0.00000   0.00000
  54       35PY         0.00000  -0.00671   0.00000   0.00000  -0.00414
  55       35PZ         0.00444   0.00000   0.00000   0.01302   0.00000
  56       36PX         0.00000   0.00000   0.10836   0.00000   0.00000
  57       36PY         0.00000   0.10836   0.00000   0.00000   0.06508
  58       36PZ        -0.07575   0.00000   0.00000  -0.20853   0.00000
  59       37PX         0.00000   0.00000   0.02785   0.00000   0.00000
  60       37PY         0.00000   0.02785   0.00000   0.00000   0.03891
  61       37PZ        -0.01610   0.00000   0.00000  -0.12168   0.00000
  62       38PX         0.00000   0.00000  -0.17510   0.00000   0.00000
  63       38PY         0.00000  -0.17510   0.00000   0.00000  -0.13353
  64       38PZ         0.14781   0.00000   0.00000   0.45192   0.00000
  65       39PX         0.00000   0.00000  -0.11087   0.00000   0.00000
  66       39PY         0.00000  -0.11087   0.00000   0.00000  -0.06930
  67       39PZ         0.09197   0.00000   0.00000   0.28448   0.00000
  68       40PX         0.00000   0.00000   0.03064   0.00000   0.00000
  69       40PY         0.00000   0.03064   0.00000   0.00000   0.04510
  70       40PZ        -0.15375   0.00000   0.00000  -0.22124   0.00000
  71       41PX         0.00000   0.00000   0.08494   0.00000   0.00000
  72       41PY         0.00000   0.08494   0.00000   0.00000  -0.21598
  73       41PZ        -0.35988   0.00000   0.00000   0.83668   0.00000
  74       42PX         0.00000   0.00000   0.57267   0.00000   0.00000
  75       42PY         0.00000   0.57267   0.00000   0.00000  -0.40889
  76       42PZ        -0.60109   0.00000   0.00000   0.87366   0.00000
  77       43PX         0.00000   0.00000  -0.34914   0.00000   0.00000
  78       43PY         0.00000  -0.34914   0.00000   0.00000   0.13580
  79       43PZ         0.37471   0.00000   0.00000   0.07894   0.00000
  80       44PX         0.00000   0.00000  -0.11728   0.00000   0.00000
  81       44PY         0.00000  -0.11728   0.00000   0.00000  -0.07997
  82       44PZ         0.07982   0.00000   0.00000   0.25433   0.00000
  83       45PX         0.00000   0.00000   0.16679   0.00000   0.00000
  84       45PY         0.00000   0.16679   0.00000   0.00000   0.16660
  85       45PZ        -0.13866   0.00000   0.00000  -0.56622   0.00000
  86       46PX         0.00000   0.00000   1.07911   0.00000   0.00000
  87       46PY         0.00000   1.07911   0.00000   0.00000  -0.12491
  88       46PZ        -0.99852   0.00000   0.00000   0.59417   0.00000
  89       47D 0       -0.00000   0.00000   0.00000  -0.00000   0.00000
  90       47D+1        0.00000   0.00000  -0.00000   0.00000   0.00000
  91       47D-1        0.00000  -0.00000   0.00000   0.00000  -0.00000
  92       47D+2        0.00000   0.00000   0.00000  -0.00000   0.00000
  93       47D-2        0.00000   0.00000   0.00000   0.00000   0.00000
  94       48D 0       -0.00000   0.00000   0.00000   0.00002   0.00000
  95       48D+1        0.00000   0.00000   0.00001   0.00000   0.00000
  96       48D-1        0.00000   0.00001   0.00000   0.00000   0.00002
  97       48D+2       -0.00000   0.00000   0.00000   0.00000   0.00000
  98       48D-2        0.00000   0.00000   0.00000   0.00000   0.00000
  99       49D 0        0.00031   0.00000   0.00000  -0.00004   0.00000
 100       49D+1        0.00000   0.00000  -0.00010   0.00000   0.00000
 101       49D-1        0.00000  -0.00010   0.00000   0.00000  -0.00019
 102       49D+2        0.00000   0.00000   0.00000   0.00000   0.00000
 103       49D-2        0.00000   0.00000   0.00000   0.00000   0.00000
 104       50D 0       -0.00784   0.00000   0.00000  -0.00133   0.00000
 105       50D+1        0.00000   0.00000   0.00115   0.00000   0.00000
 106       50D-1        0.00000   0.00115   0.00000   0.00000   0.00225
 107       50D+2        0.00000   0.00000   0.00000  -0.00000   0.00000
 108       50D-2        0.00000   0.00000   0.00000   0.00000   0.00000
 109       51D 0       -0.00695   0.00000   0.00000  -0.00875   0.00000
 110       51D+1        0.00000   0.00000  -0.00306   0.00000   0.00000
 111       51D-1        0.00000  -0.00306   0.00000   0.00000  -0.00518
 112       51D+2        0.00000   0.00000   0.00000  -0.00000   0.00000
 113       51D-2        0.00000   0.00000   0.00000   0.00000   0.00000
 114       52D 0       -0.00562   0.00000   0.00000  -0.04736   0.00000
 115       52D+1        0.00000   0.00000  -0.02296   0.00000   0.00000
 116       52D-1        0.00000  -0.02296   0.00000   0.00000  -0.04235
 117       52D+2        0.00000   0.00000   0.00000  -0.00000   0.00000
 118       52D-2        0.00000   0.00000   0.00000   0.00000   0.00000
 119       53D 0       -0.00385   0.00000   0.00000  -0.06431   0.00000
 120       53D+1        0.00000   0.00000  -0.02308   0.00000   0.00000
 121       53D-1        0.00000  -0.02308   0.00000   0.00000  -0.03607
 122       53D+2        0.00000   0.00000   0.00000  -0.00000   0.00000
 123       53D-2        0.00000   0.00000   0.00000   0.00000   0.00000
 124       54D 0        0.02364   0.00000   0.00000   0.02312   0.00000
 125       54D+1        0.00000   0.00000   0.00108   0.00000   0.00000
 126       54D-1        0.00000   0.00108   0.00000   0.00000   0.05706
 127       54D+2       -0.00000   0.00000   0.00000   0.00000   0.00000
 128       54D-2        0.00000   0.00000   0.00000   0.00000   0.00000
 129       55D 0        0.08942   0.00000   0.00000  -0.22826   0.00000
 130       55D+1        0.00000   0.00000  -0.07797   0.00000   0.00000
 131       55D-1        0.00000  -0.07797   0.00000   0.00000   0.05896
 132       55D+2        0.00000   0.00000   0.00000  -0.00000   0.00000
 133       55D-2        0.00000   0.00000   0.00000   0.00000   0.00000
 134       56D 0        0.04008   0.00000   0.00000  -0.15682   0.00000
 135       56D+1        0.00000   0.00000  -0.10122   0.00000   0.00000
 136       56D-1        0.00000  -0.10122   0.00000   0.00000   0.39426
 137       56D+2       -0.00000   0.00000   0.00000   0.00000   0.00000
 138       56D-2        0.00000   0.00000   0.00000   0.00000   0.00000
 139       57D 0       -0.03695   0.00000   0.00000  -0.04313   0.00000
 140       57D+1        0.00000   0.00000   0.03408   0.00000   0.00000
 141       57D-1        0.00000   0.03408   0.00000   0.00000  -0.51098
 142       57D+2        0.00000   0.00000   0.00000  -0.00000   0.00000
[...]
  89       47D 0        0.00000   0.00000   0.00000   0.00000
  90       47D+1        0.00000   0.00000   0.00000   0.00000
  91       47D-1        0.00000   0.00000   0.00000   0.00000
  92       47D+2       -0.00000  -0.00000  -0.00000   0.00000
  93       47D-2        0.00000   0.00000   0.00000   0.00000
  94       48D 0       -0.00000  -0.00000  -0.00000   0.00000
  95       48D+1       -0.00000  -0.00000  -0.00000   0.00000
  96       48D-1       -0.00000  -0.00000  -0.00000   0.00000
  97       48D+2       -0.00000  -0.00000  -0.00000   0.00000
  98       48D-2       -0.00000  -0.00000  -0.00000   0.00000
  99       49D 0       -0.00061  -0.00031  -0.00031   0.00000
 100       49D+1       -0.00000  -0.00000  -0.00000   0.00000
 101       49D-1       -0.00000  -0.00000  -0.00000   0.00000
 102       49D+2        0.00000   0.00000   0.00000   0.00000
 103       49D-2       -0.00000  -0.00000  -0.00000   0.00000
 104       50D 0        0.03901   0.01951   0.01951   0.00000
 105       50D+1        0.00007   0.00004   0.00004   0.00000
 106       50D-1        0.00007   0.00004   0.00004   0.00000
 107       50D+2       -0.00000  -0.00000  -0.00000   0.00000
 108       50D-2        0.00000   0.00000   0.00000   0.00000
 109       51D 0        0.07974   0.03987   0.03987   0.00000
 110       51D+1        0.00017   0.00009   0.00009   0.00000
 111       51D-1        0.00017   0.00009   0.00009   0.00000
 112       51D+2        0.00000   0.00000   0.00000   0.00000
 113       51D-2        0.00000   0.00000   0.00000   0.00000
 114       52D 0        0.20687   0.10344   0.10344   0.00000
 115       52D+1        0.00053   0.00026   0.00026   0.00000
 116       52D-1        0.00053   0.00026   0.00026   0.00000
 117       52D+2       -0.00000  -0.00000  -0.00000   0.00000
 118       52D-2        0.00000   0.00000   0.00000   0.00000
 119       53D 0        0.39042   0.19521   0.19521   0.00000
 120       53D+1        0.00051   0.00026   0.00026   0.00000
 121       53D-1        0.00051   0.00026   0.00026   0.00000
 122       53D+2        0.00000   0.00000   0.00000   0.00000
 123       53D-2        0.00000   0.00000   0.00000   0.00000
 124       54D 0        0.36646   0.18323   0.18323   0.00000
 125       54D+1        0.00007   0.00004   0.00004   0.00000
 126       54D-1        0.00007   0.00004   0.00004   0.00000
 127       54D+2       -0.00000  -0.00000  -0.00000   0.00000
 128       54D-2       -0.00000  -0.00000  -0.00000   0.00000
 129       55D 0        0.10832   0.05416   0.05416   0.00000
 130       55D+1        0.00001   0.00001   0.00001   0.00000
 131       55D-1        0.00001   0.00001   0.00001   0.00000
 132       55D+2       -0.00000  -0.00000  -0.00000   0.00000
 133       55D-2       -0.00000  -0.00000  -0.00000   0.00000
 134       56D 0        0.01368   0.00684   0.00684   0.00000
 135       56D+1        0.00000   0.00000   0.00000   0.00000
 136       56D-1        0.00000   0.00000   0.00000   0.00000
 137       56D+2       -0.00000  -0.00000  -0.00000   0.00000
 138       56D-2        0.00000   0.00000   0.00000   0.00000
 139       57D 0       -0.00002  -0.00001  -0.00001   0.00000
 140       57D+1       -0.00000  -0.00000  -0.00000   0.00000
 141       57D-1       -0.00000  -0.00000  -0.00000   0.00000
 142       57D+2        0.00000   0.00000   0.00000   0.00000
 143       57D-2        0.00000   0.00000   0.00000   0.00000
 144       58D 0        0.06546   0.03273   0.03273   0.00000
 145       58D+1        0.00005   0.00003   0.00003   0.00000
 146       58D-1        0.00005   0.00003   0.00003   0.00000
 147       58D+2        0.00000   0.00000   0.00000   0.00000
 148       58D-2       -0.00000  -0.00000  -0.00000   0.00000
 149       59D 0        0.05822   0.02911   0.02911   0.00000
 150       59D+1        0.00001   0.00000   0.00000   0.00000
 151       59D-1        0.00001   0.00000   0.00000   0.00000
 152       59D+2       -0.00000  -0.00000  -0.00000   0.00000
 153       59D-2       -0.00000  -0.00000  -0.00000   0.00000
 154       60D 0        0.00001   0.00000   0.00000   0.00000
 155       60D+1        0.00000   0.00000   0.00000   0.00000
 156       60D-1        0.00000   0.00000   0.00000   0.00000
 157       60D+2       -0.00000  -0.00000  -0.00000   0.00000
 158       60D-2       -0.00000  -0.00000  -0.00000   0.00000
 159       61F 0        0.00064   0.00032   0.00032   0.00000
 160       61F+1        0.00001   0.00001   0.00001   0.00000
 161       61F-1        0.00001   0.00001   0.00001   0.00000
 162       61F+2       -0.00000  -0.00000  -0.00000   0.00000
 163       61F-2       -0.00000  -0.00000  -0.00000   0.00000
 164       61F+3       -0.00000  -0.00000  -0.00000   0.00000
 165       61F-3        0.00000   0.00000   0.00000   0.00000
 166       62F 0        0.00393   0.00196   0.00196   0.00000
 167       62F+1        0.00003   0.00001   0.00001   0.00000
 168       62F-1        0.00003   0.00001   0.00001   0.00000
 169       62F+2        0.00000   0.00000   0.00000   0.00000
 170       62F-2       -0.00000  -0.00000  -0.00000   0.00000
 171       62F+3        0.00000   0.00000   0.00000   0.00000
 172       62F-3        0.00000   0.00000   0.00000   0.00000
 173       63F 0        0.00611   0.00306   0.00306   0.00000
 174       63F+1        0.00002   0.00001   0.00001   0.00000
 175       63F-1        0.00002   0.00001   0.00001   0.00000
 176       63F+2        0.00000   0.00000   0.00000   0.00000
 177       63F-2        0.00000   0.00000   0.00000   0.00000
 178       63F+3        0.00000   0.00000   0.00000   0.00000
 179       63F-3        0.00000   0.00000   0.00000   0.00000
 180       64F 0        0.00058   0.00029   0.00029   0.00000
 181       64F+1        0.00000   0.00000   0.00000   0.00000
 182       64F-1        0.00000   0.00000   0.00000   0.00000
 183       64F+2        0.00000   0.00000   0.00000   0.00000
 184       64F-2        0.00000   0.00000   0.00000   0.00000
 185       64F+3        0.00000   0.00000   0.00000   0.00000
 186       64F-3        0.00000   0.00000   0.00000   0.00000
 187       65F 0       -0.00000  -0.00000  -0.00000   0.00000
 188       65F+1       -0.00000  -0.00000  -0.00000   0.00000
 189       65F-1       -0.00000  -0.00000  -0.00000   0.00000
 190       65F+2       -0.00000  -0.00000  -0.00000   0.00000
 191       65F-2       -0.00000  -0.00000  -0.00000   0.00000
 192       65F+3       -0.00000  -0.00000  -0.00000   0.00000
 193       65F-3       -0.00000  -0.00000  -0.00000   0.00000
 194       66G 0        0.00007   0.00003   0.00003   0.00000
 195       66G+1        0.00000   0.00000   0.00000   0.00000
 196       66G-1        0.00000   0.00000   0.00000   0.00000
 197       66G+2        0.00000   0.00000   0.00000   0.00000
 198       66G-2       -0.00000  -0.00000  -0.00000   0.00000
 199       66G+3        0.00000   0.00000   0.00000   0.00000
 200       66G-3        0.00000   0.00000   0.00000   0.00000
 201       66G+4       -0.00000  -0.00000  -0.00000   0.00000
 202       66G-4       -0.00000  -0.00000  -0.00000   0.00000
 203       67G 0        0.00026   0.00013   0.00013   0.00000
 204       67G+1        0.00000   0.00000   0.00000   0.00000
 205       67G-1        0.00000   0.00000   0.00000   0.00000
 206       67G+2        0.00000   0.00000   0.00000   0.00000
 207       67G-2       -0.00000  -0.00000  -0.00000   0.00000
 208       67G+3        0.00000   0.00000   0.00000   0.00000
 209       67G-3       -0.00000  -0.00000  -0.00000   0.00000
 210       67G+4       -0.00000  -0.00000  -0.00000   0.00000
 211       67G-4       -0.00000  -0.00000  -0.00000   0.00000
 212       68G 0        0.00009   0.00004   0.00004   0.00000
 213       68G+1        0.00000   0.00000   0.00000   0.00000
 214       68G-1        0.00000   0.00000   0.00000   0.00000
 215       68G+2       -0.00000  -0.00000  -0.00000   0.00000
 216       68G-2       -0.00000  -0.00000  -0.00000   0.00000
 217       68G+3        0.00000   0.00000   0.00000   0.00000
 218       68G-3        0.00000   0.00000   0.00000   0.00000
 219       68G+4        0.00000   0.00000   0.00000   0.00000
 220       68G-4        0.00000   0.00000   0.00000   0.00000
 221       69G 0        0.00001   0.00000   0.00000   0.00000
 222       69G+1        0.00000   0.00000   0.00000   0.00000
 223       69G-1        0.00000   0.00000   0.00000   0.00000
 224       69G+2       -0.00000  -0.00000  -0.00000   0.00000
 225       69G-2       -0.00000  -0.00000  -0.00000   0.00000
 226       69G+3        0.00000   0.00000   0.00000   0.00000
 227       69G-3        0.00000   0.00000   0.00000   0.00000
 228       69G+4        0.00000   0.00000   0.00000   0.00000
 229       69G-4        0.00000   0.00000   0.00000   0.00000
 230       70H 0        0.00004   0.00002   0.00002   0.00000
 231       70H+1       -0.00000  -0.00000  -0.00000   0.00000
 232       70H-1       -0.00000  -0.00000  -0.00000   0.00000
 233       70H+2       -0.00000  -0.00000  -0.00000   0.00000
 234       70H-2       -0.00000  -0.00000  -0.00000   0.00000
 235       70H+3        0.00000   0.00000   0.00000   0.00000
 236       70H-3       -0.00000  -0.00000  -0.00000   0.00000
 237       70H+4       -0.00000  -0.00000  -0.00000   0.00000
 238       70H-4       -0.00000  -0.00000  -0.00000   0.00000
 239       70H+5        0.00000   0.00000   0.00000   0.00000
 240       70H-5       -0.00000  -0.00000  -0.00000   0.00000
 241       71H 0        0.00005   0.00002   0.00002   0.00000
 242       71H+1        0.00000   0.00000   0.00000   0.00000
 243       71H-1        0.00000   0.00000   0.00000   0.00000
 244       71H+2       -0.00000  -0.00000  -0.00000   0.00000
 245       71H-2       -0.00000  -0.00000  -0.00000   0.00000
 246       71H+3        0.00000   0.00000   0.00000   0.00000
 247       71H-3       -0.00000  -0.00000  -0.00000   0.00000
 248       71H+4        0.00000   0.00000   0.00000   0.00000
 249       71H-4        0.00000   0.00000   0.00000   0.00000
 250       71H+5        0.00000   0.00000   0.00000   0.00000
 251       71H-5        0.00000   0.00000   0.00000   0.00000
 252       72H 0       -0.00000  -0.00000  -0.00000   0.00000
 253       72H+1        0.00000   0.00000   0.00000   0.00000
 254       72H-1        0.00000   0.00000   0.00000   0.00000
 255       72H+2       -0.00000  -0.00000  -0.00000   0.00000
 256       72H-2       -0.00000  -0.00000  -0.00000   0.00000
 257       72H+3        0.00000   0.00000   0.00000   0.00000
 258       72H-3       -0.00000  -0.00000  -0.00000   0.00000
 259       72H+4        0.00000   0.00000   0.00000   0.00000
 260       72H-4        0.00000   0.00000   0.00000   0.00000
 261       72H+5        0.00000   0.00000   0.00000   0.00000
 262       72H-5        0.00000   0.00000   0.00000   0.00000
 263 2   H  1S          0.00008   0.00004   0.00004   0.00000
 264        2S          0.00983   0.00492   0.00492   0.00000
 265        3S          0.09682   0.04841   0.04841   0.00000
 266        4S          0.43021   0.21511   0.21511   0.00000
 267        5S          0.38800   0.19400   0.19400   0.00000
 268        6S          0.21016   0.10508   0.10508   0.00000
 269        7S          0.15013   0.07506   0.07506   0.00000
 270        8PX         0.00055   0.00027   0.00027   0.00000
 271        8PY         0.00055   0.00027   0.00027   0.00000
 272        8PZ         0.00749   0.00375   0.00375   0.00000
 273        9PX         0.00123   0.00061   0.00061   0.00000
 274        9PY         0.00123   0.00061   0.00061   0.00000
 275        9PZ         0.01920   0.00960   0.00960   0.00000
 276       10PX        -0.00055  -0.00028  -0.00028   0.00000
 277       10PY        -0.00055  -0.00028  -0.00028   0.00000
 278       10PZ         0.02188   0.01094   0.01094   0.00000
 279       11PX        -0.00061  -0.00031  -0.00031   0.00000
 280       11PY        -0.00061  -0.00031  -0.00031   0.00000
 281       11PZ        -0.01265  -0.00632  -0.00632   0.00000
 282       12D 0        0.00215   0.00108   0.00108   0.00000
 283       12D+1        0.00039   0.00019   0.00019   0.00000
 284       12D-1        0.00039   0.00019   0.00019   0.00000
 285       12D+2       -0.00000  -0.00000  -0.00000   0.00000
 286       12D-2       -0.00000  -0.00000  -0.00000   0.00000
 287       13D 0       -0.00055  -0.00027  -0.00027   0.00000
 288       13D+1        0.00016   0.00008   0.00008   0.00000
 289       13D-1        0.00016   0.00008   0.00008   0.00000
 290       13D+2        0.00000   0.00000   0.00000   0.00000
 291       13D-2        0.00000   0.00000   0.00000   0.00000
 292       14D 0       -0.00393  -0.00196  -0.00196   0.00000
 293       14D+1        0.00049   0.00025   0.00025   0.00000
 294       14D-1        0.00049   0.00025   0.00025   0.00000
 295       14D+2       -0.00000  -0.00000  -0.00000   0.00000
 296       14D-2       -0.00000  -0.00000  -0.00000   0.00000
 297       15F 0        0.00054   0.00027   0.00027   0.00000
 298       15F+1        0.00022   0.00011   0.00011   0.00000
 299       15F-1        0.00022   0.00011   0.00011   0.00000
 300       15F+2       -0.00000  -0.00000  -0.00000   0.00000
 301       15F-2       -0.00000  -0.00000  -0.00000   0.00000
 302       15F+3       -0.00000  -0.00000  -0.00000   0.00000
 303       15F-3        0.00000   0.00000   0.00000   0.00000
 304       16F 0       -0.00264  -0.00132  -0.00132   0.00000
 305       16F+1        0.00002   0.00001   0.00001   0.00000
 306       16F-1        0.00002   0.00001   0.00001   0.00000
 307       16F+2       -0.00000  -0.00000  -0.00000   0.00000
 308       16F-2       -0.00000  -0.00000  -0.00000   0.00000
 309       16F+3       -0.00000  -0.00000  -0.00000   0.00000
 310       16F-3        0.00000   0.00000   0.00000   0.00000
          Condensed to atoms (all electrons):
               1          2
     1  Sc  10.813311  -0.133830
     2  H   -0.133830   1.454349
          Atomic-Atomic Spin Densities.
               1          2
     1  Sc   0.000000   0.000000
     2  H    0.000000   0.000000
 Mulliken charges and spin densities:
               1          2
     1  Sc   0.320519   0.000000
     2  H   -0.320519   0.000000
 Sum of Mulliken charges =  -0.00000   0.00000
 Mulliken charges and spin densities with hydrogens summed into heavy atoms:
               1          2
     1  Sc  -0.000000   0.000000
 Electronic spatial extent (au):  <R**2>=             54.7865
 Charge=             -0.0000 electrons
 Dipole moment (field-independent basis, Debye):
    X=              0.0000    Y=              0.0000    Z=              1.2884  Tot=              1.2884
 Quadrupole moment (field-independent basis, Debye-Ang):
   XX=            -23.5453   YY=            -23.5453   ZZ=            -22.1134
   XY=              0.0000   XZ=              0.0000   YZ=              0.0000
 Traceless Quadrupole moment (field-independent basis, Debye-Ang):
   XX=             -0.4773   YY=             -0.4773   ZZ=              0.9546
   XY=              0.0000   XZ=              0.0000   YZ=              0.0000
 Octapole moment (field-independent basis, Debye-Ang**2):
  XXX=              0.0000  YYY=              0.0000  ZZZ=              4.7234  XYY=              0.0000
  XXY=              0.0000  XXZ=              0.7729  XZZ=              0.0000  YZZ=              0.0000
  YYZ=              0.7729  XYZ=              0.0000
 Hexadecapole moment (field-independent basis, Debye-Ang**3):
 XXXX=            -85.6603 YYYY=            -85.6603 ZZZZ=            -73.8352 XXXY=              0.0000
 XXXZ=              0.0000 YYYX=              0.0000 YYYZ=              0.0000 ZZZX=              0.0000
 ZZZY=              0.0000 XXYY=            -28.5534 XXZZ=            -25.6868 YYZZ=            -25.6868
 XXYZ=              0.0000 YYXZ=              0.0000 ZZXY=              0.0000
 N-N= 5.820949320120D+00 E-N=-1.078339117635D+02  KE= 1.975290041816D+01
 Symmetry A1   KE= 1.156853943935D+01
 Symmetry A2   KE= 8.327136790118D-50
 Symmetry B1   KE= 4.092180488958D+00
 Symmetry B2   KE= 4.092180489657D+00
 Symmetry A1   SP= 0.000000000000D+00
 Symmetry A2   SP= 0.000000000000D+00
 Symmetry B1   SP= 0.000000000000D+00
 Symmetry B2   SP= 0.000000000000D+00
 Orbital energies and kinetic energies (alpha):
                                 1                 2
   2         O                -1.669629          1.915003
   3         O                -1.566291          2.046090
   4         O                -1.566291          2.046090
   5         O                -0.477563          2.303179
   6         O                -0.212844          0.433357
   7         V                 0.012098          0.066677
   8         V                 0.013520          0.046338
   9         V                 0.013520          0.046338
  10         V                 0.021469          0.031693
  11         V                 0.028827          0.030608
 Total kinetic energy from orbitals= 1.975290041816D+01
                          Isotropic Fermi Contact Couplings
        Atom                 a.u.       MegaHertz       Gauss      10(-4) cm-1
     1  Sc(45)             0.00000       0.00000       0.00000       0.00000
     2  H(1)               0.00000       0.00000       0.00000       0.00000
 --------------------------------------------------------
       Center         ----  Spin Dipole Couplings  ----
                      3XX-RR        3YY-RR        3ZZ-RR
 --------------------------------------------------------
     1   Atom        0.000000      0.000000      0.000000
     2   Atom        0.000000      0.000000      0.000000
 --------------------------------------------------------
                        XY            XZ            YZ
 --------------------------------------------------------
     1   Atom        0.000000      0.000000      0.000000
     2   Atom        0.000000      0.000000      0.000000
 --------------------------------------------------------


 ---------------------------------------------------------------------------------
              Anisotropic Spin Dipole Couplings in Principal Axis System
 ---------------------------------------------------------------------------------

       Atom             a.u.   MegaHertz   Gauss  10(-4) cm-1        Axes

              Baa     0.0000     0.000     0.000     0.000  1.0000  0.0000  0.0000
     1 Sc(45) Bbb     0.0000     0.000     0.000     0.000 -0.0000  1.0000  0.0000
              Bcc     0.0000     0.000     0.000     0.000  0.0000  0.0000  1.0000
 
              Baa     0.0000     0.000     0.000     0.000  1.0000  0.0000  0.0000
     2 H(1)   Bbb     0.0000     0.000     0.000     0.000 -0.0000  1.0000  0.0000
              Bcc     0.0000     0.000     0.000     0.000  0.0000  0.0000  1.0000
 

 ---------------------------------------------------------------------------------

 No NMR shielding tensors so no spin-rotation constants.
 Leave Link  601 at Tue Feb 13 15:43:25 2018, MaxMem=  8589934592 cpu:             134.9 elap:               4.4
 (Enter /home1/apps/gaussian/16rA.03/g16/l9999.exe)

 Test job not archived.
 1\1\GINC-C402-093\SP\ROCCSD(T)-Full\Gen\H1Sc1\AANNABE\13-Feb-2018\0\\#
 P ROCCSD(T)=(maxcyc=150, Full)/Gen 5d 7f SCF=(maxcycles=300) Integral(
 NoXCTest) MaxDisk=500GB Pop=Regular Pseudo=Read IOp(5/15=2) Guess=Read
 \\ScH\\0,1\Sc,0,0.,0.,0.\H,0,0.,0.,1.\\Version=ES64L-G16RevA.03\State=
 1-SG\HF=-46.3243366\MP2=-46.7558206\MP3=-46.7753218\PUHF=-46.3243366\P
 MP2-0=-46.7558206\MP4SDQ=-46.7747197\CCSD=-46.7745698\CCSD(T)=-46.7923
 943\RMSD=2.848e-09\PG=C*V [C*(H1Sc1)]\\@


 You don't have to suffer to be a poet.
 Adolescence is enough suffering for anyone.
                             -- John Ciardi
 Job cpu time:       0 days 11 hours 28 minutes  8.7 seconds.
 Elapsed time:       0 days  0 hours 21 minutes 35.3 seconds.
 File lengths (MBytes):  RWF=   6087 Int=      0 D2E=      0 Chk=     13 Scr=      1
 Normal termination of Gaussian 16 at Tue Feb 13 15:43:28 2018.
