 Entering Gaussian System, Link 0=g16
 Initial command:
 /home1/apps/gaussian/16rA.03/g16/l1.exe "/tmp/Gau-217583.inp" -scrdir="/tmp/"
 Entering Link 1 = /home1/apps/gaussian/16rA.03/g16/l1.exe PID=    217584.
  
 Copyright (c) 1988,1990,1992,1993,1995,1998,2003,2009,2016,
            Gaussian, Inc.  All Rights Reserved.
  
 This is part of the Gaussian(R) 16 program.  It is based on
 the Gaussian(R) 09 system (copyright 2009, Gaussian, Inc.),
 the Gaussian(R) 03 system (copyright 2003, Gaussian, Inc.),
 the Gaussian(R) 98 system (copyright 1998, Gaussian, Inc.),
 the Gaussian(R) 94 system (copyright 1995, Gaussian, Inc.),
 the Gaussian 92(TM) system (copyright 1992, Gaussian, Inc.),
 the Gaussian 90(TM) system (copyright 1990, Gaussian, Inc.),
 the Gaussian 88(TM) system (copyright 1988, Gaussian, Inc.),
 the Gaussian 86(TM) system (copyright 1986, Carnegie Mellon
 University), and the Gaussian 82(TM) system (copyright 1983,
 Carnegie Mellon University). Gaussian is a federally registered
 trademark of Gaussian, Inc.
  
 This software contains proprietary and confidential information,
 including trade secrets, belonging to Gaussian, Inc.
  
 This software is provided under written license and may be
 used, copied, transmitted, or stored only in accord with that
 written license.
  
 The following legend is applicable only to US Government
 contracts under FAR:
  
                    RESTRICTED RIGHTS LEGEND
  
 Use, reproduction and disclosure by the US Government is
 subject to restrictions as set forth in subparagraphs (a)
 and (c) of the Commercial Computer Software - Restricted
 Rights clause in FAR 52.227-19.
  
 Gaussian, Inc.
 340 Quinnipiac St., Bldg. 40, Wallingford CT 06492
  
  
 ---------------------------------------------------------------
 Warning -- This program may not be used in any manner that
 competes with the business of Gaussian, Inc. or will provide
 assistance to any competitor of Gaussian, Inc.  The licensee
 of this program is prohibited from giving any competitor of
 Gaussian, Inc. access to this program.  By using this program,
 the user acknowledges that Gaussian, Inc. is engaged in the
 business of creating and licensing software in the field of
 computational chemistry and represents and warrants to the
 licensee that it is not a competitor of Gaussian, Inc. and that
 it will not use this program in any manner prohibited above.
 ---------------------------------------------------------------
  

 Cite this work as:
 Gaussian 16, Revision A.03,
 M. J. Frisch, G. W. Trucks, H. B. Schlegel, G. E. Scuseria, 
 M. A. Robb, J. R. Cheeseman, G. Scalmani, V. Barone, 
 G. A. Petersson, H. Nakatsuji, X. Li, M. Caricato, A. V. Marenich, 
 J. Bloino, B. G. Janesko, R. Gomperts, B. Mennucci, H. P. Hratchian, 
 J. V. Ortiz, A. F. Izmaylov, J. L. Sonnenberg, D. Williams-Young, 
 F. Ding, F. Lipparini, F. Egidi, J. Goings, B. Peng, A. Petrone, 
 T. Henderson, D. Ranasinghe, V. G. Zakrzewski, J. Gao, N. Rega, 
 G. Zheng, W. Liang, M. Hada, M. Ehara, K. Toyota, R. Fukuda, 
 J. Hasegawa, M. Ishida, T. Nakajima, Y. Honda, O. Kitao, H. Nakai, 
 T. Vreven, K. Throssell, J. A. Montgomery, Jr., J. E. Peralta, 
 F. Ogliaro, M. J. Bearpark, J. J. Heyd, E. N. Brothers, K. N. Kudin, 
 V. N. Staroverov, T. A. Keith, R. Kobayashi, J. Normand, 
 K. Raghavachari, A. P. Rendell, J. C. Burant, S. S. Iyengar, 
 J. Tomasi, M. Cossi, J. M. Millam, M. Klene, C. Adamo, R. Cammi, 
 J. W. Ochterski, R. L. Martin, K. Morokuma, O. Farkas, 
 J. B. Foresman, and D. J. Fox, Gaussian, Inc., Wallingford CT, 2016.
 
 ******************************************
 Gaussian 16:  ES64L-G16RevA.03 25-Dec-2016
                 8-Mar-2018 
 ******************************************
 %mem=80GB
 %cpu=0-31
 SetSPE:  set environment variable "MP_BIND" = "yes"
 SetSPE:  set environment variable "MP_BLIST" = "0,1,2,3,4,5,6,7,8,9,10,11,12,13,14,15,16,17,18,19,20,21,22,23,24,25,26,27,28,29,30,31"
 Will use up to   32 processors via shared memory.
 %chk=5z.chk
 %rwf=/scratch/04843/gwang18/feh/
 ----------------------------------------------------------------------
 #P ROCCSD(T)=(MaxCyc=150, Full)/Gen SCF=(maxcycle=400) Integral(DKHSO,
  NoXCTest) Pop=Regular MaxDisk=500GB Guess=Read IOp(5/15=2)
 ----------------------------------------------------------------------
 1/38=1,172=1/1;
 2/12=2,17=6,18=5,40=1/2;
 3/5=7,11=2,25=1,30=1,47=8,91=5,116=101/1,2,3;
 4/5=1/1;
 5/5=2,7=400,15=2,38=6/2;
 8/5=-1,6=4,9=120000,10=90/1,4;
 9/5=7,6=150,14=2/13;
 6//1;
 99/5=1,9=1/99;
 Leave Link    1 at Thu Mar  8 12:53:34 2018, MaxMem= 10737418240 cpu:               8.4 elap:               0.3
 (Enter /home1/apps/gaussian/16rA.03/g16/l101.exe)
 ---
 FeH
 ---
 Symbolic Z-matrix:
 Charge =  0 Multiplicity = 4
 Fe                    0.        0.        0. 
 H                     0.        0.        1.7 
 
 ITRead=  0  0
 MicOpt= -1 -1
 NAtoms=      2 NQM=        2 NQMF=       0 NMMI=      0 NMMIF=      0
                NMic=       0 NMicF=      0.
                    Isotopes and Nuclear Properties:
 (Nuclear quadrupole moments (NQMom) in fm**2, nuclear magnetic moments (NMagM)
  in nuclear magnetons)

  Atom         1           2
 IAtWgt=          56           1
 AtmWgt=  55.9349393   1.0078250
 NucSpn=           0           1
 AtZEff=  -0.0000000  -0.0000000
 NQMom=    0.0000000   0.0000000
 NMagM=    0.0000000   2.7928460
 AtZNuc=  26.0000000   1.0000000
 Leave Link  101 at Thu Mar  8 12:53:34 2018, MaxMem= 10737418240 cpu:               3.3 elap:               0.1
 (Enter /home1/apps/gaussian/16rA.03/g16/l202.exe)
                          Input orientation:                          
 ---------------------------------------------------------------------
 Center     Atomic      Atomic             Coordinates (Angstroms)
 Number     Number       Type             X           Y           Z
 ---------------------------------------------------------------------
      1         26           0        0.000000    0.000000    0.000000
      2          1           0        0.000000    0.000000    1.700000
 ---------------------------------------------------------------------
 Stoichiometry    FeH(4)
 Framework group  C*V[C*(HFe)]
 Deg. of freedom     1
 Full point group                 C*V     NOp   4
 Largest Abelian subgroup         C2V     NOp   4
 Largest concise Abelian subgroup C1      NOp   1
                         Standard orientation:                         
 ---------------------------------------------------------------------
 Center     Atomic      Atomic             Coordinates (Angstroms)
 Number     Number       Type             X           Y           Z
 ---------------------------------------------------------------------
      1         26           0        0.000000    0.000000    0.062963
      2          1           0        0.000000    0.000000   -1.637037
 ---------------------------------------------------------------------
 Rotational constants (GHZ):           0.0000000         176.6402168         176.6402168
 Leave Link  202 at Thu Mar  8 12:53:34 2018, MaxMem= 10737418240 cpu:               0.7 elap:               0.1
 (Enter /home1/apps/gaussian/16rA.03/g16/l301.exe)
 General basis read from cards:  (5D, 7F)
 Centers:       1
 S 1 1.00
     Exponent=  1.4976900000D+08 Coefficients=  1.0000000000D+00
 S 1 1.00
     Exponent=  2.6722500000D+07 Coefficients=  1.0000000000D+00
 S 1 1.00
     Exponent=  5.9590000000D+06 Coefficients=  1.0000000000D+00
 S 1 1.00
     Exponent=  1.5936100000D+06 Coefficients=  1.0000000000D+00
 S 1 1.00
     Exponent=  4.9346400000D+05 Coefficients=  1.0000000000D+00
 S 1 1.00
     Exponent=  1.7179000000D+05 Coefficients=  1.0000000000D+00
 S 1 1.00
     Exponent=  6.5620900000D+04 Coefficients=  1.0000000000D+00
 S 1 1.00
     Exponent=  2.6965600000D+04 Coefficients=  1.0000000000D+00
 S 1 1.00
     Exponent=  1.1735300000D+04 Coefficients=  1.0000000000D+00
 S 1 1.00
     Exponent=  5.3434300000D+03 Coefficients=  1.0000000000D+00
 S 1 1.00
     Exponent=  2.5225000000D+03 Coefficients=  1.0000000000D+00
 S 1 1.00
     Exponent=  1.2264300000D+03 Coefficients=  1.0000000000D+00
 S 1 1.00
     Exponent=  6.1126900000D+02 Coefficients=  1.0000000000D+00
 S 1 1.00
     Exponent=  3.1130800000D+02 Coefficients=  1.0000000000D+00
 S 1 1.00
     Exponent=  1.6162400000D+02 Coefficients=  1.0000000000D+00
 S 1 1.00
     Exponent=  8.5376700000D+01 Coefficients=  1.0000000000D+00
 S 1 1.00
     Exponent=  4.5791100000D+01 Coefficients=  1.0000000000D+00
 S 1 1.00
     Exponent=  2.4867700000D+01 Coefficients=  1.0000000000D+00
 S 1 1.00
     Exponent=  1.3620200000D+01 Coefficients=  1.0000000000D+00
 S 1 1.00
     Exponent=  7.4810600000D+00 Coefficients=  1.0000000000D+00
 S 1 1.00
     Exponent=  4.0881700000D+00 Coefficients=  1.0000000000D+00
 S 1 1.00
     Exponent=  2.1990500000D+00 Coefficients=  1.0000000000D+00
 S 1 1.00
     Exponent=  1.1481500000D+00 Coefficients=  1.0000000000D+00
 S 1 1.00
     Exponent=  5.7726500000D-01 Coefficients=  1.0000000000D+00
 S 1 1.00
     Exponent=  1.9763500000D-01 Coefficients=  1.0000000000D+00
 S 1 1.00
     Exponent=  1.0898600000D-01 Coefficients=  1.0000000000D+00
 S 1 1.00
     Exponent=  5.3216000000D-02 Coefficients=  1.0000000000D+00
 S 1 1.00
     Exponent=  2.5571000000D-02 Coefficients=  1.0000000000D+00
 S 1 1.00
     Exponent=  6.6224000000D+00 Coefficients=  1.0000000000D+00
 S 1 1.00
     Exponent=  2.2140000000D+00 Coefficients=  1.0000000000D+00
 S 1 1.00
     Exponent=  1.2290000000D-02 Coefficients=  1.0000000000D+00
 P 1 1.00
     Exponent=  8.6947300000D+04 Coefficients=  1.0000000000D+00
 P 1 1.00
     Exponent=  2.1254000000D+04 Coefficients=  1.0000000000D+00
 P 1 1.00
     Exponent=  6.7411400000D+03 Coefficients=  1.0000000000D+00
 P 1 1.00
     Exponent=  2.5571600000D+03 Coefficients=  1.0000000000D+00
 P 1 1.00
     Exponent=  1.0935100000D+03 Coefficients=  1.0000000000D+00
 P 1 1.00
     Exponent=  5.0616100000D+02 Coefficients=  1.0000000000D+00
 P 1 1.00
     Exponent=  2.4713900000D+02 Coefficients=  1.0000000000D+00
 P 1 1.00
     Exponent=  1.2541500000D+02 Coefficients=  1.0000000000D+00
 P 1 1.00
     Exponent=  6.5651200000D+01 Coefficients=  1.0000000000D+00
 P 1 1.00
     Exponent=  3.5307900000D+01 Coefficients=  1.0000000000D+00
 P 1 1.00
     Exponent=  1.9426000000D+01 Coefficients=  1.0000000000D+00
 P 1 1.00
     Exponent=  1.0843800000D+01 Coefficients=  1.0000000000D+00
 P 1 1.00
     Exponent=  6.0435900000D+00 Coefficients=  1.0000000000D+00
 P 1 1.00
     Exponent=  3.3024500000D+00 Coefficients=  1.0000000000D+00
 P 1 1.00
     Exponent=  1.7638900000D+00 Coefficients=  1.0000000000D+00
 P 1 1.00
     Exponent=  9.2138600000D-01 Coefficients=  1.0000000000D+00
 P 1 1.00
     Exponent=  4.6037300000D-01 Coefficients=  1.0000000000D+00
 P 1 1.00
     Exponent=  1.8377200000D-01 Coefficients=  1.0000000000D+00
 P 1 1.00
     Exponent=  7.5833000000D-02 Coefficients=  1.0000000000D+00
 P 1 1.00
     Exponent=  3.1099000000D-02 Coefficients=  1.0000000000D+00
 P 1 1.00
     Exponent=  1.0012800000D+01 Coefficients=  1.0000000000D+00
 P 1 1.00
     Exponent=  3.1869000000D+00 Coefficients=  1.0000000000D+00
 P 1 1.00
     Exponent=  1.2750000000D-02 Coefficients=  1.0000000000D+00
 D 1 1.00
     Exponent=  5.1841600000D+02 Coefficients=  1.0000000000D+00
 D 1 1.00
     Exponent=  1.5281900000D+02 Coefficients=  1.0000000000D+00
 D 1 1.00
     Exponent=  5.8586900000D+01 Coefficients=  1.0000000000D+00
 D 1 1.00
     Exponent=  2.5456400000D+01 Coefficients=  1.0000000000D+00
 D 1 1.00
     Exponent=  1.1786800000D+01 Coefficients=  1.0000000000D+00
 D 1 1.00
     Exponent=  5.7186100000D+00 Coefficients=  1.0000000000D+00
 D 1 1.00
     Exponent=  2.8241700000D+00 Coefficients=  1.0000000000D+00
 D 1 1.00
     Exponent=  1.3798500000D+00 Coefficients=  1.0000000000D+00
 D 1 1.00
     Exponent=  6.5616000000D-01 Coefficients=  1.0000000000D+00
 D 1 1.00
     Exponent=  2.9960900000D-01 Coefficients=  1.0000000000D+00
 D 1 1.00
     Exponent=  1.2936100000D-01 Coefficients=  1.0000000000D+00
 D 1 1.00
     Exponent=  5.1155000000D-02 Coefficients=  1.0000000000D+00
 D 1 1.00
     Exponent=  7.0982000000D+00 Coefficients=  1.0000000000D+00
 D 1 1.00
     Exponent=  4.2772000000D+00 Coefficients=  1.0000000000D+00
 D 1 1.00
     Exponent=  2.0230000000D-02 Coefficients=  1.0000000000D+00
 F 1 1.00
     Exponent=  1.1047100000D+01 Coefficients=  1.0000000000D+00
 F 1 1.00
     Exponent=  4.8541000000D+00 Coefficients=  1.0000000000D+00
 F 1 1.00
     Exponent=  2.1329000000D+00 Coefficients=  1.0000000000D+00
 F 1 1.00
     Exponent=  9.3720000000D-01 Coefficients=  1.0000000000D+00
 F 1 1.00
     Exponent=  3.1410000000D-01 Coefficients=  1.0000000000D+00
 F 1 1.00
     Exponent=  1.0527000000D-01 Coefficients=  1.0000000000D+00
 G 1 1.00
     Exponent=  7.5475000000D+00 Coefficients=  1.0000000000D+00
 G 1 1.00
     Exponent=  3.6737000000D+00 Coefficients=  1.0000000000D+00
 G 1 1.00
     Exponent=  1.7881000000D+00 Coefficients=  1.0000000000D+00
 G 1 1.00
     Exponent=  6.5640000000D-01 Coefficients=  1.0000000000D+00
 G 1 1.00
     Exponent=  2.4096000000D-01 Coefficients=  1.0000000000D+00
 H 1 1.00
     Exponent=  6.9263000000D+00 Coefficients=  1.0000000000D+00
 H 1 1.00
     Exponent=  3.2527000000D+00 Coefficients=  1.0000000000D+00
 H 1 1.00
     Exponent=  1.2964000000D+00 Coefficients=  1.0000000000D+00
 H 1 1.00
     Exponent=  5.1669000000D-01 Coefficients=  1.0000000000D+00
 I 1 1.00
     Exponent=  7.0569000000D+00 Coefficients=  1.0000000000D+00
 I 1 1.00
     Exponent=  1.3776500000D+00 Coefficients=  1.0000000000D+00
 ****
 Centers:       2
 S 1 1.00
     Exponent=  4.0200000000D+02 Coefficients=  1.0000000000D+00
 S 1 1.00
     Exponent=  6.0240000000D+01 Coefficients=  1.0000000000D+00
 S 1 1.00
     Exponent=  1.3730000000D+01 Coefficients=  1.0000000000D+00
 S 1 1.00
     Exponent=  3.9050000000D+00 Coefficients=  1.0000000000D+00
 S 1 1.00
     Exponent=  1.2830000000D+00 Coefficients=  1.0000000000D+00
 S 1 1.00
     Exponent=  4.6550000000D-01 Coefficients=  1.0000000000D+00
 S 1 1.00
     Exponent=  1.8110000000D-01 Coefficients=  1.0000000000D+00
 S 1 1.00
     Exponent=  7.2790000000D-02 Coefficients=  1.0000000000D+00
 S 1 1.00
     Exponent=  2.0700000000D-02 Coefficients=  1.0000000000D+00
 P 1 1.00
     Exponent=  4.5160000000D+00 Coefficients=  1.0000000000D+00
 P 1 1.00
     Exponent=  1.7120000000D+00 Coefficients=  1.0000000000D+00
 P 1 1.00
     Exponent=  6.4900000000D-01 Coefficients=  1.0000000000D+00
 P 1 1.00
     Exponent=  2.4600000000D-01 Coefficients=  1.0000000000D+00
 P 1 1.00
     Exponent=  7.4400000000D-02 Coefficients=  1.0000000000D+00
 D 1 1.00
     Exponent=  2.9500000000D+00 Coefficients=  1.0000000000D+00
 D 1 1.00
     Exponent=  1.2060000000D+00 Coefficients=  1.0000000000D+00
 D 1 1.00
     Exponent=  4.9300000000D-01 Coefficients=  1.0000000000D+00
 D 1 1.00
     Exponent=  1.5600000000D-01 Coefficients=  1.0000000000D+00
 F 1 1.00
     Exponent=  2.5060000000D+00 Coefficients=  1.0000000000D+00
 F 1 1.00
     Exponent=  8.7500000000D-01 Coefficients=  1.0000000000D+00
 F 1 1.00
     Exponent=  2.7400000000D-01 Coefficients=  1.0000000000D+00
 G 1 1.00
     Exponent=  2.3580000000D+00 Coefficients=  1.0000000000D+00
 G 1 1.00
     Exponent=  5.4300000000D-01 Coefficients=  1.0000000000D+00
 ****
 Ernie: Thresh=  0.10000D-02 Tol=  0.10000D-05 Strict=F.
 There are   238 symmetry adapted cartesian basis functions of A1  symmetry.
 There are    73 symmetry adapted cartesian basis functions of A2  symmetry.
 There are   131 symmetry adapted cartesian basis functions of B1  symmetry.
 There are   131 symmetry adapted cartesian basis functions of B2  symmetry.
 There are   165 symmetry adapted basis functions of A1  symmetry.
 There are    56 symmetry adapted basis functions of A2  symmetry.
 There are    97 symmetry adapted basis functions of B1  symmetry.
 There are    97 symmetry adapted basis functions of B2  symmetry.
   415 basis functions,   573 primitive gaussians,   573 cartesian basis functions
    15 alpha electrons       12 beta electrons
       nuclear repulsion energy         8.0932985200 Hartrees.
 IExCor=    0 DFT=F Ex=HF Corr=None ExCW=0 ScaHFX=  1.000000
 ScaDFX=  1.000000  1.000000  1.000000  1.000000 ScalE2=  1.000000  1.000000
 IRadAn=      5 IRanWt=     -1 IRanGd=            0 ICorTp=0 IEmpDi=  4
 NAtoms=    2 NActive=    2 NUniq=    2 SFac= 1.00D+00 NAtFMM=   60 NAOKFM=F Big=F
 Integral buffers will be    131072 words long.
 Raffenetti 2 integral format.
 Two-electron integral symmetry is turned on.
 FoFCou: FMM=F IPFlag=           8 FMFlag=           0 FMFlg1=           0
         NFxFlg=           0 DoJE=F BraDBF=T KetDBF=T FulRan=T
         wScrn=  0.000000 ICntrl=       600 IOpCl=  3 I1Cent=           6 NGrid=           0
         NMat0=    1 NMatS0=      2 NMatT0=    0 NMatD0=    1 NMtDS0=    0 NMtDT0=    0
 Symmetry not used in FoFCou.
 Finite nuclear repulsion energy         8.0932985200.
 Leave Link  301 at Thu Mar  8 12:53:35 2018, MaxMem= 10737418240 cpu:              17.0 elap:               0.6
 (Enter /home1/apps/gaussian/16rA.03/g16/l302.exe)
 Using DK4 one-electron Hamiltonian with SO, DoBoet=T.
 NPDir=0 NMtPBC=     1 NCelOv=     1 NCel=       1 NClECP=     1 NCelD=      1
         NCelK=      1 NCelE2=     1 NClLst=     1 CellRange=     0.0.
 One-electron integrals computed using PRISM.
 One-electron integral symmetry used in STVInt
 FoFCou: FMM=F IPFlag=           8 FMFlag=      100000 FMFlg1=           0
         NFxFlg=           0 DoJE=T BraDBF=F KetDBF=T FulRan=T
         wScrn=  0.000000 ICntrl=       500 IOpCl=  0 I1Cent=           4 NGrid=           0
         NMat0=    1 NMatS0=      1 NMatT0=    0 NMatD0=    1 NMtDS0=    0 NMtDT0=    0
 Symmetry not used in FoFCou.
 UnConB:  Uncontracting AO basis from    415 functions to    415 functions (excluding duplicates).
 RelInt: Using uncontracted basis, NUnBas=   415 NBsUse=   415 0.100E-13 EigKep=  5.22D-10 EigRej= -1.00D+00
 NBasis=   415 RedAO= T EigKep=  6.07D-06  NBF=   165    56    97    97
 NBsUse=   407 1.00D-06 EigRej=  9.25D-07 NBFU=   161    56    95    95
 Leave Link  302 at Thu Mar  8 12:54:00 2018, MaxMem= 10737418240 cpu:             652.9 elap:              25.0
 (Enter /home1/apps/gaussian/16rA.03/g16/l303.exe)
 DipDrv:  MaxL=1.
 Leave Link  303 at Thu Mar  8 12:54:01 2018, MaxMem= 10737418240 cpu:               4.5 elap:               0.2
 (Enter /home1/apps/gaussian/16rA.03/g16/l401.exe)
 Initial guess from the checkpoint file:  "5z.chk"
 B after Tr=     0.000000    0.000000    0.000000
         Rot=    1.000000    0.000000    0.000000    0.000000 Ang=   0.00 deg.
 Guess basis will be translated and rotated to current coordinates.
 JPrj=2 DoOrth=T DoCkMO=T.
 Initial guess orbital symmetries:
       Occupied  (SG) (SG) (PI) (PI) (SG) (SG) (SG) (PI) (PI) (SG)
                 (?A) (SG) (PI) (PI) (?A)
       Virtual   (SG) (PI) (PI) (SG) (SG) (PI) (PI) (SG) (DLTA)
                 (DLTA) (PI) (PI) (SG) (SG) (SG) (PI) (PI) (SG)
                 (PI) (PI) (?A) (?A) (SG) (PI) (PI) (SG) (SG) (SG)
                 (DLTA) (DLTA) (PI) (PI) (SG) (PHI) (PHI) (PI)
                 (PI) (SG) (PI) (PI) (?A) (?A) (PI) (PI) (SG) (?A)
                 (?A) (SG) (PI) (PI) (SG) (SG) (SG) (?B) (?B) (?B)
                 (?B) (SG) (DLTA) (?B) (?B) (DLTA) (SG) (SG) (PI)
                 (PI) (DLTA) (DLTA) (DLTA) (PHI) (PHI) (DLTA) (?C)
                 (?C) (PI) (PI) (DLTA) (DLTA) (SG) (PI) (PI) (PI)
                 (PI) (SG) (SG) (SG) (?D) (?D) (DLTA) (DLTA) (?D)
                 (?D) (DLTA) (DLTA) (SG) (?D) (?D) (PI) (PI) (SG)
                 (SG) (?E) (?E) (?C) (?C) (DLTA) (DLTA) (?E) (?E)
                 (SG) (SG) (SG) (DLTA) (DLTA) (PI) (PI) (SG) (PI)
                 (PI) (SG) (DLTA) (?E) (?E) (DLTA) (?E) (?E) (SG)
                 (?E) (?E) (DLTA) (?F) (?F) (DLTA) (?E) (?E) (?F)
                 (SG) (DLTA) (DLTA) (PI) (PI) (SG) (PI) (PI) (SG)
                 (DLTA) (DLTA) (PI) (PI) (SG) (SG) (SG) (PI) (PI)
                 (SG) (DLTA) (DLTA) (PI) (PI) (SG) (SG) (PI) (PI)
                 (SG) (SG) (PI) (PI) (SG) (DLTA) (DLTA) (PI) (PI)
                 (SG) (PI) (PI) (SG) (SG) (PI) (PI) (SG) (SG) (PI)
                 (PI) (SG) (SG) (SG) (PI) (PI) (SG) (SG) (PI) (PI)
                 (SG) (SG) (SG) (SG) (SG) (SG) (DLTA) (SG) (SG)
                 (SG) (SG) (DLTA) (SG) (SG) (SG) (SG) (DLTA) (SG)
                 (SG) (DLTA) (SG) (DLTA) (?C) (SG) (SG) (DLTA)
                 (DLTA) (SG) (SG) (?C) (SG) (DLTA) (SG) (SG) (SG)
                 (DLTA) (DLTA) (SG) (SG) (SG) (?C) (DLTA) (SG)
                 (DLTA) (SG) (?C) (SG) (DLTA) (SG) (DLTA) (?C)
                 (SG) (SG) (DLTA) (SG) (?C) (SG) (DLTA) (SG) (DLTA)
                 (?C) (SG) (DLTA) (SG) (DLTA) (SG) (?C) (?C) (DLTA)
                 (DLTA) (?C) (SG) (SG) (DLTA) (DLTA) (DLTA) (DLTA)
                 (DLTA) (?C) (DLTA) (DLTA) (?C) (DLTA) (DLTA) (DLTA)
                 (?C) (DLTA) (DLTA) (?C) (DLTA) (DLTA) (?C) (DLTA)
                 (SG) (?C) (DLTA) (DLTA) (?C) (SG) (DLTA) (DLTA)
                 (?C) (?C) (DLTA) (DLTA) (?C) (PI) (PI) (PI) (PI)
                 (PI) (PI) (PI) (PHI) (PI) (PHI) (PI) (PI) (PHI)
                 (PI) (PI) (?G) (PHI) (PI) (PI) (PI) (PHI) (PI)
                 (PHI) (PI) (PI) (PHI) (?G) (PI) (PI) (PI) (PHI)
                 (PI) (?G) (PHI) (PI) (PHI) (PI) (PHI) (?G) (PI)
                 (PHI) (PI) (PHI) (PHI) (?G) (PHI) (?G) (PI) (PI)
                 (PI) (PI) (PI) (PI) (PI) (PHI) (PI) (PHI) (PI)
                 (PI) (PHI) (PI) (PI) (?G) (PHI) (PI) (PI) (PI)
                 (PHI) (PI) (PHI) (PI) (PI) (PHI) (?G) (PI) (PI)
                 (PI) (PHI) (PI) (?G) (PHI) (PI) (PHI) (PI) (PHI)
                 (?G) (PI) (PHI) (PI) (PHI) (PHI) (?G) (PHI) (?G)
 Leave Link  401 at Thu Mar  8 12:54:03 2018, MaxMem= 10737418240 cpu:              33.4 elap:               1.3
 (Enter /home1/apps/gaussian/16rA.03/g16/l502.exe)
 Keep R1 and R2 ints in memory in symmetry-blocked form, NReq=4666733380.
 FoFCou: FMM=F IPFlag=           8 FMFlag=           0 FMFlg1=           0
         NFxFlg=           0 DoJE=F BraDBF=F KetDBF=F FulRan=T
         wScrn=  0.000000 ICntrl=       600 IOpCl=  0 I1Cent=           0 NGrid=           0
         NMat0=    1 NMatS0=  86320 NMatT0=    0 NMatD0=    1 NMtDS0=    0 NMtDT0=    0
 Petite list used in FoFCou.
 Restricted open shell SCF:
 Using DIIS extrapolation, IDIIS=  1040.
 NGot= 10737418240 LenX=  8854695926 LenY=  8854367024
 Requested convergence on RMS density matrix=1.00D-08 within 400 cycles.
 Requested convergence on MAX density matrix=1.00D-06.
 Requested convergence on             energy=1.00D-06.
 No special actions if energy rises.

 Cycle   1  Pass 1  IDiag  1:
 E= -1271.81870564775    
 DIIS: error= 3.54D+00 at cycle   1 NSaved=   1.
 NSaved= 1 IEnMin= 1 EnMin= -1271.81870564775     IErMin= 1 ErrMin= 3.54D+00
 ErrMax= 3.54D+00  0.00D+00 EMaxC= 1.00D-01 BMatC= 1.29D+03 BMatP= 1.29D+03
 IDIUse=3 WtCom= 0.00D+00 WtEn= 1.00D+00
 Coeff-Com:  0.100D+01
 Coeff-En:   0.100D+01
 Coeff:      0.100D+01
 Fock symm off for IB=2 I1=    8 I=  169 J=  160 Cut=1.00D-07 Err=1.08D-07
 Fock matrix is not symmetric: symmetry in diagonalization turned off.
 Gap=    -0.307 Goal=   None    Shift=    0.000
 GapD=   -0.307 DampG=0.250 DampE=0.125 DampFc=0.1250 IDamp=-1.
 Damping current iteration by 1.25D-01
 RMSDP=4.29D-04 MaxDP=2.99D-02              OVMax= 1.00D+00

 Cycle   2  Pass 1  IDiag  1:
 E= -1271.81904504088     Delta-E=       -0.000339393129 Rises=F Damp=T
 DIIS: error= 3.09D+00 at cycle   2 NSaved=   2.
 NSaved= 2 IEnMin= 2 EnMin= -1271.81904504088     IErMin= 2 ErrMin= 3.09D+00
 ErrMax= 3.09D+00  0.00D+00 EMaxC= 1.00D-01 BMatC= 9.85D+02 BMatP= 1.29D+03
 IDIUse=3 WtCom= 0.00D+00 WtEn= 1.00D+00
 Coeff-Com: -0.700D+01 0.800D+01
 Coeff-En:   0.000D+00 0.100D+01
 Coeff:      0.000D+00 0.100D+01
 Gap=     0.009 Goal=   None    Shift=    0.000
 RMSDP=4.01D-04 MaxDP=2.64D-02 DE=-3.39D-04 OVMax= 6.53D-02

 Cycle   3  Pass 1  IDiag  1:
 Density matrix breaks symmetry, PCut= 1.00D-07
 Density matrix has no symmetry -- integrals replicated.
 E= -1271.81823655506     Delta-E=        0.000808485821 Rises=F Damp=F
 DIIS: error= 2.95D-03 at cycle   3 NSaved=   3.
 NSaved= 3 IEnMin= 2 EnMin= -1271.81904504088     IErMin= 3 ErrMin= 2.95D-03
 ErrMax= 2.95D-03  0.00D+00 EMaxC= 1.00D-01 BMatC= 1.44D-03 BMatP= 9.85D+02
 IDIUse=3 WtCom= 9.70D-01 WtEn= 2.95D-02
 Coeff-Com: -0.246D+01 0.281D+01 0.648D+00
 Coeff-En:   0.000D+00 0.561D+00 0.439D+00
 Coeff:     -0.239D+01 0.275D+01 0.642D+00
 Gap=     0.008 Goal=   None    Shift=    0.000
 RMSDP=4.86D-04 MaxDP=6.50D-02 DE= 8.08D-04 OVMax= 1.74D-01

 Cycle   4  Pass 1  IDiag  1:
 Density matrix breaks symmetry, PCut= 1.00D-07
 Density matrix has no symmetry -- integrals replicated.
 E= -1271.80671985052     Delta-E=        0.011516704536 Rises=F Damp=F
 DIIS: error= 8.46D-03 at cycle   4 NSaved=   4.
 NSaved= 4 IEnMin= 2 EnMin= -1271.81904504088     IErMin= 3 ErrMin= 2.95D-03
 ErrMax= 8.46D-03  0.00D+00 EMaxC= 1.00D-01 BMatC= 7.65D-03 BMatP= 1.44D-03
 IDIUse=3 WtCom= 9.81D-02 WtEn= 9.02D-01
 Coeff-Com: -0.195D+01 0.223D+01 0.584D+00 0.137D+00
 Coeff-En:   0.000D+00 0.000D+00 0.625D+00 0.375D+00
 Coeff:     -0.192D+00 0.219D+00 0.621D+00 0.352D+00
 Gap=     0.014 Goal=   None    Shift=    0.000
 RMSDP=1.01D-03 MaxDP=1.16D-01 DE= 1.15D-02 OVMax= 2.44D-01

 Cycle   5  Pass 1  IDiag  1:
 Density matrix breaks symmetry, PCut= 1.00D-07
 Density matrix has no symmetry -- integrals replicated.
 E= -1271.80257641614     Delta-E=        0.004143434380 Rises=F Damp=F
 DIIS: error= 8.24D-03 at cycle   5 NSaved=   5.
 NSaved= 5 IEnMin= 2 EnMin= -1271.81904504088     IErMin= 3 ErrMin= 2.95D-03
 ErrMax= 8.24D-03  0.00D+00 EMaxC= 1.00D-01 BMatC= 8.89D-03 BMatP= 1.44D-03
 IDIUse=3 WtCom= 9.92D-02 WtEn= 9.01D-01
 EnCoef did     3 forward-backward iterations
 Coeff-Com: -0.141D+01 0.161D+01 0.528D+00 0.185D+00 0.857D-01
 Coeff-En:   0.000D+00 0.000D+00 0.197D+00 0.432D+00 0.371D+00
 Coeff:     -0.140D+00 0.160D+00 0.230D+00 0.408D+00 0.343D+00
 Gap=     0.017 Goal=   None    Shift=    0.000
 RMSDP=8.01D-04 MaxDP=7.56D-02 DE= 4.14D-03 OVMax= 2.14D-01

 Cycle   6  Pass 1  IDiag  1:
 Density matrix breaks symmetry, PCut= 1.00D-07
 Density matrix has no symmetry -- integrals replicated.
 E= -1271.81145827191     Delta-E=       -0.008881855776 Rises=F Damp=F
 DIIS: error= 7.09D-03 at cycle   6 NSaved=   6.
 NSaved= 6 IEnMin= 2 EnMin= -1271.81904504088     IErMin= 3 ErrMin= 2.95D-03
 ErrMax= 7.09D-03  0.00D+00 EMaxC= 1.00D-01 BMatC= 4.95D-03 BMatP= 1.44D-03
 IDIUse=3 WtCom= 1.06D-01 WtEn= 8.94D-01
 EnCoef did     4 forward-backward iterations
 Coeff-Com: -0.111D+01 0.126D+01 0.397D+00 0.220D+00 0.138D+00 0.870D-01
 Coeff-En:   0.000D+00 0.000D+00 0.000D+00 0.382D+00 0.364D+00 0.253D+00
 Coeff:     -0.117D+00 0.134D+00 0.421D-01 0.365D+00 0.340D+00 0.236D+00
 Gap=     0.018 Goal=   None    Shift=    0.000
 RMSDP=5.75D-04 MaxDP=7.52D-02 DE=-8.88D-03 OVMax= 2.27D-01

 Cycle   7  Pass 1  IDiag  1:
 Density matrix breaks symmetry, PCut= 1.00D-07
 Density matrix has no symmetry -- integrals replicated.
 E= -1271.81306370076     Delta-E=       -0.001605428848 Rises=F Damp=F
 DIIS: error= 6.00D-03 at cycle   7 NSaved=   7.
 NSaved= 7 IEnMin= 2 EnMin= -1271.81904504088     IErMin= 3 ErrMin= 2.95D-03
 ErrMax= 6.00D-03  0.00D+00 EMaxC= 1.00D-01 BMatC= 3.20D-03 BMatP= 1.44D-03
 IDIUse=3 WtCom= 1.14D-01 WtEn= 8.86D-01
 EnCoef did     3 forward-backward iterations
 Coeff-Com: -0.915D+00 0.105D+01 0.310D+00 0.234D+00 0.164D+00 0.120D+00
 Coeff-Com:  0.417D-01
 Coeff-En:   0.000D+00 0.000D+00 0.000D+00 0.368D+00 0.353D+00 0.238D+00
 Coeff-En:   0.409D-01
 Coeff:     -0.105D+00 0.120D+00 0.354D-01 0.353D+00 0.332D+00 0.224D+00
 Coeff:      0.410D-01
 Gap=     0.019 Goal=   None    Shift=    0.000
 RMSDP=2.55D-04 MaxDP=3.12D-02 DE=-1.61D-03 OVMax= 9.22D-02

 Cycle   8  Pass 1  IDiag  1:
 Density matrix breaks symmetry, PCut= 1.00D-07
 Density matrix has no symmetry -- integrals replicated.
 E= -1271.81922227125     Delta-E=       -0.006158570487 Rises=F Damp=F
 DIIS: error= 3.52D-03 at cycle   8 NSaved=   8.
 NSaved= 8 IEnMin= 8 EnMin= -1271.81922227125     IErMin= 3 ErrMin= 2.95D-03
 ErrMax= 3.52D-03  0.00D+00 EMaxC= 1.00D-01 BMatC= 1.39D-03 BMatP= 1.44D-03
 IDIUse=3 WtCom= 9.65D-01 WtEn= 3.52D-02
 Rare condition: small coef for last iteration:  0.000D+00
 Coeff-Com: -0.884D+00 0.101D+01 0.347D+00 0.217D+00 0.147D+00 0.491D-01
 Coeff-Com: -0.588D-01 0.173D+00
 Coeff-En:   0.000D+00 0.000D+00 0.000D+00 0.297D+00 0.218D+00 0.123D+00
 Coeff-En:   0.000D+00 0.362D+00
 Coeff:     -0.884D+00 0.101D+01 0.347D+00 0.217D+00 0.147D+00 0.491D-01
 Coeff:     -0.588D-01 0.173D+00
 Gap=     0.012 Goal=   None    Shift=    0.000
 RMSDP=2.15D-04 MaxDP=2.65D-02 DE=-6.16D-03 OVMax= 8.49D-02

 Cycle   9  Pass 1  IDiag  1:
 Density matrix breaks symmetry, PCut= 1.00D-07
 Density matrix has no symmetry -- integrals replicated.
 E= -1271.82146515330     Delta-E=       -0.002242882053 Rises=F Damp=F
 DIIS: error= 1.34D-03 at cycle   9 NSaved=   9.
 NSaved= 9 IEnMin= 9 EnMin= -1271.82146515330     IErMin= 9 ErrMin= 1.34D-03
 ErrMax= 1.34D-03  0.00D+00 EMaxC= 1.00D-01 BMatC= 1.83D-04 BMatP= 1.39D-03
 IDIUse=3 WtCom= 9.87D-01 WtEn= 1.34D-02
 EnCoef did   100 forward-backward iterations
 Rare condition: small coef for last iteration:  0.747D-17
 Coeff-Com: -0.104D+01 0.119D+01 0.354D+00 0.525D-01 0.131D-01-0.391D-01
 Coeff-Com:  0.185D+00-0.310D+00 0.597D+00
 Coeff-En:   0.000D+00 0.000D+00 0.000D+00 0.259D+00 0.187D+00 0.794D-01
 Coeff-En:   0.843D-01 0.115D+00 0.276D+00
 Coeff:     -0.104D+01 0.119D+01 0.354D+00 0.525D-01 0.131D-01-0.391D-01
 Coeff:      0.185D+00-0.310D+00 0.597D+00
 Gap=     0.012 Goal=   None    Shift=    0.000
 RMSDP=8.78D-05 MaxDP=1.42D-02 DE=-2.24D-03 OVMax= 6.23D-02

 Cycle  10  Pass 1  IDiag  1:
 Density matrix breaks symmetry, PCut= 1.00D-07
 Density matrix has no symmetry -- integrals replicated.
 E= -1271.82102687565     Delta-E=        0.000438277652 Rises=F Damp=F
 DIIS: error= 1.80D-03 at cycle  10 NSaved=  10.
 NSaved=10 IEnMin= 9 EnMin= -1271.82146515330     IErMin= 9 ErrMin= 1.34D-03
 ErrMax= 1.80D-03  0.00D+00 EMaxC= 1.00D-01 BMatC= 2.71D-04 BMatP= 1.83D-04
 IDIUse=3 WtCom= 9.87D-01 WtEn= 1.34D-02
 EnCoef did   100 forward-backward iterations
 Rare condition: small coef for last iteration:  0.000D+00
 Coeff-Com: -0.114D+01 0.130D+01 0.269D+00-0.301D-01-0.567D-01-0.386D-01
 Coeff-Com:  0.140D+00-0.463D+00 0.579D+00 0.436D+00
 Coeff-En:   0.000D+00 0.000D+00 0.000D+00 0.262D+00 0.181D+00 0.943D-01
 Coeff-En:   0.765D-01 0.326D-01 0.210D+00 0.144D+00
 Coeff:     -0.114D+01 0.130D+01 0.269D+00-0.301D-01-0.567D-01-0.386D-01
 Coeff:      0.140D+00-0.463D+00 0.579D+00 0.436D+00
 Gap=     0.010 Goal=   None    Shift=    0.000
 RMSDP=2.16D-04 MaxDP=3.00D-02 DE= 4.38D-04 OVMax= 3.40D-02

 Cycle  11  Pass 1  IDiag  1:
 Density matrix breaks symmetry, PCut= 1.00D-07
 Density matrix has no symmetry -- integrals replicated.
 E= -1271.82096939614     Delta-E=        0.000057479508 Rises=F Damp=F
 DIIS: error= 1.22D-03 at cycle  11 NSaved=  11.
 NSaved=11 IEnMin= 9 EnMin= -1271.82146515330     IErMin=11 ErrMin= 1.22D-03
 ErrMax= 1.22D-03  0.00D+00 EMaxC= 1.00D-01 BMatC= 3.09D-04 BMatP= 1.83D-04
 IDIUse=3 WtCom= 9.87D-01 WtEn= 1.34D-02
 EnCoef did   100 forward-backward iterations
 Rare condition: small coef for last iteration:  0.000D+00
 Coeff-Com: -0.120D+01 0.137D+01 0.135D+00-0.949D-01-0.108D+00-0.246D-01
 Coeff-Com:  0.620D-01-0.524D+00 0.478D+00 0.695D+00 0.210D+00
 Coeff-En:   0.000D+00 0.000D+00 0.000D+00 0.264D+00 0.180D+00 0.904D-01
 Coeff-En:   0.779D-01 0.337D-01 0.197D+00 0.829D-01 0.738D-01
 Coeff:     -0.120D+01 0.137D+01 0.135D+00-0.949D-01-0.108D+00-0.246D-01
 Coeff:      0.620D-01-0.524D+00 0.478D+00 0.695D+00 0.210D+00
 Gap=     0.007 Goal=   None    Shift=    0.000
 RMSDP=2.77D-04 MaxDP=3.42D-02 DE= 5.75D-05 OVMax= 1.02D-01

 Cycle  12  Pass 1  IDiag  1:
 Density matrix breaks symmetry, PCut= 1.00D-07
 Density matrix has no symmetry -- integrals replicated.
 E= -1271.81905103529     Delta-E=        0.001918360851 Rises=F Damp=F
 DIIS: error= 3.39D-03 at cycle  12 NSaved=  12.
 NSaved=12 IEnMin= 9 EnMin= -1271.82146515330     IErMin=11 ErrMin= 1.22D-03
 ErrMax= 3.39D-03  0.00D+00 EMaxC= 1.00D-01 BMatC= 1.04D-03 BMatP= 1.83D-04
 IDIUse=3 WtCom= 9.87D-01 WtEn= 1.34D-02
 EnCoef did   100 forward-backward iterations
 Rare condition: small coef for last iteration:  0.000D+00
 Coeff-Com: -0.121D+01 0.138D+01-0.319D-03-0.146D+00-0.144D+00-0.155D-01
 Coeff-Com:  0.169D-02-0.535D+00 0.410D+00 0.812D+00 0.368D+00 0.775D-01
 Coeff-En:   0.000D+00 0.000D+00 0.000D+00 0.267D+00 0.174D+00 0.804D-01
 Coeff-En:   0.810D-01 0.132D-01 0.159D+00 0.117D-02 0.146D+00 0.791D-01
 Coeff:     -0.121D+01 0.138D+01-0.319D-03-0.146D+00-0.144D+00-0.155D-01
 Coeff:      0.169D-02-0.535D+00 0.410D+00 0.812D+00 0.368D+00 0.775D-01
 Gap=     0.005 Goal=   None    Shift=    0.000
 RMSDP=2.65D-04 MaxDP=2.85D-02 DE= 1.92D-03 OVMax= 8.65D-02

 Cycle  13  Pass 1  IDiag  1:
 Density matrix breaks symmetry, PCut= 1.00D-07
 Density matrix has no symmetry -- integrals replicated.
 E= -1271.82092415136     Delta-E=       -0.001873116072 Rises=F Damp=F
 DIIS: error= 1.88D-03 at cycle  13 NSaved=  13.
 NSaved=13 IEnMin= 9 EnMin= -1271.82146515330     IErMin=11 ErrMin= 1.22D-03
 ErrMax= 1.88D-03  0.00D+00 EMaxC= 1.00D-01 BMatC= 3.45D-04 BMatP= 1.83D-04
 IDIUse=3 WtCom= 9.87D-01 WtEn= 1.34D-02
 EnCoef did   100 forward-backward iterations
 Rare condition: small coef for last iteration:  0.000D+00
 Coeff-Com: -0.115D+01 0.131D+01-0.118D+00-0.158D+00-0.146D+00-0.188D-01
 Coeff-Com: -0.369D-02-0.440D+00 0.452D+00 0.597D+00 0.316D+00 0.853D-01
 Coeff-Com:  0.270D+00
 Coeff-En:   0.000D+00 0.000D+00 0.000D+00 0.268D+00 0.175D+00 0.801D-01
 Coeff-En:   0.815D-01 0.270D-01 0.176D+00 0.106D-01 0.666D-01 0.343D-01
 Coeff-En:   0.802D-01
 Coeff:     -0.115D+01 0.131D+01-0.118D+00-0.158D+00-0.146D+00-0.188D-01
 Coeff:     -0.369D-02-0.440D+00 0.452D+00 0.597D+00 0.316D+00 0.853D-01
 Coeff:      0.270D+00
 Gap=     0.004 Goal=   None    Shift=    0.000
 RMSDP=2.88D-04 MaxDP=4.47D-02 DE=-1.87D-03 OVMax= 2.33D-02

 Cycle  14  Pass 1  IDiag  1:
 Density matrix breaks symmetry, PCut= 1.00D-07
 Density matrix has no symmetry -- integrals replicated.
 E= -1271.82080198844     Delta-E=        0.000122162929 Rises=F Damp=F
 DIIS: error= 1.77D-03 at cycle  14 NSaved=  14.
 NSaved=14 IEnMin= 9 EnMin= -1271.82146515330     IErMin=11 ErrMin= 1.22D-03
 ErrMax= 1.77D-03  0.00D+00 EMaxC= 1.00D-01 BMatC= 4.06D-04 BMatP= 1.83D-04
 IDIUse=3 WtCom= 9.87D-01 WtEn= 1.34D-02
 EnCoef did   100 forward-backward iterations
 Rare condition: small coef for last iteration:  0.000D+00
 Coeff-Com: -0.106D+01 0.121D+01-0.222D+00-0.156D+00-0.139D+00-0.308D-01
 Coeff-Com: -0.479D-02-0.290D+00 0.539D+00 0.257D+00 0.195D+00 0.581D-01
 Coeff-Com:  0.437D+00 0.205D+00
 Coeff-En:   0.000D+00 0.000D+00 0.000D+00 0.268D+00 0.175D+00 0.811D-01
 Coeff-En:   0.811D-01 0.269D-01 0.180D+00 0.119D-01 0.667D-01 0.291D-01
 Coeff-En:   0.491D-01 0.308D-01
 Coeff:     -0.106D+01 0.121D+01-0.222D+00-0.156D+00-0.139D+00-0.308D-01
 Coeff:     -0.479D-02-0.290D+00 0.539D+00 0.257D+00 0.195D+00 0.581D-01
 Coeff:      0.437D+00 0.205D+00
 Gap=     0.004 Goal=   None    Shift=    0.000
 RMSDP=3.26D-04 MaxDP=5.38D-02 DE= 1.22D-04 OVMax= 1.87D-02

 Cycle  15  Pass 1  IDiag  1:
 Density matrix breaks symmetry, PCut= 1.00D-07
 Density matrix has no symmetry -- integrals replicated.
 E= -1271.82093017823     Delta-E=       -0.000128189799 Rises=F Damp=F
 DIIS: error= 1.52D-03 at cycle  15 NSaved=  15.
 NSaved=15 IEnMin= 9 EnMin= -1271.82146515330     IErMin=11 ErrMin= 1.22D-03
 ErrMax= 1.52D-03  0.00D+00 EMaxC= 1.00D-01 BMatC= 3.57D-04 BMatP= 1.83D-04
 IDIUse=3 WtCom= 9.87D-01 WtEn= 1.34D-02
 EnCoef did   100 forward-backward iterations
 Rare condition: small coef for last iteration:  0.482D-17
 Coeff-Com: -0.102D+01 0.116D+01-0.241D+00-0.148D+00-0.133D+00-0.425D-01
 Coeff-Com: -0.138D-01-0.200D+00 0.584D+00 0.854D-01 0.120D+00 0.325D-01
 Coeff-Com:  0.420D+00 0.235D+00 0.157D+00
 Coeff-En:   0.000D+00 0.000D+00 0.000D+00 0.268D+00 0.175D+00 0.818D-01
 Coeff-En:   0.808D-01 0.268D-01 0.181D+00 0.104D-01 0.681D-01 0.278D-01
 Coeff-En:   0.327D-01 0.153D-01 0.319D-01
 Coeff:     -0.102D+01 0.116D+01-0.241D+00-0.148D+00-0.133D+00-0.425D-01
 Coeff:     -0.138D-01-0.200D+00 0.584D+00 0.854D-01 0.120D+00 0.325D-01
 Coeff:      0.420D+00 0.235D+00 0.157D+00
 Gap=     0.004 Goal=   None    Shift=    0.000
 RMSDP=1.49D-04 MaxDP=1.93D-02 DE=-1.28D-04 OVMax= 6.02D-02

 Cycle  16  Pass 1  IDiag  1:
 Density matrix breaks symmetry, PCut= 1.00D-07
 Density matrix has no symmetry -- integrals replicated.
 E= -1271.82023515172     Delta-E=        0.000695026510 Rises=F Damp=F
 DIIS: error= 2.12D-03 at cycle  16 NSaved=  16.
 NSaved=16 IEnMin= 9 EnMin= -1271.82146515330     IErMin=11 ErrMin= 1.22D-03
 ErrMax= 2.12D-03  0.00D+00 EMaxC= 1.00D-01 BMatC= 6.23D-04 BMatP= 1.83D-04
 IDIUse=3 WtCom= 9.87D-01 WtEn= 1.34D-02
 EnCoef did   100 forward-backward iterations
 Rare condition: small coef for last iteration:  0.000D+00
 Coeff-Com: -0.953D+00 0.109D+01-0.258D+00-0.138D+00-0.125D+00-0.595D-01
 Coeff-Com: -0.291D-01-0.774D-01 0.641D+00-0.133D+00 0.216D-01-0.194D-02
 Coeff-Com:  0.373D+00 0.255D+00 0.337D+00 0.586D-01
 Coeff-En:   0.000D+00 0.000D+00 0.000D+00 0.268D+00 0.173D+00 0.818D-01
 Coeff-En:   0.805D-01 0.207D-01 0.179D+00 0.000D+00 0.686D-01 0.288D-01
 Coeff-En:   0.000D+00 0.000D+00 0.650D-01 0.335D-01
 Coeff:     -0.953D+00 0.109D+01-0.258D+00-0.138D+00-0.125D+00-0.595D-01
 Coeff:     -0.291D-01-0.774D-01 0.641D+00-0.133D+00 0.216D-01-0.194D-02
 Coeff:      0.373D+00 0.255D+00 0.337D+00 0.586D-01
 Gap=     0.004 Goal=   None    Shift=    0.000
 RMSDP=1.57D-04 MaxDP=1.65D-02 DE= 6.95D-04 OVMax= 5.22D-02

 Cycle  17  Pass 1  IDiag  1:
 Density matrix breaks symmetry, PCut= 1.00D-07
 Density matrix has no symmetry -- integrals replicated.
 E= -1271.82116425679     Delta-E=       -0.000929105065 Rises=F Damp=F
 DIIS: error= 1.58D-03 at cycle  17 NSaved=  17.
 NSaved=17 IEnMin= 9 EnMin= -1271.82146515330     IErMin=11 ErrMin= 1.22D-03
 ErrMax= 1.58D-03  0.00D+00 EMaxC= 1.00D-01 BMatC= 2.59D-04 BMatP= 1.83D-04
 IDIUse=3 WtCom= 9.87D-01 WtEn= 1.34D-02
 EnCoef did   100 forward-backward iterations
 Rare condition: small coef for last iteration:  0.000D+00
 Coeff-Com: -0.842D+00 0.962D+00-0.228D+00-0.113D+00-0.109D+00-0.812D-01
 Coeff-Com: -0.675D-01 0.792D-01 0.632D+00-0.292D+00-0.790D-01-0.292D-01
 Coeff-Com:  0.168D+00 0.165D+00 0.353D+00 0.748D-01 0.406D+00
 Coeff-En:   0.000D+00 0.000D+00 0.000D+00 0.269D+00 0.173D+00 0.817D-01
 Coeff-En:   0.805D-01 0.259D-01 0.173D+00 0.000D+00 0.589D-01 0.324D-01
 Coeff-En:   0.000D+00 0.000D+00 0.000D+00 0.234D-01 0.826D-01
 Coeff:     -0.842D+00 0.962D+00-0.228D+00-0.113D+00-0.109D+00-0.812D-01
 Coeff:     -0.675D-01 0.792D-01 0.632D+00-0.292D+00-0.790D-01-0.292D-01
 Coeff:      0.168D+00 0.165D+00 0.353D+00 0.748D-01 0.406D+00
 Gap=     0.003 Goal=   None    Shift=    0.000
 RMSDP=9.32D-05 MaxDP=1.50D-02 DE=-9.29D-04 OVMax= 4.15D-02

 Cycle  18  Pass 1  IDiag  1:
 Density matrix breaks symmetry, PCut= 1.00D-07
 Density matrix has no symmetry -- integrals replicated.
 E= -1271.82131244802     Delta-E=       -0.000148191229 Rises=F Damp=F
 DIIS: error= 1.41D-03 at cycle  18 NSaved=  18.
 NSaved=18 IEnMin= 9 EnMin= -1271.82146515330     IErMin=11 ErrMin= 1.22D-03
 ErrMax= 1.41D-03  0.00D+00 EMaxC= 1.00D-01 BMatC= 1.99D-04 BMatP= 1.83D-04
 IDIUse=3 WtCom= 9.87D-01 WtEn= 1.34D-02
 EnCoef did   100 forward-backward iterations
 Coeff-Com: -0.724D+00 0.827D+00-0.194D+00-0.913D-01-0.888D-01-0.921D-01
 Coeff-Com: -0.604D-01 0.144D+00 0.507D+00-0.218D+00-0.103D+00-0.320D-01
 Coeff-Com: -0.118D-01 0.557D-01 0.257D+00 0.560D-01 0.546D+00 0.224D+00
 Coeff-En:   0.000D+00 0.000D+00 0.000D+00 0.366D+00 0.350D+00 0.235D+00
 Coeff-En:   0.408D-01 0.798D-03 0.295D-02 0.313D-03 0.871D-03 0.726D-03
 Coeff-En:   0.000D+00 0.000D+00 0.000D+00 0.537D-03 0.104D-02 0.139D-02
 Coeff:     -0.714D+00 0.816D+00-0.192D+00-0.852D-01-0.830D-01-0.877D-01
 Coeff:     -0.591D-01 0.142D+00 0.500D+00-0.215D+00-0.102D+00-0.315D-01
 Coeff:     -0.117D-01 0.550D-01 0.254D+00 0.552D-01 0.538D+00 0.221D+00
 Gap=     0.003 Goal=   None    Shift=    0.000
 RMSDP=2.57D-05 MaxDP=2.71D-03 DE=-1.48D-04 OVMax= 8.52D-03

 Cycle  19  Pass 1  IDiag  1:
 Density matrix breaks symmetry, PCut= 1.00D-07
 Density matrix has no symmetry -- integrals replicated.
 E= -1271.82146558608     Delta-E=       -0.000153138060 Rises=F Damp=F
 DIIS: error= 1.12D-03 at cycle  19 NSaved=  19.
 NSaved=19 IEnMin=19 EnMin= -1271.82146558608     IErMin=19 ErrMin= 1.12D-03
 ErrMax= 1.12D-03  0.00D+00 EMaxC= 1.00D-01 BMatC= 1.32D-04 BMatP= 1.83D-04
 IDIUse=3 WtCom= 9.89D-01 WtEn= 1.12D-02
 EnCoef did   100 forward-backward iterations
 Rare condition: small coef for last iteration:  0.564D-15
 Coeff-Com: -0.638D+00 0.729D+00-0.167D+00-0.776D-01-0.745D-01-0.971D-01
 Coeff-Com: -0.507D-01 0.168D+00 0.395D+00-0.128D+00-0.102D+00-0.278D-01
 Coeff-Com: -0.112D+00-0.119D-01 0.174D+00 0.383D-01 0.561D+00 0.264D+00
 Coeff-Com:  0.157D+00
 Coeff-En:   0.000D+00 0.000D+00 0.000D+00 0.271D+00 0.172D+00 0.771D-01
 Coeff-En:   0.818D-01 0.387D-01 0.124D+00 0.105D-01 0.361D-01 0.364D-01
 Coeff-En:   0.000D+00 0.000D+00 0.000D+00 0.277D-01 0.415D-01 0.000D+00
 Coeff-En:   0.837D-01
 Coeff:     -0.638D+00 0.729D+00-0.167D+00-0.776D-01-0.745D-01-0.971D-01
 Coeff:     -0.507D-01 0.168D+00 0.395D+00-0.128D+00-0.102D+00-0.278D-01
 Coeff:     -0.112D+00-0.119D-01 0.174D+00 0.383D-01 0.561D+00 0.264D+00
 Coeff:      0.157D+00
 Gap=     0.004 Goal=   None    Shift=    0.000
 RMSDP=2.49D-05 MaxDP=2.34D-03 DE=-1.53D-04 OVMax= 6.14D-03

 Cycle  20  Pass 1  IDiag  1:
 Density matrix breaks symmetry, PCut= 1.00D-07
 Density matrix has no symmetry -- integrals replicated.
 E= -1271.82149845465     Delta-E=       -0.000032868575 Rises=F Damp=F
 DIIS: error= 9.81D-04 at cycle  20 NSaved=  20.
 NSaved=20 IEnMin=20 EnMin= -1271.82149845465     IErMin=20 ErrMin= 9.81D-04
 ErrMax= 9.81D-04  0.00D+00 EMaxC= 1.00D-01 BMatC= 1.18D-04 BMatP= 1.32D-04
 IDIUse=3 WtCom= 9.90D-01 WtEn= 9.81D-03
 EnCoef did   100 forward-backward iterations
 Rare condition: small coef for last iteration:  0.000D+00
 Coeff-Com: -0.381D+00 0.435D+00-0.695D-01-0.430D-01-0.362D-01-0.108D+00
 Coeff-Com: -0.505D-01 0.240D+00 0.234D-01 0.135D+00-0.543D-01-0.995D-02
 Coeff-Com: -0.255D+00-0.121D+00-0.911D-02 0.604D-02 0.381D+00-0.167D+00
 Coeff-Com:  0.247D+00 0.838D+00
 Coeff-En:   0.000D+00 0.000D+00 0.000D+00 0.271D+00 0.172D+00 0.769D-01
 Coeff-En:   0.817D-01 0.397D-01 0.112D+00 0.958D-02 0.332D-01 0.379D-01
 Coeff-En:   0.000D+00 0.000D+00 0.000D+00 0.300D-01 0.466D-01 0.000D+00
 Coeff-En:   0.187D-01 0.714D-01
 Coeff:     -0.381D+00 0.435D+00-0.695D-01-0.430D-01-0.362D-01-0.108D+00
 Coeff:     -0.505D-01 0.240D+00 0.234D-01 0.135D+00-0.543D-01-0.995D-02
 Coeff:     -0.255D+00-0.121D+00-0.911D-02 0.604D-02 0.381D+00-0.167D+00
 Coeff:      0.247D+00 0.838D+00
 Gap=     0.005 Goal=   None    Shift=    0.000
 RMSDP=3.95D-05 MaxDP=3.26D-03 DE=-3.29D-05 OVMax= 1.53D-02

 Cycle  21  Pass 1  IDiag  1:
 Density matrix breaks symmetry, PCut= 1.00D-07
 Density matrix has no symmetry -- integrals replicated.
 E= -1271.82139583681     Delta-E=        0.000102617848 Rises=F Damp=F
 DIIS: error= 1.35D-03 at cycle  21 NSaved=  20.
 NSaved=20 IEnMin=19 EnMin= -1271.82149845465     IErMin=19 ErrMin= 9.81D-04
 ErrMax= 1.35D-03  0.00D+00 EMaxC= 1.00D-01 BMatC= 1.44D-04 BMatP= 1.18D-04
 IDIUse=3 WtCom= 9.90D-01 WtEn= 9.81D-03
 EnCoef did   100 forward-backward iterations
 Coeff-Com: -0.165D+00 0.189D+00-0.144D-02-0.797D-02-0.108D+00-0.535D-01
 Coeff-Com:  0.311D+00-0.251D+00 0.281D+00-0.247D-01-0.477D-02-0.339D+00
 Coeff-Com: -0.183D+00-0.107D+00-0.779D-02 0.268D+00-0.489D+00 0.239D+00
 Coeff-Com:  0.130D+01 0.156D+00
 Coeff-En:   0.000D+00 0.000D+00 0.274D-03 0.278D+00 0.255D+00 0.241D+00
 Coeff-En:   0.274D-02 0.720D-02 0.655D-03 0.219D-02 0.427D-01 0.000D+00
 Coeff-En:   0.000D+00 0.000D+00 0.215D-02 0.348D-02 0.000D+00 0.145D-02
 Coeff-En:   0.380D-02 0.159D+00
 Coeff:     -0.164D+00 0.187D+00-0.142D-02-0.516D-02-0.104D+00-0.506D-01
 Coeff:      0.308D+00-0.249D+00 0.278D+00-0.245D-01-0.430D-02-0.336D+00
 Coeff:     -0.181D+00-0.106D+00-0.770D-02 0.265D+00-0.484D+00 0.237D+00
 Coeff:      0.129D+01 0.156D+00
 Gap=     0.006 Goal=   None    Shift=    0.000
 RMSDP=3.40D-05 MaxDP=3.71D-03 DE= 1.03D-04 OVMax= 1.33D-02

 Cycle  22  Pass 1  IDiag  1:
 Density matrix breaks symmetry, PCut= 1.00D-07
 Density matrix has no symmetry -- integrals replicated.
 E= -1271.82124826789     Delta-E=        0.000147568921 Rises=F Damp=F
 DIIS: error= 1.74D-03 at cycle  22 NSaved=  20.
 NSaved=20 IEnMin=18 EnMin= -1271.82149845465     IErMin=18 ErrMin= 9.81D-04
 ErrMax= 1.74D-03  0.00D+00 EMaxC= 1.00D-01 BMatC= 1.90D-04 BMatP= 1.18D-04
 IDIUse=3 WtCom= 9.90D-01 WtEn= 9.81D-03
 EnCoef did   100 forward-backward iterations
 Coeff-Com: -0.110D+00 0.126D+00-0.769D-02-0.782D-01-0.514D-01 0.274D+00
 Coeff-Com: -0.276D+00 0.242D+00 0.193D-01-0.126D-01-0.200D+00-0.865D-01
 Coeff-Com:  0.238D-01 0.284D-01 0.205D+00-0.713D+00-0.440D-01 0.106D+01
 Coeff-Com:  0.208D+00 0.389D+00
 Coeff-En:   0.000D+00 0.000D+00 0.456D-04 0.101D+00 0.312D+00 0.455D-03
 Coeff-En:   0.120D-02 0.109D-03 0.364D-03 0.711D-02 0.000D+00 0.000D+00
 Coeff-En:   0.000D+00 0.357D-03 0.579D-03 0.000D+00 0.241D-03 0.632D-03
 Coeff-En:   0.400D-02 0.572D+00
 Coeff:     -0.109D+00 0.125D+00-0.761D-02-0.765D-01-0.479D-01 0.271D+00
 Coeff:     -0.273D+00 0.240D+00 0.191D-01-0.124D-01-0.198D+00-0.856D-01
 Coeff:      0.236D-01 0.282D-01 0.203D+00-0.706D+00-0.435D-01 0.105D+01
 Coeff:      0.206D+00 0.390D+00
 Gap=     0.007 Goal=   None    Shift=    0.000
 RMSDP=4.18D-05 MaxDP=4.44D-03 DE= 1.48D-04 OVMax= 1.04D-02

 Cycle  23  Pass 1  IDiag  1:
 Density matrix breaks symmetry, PCut= 1.00D-07
 Density matrix has no symmetry -- integrals replicated.
 E= -1271.82148273571     Delta-E=       -0.000234467820 Rises=F Damp=F
 DIIS: error= 1.33D-03 at cycle  23 NSaved=  20.
 NSaved=20 IEnMin=17 EnMin= -1271.82149845465     IErMin=17 ErrMin= 9.81D-04
 ErrMax= 1.33D-03  0.00D+00 EMaxC= 1.00D-01 BMatC= 1.03D-04 BMatP= 1.18D-04
 IDIUse=3 WtCom= 9.90D-01 WtEn= 9.81D-03
 EnCoef did   100 forward-backward iterations
 Coeff-Com:  0.347D-01-0.397D-01-0.459D-01-0.101D-01 0.939D-01-0.311D+00
 Coeff-Com:  0.234D+00 0.118D+00-0.756D-02 0.105D+00 0.882D-01 0.184D+00
 Coeff-Com:  0.623D-01 0.206D-01-0.956D+00-0.459D+00 0.520D+00 0.183D+00
 Coeff-Com:  0.629D+00 0.556D+00
 Coeff-En:   0.000D+00 0.000D+00 0.280D-04 0.325D+00 0.280D-03 0.737D-03
 Coeff-En:   0.670D-04 0.224D-03 0.437D-02 0.000D+00 0.000D+00 0.000D+00
 Coeff-En:   0.219D-03 0.356D-03 0.000D+00 0.148D-03 0.388D-03 0.246D-02
 Coeff-En:   0.665D+00 0.965D-03
 Coeff:      0.344D-01-0.393D-01-0.455D-01-0.677D-02 0.930D-01-0.308D+00
 Coeff:      0.232D+00 0.117D+00-0.744D-02 0.103D+00 0.873D-01 0.183D+00
 Coeff:      0.617D-01 0.204D-01-0.947D+00-0.454D+00 0.515D+00 0.181D+00
 Coeff:      0.630D+00 0.551D+00
 Gap=     0.009 Goal=   None    Shift=    0.000
 RMSDP=6.15D-05 MaxDP=8.16D-03 DE=-2.34D-04 OVMax= 2.20D-02

 Cycle  24  Pass 1  IDiag  1:
 Density matrix breaks symmetry, PCut= 1.00D-07
 Density matrix has no symmetry -- integrals replicated.
 E= -1271.82174403585     Delta-E=       -0.000261300148 Rises=F Damp=F
 DIIS: error= 4.05D-04 at cycle  24 NSaved=  20.
 NSaved=20 IEnMin=20 EnMin= -1271.82174403585     IErMin=20 ErrMin= 4.05D-04
 ErrMax= 4.05D-04  0.00D+00 EMaxC= 1.00D-01 BMatC= 1.26D-05 BMatP= 1.03D-04
 IDIUse=3 WtCom= 9.96D-01 WtEn= 4.05D-03
 EnCoef did   100 forward-backward iterations
 Coeff-Com:  0.450D-01-0.514D-01-0.427D-01 0.757D-01-0.227D+00 0.139D+00
 Coeff-Com:  0.586D-01-0.159D-01 0.541D-01 0.578D-01 0.157D+00 0.438D-01
 Coeff-Com:  0.108D+00-0.656D+00-0.332D+00 0.326D+00 0.102D+00 0.375D+00
 Coeff-Com:  0.535D+00 0.248D+00
 Coeff-En:   0.000D+00 0.000D+00 0.000D+00 0.299D+00 0.262D-02 0.000D+00
 Coeff-En:   0.170D-02 0.114D+00 0.000D+00 0.000D+00 0.000D+00 0.253D-01
 Coeff-En:   0.328D-02 0.485D-04 0.717D-03 0.302D-04 0.306D-02 0.543D+00
 Coeff-En:   0.547D-03 0.686D-02
 Coeff:      0.448D-01-0.512D-01-0.426D-01 0.766D-01-0.226D+00 0.139D+00
 Coeff:      0.584D-01-0.154D-01 0.538D-01 0.576D-01 0.156D+00 0.437D-01
 Coeff:      0.108D+00-0.653D+00-0.331D+00 0.324D+00 0.101D+00 0.376D+00
 Coeff:      0.533D+00 0.247D+00
 Gap=     0.008 Goal=   None    Shift=    0.000
 RMSDP=5.60D-05 MaxDP=7.09D-03 DE=-2.61D-04 OVMax= 9.38D-03

 Cycle  25  Pass 1  IDiag  1:
 Density matrix breaks symmetry, PCut= 1.00D-07
 Density matrix has no symmetry -- integrals replicated.
 E= -1271.82177238949     Delta-E=       -0.000028353640 Rises=F Damp=F
 DIIS: error= 1.25D-04 at cycle  25 NSaved=  20.
 NSaved=20 IEnMin=20 EnMin= -1271.82177238949     IErMin=20 ErrMin= 1.25D-04
 ErrMax= 1.25D-04  0.00D+00 EMaxC= 1.00D-01 BMatC= 2.32D-06 BMatP= 1.26D-05
 IDIUse=3 WtCom= 9.99D-01 WtEn= 1.25D-03
 EnCoef did   100 forward-backward iterations
 Rare condition: small coef for last iteration:  0.343D-15
 Coeff-Com:  0.524D-01-0.599D-01 0.323D-01-0.258D+00 0.233D+00 0.753D-01
 Coeff-Com: -0.328D-02-0.586D-02 0.104D-01 0.723D-01 0.250D-01 0.660D-01
 Coeff-Com: -0.603D+00-0.251D+00 0.401D+00 0.107D+00 0.312D+00 0.394D+00
 Coeff-Com:  0.169D+00 0.232D+00
 Coeff-En:   0.000D+00 0.000D+00 0.907D-01 0.646D-01 0.000D+00 0.337D-01
 Coeff-En:   0.136D+00 0.000D+00 0.000D+00 0.000D+00 0.110D+00 0.137D+00
 Coeff-En:   0.209D-02 0.000D+00 0.000D+00 0.000D+00 0.409D-01 0.776D-01
 Coeff-En:   0.831D-01 0.224D+00
 Coeff:      0.524D-01-0.599D-01 0.323D-01-0.258D+00 0.233D+00 0.753D-01
 Coeff:     -0.328D-02-0.586D-02 0.104D-01 0.723D-01 0.250D-01 0.660D-01
 Coeff:     -0.603D+00-0.251D+00 0.401D+00 0.107D+00 0.312D+00 0.394D+00
 Coeff:      0.169D+00 0.232D+00
 Gap=     0.008 Goal=   None    Shift=    0.000
 RMSDP=4.86D-05 MaxDP=7.40D-03 DE=-2.84D-05 OVMax= 3.49D-03

 Cycle  26  Pass 1  IDiag  1:
 Density matrix breaks symmetry, PCut= 1.00D-07
 Density matrix has no symmetry -- integrals replicated.
 E= -1271.82177169369     Delta-E=        0.000000695800 Rises=F Damp=F
 DIIS: error= 1.16D-04 at cycle  26 NSaved=  20.
 NSaved=20 IEnMin=19 EnMin= -1271.82177238949     IErMin=20 ErrMin= 1.16D-04
 ErrMax= 1.16D-04  0.00D+00 EMaxC= 1.00D-01 BMatC= 2.52D-06 BMatP= 2.32D-06
 IDIUse=3 WtCom= 9.99D-01 WtEn= 1.16D-03
 EnCoef did   100 forward-backward iterations
 Rare condition: small coef for last iteration:  0.000D+00
 Coeff-Com: -0.724D-09 0.151D-01-0.132D+00 0.152D+00 0.246D-01-0.336D-02
 Coeff-Com: -0.468D-01-0.133D-01 0.206D-01 0.107D-01 0.871D-01-0.297D+00
 Coeff-Com: -0.964D-01 0.263D+00 0.881D-01 0.203D+00 0.967D-01-0.882D-01
 Coeff-Com:  0.360D+00 0.357D+00
 Coeff-En:   0.000D+00 0.907D-01 0.646D-01 0.000D+00 0.343D-01 0.134D+00
 Coeff-En:   0.000D+00 0.000D+00 0.000D+00 0.110D+00 0.137D+00 0.633D-03
 Coeff-En:   0.000D+00 0.000D+00 0.000D+00 0.412D-01 0.799D-01 0.588D-01
 Coeff-En:   0.132D+00 0.116D+00
 Coeff:     -0.724D-09 0.151D-01-0.132D+00 0.152D+00 0.246D-01-0.336D-02
 Coeff:     -0.468D-01-0.133D-01 0.206D-01 0.107D-01 0.871D-01-0.297D+00
 Coeff:     -0.964D-01 0.263D+00 0.881D-01 0.203D+00 0.967D-01-0.882D-01
 Coeff:      0.360D+00 0.357D+00
 Gap=     0.007 Goal=   None    Shift=    0.000
 RMSDP=5.13D-05 MaxDP=7.18D-03 DE= 6.96D-07 OVMax= 3.15D-03

 Cycle  27  Pass 1  IDiag  1:
 Density matrix breaks symmetry, PCut= 1.00D-07
 Density matrix has no symmetry -- integrals replicated.
 E= -1271.82177207255     Delta-E=       -0.000000378855 Rises=F Damp=F
 DIIS: error= 1.43D-04 at cycle  27 NSaved=  20.
 NSaved=20 IEnMin=18 EnMin= -1271.82177238949     IErMin=19 ErrMin= 1.16D-04
 ErrMax= 1.43D-04  0.00D+00 EMaxC= 1.00D-01 BMatC= 1.78D-06 BMatP= 2.32D-06
 IDIUse=3 WtCom= 9.99D-01 WtEn= 1.16D-03
 EnCoef did   100 forward-backward iterations
 Rare condition: small coef for last iteration:  0.542D-17
 Coeff-Com:  0.327D-02-0.117D-01 0.518D-01-0.283D-01-0.154D-01-0.815D-01
 Coeff-Com: -0.281D-01-0.328D-02 0.787D-02 0.105D+00-0.273D-01 0.370D-02
 Coeff-Com:  0.662D-01 0.772D-01 0.170D+00-0.207D+00-0.461D+00 0.186D+00
 Coeff-Com:  0.641D+00 0.553D+00
 Coeff-En:   0.911D-01 0.674D-01 0.000D+00 0.354D-01 0.133D+00 0.000D+00
 Coeff-En:   0.000D+00 0.000D+00 0.110D+00 0.135D+00 0.000D+00 0.000D+00
 Coeff-En:   0.000D+00 0.000D+00 0.409D-01 0.793D-01 0.405D-01 0.981D-01
 Coeff-En:   0.815D-01 0.877D-01
 Coeff:      0.327D-02-0.117D-01 0.518D-01-0.283D-01-0.154D-01-0.815D-01
 Coeff:     -0.281D-01-0.328D-02 0.787D-02 0.105D+00-0.273D-01 0.370D-02
 Coeff:      0.662D-01 0.772D-01 0.170D+00-0.207D+00-0.461D+00 0.186D+00
 Coeff:      0.641D+00 0.553D+00
 Gap=     0.006 Goal=   None    Shift=    0.000
 RMSDP=3.97D-05 MaxDP=5.42D-03 DE=-3.79D-07 OVMax= 2.18D-03

 Cycle  28  Pass 1  IDiag  1:
 Density matrix breaks symmetry, PCut= 1.00D-07
 Density matrix has no symmetry -- integrals replicated.
 E= -1271.82177228770     Delta-E=       -0.000000215152 Rises=F Damp=F
 DIIS: error= 1.62D-04 at cycle  28 NSaved=  20.
 NSaved=20 IEnMin=17 EnMin= -1271.82177238949     IErMin=18 ErrMin= 1.16D-04
 ErrMax= 1.62D-04  0.00D+00 EMaxC= 1.00D-01 BMatC= 1.50D-06 BMatP= 1.78D-06
 IDIUse=3 WtCom= 9.99D-01 WtEn= 1.16D-03
 EnCoef did   100 forward-backward iterations
 Coeff-Com: -0.212D-02-0.613D-01 0.115D+00 0.937D-02-0.546D-01-0.317D-01
 Coeff-Com: -0.432D-01-0.103D-02 0.529D-01-0.715D-01-0.462D-03 0.108D+00
 Coeff-Com:  0.616D-01 0.185D+00-0.181D+00-0.399D+00 0.615D-01 0.416D+00
 Coeff-Com:  0.458D+00 0.378D+00
 Coeff-En:   0.341D+00 0.381D-02 0.448D-03 0.000D+00 0.000D+00 0.000D+00
 Coeff-En:   0.212D-03 0.486D-01 0.117D-02 0.000D+00 0.000D+00 0.000D+00
 Coeff-En:   0.450D-02 0.586D+00 0.295D-02 0.123D-02 0.356D-02 0.261D-02
 Coeff-En:   0.205D-02 0.219D-02
 Coeff:     -0.172D-02-0.612D-01 0.115D+00 0.936D-02-0.545D-01-0.317D-01
 Coeff:     -0.432D-01-0.977D-03 0.528D-01-0.714D-01-0.461D-03 0.108D+00
 Coeff:      0.615D-01 0.186D+00-0.181D+00-0.399D+00 0.615D-01 0.416D+00
 Coeff:      0.457D+00 0.378D+00
 Gap=     0.006 Goal=   None    Shift=    0.000
 RMSDP=2.46D-05 MaxDP=2.92D-03 DE=-2.15D-07 OVMax= 5.44D-03

 Cycle  29  Pass 1  IDiag  1:
 Density matrix breaks symmetry, PCut= 1.00D-07
 Density matrix has no symmetry -- integrals replicated.
 E= -1271.82176358080     Delta-E=        0.000008706899 Rises=F Damp=F
 DIIS: error= 1.92D-04 at cycle  29 NSaved=  20.
 NSaved=20 IEnMin=16 EnMin= -1271.82177238949     IErMin=17 ErrMin= 1.16D-04
 ErrMax= 1.92D-04  0.00D+00 EMaxC= 1.00D-01 BMatC= 4.96D-06 BMatP= 1.50D-06
 IDIUse=3 WtCom= 9.99D-01 WtEn= 1.16D-03
 EnCoef did   100 forward-backward iterations
 Coeff-Com: -0.191D-01 0.597D-01-0.134D-01-0.480D-01-0.205D-01-0.222D-01
 Coeff-Com:  0.166D-02 0.387D-01-0.319D-01 0.837D-02 0.636D-01 0.399D-01
 Coeff-Com:  0.140D+00-0.200D+00-0.412D+00-0.295D-01 0.361D+00 0.484D+00
 Coeff-Com:  0.468D+00 0.132D+00
 Coeff-En:   0.000D+00 0.345D+00 0.000D+00 0.000D+00 0.000D+00 0.117D-02
 Coeff-En:   0.141D+00 0.155D-02 0.000D+00 0.000D+00 0.000D+00 0.350D-02
 Coeff-En:   0.494D+00 0.264D-02 0.766D-03 0.205D-02 0.197D-02 0.178D-02
 Coeff-En:   0.272D-02 0.144D-02
 Coeff:     -0.191D-01 0.600D-01-0.133D-01-0.479D-01-0.205D-01-0.222D-01
 Coeff:      0.182D-02 0.387D-01-0.319D-01 0.836D-02 0.635D-01 0.399D-01
 Coeff:      0.140D+00-0.200D+00-0.411D+00-0.295D-01 0.361D+00 0.483D+00
 Coeff:      0.467D+00 0.132D+00
 Gap=     0.006 Goal=   None    Shift=    0.000
 RMSDP=2.44D-05 MaxDP=2.79D-03 DE= 8.71D-06 OVMax= 4.94D-03

 Cycle  30  Pass 1  IDiag  1:
 Density matrix breaks symmetry, PCut= 1.00D-07
 Density matrix has no symmetry -- integrals replicated.
 E= -1271.82177581795     Delta-E=       -0.000012237154 Rises=F Damp=F
 DIIS: error= 4.85D-05 at cycle  30 NSaved=  20.
 NSaved=20 IEnMin=20 EnMin= -1271.82177581795     IErMin=20 ErrMin= 4.85D-05
 ErrMax= 4.85D-05  0.00D+00 EMaxC= 1.00D-01 BMatC= 3.23D-07 BMatP= 1.50D-06
 IDIUse=1 WtCom= 1.00D+00 WtEn= 0.00D+00
 Coeff-Com:  0.118D-01 0.129D-01-0.247D-01-0.445D-01-0.185D-01-0.166D-01
 Coeff-Com:  0.467D-01 0.448D-01 0.238D-01-0.793D-02 0.126D-01 0.583D-01
 Coeff-Com: -0.165D+00-0.315D+00-0.323D-01 0.250D+00 0.360D+00 0.383D+00
 Coeff-Com:  0.126D+00 0.294D+00
 Coeff:      0.118D-01 0.129D-01-0.247D-01-0.445D-01-0.185D-01-0.166D-01
 Coeff:      0.467D-01 0.448D-01 0.238D-01-0.793D-02 0.126D-01 0.583D-01
 Coeff:     -0.165D+00-0.315D+00-0.323D-01 0.250D+00 0.360D+00 0.383D+00
 Coeff:      0.126D+00 0.294D+00
 Gap=     0.006 Goal=   None    Shift=    0.000
 RMSDP=1.06D-05 MaxDP=1.49D-03 DE=-1.22D-05 OVMax= 1.41D-03

 Cycle  31  Pass 1  IDiag  1:
 Density matrix breaks symmetry, PCut= 1.00D-07
 Density matrix has no symmetry -- integrals replicated.
 E= -1271.82177581700     Delta-E=        0.000000000955 Rises=F Damp=F
 DIIS: error= 4.50D-05 at cycle  31 NSaved=  20.
 NSaved=20 IEnMin=19 EnMin= -1271.82177581795     IErMin=20 ErrMin= 4.50D-05
 ErrMax= 4.50D-05  0.00D+00 EMaxC= 1.00D-01 BMatC= 3.28D-07 BMatP= 3.23D-07
 IDIUse=1 WtCom= 1.00D+00 WtEn= 0.00D+00
 Coeff-Com:  0.132D-01-0.324D-02-0.139D-01-0.118D-01 0.252D-03 0.113D-01
 Coeff-Com:  0.968D-02 0.710D-03-0.464D-02 0.595D-02 0.373D-01-0.102D+00
 Coeff-Com: -0.205D+00-0.611D-01 0.118D+00 0.223D+00 0.314D+00 0.105D+00
 Coeff-Com:  0.372D+00 0.190D+00
 Coeff:      0.132D-01-0.324D-02-0.139D-01-0.118D-01 0.252D-03 0.113D-01
 Coeff:      0.968D-02 0.710D-03-0.464D-02 0.595D-02 0.373D-01-0.102D+00
 Coeff:     -0.205D+00-0.611D-01 0.118D+00 0.223D+00 0.314D+00 0.105D+00
 Coeff:      0.372D+00 0.190D+00
 Gap=     0.006 Goal=   None    Shift=    0.000
 RMSDP=5.85D-06 MaxDP=4.39D-04 DE= 9.55D-10 OVMax= 1.27D-03

 Cycle  32  Pass 1  IDiag  1:
 Density matrix breaks symmetry, PCut= 1.00D-07
 Density matrix has no symmetry -- integrals replicated.
 E= -1271.82177644312     Delta-E=       -0.000000626117 Rises=F Damp=F
 DIIS: error= 2.03D-05 at cycle  32 NSaved=  20.
 NSaved=20 IEnMin=20 EnMin= -1271.82177644312     IErMin=20 ErrMin= 2.03D-05
 ErrMax= 2.03D-05  0.00D+00 EMaxC= 1.00D-01 BMatC= 1.09D-07 BMatP= 3.23D-07
 IDIUse=1 WtCom= 1.00D+00 WtEn= 0.00D+00
 Coeff-Com:  0.484D-03-0.178D-02-0.106D-02 0.275D-03 0.802D-04 0.281D-02
 Coeff-Com: -0.322D-02-0.327D-02-0.206D-02-0.766D-03-0.242D-01-0.531D-01
 Coeff-Com: -0.483D-01 0.269D-02 0.600D-01 0.149D+00 0.516D-01 0.321D+00
 Coeff-Com:  0.258D+00 0.291D+00
 Coeff:      0.484D-03-0.178D-02-0.106D-02 0.275D-03 0.802D-04 0.281D-02
 Coeff:     -0.322D-02-0.327D-02-0.206D-02-0.766D-03-0.242D-01-0.531D-01
 Coeff:     -0.483D-01 0.269D-02 0.600D-01 0.149D+00 0.516D-01 0.321D+00
 Coeff:      0.258D+00 0.291D+00
 Gap=     0.006 Goal=   None    Shift=    0.000
 RMSDP=1.96D-05 MaxDP=3.25D-03 DE=-6.26D-07 OVMax= 1.28D-03

 Cycle  33  Pass 1  IDiag  1:
 Density matrix breaks symmetry, PCut= 1.00D-07
 Density matrix has no symmetry -- integrals replicated.
 E= -1271.82177591735     Delta-E=        0.000000525763 Rises=F Damp=F
 DIIS: error= 4.29D-05 at cycle  33 NSaved=  20.
 NSaved=20 IEnMin=19 EnMin= -1271.82177644312     IErMin=19 ErrMin= 2.03D-05
 ErrMax= 4.29D-05  0.00D+00 EMaxC= 1.00D-01 BMatC= 3.20D-07 BMatP= 1.09D-07
 IDIUse=1 WtCom= 1.00D+00 WtEn= 0.00D+00
 Coeff-Com:  0.385D-02-0.107D-01-0.167D-02-0.451D-02 0.203D-01 0.651D-02
 Coeff-Com: -0.114D-01-0.971D-02-0.289D-01-0.601D-02 0.229D-02-0.241D-01
 Coeff-Com: -0.356D-01-0.935D-02 0.806D-01 0.378D-01 0.301D+00 0.254D+00
 Coeff-Com:  0.327D+00 0.109D+00
 Coeff:      0.385D-02-0.107D-01-0.167D-02-0.451D-02 0.203D-01 0.651D-02
 Coeff:     -0.114D-01-0.971D-02-0.289D-01-0.601D-02 0.229D-02-0.241D-01
 Coeff:     -0.356D-01-0.935D-02 0.806D-01 0.378D-01 0.301D+00 0.254D+00
 Coeff:      0.327D+00 0.109D+00
 Gap=     0.006 Goal=   None    Shift=    0.000
 RMSDP=1.44D-05 MaxDP=2.29D-03 DE= 5.26D-07 OVMax= 1.39D-03

 Cycle  34  Pass 1  IDiag  1:
 Density matrix breaks symmetry, PCut= 1.00D-07
 Density matrix has no symmetry -- integrals replicated.
 E= -1271.82177656553     Delta-E=       -0.000000648181 Rises=F Damp=F
 DIIS: error= 2.46D-05 at cycle  34 NSaved=  20.
 NSaved=20 IEnMin=20 EnMin= -1271.82177656553     IErMin=18 ErrMin= 2.03D-05
 ErrMax= 2.46D-05  0.00D+00 EMaxC= 1.00D-01 BMatC= 6.08D-08 BMatP= 1.09D-07
 IDIUse=1 WtCom= 1.00D+00 WtEn= 0.00D+00
 Coeff-Com:  0.201D-02-0.974D-02-0.908D-02 0.140D-01 0.888D-02-0.117D-03
 Coeff-Com: -0.630D-02-0.276D-01-0.193D-03 0.271D-01-0.239D-03-0.296D-01
 Coeff-Com: -0.336D-01-0.358D-02 0.123D-01 0.186D+00 0.185D+00 0.313D+00
 Coeff-Com:  0.126D+00 0.246D+00
 Coeff:      0.201D-02-0.974D-02-0.908D-02 0.140D-01 0.888D-02-0.117D-03
 Coeff:     -0.630D-02-0.276D-01-0.193D-03 0.271D-01-0.239D-03-0.296D-01
 Coeff:     -0.336D-01-0.358D-02 0.123D-01 0.186D+00 0.185D+00 0.313D+00
 Coeff:      0.126D+00 0.246D+00
 Gap=     0.006 Goal=   None    Shift=    0.000
 RMSDP=3.10D-06 MaxDP=3.76D-04 DE=-6.48D-07 OVMax= 7.48D-04

 Cycle  35  Pass 1  IDiag  1:
 Density matrix breaks symmetry, PCut= 1.00D-07
 Density matrix has no symmetry -- integrals replicated.
 E= -1271.82177666706     Delta-E=       -0.000000101530 Rises=F Damp=F
 DIIS: error= 1.54D-05 at cycle  35 NSaved=  20.
 NSaved=20 IEnMin=20 EnMin= -1271.82177666706     IErMin=20 ErrMin= 1.54D-05
 ErrMax= 1.54D-05  0.00D+00 EMaxC= 1.00D-01 BMatC= 2.82D-08 BMatP= 6.08D-08
 IDIUse=1 WtCom= 1.00D+00 WtEn= 0.00D+00
 Coeff-Com: -0.323D-02-0.125D-01 0.664D-03 0.923D-02 0.157D-01-0.317D-02
 Coeff-Com: -0.202D-01 0.128D-01 0.447D-01 0.182D-01-0.197D-01-0.406D-01
 Coeff-Com: -0.426D-01-0.108D-01 0.338D-02 0.392D-01 0.115D+00 0.839D-01
 Coeff-Com:  0.435D+00 0.375D+00
 Coeff:     -0.323D-02-0.125D-01 0.664D-03 0.923D-02 0.157D-01-0.317D-02
 Coeff:     -0.202D-01 0.128D-01 0.447D-01 0.182D-01-0.197D-01-0.406D-01
 Coeff:     -0.426D-01-0.108D-01 0.338D-02 0.392D-01 0.115D+00 0.839D-01
 Coeff:      0.435D+00 0.375D+00
 Gap=     0.006 Goal=   None    Shift=    0.000
 RMSDP=5.09D-06 MaxDP=4.96D-04 DE=-1.02D-07 OVMax= 1.09D-03

 Cycle  36  Pass 1  IDiag  1:
 Density matrix breaks symmetry, PCut= 1.00D-07
 Density matrix has no symmetry -- integrals replicated.
 E= -1271.82177636287     Delta-E=        0.000000304197 Rises=F Damp=F
 DIIS: error= 3.61D-05 at cycle  36 NSaved=  20.
 NSaved=20 IEnMin=19 EnMin= -1271.82177666706     IErMin=19 ErrMin= 1.54D-05
 ErrMax= 3.61D-05  0.00D+00 EMaxC= 1.00D-01 BMatC= 1.39D-07 BMatP= 2.82D-08
 IDIUse=1 WtCom= 1.00D+00 WtEn= 0.00D+00
 Coeff-Com: -0.243D-02-0.164D-02 0.227D-02 0.759D-02-0.301D-02-0.209D-01
 Coeff-Com:  0.358D-01 0.661D-01 0.239D-01-0.264D-01-0.620D-01-0.832D-01
 Coeff-Com: -0.289D-01-0.786D-01-0.478D-01 0.105D-01 0.532D-01 0.452D+00
 Coeff-Com:  0.561D+00 0.143D+00
 Coeff:     -0.243D-02-0.164D-02 0.227D-02 0.759D-02-0.301D-02-0.209D-01
 Coeff:      0.358D-01 0.661D-01 0.239D-01-0.264D-01-0.620D-01-0.832D-01
 Coeff:     -0.289D-01-0.786D-01-0.478D-01 0.105D-01 0.532D-01 0.452D+00
 Coeff:      0.561D+00 0.143D+00
 Gap=     0.006 Goal=   None    Shift=    0.000
 RMSDP=9.39D-06 MaxDP=1.52D-03 DE= 3.04D-07 OVMax= 9.74D-04

 Cycle  37  Pass 1  IDiag  1:
 Density matrix breaks symmetry, PCut= 1.00D-07
 Density matrix has no symmetry -- integrals replicated.
 E= -1271.82177652656     Delta-E=       -0.000000163697 Rises=F Damp=F
 DIIS: error= 2.14D-05 at cycle  37 NSaved=  20.
 NSaved=20 IEnMin=18 EnMin= -1271.82177666706     IErMin=18 ErrMin= 1.54D-05
 ErrMax= 2.14D-05  0.00D+00 EMaxC= 1.00D-01 BMatC= 8.62D-08 BMatP= 2.82D-08
 IDIUse=1 WtCom= 1.00D+00 WtEn= 0.00D+00
 Coeff-Com: -0.167D-02-0.434D-02 0.290D-03 0.601D-02 0.448D-02 0.109D-01
 Coeff-Com:  0.389D-01 0.293D-01 0.556D-02-0.413D-01-0.105D+00-0.397D-01
 Coeff-Com: -0.145D+00-0.830D-01-0.413D-01 0.286D-01 0.441D+00 0.528D+00
 Coeff-Com:  0.202D+00 0.167D+00
 Coeff:     -0.167D-02-0.434D-02 0.290D-03 0.601D-02 0.448D-02 0.109D-01
 Coeff:      0.389D-01 0.293D-01 0.556D-02-0.413D-01-0.105D+00-0.397D-01
 Coeff:     -0.145D+00-0.830D-01-0.413D-01 0.286D-01 0.441D+00 0.528D+00
 Coeff:      0.202D+00 0.167D+00
 Gap=     0.006 Goal=   None    Shift=    0.000
 RMSDP=7.70D-06 MaxDP=8.84D-04 DE=-1.64D-07 OVMax= 8.17D-04

 Cycle  38  Pass 1  IDiag  1:
 Density matrix breaks symmetry, PCut= 1.00D-07
 Density matrix has no symmetry -- integrals replicated.
 E= -1271.82177663792     Delta-E=       -0.000000111360 Rises=F Damp=F
 DIIS: error= 1.41D-05 at cycle  38 NSaved=  20.
 NSaved=20 IEnMin=17 EnMin= -1271.82177666706     IErMin=20 ErrMin= 1.41D-05
 ErrMax= 1.41D-05  0.00D+00 EMaxC= 1.00D-01 BMatC= 4.63D-08 BMatP= 2.82D-08
 IDIUse=1 WtCom= 1.00D+00 WtEn= 0.00D+00
 Coeff-Com: -0.230D-02 0.176D-02 0.576D-03 0.179D-02 0.151D-01 0.478D-01
 Coeff-Com:  0.331D-01 0.134D-02-0.493D-01-0.115D+00-0.423D-01-0.193D+00
 Coeff-Com: -0.145D+00-0.103D+00 0.161D-01 0.384D+00 0.553D+00 0.180D+00
 Coeff-Com:  0.221D+00 0.194D+00
 Coeff:     -0.230D-02 0.176D-02 0.576D-03 0.179D-02 0.151D-01 0.478D-01
 Coeff:      0.331D-01 0.134D-02-0.493D-01-0.115D+00-0.423D-01-0.193D+00
 Coeff:     -0.145D+00-0.103D+00 0.161D-01 0.384D+00 0.553D+00 0.180D+00
 Coeff:      0.221D+00 0.194D+00
 Gap=     0.006 Goal=   None    Shift=    0.000
 RMSDP=2.50D-06 MaxDP=2.54D-04 DE=-1.11D-07 OVMax= 5.03D-04

 Cycle  39  Pass 1  IDiag  1:
 Density matrix breaks symmetry, PCut= 1.00D-07
 Density matrix has no symmetry -- integrals replicated.
 E= -1271.82177671184     Delta-E=       -0.000000073912 Rises=F Damp=F
 DIIS: error= 1.22D-05 at cycle  39 NSaved=  20.
 NSaved=20 IEnMin=20 EnMin= -1271.82177671184     IErMin=20 ErrMin= 1.22D-05
 ErrMax= 1.22D-05  0.00D+00 EMaxC= 1.00D-01 BMatC= 1.77D-08 BMatP= 2.82D-08
 IDIUse=1 WtCom= 1.00D+00 WtEn= 0.00D+00
 Coeff-Com: -0.241D-02 0.709D-03 0.387D-02 0.115D-01 0.455D-01 0.341D-01
 Coeff-Com: -0.112D-02-0.479D-01-0.104D+00-0.385D-01-0.182D+00-0.144D+00
 Coeff-Com: -0.128D+00-0.332D-02 0.291D+00 0.457D+00 0.145D+00 0.173D+00
 Coeff-Com:  0.223D+00 0.266D+00
 Coeff:     -0.241D-02 0.709D-03 0.387D-02 0.115D-01 0.455D-01 0.341D-01
 Coeff:     -0.112D-02-0.479D-01-0.104D+00-0.385D-01-0.182D+00-0.144D+00
 Coeff:     -0.128D+00-0.332D-02 0.291D+00 0.457D+00 0.145D+00 0.173D+00
 Coeff:      0.223D+00 0.266D+00
 Gap=     0.006 Goal=   None    Shift=    0.000
 DSYEVD-2 returned Info=      135404 IAlg= 4 N=   407 NDim=   407 NE2=    21755200 trying  DSYEV.
 RMSDP=2.54D-06 MaxDP=3.31D-04 DE=-7.39D-08 OVMax= 2.05D-04

 Cycle  40  Pass 1  IDiag  1:
 Density matrix breaks symmetry, PCut= 1.00D-07
 Density matrix has no symmetry -- integrals replicated.
 E= -1271.82177674270     Delta-E=       -0.000000030865 Rises=F Damp=F
 DIIS: error= 9.75D-06 at cycle  40 NSaved=  20.
 NSaved=20 IEnMin=20 EnMin= -1271.82177674270     IErMin=20 ErrMin= 9.75D-06
 ErrMax= 9.75D-06  0.00D+00 EMaxC= 1.00D-01 BMatC= 6.57D-09 BMatP= 1.77D-08
 IDIUse=1 WtCom= 1.00D+00 WtEn= 0.00D+00
 Coeff-Com: -0.105D-02 0.268D-02 0.331D-03 0.141D-01 0.101D-01-0.527D-02
 Coeff-Com: -0.240D-01-0.433D-01-0.156D-01-0.595D-01-0.571D-01-0.105D+00
 Coeff-Com: -0.214D-01 0.860D-01 0.204D+00 0.552D-01 0.567D-01 0.137D+00
 Coeff-Com:  0.257D+00 0.510D+00
 Coeff:     -0.105D-02 0.268D-02 0.331D-03 0.141D-01 0.101D-01-0.527D-02
 Coeff:     -0.240D-01-0.433D-01-0.156D-01-0.595D-01-0.571D-01-0.105D+00
 Coeff:     -0.214D-01 0.860D-01 0.204D+00 0.552D-01 0.567D-01 0.137D+00
 Coeff:      0.257D+00 0.510D+00
 Gap=     0.006 Goal=   None    Shift=    0.000
 RMSDP=2.17D-06 MaxDP=2.53D-04 DE=-3.09D-08 OVMax= 2.67D-04

 Cycle  41  Pass 1  IDiag  1:
 Density matrix breaks symmetry, PCut= 1.00D-07
 Density matrix has no symmetry -- integrals replicated.
 E= -1271.82177674684     Delta-E=       -0.000000004139 Rises=F Damp=F
 DIIS: error= 6.67D-06 at cycle  41 NSaved=  20.
 NSaved=20 IEnMin=20 EnMin= -1271.82177674684     IErMin=20 ErrMin= 6.67D-06
 ErrMax= 6.67D-06  0.00D+00 EMaxC= 1.00D-01 BMatC= 5.81D-09 BMatP= 6.57D-09
 IDIUse=1 WtCom= 1.00D+00 WtEn= 0.00D+00
 Coeff-Com:  0.987D-03-0.160D-02 0.370D-02 0.497D-02-0.154D-02-0.119D-01
 Coeff-Com: -0.203D-01-0.765D-02-0.301D-01-0.308D-01-0.804D-01-0.203D-01
 Coeff-Com:  0.240D-01 0.109D+00 0.161D-01 0.245D-01 0.115D+00 0.228D+00
 Coeff-Com:  0.508D+00 0.170D+00
 Coeff:      0.987D-03-0.160D-02 0.370D-02 0.497D-02-0.154D-02-0.119D-01
 Coeff:     -0.203D-01-0.765D-02-0.301D-01-0.308D-01-0.804D-01-0.203D-01
 Coeff:      0.240D-01 0.109D+00 0.161D-01 0.245D-01 0.115D+00 0.228D+00
 Coeff:      0.508D+00 0.170D+00
 Gap=     0.006 Goal=   None    Shift=    0.000
 RMSDP=1.24D-06 MaxDP=1.17D-04 DE=-4.14D-09 OVMax= 1.79D-04

 Cycle  42  Pass 1  IDiag  1:
 Density matrix breaks symmetry, PCut= 1.00D-07
 Density matrix has no symmetry -- integrals replicated.
 E= -1271.82177675479     Delta-E=       -0.000000007948 Rises=F Damp=F
 DIIS: error= 5.78D-06 at cycle  42 NSaved=  20.
 NSaved=20 IEnMin=20 EnMin= -1271.82177675479     IErMin=20 ErrMin= 5.78D-06
 ErrMax= 5.78D-06  0.00D+00 EMaxC= 1.00D-01 BMatC= 2.51D-09 BMatP= 5.81D-09
 IDIUse=1 WtCom= 1.00D+00 WtEn= 0.00D+00
 Coeff-Com:  0.918D-03 0.176D-02 0.572D-02 0.166D-02-0.933D-02-0.177D-01
 Coeff-Com: -0.699D-02-0.307D-01-0.250D-01-0.605D-01-0.150D-01 0.349D-01
 Coeff-Com:  0.894D-01 0.128D-01 0.137D-01 0.770D-01 0.170D+00 0.374D+00
 Coeff-Com:  0.194D+00 0.190D+00
 Coeff:      0.918D-03 0.176D-02 0.572D-02 0.166D-02-0.933D-02-0.177D-01
 Coeff:     -0.699D-02-0.307D-01-0.250D-01-0.605D-01-0.150D-01 0.349D-01
 Coeff:      0.894D-01 0.128D-01 0.137D-01 0.770D-01 0.170D+00 0.374D+00
 Coeff:      0.194D+00 0.190D+00
 Gap=     0.006 Goal=   None    Shift=    0.000
 RMSDP=1.03D-06 MaxDP=1.37D-04 DE=-7.95D-09 OVMax= 1.38D-04

 Cycle  43  Pass 1  IDiag  1:
 Density matrix breaks symmetry, PCut= 1.00D-07
 Density matrix has no symmetry -- integrals replicated.
 E= -1271.82177675653     Delta-E=       -0.000000001748 Rises=F Damp=F
 DIIS: error= 4.84D-06 at cycle  43 NSaved=  20.
 NSaved=20 IEnMin=20 EnMin= -1271.82177675653     IErMin=20 ErrMin= 4.84D-06
 ErrMax= 4.84D-06  0.00D+00 EMaxC= 1.00D-01 BMatC= 1.72D-09 BMatP= 2.51D-09
 IDIUse=1 WtCom= 1.00D+00 WtEn= 0.00D+00
 Coeff-Com: -0.495D-02 0.172D-02 0.442D-02-0.103D-02-0.316D-02-0.164D-02
 Coeff-Com: -0.894D-02-0.422D-02-0.253D-01-0.770D-02 0.127D-01 0.293D-01
 Coeff-Com:  0.262D-03 0.361D-02 0.336D-01 0.832D-01 0.264D+00 0.203D+00
 Coeff-Com:  0.242D+00 0.180D+00
 Coeff:     -0.495D-02 0.172D-02 0.442D-02-0.103D-02-0.316D-02-0.164D-02
 Coeff:     -0.894D-02-0.422D-02-0.253D-01-0.770D-02 0.127D-01 0.293D-01
 Coeff:      0.262D-03 0.361D-02 0.336D-01 0.832D-01 0.264D+00 0.203D+00
 Coeff:      0.242D+00 0.180D+00
 Gap=     0.006 Goal=   None    Shift=    0.000
 RMSDP=5.79D-07 MaxDP=5.68D-05 DE=-1.75D-09 OVMax= 1.08D-04

 Cycle  44  Pass 1  IDiag  1:
 Density matrix breaks symmetry, PCut= 1.00D-07
 Density matrix has no symmetry -- integrals replicated.
 E= -1271.82177676006     Delta-E=       -0.000000003521 Rises=F Damp=F
 DIIS: error= 1.39D-06 at cycle  44 NSaved=  20.
 NSaved=20 IEnMin=20 EnMin= -1271.82177676006     IErMin=20 ErrMin= 1.39D-06
 ErrMax= 1.39D-06  0.00D+00 EMaxC= 1.00D-01 BMatC= 3.18D-10 BMatP= 1.72D-09
 IDIUse=1 WtCom= 1.00D+00 WtEn= 0.00D+00
 Coeff-Com:  0.217D-02 0.553D-03-0.405D-02-0.626D-02-0.268D-02-0.135D-01
 Coeff-Com: -0.127D-01-0.307D-01-0.783D-02 0.149D-01 0.422D-01 0.593D-02
 Coeff-Com:  0.905D-02 0.382D-01 0.854D-01 0.213D+00 0.136D+00 0.164D+00
 Coeff-Com:  0.135D+00 0.231D+00
 Coeff:      0.217D-02 0.553D-03-0.405D-02-0.626D-02-0.268D-02-0.135D-01
 Coeff:     -0.127D-01-0.307D-01-0.783D-02 0.149D-01 0.422D-01 0.593D-02
 Coeff:      0.905D-02 0.382D-01 0.854D-01 0.213D+00 0.136D+00 0.164D+00
 Coeff:      0.135D+00 0.231D+00
 Gap=     0.006 Goal=   None    Shift=    0.000
 RMSDP=7.44D-07 MaxDP=1.04D-04 DE=-3.52D-09 OVMax= 6.79D-05

 Cycle  45  Pass 1  IDiag  1:
 Density matrix breaks symmetry, PCut= 1.00D-07
 Density matrix has no symmetry -- integrals replicated.
 E= -1271.82177675996     Delta-E=        0.000000000095 Rises=F Damp=F
 DIIS: error= 2.26D-06 at cycle  45 NSaved=  20.
 NSaved=20 IEnMin=19 EnMin= -1271.82177676006     IErMin=19 ErrMin= 1.39D-06
 ErrMax= 2.26D-06  0.00D+00 EMaxC= 1.00D-01 BMatC= 3.26D-10 BMatP= 3.18D-10
 IDIUse=1 WtCom= 1.00D+00 WtEn= 0.00D+00
 Coeff-Com:  0.100D-02 0.656D-03 0.767D-04 0.649D-03 0.189D-02 0.341D-02
 Coeff-Com:  0.777D-03 0.293D-03 0.102D-02-0.453D-02-0.624D-02-0.761D-02
 Coeff-Com: -0.522D-03 0.428D-02 0.293D-01 0.646D-01 0.106D+00 0.134D+00
 Coeff-Com:  0.317D+00 0.354D+00
 Coeff:      0.100D-02 0.656D-03 0.767D-04 0.649D-03 0.189D-02 0.341D-02
 Coeff:      0.777D-03 0.293D-03 0.102D-02-0.453D-02-0.624D-02-0.761D-02
 Coeff:     -0.522D-03 0.428D-02 0.293D-01 0.646D-01 0.106D+00 0.134D+00
 Coeff:      0.317D+00 0.354D+00
 Gap=     0.006 Goal=   None    Shift=    0.000
 RMSDP=4.43D-07 MaxDP=4.85D-05 DE= 9.53D-11 OVMax= 5.63D-05

 Cycle  46  Pass 1  IDiag  1:
 Density matrix breaks symmetry, PCut= 1.00D-07
 Density matrix has no symmetry -- integrals replicated.
 E= -1271.82177676082     Delta-E=       -0.000000000860 Rises=F Damp=F
 DIIS: error= 3.87D-07 at cycle  46 NSaved=  20.
 NSaved=20 IEnMin=20 EnMin= -1271.82177676082     IErMin=20 ErrMin= 3.87D-07
 ErrMax= 3.87D-07  0.00D+00 EMaxC= 1.00D-01 BMatC= 2.90D-11 BMatP= 3.18D-10
 IDIUse=1 WtCom= 1.00D+00 WtEn= 0.00D+00
 Coeff-Com:  0.882D-03 0.443D-04 0.401D-03 0.204D-02 0.310D-02 0.146D-02
 Coeff-Com:  0.390D-03 0.144D-03-0.535D-02-0.511D-02-0.578D-02-0.188D-03
 Coeff-Com:  0.248D-02 0.163D-01 0.408D-01 0.661D-01 0.928D-01 0.245D+00
 Coeff-Com:  0.271D+00 0.274D+00
 Coeff:      0.882D-03 0.443D-04 0.401D-03 0.204D-02 0.310D-02 0.146D-02
 Coeff:      0.390D-03 0.144D-03-0.535D-02-0.511D-02-0.578D-02-0.188D-03
 Coeff:      0.248D-02 0.163D-01 0.408D-01 0.661D-01 0.928D-01 0.245D+00
 Coeff:      0.271D+00 0.274D+00
 Gap=     0.006 Goal=   None    Shift=    0.000
 RMSDP=2.57D-07 MaxDP=2.53D-05 DE=-8.60D-10 OVMax= 1.74D-05

 Cycle  47  Pass 1  IDiag  1:
 Density matrix breaks symmetry, PCut= 1.00D-07
 Density matrix has no symmetry -- integrals replicated.
 E= -1271.82177676070     Delta-E=        0.000000000124 Rises=F Damp=F
 DIIS: error= 8.05D-07 at cycle  47 NSaved=  20.
 NSaved=20 IEnMin=19 EnMin= -1271.82177676082     IErMin=19 ErrMin= 3.87D-07
 ErrMax= 8.05D-07  0.00D+00 EMaxC= 1.00D-01 BMatC= 7.89D-11 BMatP= 2.90D-11
 IDIUse=1 WtCom= 1.00D+00 WtEn= 0.00D+00
 Coeff-Com:  0.806D-03 0.441D-03 0.233D-02 0.312D-02 0.424D-02 0.137D-02
 Coeff-Com:  0.187D-03-0.673D-02-0.375D-02-0.405D-02-0.249D-02-0.652D-02
 Coeff-Com: -0.870D-02 0.168D-01 0.314D-01 0.588D-01 0.171D+00 0.189D+00
 Coeff-Com:  0.349D+00 0.204D+00
 Coeff:      0.806D-03 0.441D-03 0.233D-02 0.312D-02 0.424D-02 0.137D-02
 Coeff:      0.187D-03-0.673D-02-0.375D-02-0.405D-02-0.249D-02-0.652D-02
 Coeff:     -0.870D-02 0.168D-01 0.314D-01 0.588D-01 0.171D+00 0.189D+00
 Coeff:      0.349D+00 0.204D+00
 Gap=     0.006 Goal=   None    Shift=    0.000
 RMSDP=2.21D-07 MaxDP=3.35D-05 DE= 1.24D-10 OVMax= 1.70D-05

 Cycle  48  Pass 1  IDiag  1:
 Density matrix breaks symmetry, PCut= 1.00D-07
 Density matrix has no symmetry -- integrals replicated.
 E= -1271.82177676066     Delta-E=        0.000000000032 Rises=F Damp=F
 DIIS: error= 1.08D-06 at cycle  48 NSaved=  20.
 NSaved=20 IEnMin=18 EnMin= -1271.82177676082     IErMin=18 ErrMin= 3.87D-07
 ErrMax= 1.08D-06  0.00D+00 EMaxC= 1.00D-01 BMatC= 9.34D-11 BMatP= 2.90D-11
 IDIUse=1 WtCom= 1.00D+00 WtEn= 0.00D+00
 Coeff-Com:  0.227D-03 0.222D-02 0.176D-02 0.768D-02 0.286D-02 0.463D-03
 Coeff-Com: -0.712D-02-0.858D-03-0.856D-03-0.674D-02-0.254D-01-0.645D-01
 Coeff-Com: -0.393D-01-0.499D-01-0.242D-01-0.432D-02-0.758D-02 0.470D+00
 Coeff-Com:  0.393D+00 0.352D+00
 Coeff:      0.227D-03 0.222D-02 0.176D-02 0.768D-02 0.286D-02 0.463D-03
 Coeff:     -0.712D-02-0.858D-03-0.856D-03-0.674D-02-0.254D-01-0.645D-01
 Coeff:     -0.393D-01-0.499D-01-0.242D-01-0.432D-02-0.758D-02 0.470D+00
 Coeff:      0.393D+00 0.352D+00
 Gap=     0.006 Goal=   None    Shift=    0.000
 RMSDP=1.14D-07 MaxDP=1.19D-05 DE= 3.21D-11 OVMax= 1.60D-05

 Cycle  49  Pass 1  IDiag  1:
 Density matrix breaks symmetry, PCut= 1.00D-07
 Density matrix has no symmetry -- integrals replicated.
 E= -1271.82177676085     Delta-E=       -0.000000000183 Rises=F Damp=F
 DIIS: error= 6.68D-07 at cycle  49 NSaved=  20.
 NSaved=20 IEnMin=20 EnMin= -1271.82177676085     IErMin=17 ErrMin= 3.87D-07
 ErrMax= 6.68D-07  0.00D+00 EMaxC= 1.00D-01 BMatC= 3.71D-11 BMatP= 2.90D-11
 IDIUse=1 WtCom= 1.00D+00 WtEn= 0.00D+00
 Coeff-Com:  0.822D-03 0.187D-03 0.618D-02 0.243D-02 0.153D-02-0.288D-02
 Coeff-Com:  0.660D-03 0.661D-03-0.641D-02-0.261D-01-0.728D-01-0.492D-01
 Coeff-Com: -0.665D-01-0.475D-01-0.623D-01-0.711D-01 0.429D+00 0.385D+00
 Coeff-Com:  0.393D+00 0.186D+00
 Coeff:      0.822D-03 0.187D-03 0.618D-02 0.243D-02 0.153D-02-0.288D-02
 Coeff:      0.660D-03 0.661D-03-0.641D-02-0.261D-01-0.728D-01-0.492D-01
 Coeff:     -0.665D-01-0.475D-01-0.623D-01-0.711D-01 0.429D+00 0.385D+00
 Coeff:      0.393D+00 0.186D+00
 Gap=     0.006 Goal=   None    Shift=    0.000
 RMSDP=9.91D-08 MaxDP=1.45D-05 DE=-1.83D-10 OVMax= 1.51D-05

 Cycle  50  Pass 1  IDiag  1:
 Density matrix breaks symmetry, PCut= 1.00D-07
 Density matrix has no symmetry -- integrals replicated.
 E= -1271.82177676093     Delta-E=       -0.000000000088 Rises=F Damp=F
 DIIS: error= 2.55D-07 at cycle  50 NSaved=  20.
 NSaved=20 IEnMin=20 EnMin= -1271.82177676093     IErMin=20 ErrMin= 2.55D-07
 ErrMax= 2.55D-07  0.00D+00 EMaxC= 1.00D-01 BMatC= 9.40D-12 BMatP= 2.90D-11
 IDIUse=1 WtCom= 1.00D+00 WtEn= 0.00D+00
 Coeff-Com:  0.446D-03 0.510D-02 0.173D-02 0.372D-03-0.214D-02 0.500D-03
 Coeff-Com:  0.335D-03-0.527D-02-0.199D-01-0.554D-01-0.403D-01-0.545D-01
 Coeff-Com: -0.469D-01-0.866D-01-0.957D-01 0.185D+00 0.221D+00 0.279D+00
 Coeff-Com:  0.276D+00 0.437D+00
 Coeff:      0.446D-03 0.510D-02 0.173D-02 0.372D-03-0.214D-02 0.500D-03
 Coeff:      0.335D-03-0.527D-02-0.199D-01-0.554D-01-0.403D-01-0.545D-01
 Coeff:     -0.469D-01-0.866D-01-0.957D-01 0.185D+00 0.221D+00 0.279D+00
 Coeff:      0.276D+00 0.437D+00
 Gap=     0.006 Goal=   None    Shift=    0.000
 RMSDP=1.11D-07 MaxDP=1.19D-05 DE=-8.78D-11 OVMax= 1.16D-05

 Cycle  51  Pass 1  IDiag  1:
 Density matrix breaks symmetry, PCut= 1.00D-07
 Density matrix has no symmetry -- integrals replicated.
 E= -1271.82177676096     Delta-E=       -0.000000000021 Rises=F Damp=F
 DIIS: error= 2.23D-07 at cycle  51 NSaved=  20.
 NSaved=20 IEnMin=20 EnMin= -1271.82177676096     IErMin=20 ErrMin= 2.23D-07
 ErrMax= 2.23D-07  0.00D+00 EMaxC= 1.00D-01 BMatC= 9.04D-12 BMatP= 9.40D-12
 IDIUse=1 WtCom= 1.00D+00 WtEn= 0.00D+00
 Coeff-Com:  0.186D-02 0.524D-03 0.664D-03-0.874D-03 0.403D-03 0.735D-03
 Coeff-Com: -0.145D-02-0.298D-02-0.113D-01-0.114D-01-0.162D-01-0.244D-01
 Coeff-Com: -0.737D-01-0.658D-01-0.127D+00-0.492D-01 0.101D-01 0.214D+00
 Coeff-Com:  0.727D+00 0.430D+00
 Coeff:      0.186D-02 0.524D-03 0.664D-03-0.874D-03 0.403D-03 0.735D-03
 Coeff:     -0.145D-02-0.298D-02-0.113D-01-0.114D-01-0.162D-01-0.244D-01
 Coeff:     -0.737D-01-0.658D-01-0.127D+00-0.492D-01 0.101D-01 0.214D+00
 Coeff:      0.727D+00 0.430D+00
 Gap=     0.006 Goal=   None    Shift=    0.000
 RMSDP=1.68D-07 MaxDP=2.08D-05 DE=-2.11D-11 OVMax= 1.39D-05

 Cycle  52  Pass 1  IDiag  1:
 Density matrix breaks symmetry, PCut= 1.00D-07
 Density matrix has no symmetry -- integrals replicated.
 E= -1271.82177676095     Delta-E=        0.000000000010 Rises=F Damp=F
 DIIS: error= 3.64D-07 at cycle  52 NSaved=  20.
 NSaved=20 IEnMin=19 EnMin= -1271.82177676096     IErMin=19 ErrMin= 2.23D-07
 ErrMax= 3.64D-07  0.00D+00 EMaxC= 1.00D-01 BMatC= 1.87D-11 BMatP= 9.04D-12
 IDIUse=1 WtCom= 1.00D+00 WtEn= 0.00D+00
 Coeff-Com: -0.300D-03-0.523D-03-0.902D-03 0.159D-03 0.589D-03 0.108D-02
 Coeff-Com:  0.461D-02 0.567D-02-0.487D-02-0.756D-02-0.177D-01-0.501D-01
[...]
 198       73F+1        0.00005   0.00005   0.00000   0.00004
 199       73F-1        0.00005   0.00005   0.00000   0.00004
 200       73F+2        0.00003   0.00003   0.00000   0.00003
 201       73F-2        0.00006   0.00003   0.00003   0.00000
 202       73F+3        0.00003   0.00002   0.00002  -0.00000
 203       73F-3        0.00003   0.00002   0.00002  -0.00000
 204       74F 0        0.00301   0.00151   0.00151   0.00000
 205       74F+1        0.00010   0.00009   0.00000   0.00009
 206       74F-1        0.00010   0.00009   0.00000   0.00009
 207       74F+2        0.00010   0.00010   0.00000   0.00010
 208       74F-2        0.00023   0.00011   0.00011   0.00000
 209       74F+3        0.00001   0.00001   0.00001   0.00000
 210       74F-3        0.00001   0.00001   0.00001   0.00000
 211       75F 0        0.00212   0.00106   0.00106   0.00000
 212       75F+1        0.00002   0.00002   0.00000   0.00002
 213       75F-1        0.00002   0.00002   0.00000   0.00002
 214       75F+2        0.00002   0.00002   0.00000   0.00002
 215       75F-2        0.00009   0.00004   0.00004   0.00000
 216       75F+3        0.00000   0.00000   0.00000  -0.00000
 217       75F-3        0.00000   0.00000   0.00000  -0.00000
 218       76G 0        0.00000   0.00000   0.00000   0.00000
 219       76G+1        0.00000   0.00000   0.00000   0.00000
 220       76G-1        0.00000   0.00000   0.00000   0.00000
 221       76G+2        0.00000   0.00000   0.00000   0.00000
 222       76G-2        0.00000   0.00000   0.00000   0.00000
 223       76G+3        0.00000   0.00000   0.00000   0.00000
 224       76G-3        0.00000   0.00000   0.00000   0.00000
 225       76G+4        0.00000   0.00000   0.00000   0.00000
 226       76G-4        0.00000   0.00000   0.00000   0.00000
 227       77G 0        0.00000   0.00000   0.00000  -0.00000
 228       77G+1       -0.00000  -0.00000  -0.00000  -0.00000
 229       77G-1       -0.00000  -0.00000  -0.00000  -0.00000
 230       77G+2        0.00000   0.00000   0.00000   0.00000
 231       77G-2        0.00000   0.00000   0.00000   0.00000
 232       77G+3        0.00000   0.00000   0.00000   0.00000
 233       77G-3        0.00000   0.00000   0.00000   0.00000
 234       77G+4        0.00000   0.00000   0.00000   0.00000
 235       77G-4        0.00000   0.00000   0.00000   0.00000
 236       78G 0        0.00001   0.00000   0.00000   0.00000
 237       78G+1        0.00000   0.00000   0.00000   0.00000
 238       78G-1        0.00000   0.00000   0.00000   0.00000
 239       78G+2        0.00000   0.00000   0.00000   0.00000
 240       78G-2        0.00000   0.00000   0.00000   0.00000
 241       78G+3        0.00000   0.00000   0.00000   0.00000
 242       78G-3        0.00000   0.00000   0.00000   0.00000
 243       78G+4        0.00000   0.00000   0.00000   0.00000
 244       78G-4        0.00000   0.00000   0.00000   0.00000
 245       79G 0        0.00017   0.00008   0.00008   0.00000
 246       79G+1        0.00000   0.00000   0.00000   0.00000
 247       79G-1        0.00000   0.00000   0.00000   0.00000
 248       79G+2        0.00000   0.00000   0.00000   0.00000
 249       79G-2        0.00000   0.00000   0.00000   0.00000
 250       79G+3        0.00000   0.00000   0.00000   0.00000
 251       79G-3        0.00000   0.00000   0.00000   0.00000
 252       79G+4        0.00000   0.00000   0.00000   0.00000
 253       79G-4        0.00000   0.00000   0.00000   0.00000
 254       80G 0        0.00047   0.00024   0.00024   0.00000
 255       80G+1        0.00000   0.00000  -0.00000   0.00000
 256       80G-1        0.00000   0.00000  -0.00000   0.00000
 257       80G+2        0.00000   0.00000   0.00000   0.00000
 258       80G-2       -0.00000  -0.00000  -0.00000   0.00000
 259       80G+3        0.00000   0.00000   0.00000   0.00000
 260       80G-3        0.00000   0.00000   0.00000   0.00000
 261       80G+4        0.00000   0.00000   0.00000   0.00000
 262       80G-4        0.00000   0.00000   0.00000   0.00000
 263       81H 0        0.00000   0.00000   0.00000   0.00000
 264       81H+1        0.00000   0.00000   0.00000  -0.00000
 265       81H-1        0.00000   0.00000   0.00000  -0.00000
 266       81H+2       -0.00000  -0.00000   0.00000  -0.00000
 267       81H-2        0.00000   0.00000   0.00000   0.00000
 268       81H+3        0.00000   0.00000   0.00000   0.00000
 269       81H-3        0.00000   0.00000   0.00000   0.00000
 270       81H+4        0.00000   0.00000   0.00000   0.00000
 271       81H-4        0.00000   0.00000   0.00000   0.00000
 272       81H+5        0.00000   0.00000   0.00000   0.00000
 273       81H-5        0.00000   0.00000   0.00000   0.00000
 274       82H 0        0.00000   0.00000   0.00000  -0.00000
 275       82H+1        0.00000   0.00000   0.00000  -0.00000
 276       82H-1        0.00000   0.00000   0.00000  -0.00000
 277       82H+2        0.00000   0.00000   0.00000   0.00000
 278       82H-2       -0.00000  -0.00000  -0.00000   0.00000
 279       82H+3        0.00000   0.00000   0.00000   0.00000
 280       82H-3        0.00000   0.00000   0.00000   0.00000
 281       82H+4        0.00000   0.00000   0.00000   0.00000
 282       82H-4        0.00000   0.00000   0.00000   0.00000
 283       82H+5        0.00000   0.00000   0.00000   0.00000
 284       82H-5        0.00000   0.00000   0.00000   0.00000
 285       83H 0        0.00000   0.00000   0.00000   0.00000
 286       83H+1       -0.00000  -0.00000   0.00000  -0.00000
 287       83H-1       -0.00000  -0.00000   0.00000  -0.00000
 288       83H+2        0.00000   0.00000   0.00000   0.00000
 289       83H-2        0.00000   0.00000   0.00000   0.00000
 290       83H+3        0.00000   0.00000  -0.00000   0.00000
 291       83H-3        0.00000   0.00000  -0.00000   0.00000
 292       83H+4        0.00000   0.00000   0.00000   0.00000
 293       83H-4        0.00000   0.00000   0.00000   0.00000
 294       83H+5        0.00000   0.00000   0.00000   0.00000
 295       83H-5        0.00000   0.00000   0.00000   0.00000
 296       84H 0        0.00002   0.00001   0.00001   0.00000
 297       84H+1        0.00000   0.00000   0.00000   0.00000
 298       84H-1        0.00000   0.00000   0.00000   0.00000
 299       84H+2       -0.00000  -0.00000   0.00000  -0.00000
 300       84H-2       -0.00000  -0.00000  -0.00000   0.00000
 301       84H+3        0.00000   0.00000   0.00000   0.00000
 302       84H-3        0.00000   0.00000   0.00000   0.00000
 303       84H+4        0.00000   0.00000   0.00000   0.00000
 304       84H-4        0.00000   0.00000   0.00000   0.00000
 305       84H+5        0.00000   0.00000   0.00000   0.00000
 306       84H-5        0.00000   0.00000   0.00000   0.00000
 307       85I 0        0.00000   0.00000   0.00000   0.00000
 308       85I+1        0.00000   0.00000   0.00000   0.00000
 309       85I-1        0.00000   0.00000   0.00000   0.00000
 310       85I+2        0.00000   0.00000   0.00000   0.00000
 311       85I-2        0.00000   0.00000   0.00000   0.00000
 312       85I+3        0.00000   0.00000   0.00000   0.00000
 313       85I-3        0.00000   0.00000   0.00000   0.00000
 314       85I+4        0.00000   0.00000   0.00000   0.00000
 315       85I-4        0.00000   0.00000   0.00000   0.00000
 316       85I+5        0.00000   0.00000   0.00000   0.00000
 317       85I-5        0.00000   0.00000   0.00000   0.00000
 318       85I+6        0.00000   0.00000   0.00000   0.00000
 319       85I-6        0.00000   0.00000   0.00000   0.00000
 320       86I 0       -0.00000  -0.00000  -0.00000   0.00000
 321       86I+1        0.00000   0.00000   0.00000   0.00000
 322       86I-1        0.00000   0.00000   0.00000   0.00000
 323       86I+2        0.00000   0.00000   0.00000   0.00000
 324       86I-2        0.00000   0.00000   0.00000   0.00000
 325       86I+3        0.00000   0.00000   0.00000   0.00000
 326       86I-3        0.00000   0.00000   0.00000   0.00000
 327       86I+4        0.00000   0.00000   0.00000   0.00000
 328       86I-4        0.00000   0.00000   0.00000   0.00000
 329       86I+5        0.00000   0.00000   0.00000   0.00000
 330       86I-5        0.00000   0.00000   0.00000   0.00000
 331       86I+6        0.00000   0.00000   0.00000   0.00000
 332       86I-6        0.00000   0.00000   0.00000   0.00000
 333 2   H  1S          0.00001   0.00000   0.00000   0.00000
 334        2S          0.00022   0.00011   0.00011   0.00000
 335        3S          0.00300   0.00150   0.00150   0.00000
 336        4S          0.02415   0.01208   0.01208   0.00000
 337        5S          0.11707   0.05853   0.05853   0.00000
 338        6S          0.34472   0.17236   0.17236   0.00000
 339        7S          0.50768   0.25384   0.25384  -0.00000
 340        8S          0.26593   0.13297   0.13297   0.00000
 341        9S          0.02093   0.01047   0.01047   0.00000
 342       10PX         0.00000   0.00000   0.00000   0.00000
 343       10PY         0.00000   0.00000   0.00000   0.00000
 344       10PZ         0.00003   0.00002   0.00002   0.00000
 345       11PX         0.00002   0.00002   0.00000   0.00002
 346       11PY         0.00002   0.00002   0.00000   0.00002
 347       11PZ         0.00028   0.00014   0.00014   0.00000
 348       12PX         0.00035   0.00035   0.00000   0.00034
 349       12PY         0.00035   0.00035   0.00000   0.00034
 350       12PZ         0.00366   0.00183   0.00183   0.00000
 351       13PX         0.00084   0.00080   0.00003   0.00077
 352       13PY         0.00084   0.00080   0.00003   0.00077
 353       13PZ         0.00403   0.00202   0.00202  -0.00000
 354       14PX         0.00029   0.00027   0.00002   0.00025
 355       14PY         0.00029   0.00027   0.00002   0.00025
 356       14PZ        -0.00276  -0.00138  -0.00138   0.00000
 357       15D 0        0.00000   0.00000   0.00000   0.00000
 358       15D+1        0.00000   0.00000   0.00000   0.00000
 359       15D-1        0.00000   0.00000   0.00000   0.00000
 360       15D+2        0.00000   0.00000   0.00000   0.00000
 361       15D-2        0.00000   0.00000   0.00000   0.00000
 362       16D 0        0.00018   0.00009   0.00009   0.00000
 363       16D+1        0.00004   0.00004   0.00000   0.00004
 364       16D-1        0.00004   0.00004   0.00000   0.00004
 365       16D+2        0.00000   0.00000   0.00000   0.00000
 366       16D-2        0.00000   0.00000   0.00000   0.00000
 367       17D 0        0.00078   0.00039   0.00039  -0.00000
 368       17D+1        0.00028   0.00026   0.00002   0.00024
 369       17D-1        0.00028   0.00026   0.00002   0.00024
 370       17D+2        0.00002   0.00002   0.00000   0.00002
 371       17D-2        0.00006   0.00003   0.00003  -0.00000
 372       18D 0        0.00011   0.00005   0.00005   0.00000
 373       18D+1        0.00013   0.00010   0.00003   0.00007
 374       18D-1        0.00013   0.00010   0.00003   0.00007
 375       18D+2        0.00004   0.00004   0.00000   0.00004
 376       18D-2        0.00006   0.00003   0.00003   0.00000
 377       19F 0        0.00000   0.00000   0.00000   0.00000
 378       19F+1        0.00000   0.00000   0.00000   0.00000
 379       19F-1        0.00000   0.00000   0.00000   0.00000
 380       19F+2        0.00000   0.00000   0.00000   0.00000
 381       19F-2        0.00000   0.00000   0.00000   0.00000
 382       19F+3       -0.00000   0.00000  -0.00000   0.00000
 383       19F-3       -0.00000   0.00000  -0.00000   0.00000
 384       20F 0        0.00017   0.00008   0.00008   0.00000
 385       20F+1        0.00004   0.00003   0.00000   0.00003
 386       20F-1        0.00004   0.00003   0.00000   0.00003
 387       20F+2        0.00001   0.00001   0.00000   0.00001
 388       20F-2        0.00002   0.00001   0.00001  -0.00000
 389       20F+3        0.00000   0.00000   0.00000  -0.00000
 390       20F-3        0.00000   0.00000   0.00000  -0.00000
 391       21F 0        0.00030   0.00015   0.00015  -0.00000
 392       21F+1        0.00002   0.00001   0.00001   0.00000
 393       21F-1        0.00002   0.00001   0.00001   0.00000
 394       21F+2        0.00003   0.00003  -0.00000   0.00003
 395       21F-2        0.00002   0.00001   0.00001  -0.00000
 396       21F+3       -0.00000  -0.00000  -0.00000  -0.00000
 397       21F-3       -0.00000  -0.00000  -0.00000  -0.00000
 398       22G 0        0.00000   0.00000   0.00000   0.00000
 399       22G+1        0.00000   0.00000   0.00000   0.00000
 400       22G-1        0.00000   0.00000   0.00000   0.00000
 401       22G+2        0.00000   0.00000   0.00000   0.00000
 402       22G-2        0.00000   0.00000   0.00000  -0.00000
 403       22G+3        0.00000   0.00000   0.00000   0.00000
 404       22G-3        0.00000   0.00000   0.00000   0.00000
 405       22G+4       -0.00000  -0.00000  -0.00000  -0.00000
 406       22G-4       -0.00000  -0.00000   0.00000  -0.00000
 407       23G 0        0.00010   0.00005   0.00005  -0.00000
 408       23G+1       -0.00004  -0.00003  -0.00001  -0.00002
 409       23G-1       -0.00004  -0.00003  -0.00001  -0.00002
 410       23G+2        0.00000   0.00000   0.00000   0.00000
 411       23G-2        0.00001   0.00001   0.00001  -0.00000
 412       23G+3       -0.00000  -0.00000  -0.00000  -0.00000
 413       23G-3       -0.00000  -0.00000  -0.00000  -0.00000
 414       23G+4        0.00000   0.00000   0.00000   0.00000
 415       23G-4        0.00000   0.00000  -0.00000   0.00000
          Condensed to atoms (all electrons):
               1          2
     1  Fe  25.326970   0.378235
     2  H    0.378235   0.916560
          Atomic-Atomic Spin Densities.
               1          2
     1  Fe   2.992975   0.003414
     2  H    0.003414   0.000197
 Mulliken charges and spin densities:
               1          2
     1  Fe   0.294795   2.996389
     2  H   -0.294795   0.003611
 Sum of Mulliken charges =  -0.00000   3.00000
 Mulliken charges and spin densities with hydrogens summed into heavy atoms:
               1          2
     1  Fe  -0.000000   3.000000
 Electronic spatial extent (au):  <R**2>=             47.0628
 Charge=             -0.0000 electrons
 Dipole moment (field-independent basis, Debye):
    X=              0.0000    Y=             -0.0000    Z=              4.6950  Tot=              4.6950
 Quadrupole moment (field-independent basis, Debye-Ang):
   XX=            -15.7294   YY=            -15.7294   ZZ=            -18.4751
   XY=              0.0000   XZ=              0.0000   YZ=             -0.0000
 Traceless Quadrupole moment (field-independent basis, Debye-Ang):
   XX=              0.9152   YY=              0.9152   ZZ=             -1.8304
   XY=              0.0000   XZ=              0.0000   YZ=             -0.0000
 Octapole moment (field-independent basis, Debye-Ang**2):
  XXX=              0.0000  YYY=             -0.0000  ZZZ=             19.3941  XYY=              0.0000
  XXY=             -0.0000  XXZ=              4.6130  XZZ=              0.0000  YZZ=             -0.0000
  YYZ=              4.6130  XYZ=             -0.0000
 Hexadecapole moment (field-independent basis, Debye-Ang**3):
 XXXX=            -23.3675 YYYY=            -23.3675 ZZZZ=            -62.8667 XXXY=              0.0000
 XXXZ=              0.0000 YYYX=              0.0000 YYYZ=             -0.0000 ZZZX=              0.0000
 ZZZY=             -0.0000 XXYY=             -8.1378 XXZZ=            -13.3356 YYZZ=            -13.3356
 XXYZ=             -0.0000 YYXZ=              0.0000 ZZXY=              0.0000
 N-N= 8.093298519953D+00 E-N=-3.102298685014D+03  KE= 1.325499207630D+03
 Orbital energies and kinetic energies (alpha):
                                 1                 2
   8         O                -2.746143         11.030239
   9         O                -2.746143         11.030239
  10         O                -0.491729          3.648334
  11         O                -0.491729          6.516223
  12         O                -0.486526          2.848648
  13         O                -0.436871          6.828703
  14         O                -0.434271          6.828703
  15         O                -0.319306          6.849799
  16         V                -0.006749          0.260670
  17         V                 0.021019          0.044498
  18         V                 0.021019          0.044498
  19         V                 0.026764          0.040556
  20         V                 0.032422          0.267026
 Total kinetic energy from orbitals= 1.346006412764D+03
 FoFCou: FMM=F IPFlag=           8 FMFlag=           0 FMFlg1=           0
         NFxFlg=           0 DoJE=F BraDBF=T KetDBF=F FulRan=T
         wScrn=  0.000000 ICntrl=   2000500 IOpCl=  0 I1Cent=           5 NGrid=           0
         NMat0=    1 NMatS0=      1 NMatT0=    0 NMatD0=    1 NMtDS0=    0 NMtDT0=    0
 Symmetry not used in FoFCou.
                          Isotropic Fermi Contact Couplings
        Atom                 a.u.       MegaHertz       Gauss      10(-4) cm-1
     1  Fe(57)             0.00000       0.00000       0.00000       0.00000
     2  H(1)               0.00000       0.00000       0.00000       0.00000
 --------------------------------------------------------
       Center         ----  Spin Dipole Couplings  ----
                      3XX-RR        3YY-RR        3ZZ-RR
 --------------------------------------------------------
     1   Atom        0.012791      0.012787     -0.025578
     2   Atom       -0.081068     -0.081068      0.162135
 --------------------------------------------------------
                        XY            XZ            YZ
 --------------------------------------------------------
     1   Atom       -0.000000     -0.000002     -0.000003
     2   Atom       -0.000000      0.000000     -0.000000
 --------------------------------------------------------


 ---------------------------------------------------------------------------------
              Anisotropic Spin Dipole Couplings in Principal Axis System
 ---------------------------------------------------------------------------------

       Atom             a.u.   MegaHertz   Gauss  10(-4) cm-1        Axes

              Baa    -0.0256    -0.443    -0.158    -0.148  0.0000  0.0001  1.0000
     1 Fe(57) Bbb     0.0128     0.221     0.079     0.074  0.0015  1.0000 -0.0001
              Bcc     0.0128     0.221     0.079     0.074  1.0000 -0.0015 -0.0000
 
              Baa    -0.0811   -43.254   -15.434   -14.428  0.0573  0.9984  0.0000
     2 H(1)   Bbb    -0.0811   -43.254   -15.434   -14.428  0.9984 -0.0573 -0.0000
              Bcc     0.1621    86.508    30.868    28.856  0.0000 -0.0000  1.0000
 

 ---------------------------------------------------------------------------------

 No NMR shielding tensors so no spin-rotation constants.
 Leave Link  601 at Fri Mar  9 08:22:20 2018, MaxMem= 10737418240 cpu:             382.0 elap:              12.5
 (Enter /home1/apps/gaussian/16rA.03/g16/l9999.exe)

 Test job not archived.
 1\1\GINC-C475-013\SP\ROCCSD(T)-Full\Gen\Fe1H1(4)\GWANG18\09-Mar-2018\0
 \\#P ROCCSD(T)=(MaxCyc=150, Full)/Gen SCF=(maxcycle=400) Integral(DKHS
 O, NoXCTest) Pop=Regular MaxDisk=500GB Guess=Read IOp(5/15=2)\\FeH\\0,
 4\Fe,0,0.,0.,0.\H,0,0.,0.,1.7\\Version=ES64L-G16RevA.03\HF=-1271.82177
 68\MP2=-1273.0599699\MP3=-1272.9775508\PUHF=-1271.8217768\PMP2-0=-1273
 .0599699\MP4SDQ=-1273.0224198\CCSD=-1273.0123535\CCSD(T)=-1273.0436031
 \RMSD=6.932e-09\PG=C*V [C*(H1Fe1)]\\@


 ALTHOUGH J.J. COULD DIAGNOSE THE FAULTS OF AN
 APPARATUS WITH UNCANNY ACCURACY, IT WAS JUST AS
 WELL NOT TO LET HIM HANDLE IT.
   -- GEORGE THOMPSON, ABOUT HIS FATHER
 Job cpu time:      25 days 15 hours 23 minutes 17.9 seconds.
 Elapsed time:       0 days 19 hours 28 minutes 31.3 seconds.
 File lengths (MBytes):  RWF= 143353 Int=      0 D2E=      0 Chk=     19 Scr=      1
 Normal termination of Gaussian 16 at Fri Mar  9 08:22:21 2018.
