 Entering Gaussian System, Link 0=g16
 Initial command:
 /home1/apps/gaussian/16rA.03/g16/l1.exe "/tmp/Gau-29398.inp" -scrdir="/tmp/"
 Entering Link 1 = /home1/apps/gaussian/16rA.03/g16/l1.exe PID=     29399.
  
 Copyright (c) 1988,1990,1992,1993,1995,1998,2003,2009,2016,
            Gaussian, Inc.  All Rights Reserved.
  
 This is part of the Gaussian(R) 16 program.  It is based on
 the Gaussian(R) 09 system (copyright 2009, Gaussian, Inc.),
 the Gaussian(R) 03 system (copyright 2003, Gaussian, Inc.),
 the Gaussian(R) 98 system (copyright 1998, Gaussian, Inc.),
 the Gaussian(R) 94 system (copyright 1995, Gaussian, Inc.),
 the Gaussian 92(TM) system (copyright 1992, Gaussian, Inc.),
 the Gaussian 90(TM) system (copyright 1990, Gaussian, Inc.),
 the Gaussian 88(TM) system (copyright 1988, Gaussian, Inc.),
 the Gaussian 86(TM) system (copyright 1986, Carnegie Mellon
 University), and the Gaussian 82(TM) system (copyright 1983,
 Carnegie Mellon University). Gaussian is a federally registered
 trademark of Gaussian, Inc.
  
 This software contains proprietary and confidential information,
 including trade secrets, belonging to Gaussian, Inc.
  
 This software is provided under written license and may be
 used, copied, transmitted, or stored only in accord with that
 written license.
  
 The following legend is applicable only to US Government
 contracts under FAR:
  
                    RESTRICTED RIGHTS LEGEND
  
 Use, reproduction and disclosure by the US Government is
 subject to restrictions as set forth in subparagraphs (a)
 and (c) of the Commercial Computer Software - Restricted
 Rights clause in FAR 52.227-19.
  
 Gaussian, Inc.
 340 Quinnipiac St., Bldg. 40, Wallingford CT 06492
  
  
 ---------------------------------------------------------------
 Warning -- This program may not be used in any manner that
 competes with the business of Gaussian, Inc. or will provide
 assistance to any competitor of Gaussian, Inc.  The licensee
 of this program is prohibited from giving any competitor of
 Gaussian, Inc. access to this program.  By using this program,
 the user acknowledges that Gaussian, Inc. is engaged in the
 business of creating and licensing software in the field of
 computational chemistry and represents and warrants to the
 licensee that it is not a competitor of Gaussian, Inc. and that
 it will not use this program in any manner prohibited above.
 ---------------------------------------------------------------
  

 Cite this work as:
 Gaussian 16, Revision A.03,
 M. J. Frisch, G. W. Trucks, H. B. Schlegel, G. E. Scuseria, 
 M. A. Robb, J. R. Cheeseman, G. Scalmani, V. Barone, 
 G. A. Petersson, H. Nakatsuji, X. Li, M. Caricato, A. V. Marenich, 
 J. Bloino, B. G. Janesko, R. Gomperts, B. Mennucci, H. P. Hratchian, 
 J. V. Ortiz, A. F. Izmaylov, J. L. Sonnenberg, D. Williams-Young, 
 F. Ding, F. Lipparini, F. Egidi, J. Goings, B. Peng, A. Petrone, 
 T. Henderson, D. Ranasinghe, V. G. Zakrzewski, J. Gao, N. Rega, 
 G. Zheng, W. Liang, M. Hada, M. Ehara, K. Toyota, R. Fukuda, 
 J. Hasegawa, M. Ishida, T. Nakajima, Y. Honda, O. Kitao, H. Nakai, 
 T. Vreven, K. Throssell, J. A. Montgomery, Jr., J. E. Peralta, 
 F. Ogliaro, M. J. Bearpark, J. J. Heyd, E. N. Brothers, K. N. Kudin, 
 V. N. Staroverov, T. A. Keith, R. Kobayashi, J. Normand, 
 K. Raghavachari, A. P. Rendell, J. C. Burant, S. S. Iyengar, 
 J. Tomasi, M. Cossi, J. M. Millam, M. Klene, C. Adamo, R. Cammi, 
 J. W. Ochterski, R. L. Martin, K. Morokuma, O. Farkas, 
 J. B. Foresman, and D. J. Fox, Gaussian, Inc., Wallingford CT, 2016.
 
 ******************************************
 Gaussian 16:  ES64L-G16RevA.03 25-Dec-2016
                 9-Mar-2018 
 ******************************************
 %MEM=80GB
 %CPU=0-15
 SetSPE:  set environment variable "MP_BIND" = "yes"
 SetSPE:  set environment variable "MP_BLIST" = "0,1,2,3,4,5,6,7,8,9,10,11,12,13,14,15"
 Will use up to   16 processors via shared memory.
 %RWF=/scratch/04843/aannabe/gaussian/
 %Int=/scratch/04843/aannabe/gaussian/
 %D2E=/scratch/04843/aannabe/gaussian/
 %NoSave
 %CHK=CrO
 ----------------------------------------------------------------------
 #P ROCCSD(T)=(maxcyc=150, Full, SaveAmplitudes, ReadAmplitudes)/Gen 5d
  7f SCF=(maxcycles=300) Integral(NoXCTest) MaxDisk=500GB Pop=Regular P
 seudo=Read Guess=Read
 ----------------------------------------------------------------------
 1/38=1,172=1/1;
 2/12=2,17=6,18=5,40=1/2;
 3/5=7,8=11,11=2,16=1,17=8,25=1,30=1,47=8,116=101/1,2,3;
 4/5=1/1;
 5/5=2,7=300,38=6/2;
 8/5=-1,6=4,9=120000,10=90,24=1/1,4;
 9/5=7,6=150,14=2,77=1/13;
 6//1;
 99/5=1,9=1/99;
 Leave Link    1 at Fri Mar  9 16:16:30 2018, MaxMem= 10737418240 cpu:               3.5 elap:               0.2
 (Enter /home1/apps/gaussian/16rA.03/g16/l101.exe)
 ---
 CrO
 ---
 Symbolic Z-matrix:
 Charge =  0 Multiplicity = 5
 Cr                    0.        0.        0. 
 O                     0.        0.        1.4 
 
 ITRead=  0  0
 MicOpt= -1 -1
 NAtoms=      2 NQM=        2 NQMF=       0 NMMI=      0 NMMIF=      0
                NMic=       0 NMicF=      0.
                    Isotopes and Nuclear Properties:
 (Nuclear quadrupole moments (NQMom) in fm**2, nuclear magnetic moments (NMagM)
  in nuclear magnetons)

  Atom         1           2
 IAtWgt=          52          16
 AtmWgt=  51.9405097  15.9949146
 NucSpn=           0           0
 AtZEff=  -0.0000000  -0.0000000
 NQMom=    0.0000000   0.0000000
 NMagM=    0.0000000   0.0000000
 AtZNuc=  24.0000000   8.0000000
 Leave Link  101 at Fri Mar  9 16:16:30 2018, MaxMem= 10737418240 cpu:               1.4 elap:               0.1
 (Enter /home1/apps/gaussian/16rA.03/g16/l202.exe)
                          Input orientation:                          
 ---------------------------------------------------------------------
 Center     Atomic      Atomic             Coordinates (Angstroms)
 Number     Number       Type             X           Y           Z
 ---------------------------------------------------------------------
      1         24           0        0.000000    0.000000    0.000000
      2          8           0        0.000000    0.000000    1.400000
 ---------------------------------------------------------------------
 Stoichiometry    CrO(5)
 Framework group  C*V[C*(OCr)]
 Deg. of freedom     1
 Full point group                 C*V     NOp   4
 Largest Abelian subgroup         C2V     NOp   4
 Largest concise Abelian subgroup C1      NOp   1
                         Standard orientation:                         
 ---------------------------------------------------------------------
 Center     Atomic      Atomic             Coordinates (Angstroms)
 Number     Number       Type             X           Y           Z
 ---------------------------------------------------------------------
      1         24           0        0.000000    0.000000    0.350000
      2          8           0        0.000000    0.000000   -1.050000
 ---------------------------------------------------------------------
 Rotational constants (GHZ):           0.0000000          21.0847903          21.0847903
 Leave Link  202 at Fri Mar  9 16:16:30 2018, MaxMem= 10737418240 cpu:               0.3 elap:               0.1
 (Enter /home1/apps/gaussian/16rA.03/g16/l301.exe)
 General basis read from cards:  (5D, 7F)
 Centers:       1
 S 1 1.00
     Exponent=  1.1016640000D+07 Coefficients=  1.0000000000D+00
 S 1 1.00
     Exponent=  1.6494230000D+06 Coefficients=  1.0000000000D+00
 S 1 1.00
     Exponent=  3.7535890000D+05 Coefficients=  1.0000000000D+00
 S 1 1.00
     Exponent=  1.0632360000D+05 Coefficients=  1.0000000000D+00
 S 1 1.00
     Exponent=  3.4689760000D+04 Coefficients=  1.0000000000D+00
 S 1 1.00
     Exponent=  1.2524830000D+04 Coefficients=  1.0000000000D+00
 S 1 1.00
     Exponent=  4.8857520000D+03 Coefficients=  1.0000000000D+00
 S 1 1.00
     Exponent=  2.0269180000D+03 Coefficients=  1.0000000000D+00
 S 1 1.00
     Exponent=  8.8436450000D+02 Coefficients=  1.0000000000D+00
 S 1 1.00
     Exponent=  4.0231700000D+02 Coefficients=  1.0000000000D+00
 S 1 1.00
     Exponent=  1.8952710000D+02 Coefficients=  1.0000000000D+00
 S 1 1.00
     Exponent=  9.1860950000D+01 Coefficients=  1.0000000000D+00
 S 1 1.00
     Exponent=  4.5124760000D+01 Coefficients=  1.0000000000D+00
 S 1 1.00
     Exponent=  2.0625120000D+01 Coefficients=  1.0000000000D+00
 S 1 1.00
     Exponent=  1.0319730000D+01 Coefficients=  1.0000000000D+00
 S 1 1.00
     Exponent=  5.1577230000D+00 Coefficients=  1.0000000000D+00
 S 1 1.00
     Exponent=  2.3126280000D+00 Coefficients=  1.0000000000D+00
 S 1 1.00
     Exponent=  1.1030790000D+00 Coefficients=  1.0000000000D+00
 S 1 1.00
     Exponent=  4.9804200000D-01 Coefficients=  1.0000000000D+00
 S 1 1.00
     Exponent=  1.1824700000D-01 Coefficients=  1.0000000000D+00
 S 1 1.00
     Exponent=  5.7356000000D-02 Coefficients=  1.0000000000D+00
 S 1 1.00
     Exponent=  2.5760000000D-02 Coefficients=  1.0000000000D+00
 S 1 1.00
     Exponent=  4.7991000000D+00 Coefficients=  1.0000000000D+00
 S 1 1.00
     Exponent=  1.4287000000D+00 Coefficients=  1.0000000000D+00
 S 1 1.00
     Exponent=  1.1570000000D-02 Coefficients=  1.0000000000D+00
 P 1 1.00
     Exponent=  3.1539890000D+04 Coefficients=  1.0000000000D+00
 P 1 1.00
     Exponent=  7.4602340000D+03 Coefficients=  1.0000000000D+00
 P 1 1.00
     Exponent=  2.4226220000D+03 Coefficients=  1.0000000000D+00
 P 1 1.00
     Exponent=  9.2775470000D+02 Coefficients=  1.0000000000D+00
 P 1 1.00
     Exponent=  3.9480410000D+02 Coefficients=  1.0000000000D+00
 P 1 1.00
     Exponent=  1.8080270000D+02 Coefficients=  1.0000000000D+00
 P 1 1.00
     Exponent=  8.7423930000D+01 Coefficients=  1.0000000000D+00
 P 1 1.00
     Exponent=  4.4034270000D+01 Coefficients=  1.0000000000D+00
 P 1 1.00
     Exponent=  2.2777040000D+01 Coefficients=  1.0000000000D+00
 P 1 1.00
     Exponent=  1.2015470000D+01 Coefficients=  1.0000000000D+00
 P 1 1.00
     Exponent=  6.4117510000D+00 Coefficients=  1.0000000000D+00
 P 1 1.00
     Exponent=  3.3811360000D+00 Coefficients=  1.0000000000D+00
 P 1 1.00
     Exponent=  1.7470540000D+00 Coefficients=  1.0000000000D+00
 P 1 1.00
     Exponent=  8.8500400000D-01 Coefficients=  1.0000000000D+00
 P 1 1.00
     Exponent=  4.3302800000D-01 Coefficients=  1.0000000000D+00
 P 1 1.00
     Exponent=  1.7396200000D-01 Coefficients=  1.0000000000D+00
 P 1 1.00
     Exponent=  7.2823000000D-02 Coefficients=  1.0000000000D+00
 P 1 1.00
     Exponent=  2.9952000000D-02 Coefficients=  1.0000000000D+00
 P 1 1.00
     Exponent=  6.4552000000D+00 Coefficients=  1.0000000000D+00
 P 1 1.00
     Exponent=  1.6531000000D+00 Coefficients=  1.0000000000D+00
 P 1 1.00
     Exponent=  1.2320000000D-02 Coefficients=  1.0000000000D+00
 D 1 1.00
     Exponent=  2.8131200000D+02 Coefficients=  1.0000000000D+00
 D 1 1.00
     Exponent=  8.3188500000D+01 Coefficients=  1.0000000000D+00
 D 1 1.00
     Exponent=  3.1839600000D+01 Coefficients=  1.0000000000D+00
 D 1 1.00
     Exponent=  1.3602600000D+01 Coefficients=  1.0000000000D+00
 D 1 1.00
     Exponent=  6.1829800000D+00 Coefficients=  1.0000000000D+00
 D 1 1.00
     Exponent=  2.9227000000D+00 Coefficients=  1.0000000000D+00
 D 1 1.00
     Exponent=  1.3821600000D+00 Coefficients=  1.0000000000D+00
 D 1 1.00
     Exponent=  6.3946000000D-01 Coefficients=  1.0000000000D+00
 D 1 1.00
     Exponent=  2.8489800000D-01 Coefficients=  1.0000000000D+00
 D 1 1.00
     Exponent=  1.2004500000D-01 Coefficients=  1.0000000000D+00
 D 1 1.00
     Exponent=  4.6229000000D-02 Coefficients=  1.0000000000D+00
 D 1 1.00
     Exponent=  4.0848000000D+00 Coefficients=  1.0000000000D+00
 D 1 1.00
     Exponent=  2.1405000000D+00 Coefficients=  1.0000000000D+00
 D 1 1.00
     Exponent=  1.7800000000D-02 Coefficients=  1.0000000000D+00
 F 1 1.00
     Exponent=  5.6633000000D+00 Coefficients=  1.0000000000D+00
 F 1 1.00
     Exponent=  2.3365000000D+00 Coefficients=  1.0000000000D+00
 F 1 1.00
     Exponent=  9.6390000000D-01 Coefficients=  1.0000000000D+00
 F 1 1.00
     Exponent=  3.1420000000D-01 Coefficients=  1.0000000000D+00
 F 1 1.00
     Exponent=  1.0242000000D-01 Coefficients=  1.0000000000D+00
 G 1 1.00
     Exponent=  4.6690000000D+00 Coefficients=  1.0000000000D+00
 G 1 1.00
     Exponent=  1.9538000000D+00 Coefficients=  1.0000000000D+00
 G 1 1.00
     Exponent=  6.8480000000D-01 Coefficients=  1.0000000000D+00
 G 1 1.00
     Exponent=  2.4002000000D-01 Coefficients=  1.0000000000D+00
 H 1 1.00
     Exponent=  4.4133000000D+00 Coefficients=  1.0000000000D+00
 H 1 1.00
     Exponent=  1.6472000000D+00 Coefficients=  1.0000000000D+00
 H 1 1.00
     Exponent=  6.1479000000D-01 Coefficients=  1.0000000000D+00
 ****
 Centers:       2
 S 1 1.00
     Exponent=  6.1420000000D+04 Coefficients=  1.0000000000D+00
 S 1 1.00
     Exponent=  9.1990000000D+03 Coefficients=  1.0000000000D+00
 S 1 1.00
     Exponent=  2.0910000000D+03 Coefficients=  1.0000000000D+00
 S 1 1.00
     Exponent=  5.9090000000D+02 Coefficients=  1.0000000000D+00
 S 1 1.00
     Exponent=  1.9230000000D+02 Coefficients=  1.0000000000D+00
 S 1 1.00
     Exponent=  6.9320000000D+01 Coefficients=  1.0000000000D+00
 S 1 1.00
     Exponent=  2.6970000000D+01 Coefficients=  1.0000000000D+00
 S 1 1.00
     Exponent=  1.1100000000D+01 Coefficients=  1.0000000000D+00
 S 1 1.00
     Exponent=  4.6820000000D+00 Coefficients=  1.0000000000D+00
 S 1 1.00
     Exponent=  1.4280000000D+00 Coefficients=  1.0000000000D+00
 S 1 1.00
     Exponent=  5.5470000000D-01 Coefficients=  1.0000000000D+00
 S 1 1.00
     Exponent=  2.0670000000D-01 Coefficients=  1.0000000000D+00
 S 1 1.00
     Exponent=  1.2974000000D+01 Coefficients=  1.0000000000D+00
 S 1 1.00
     Exponent=  3.4900000000D+01 Coefficients=  1.0000000000D+00
 S 1 1.00
     Exponent=  9.3881000000D+01 Coefficients=  1.0000000000D+00
 S 1 1.00
     Exponent=  6.9590000000D-02 Coefficients=  1.0000000000D+00
 P 1 1.00
     Exponent=  6.3420000000D+01 Coefficients=  1.0000000000D+00
 P 1 1.00
     Exponent=  1.4660000000D+01 Coefficients=  1.0000000000D+00
 P 1 1.00
     Exponent=  4.4590000000D+00 Coefficients=  1.0000000000D+00
 P 1 1.00
     Exponent=  1.5310000000D+00 Coefficients=  1.0000000000D+00
 P 1 1.00
     Exponent=  5.3020000000D-01 Coefficients=  1.0000000000D+00
 P 1 1.00
     Exponent=  1.7500000000D-01 Coefficients=  1.0000000000D+00
 P 1 1.00
     Exponent=  1.4475000000D+01 Coefficients=  1.0000000000D+00
 P 1 1.00
     Exponent=  4.2730000000D+01 Coefficients=  1.0000000000D+00
 P 1 1.00
     Exponent=  1.2614000000D+02 Coefficients=  1.0000000000D+00
 P 1 1.00
     Exponent=  5.3480000000D-02 Coefficients=  1.0000000000D+00
 D 1 1.00
     Exponent=  3.7750000000D+00 Coefficients=  1.0000000000D+00
 D 1 1.00
     Exponent=  1.3000000000D+00 Coefficients=  1.0000000000D+00
 D 1 1.00
     Exponent=  4.4400000000D-01 Coefficients=  1.0000000000D+00
 D 1 1.00
     Exponent=  1.4927000000D+01 Coefficients=  1.0000000000D+00
 D 1 1.00
     Exponent=  5.7544000000D+01 Coefficients=  1.0000000000D+00
 D 1 1.00
     Exponent=  1.5400000000D-01 Coefficients=  1.0000000000D+00
 F 1 1.00
     Exponent=  2.6660000000D+00 Coefficients=  1.0000000000D+00
 F 1 1.00
     Exponent=  8.5900000000D-01 Coefficients=  1.0000000000D+00
 F 1 1.00
     Exponent=  2.6483000000D+01 Coefficients=  1.0000000000D+00
 F 1 1.00
     Exponent=  3.2400000000D-01 Coefficients=  1.0000000000D+00
 G 1 1.00
     Exponent=  1.8460000000D+00 Coefficients=  1.0000000000D+00
 G 1 1.00
     Exponent=  7.1400000000D-01 Coefficients=  1.0000000000D+00
 ****
 ======================================================================================================
                                       Pseudopotential Parameters
 ======================================================================================================
  Center     Atomic      Valence      Angular      Power
  Number     Number     Electrons     Momentum     of R      Exponent        Coefficient   SO-Coeffient
 ======================================================================================================
    1         24           14
                                      D and up 
                                                     1       18.9608692       14.00000000    0.00000000
                                                     3       19.2685642      265.45216919    0.00000000
                                                     2       18.0153842     -128.16784351    0.00000000
                                                     2        4.5700133       -0.77003812    0.00000000
                                      S - D
                                                     2       16.4903486      219.81621107    0.00000000
                                                     2        7.5667485       28.10747145    0.00000000
                                      P - D
                                                     2       16.3628681      143.81708416    0.00000000
                                                     2        7.8017945       20.57648136    0.00000000
    2          8            6
                                      P and up 
                                                     1       12.3099700        6.00000000    0.00000000
                                                     3       14.7696200       73.85984000    0.00000000
                                                     2       13.7141900      -47.87600000    0.00000000
                                      S - P
                                                     2       13.6551200       85.86406000    0.00000000
 ======================================================================================================
 Ernie: Thresh=  0.10000D-02 Tol=  0.10000D-05 Strict=F.
 There are   213 symmetry adapted cartesian basis functions of A1  symmetry.
 There are    56 symmetry adapted cartesian basis functions of A2  symmetry.
 There are   114 symmetry adapted cartesian basis functions of B1  symmetry.
 There are   114 symmetry adapted cartesian basis functions of B2  symmetry.
 There are   157 symmetry adapted basis functions of A1  symmetry.
 There are    47 symmetry adapted basis functions of A2  symmetry.
 There are    90 symmetry adapted basis functions of B1  symmetry.
 There are    90 symmetry adapted basis functions of B2  symmetry.
   384 basis functions,   497 primitive gaussians,   497 cartesian basis functions
    12 alpha electrons        8 beta electrons
       nuclear repulsion energy        31.7506326552 Hartrees.
 IExCor=    0 DFT=F Ex=HF Corr=None ExCW=0 ScaHFX=  1.000000
 ScaDFX=  1.000000  1.000000  1.000000  1.000000 ScalE2=  1.000000  1.000000
 IRadAn=      5 IRanWt=     -1 IRanGd=            0 ICorTp=0 IEmpDi=  4
 NAtoms=    2 NActive=    2 NUniq=    2 SFac= 1.00D+00 NAtFMM=   60 NAOKFM=F Big=F
 Integral buffers will be    131072 words long.
 Raffenetti 2 integral format.
 Two-electron integral symmetry is turned on.
 Leave Link  301 at Fri Mar  9 16:16:31 2018, MaxMem= 10737418240 cpu:               4.6 elap:               0.3
 (Enter /home1/apps/gaussian/16rA.03/g16/l302.exe)
 NPDir=0 NMtPBC=     1 NCelOv=     1 NCel=       1 NClECP=     1 NCelD=      1
         NCelK=      1 NCelE2=     1 NClLst=     1 CellRange=     0.0.
 One-electron integrals computed using PRISM.
 One-electron integral symmetry used in STVInt
   4 Symmetry operations used in ECPInt.
 ECPInt:  NShTT=    6105 NPrTT=    6105 LenC2=    5622 LenP2D=    5621.
 LDataN:  DoStor=T MaxTD1=10 Len=  848
 NBasis=   384 RedAO= T EigKep=  1.26D-06  NBF=   157    47    90    90
 NBsUse=   380 1.00D-06 EigRej=  3.40D-07 NBFU=   155    47    89    89
 Leave Link  302 at Fri Mar  9 16:16:33 2018, MaxMem= 10737418240 cpu:              40.3 elap:               2.6
 (Enter /home1/apps/gaussian/16rA.03/g16/l303.exe)
 DipDrv:  MaxL=1.
 Leave Link  303 at Fri Mar  9 16:16:34 2018, MaxMem= 10737418240 cpu:               1.9 elap:               0.2
 (Enter /home1/apps/gaussian/16rA.03/g16/l401.exe)
 Initial guess from the checkpoint file:  "CrO.chk"
 B after Tr=     0.000000    0.000000    0.000000
         Rot=    1.000000    0.000000    0.000000    0.000000 Ang=   0.00 deg.
 Guess basis will be translated and rotated to current coordinates.
 JPrj=2 DoOrth=T DoCkMO=T.
 Initial guess orbital symmetries:
       Occupied  (SG) (SG) (PI) (PI) (SG) (?A) (?A) (SG) (?B) (?B)
                 (?B) (?A)
       Virtual   (?A) (SG) (?A) (SG) (?A) (?B) (?A) (?B) (?B) (?A)
                 (?A) (?B) (?B) (?A) (?B) (?A) (?A) (?B) (?A) (?B)
                 (?B) (?A) (?B) (?A) (?A) (SG) (?B) (DLTA) (DLTA)
                 (PHI) (PHI) (?A) (?A) (SG) (?A) (?A) (?C) (?C)
                 (?C) (?D) (PI) (PI) (?D) (?D) (?A) (?A) (?D) (SG)
                 (PI) (PI) (SG) (DLTA) (DLTA) (?E) (?E) (?E) (?E)
                 (PHI) (PHI) (SG) (?D) (?D) (?D) (?D) (?F) (?G)
                 (?G) (?F) (?F) (?F) (DLTA) (DLTA) (PHI) (PHI)
                 (?D) (?D) (?D) (PI) (PI) (?D) (PI) (PI) (DLTA)
                 (DLTA) (SG) (PI) (PI) (SG) (PI) (PI) (SG) (PHI)
                 (PHI) (DLTA) (DLTA) (SG) (PI) (PI) (SG) (PI) (PI)
                 (?H) (?H) (PHI) (PHI) (?H) (PI) (PI) (SG) (?G)
                 (?G) (PHI) (PHI) (?I) (DLTA) (DLTA) (?I) (?I)
                 (?I) (?I) (PI) (PI) (SG) (PI) (PI) (PI) (PI) (SG)
                 (SG) (?E) (?E) (DLTA) (DLTA) (?E) (?E) (SG) (PI)
                 (PI) (SG) (PI) (PI) (SG) (?J) (?J) (PI) (PI) (?J)
                 (SG) (SG) (?K) (?K) (?E) (?E) (?K) (?K) (?E) (?E)
                 (?K) (PI) (PI) (SG) (DLTA) (DLTA) (PI) (PI) (SG)
                 (SG) (SG) (DLTA) (DLTA) (PI) (PI) (SG) (PI) (PI)
                 (SG) (PI) (PI) (SG) (SG) (SG) (DLTA) (DLTA) (PI)
                 (PI) (SG) (PI) (PI) (PI) (PI) (SG) (SG) (SG) (SG)
                 (PI) (PI) (SG) (SG) (SG) (PI) (PI) (SG) (DLTA)
                 (DLTA) (PI) (PI) (SG) (PI) (PI) (SG) (SG) (SG)
                 (PI) (PI) (SG) (SG) (SG) (PI) (PI) (SG) (SG) (SG)
                 (PI) (PI) (SG) (SG) (SG) (PI) (PI) (SG) (SG) (SG)
                 (PI) (PI) (SG) (SG) (SG) (SG) (SG) (SG) (SG) (DLTA)
                 (SG) (SG) (DLTA) (SG) (SG) (SG) (SG) (DLTA) (DLTA)
                 (SG) (SG) (DLTA) (SG) (SG) (DLTA) (SG) (SG) (?G)
                 (DLTA) (SG) (SG) (DLTA) (SG) (?G) (SG) (DLTA)
                 (SG) (DLTA) (?G) (SG) (DLTA) (SG) (DLTA) (SG)
                 (DLTA) (DLTA) (SG) (SG) (DLTA) (SG) (?G) (?G)
                 (?G) (DLTA) (DLTA) (DLTA) (DLTA) (DLTA) (DLTA)
                 (?G) (DLTA) (DLTA) (?G) (DLTA) (DLTA) (?G) (DLTA)
                 (DLTA) (DLTA) (DLTA) (DLTA) (?G) (?G) (?G) (PI)
                 (PI) (PI) (PI) (PI) (PI) (PHI) (PI) (PI) (PI)
                 (PHI) (PI) (PI) (PI) (PHI) (PHI) (PI) (PI) (PI)
                 (?L) (PI) (PI) (PHI) (PHI) (PI) (PHI) (PI) (PHI)
                 (?L) (PHI) (?L) (PI) (PI) (PI) (PI) (PI) (PI)
                 (PHI) (PI) (PI) (PI) (PHI) (PI) (PI) (PI) (PHI)
                 (PHI) (PI) (PI) (PI) (?L) (PI) (PI) (PHI) (PHI)
                 (PI) (PHI) (PI) (PHI) (?L) (PHI) (?L)
 Leave Link  401 at Fri Mar  9 16:16:35 2018, MaxMem= 10737418240 cpu:              12.0 elap:               0.9
 (Enter /home1/apps/gaussian/16rA.03/g16/l502.exe)
 Keep R1 and R2 ints in memory in symmetry-blocked form, NReq=3425113631.
 FoFCou: FMM=F IPFlag=           8 FMFlag=           0 FMFlg1=           0
         NFxFlg=           0 DoJE=F BraDBF=F KetDBF=F FulRan=T
         wScrn=  0.000000 ICntrl=       600 IOpCl=  0 I1Cent=           0 NGrid=           0
         NMat0=    1 NMatS0=  73920 NMatT0=    0 NMatD0=    1 NMtDS0=    0 NMtDT0=    0
 Petite list used in FoFCou.
 Restricted open shell SCF:
 Using DIIS extrapolation, IDIIS=  1040.
 NGot= 10737418240 LenX=  9351093905 LenY=  9350846399
 Requested convergence on RMS density matrix=1.00D-08 within 300 cycles.
 Requested convergence on MAX density matrix=1.00D-06.
 Requested convergence on             energy=1.00D-06.
 No special actions if energy rises.

 Cycle   1  Pass 1  IDiag  1:
 E= -101.783262663478    
 DIIS: error= 2.98D-01 at cycle   1 NSaved=   1.
 NSaved= 1 IEnMin= 1 EnMin= -101.783262663478     IErMin= 1 ErrMin= 2.98D-01
 ErrMax= 2.98D-01  0.00D+00 EMaxC= 1.00D-01 BMatC= 4.99D+01 BMatP= 4.99D+01
 IDIUse=3 WtCom= 0.00D+00 WtEn= 1.00D+00
 Coeff-Com:  0.100D+01
 Coeff-En:   0.100D+01
 Coeff:      0.100D+01
 Gap=     0.068 Goal=   None    Shift=    0.000
 GapD=    0.068 DampG=0.500 DampE=0.125 DampFc=0.1250 IDamp=-1.
 Damping current iteration by 1.25D-01
 RMSDP=2.02D-03 MaxDP=1.75D-01              OVMax= 4.72D-03

 Cycle   2  Pass 1  IDiag  1:
 E= -101.783449736819     Delta-E=       -0.000187073341 Rises=F Damp=T
 DIIS: error= 2.61D-01 at cycle   2 NSaved=   2.
 NSaved= 2 IEnMin= 2 EnMin= -101.783449736819     IErMin= 2 ErrMin= 2.61D-01
 ErrMax= 2.61D-01  0.00D+00 EMaxC= 1.00D-01 BMatC= 3.82D+01 BMatP= 4.99D+01
 IDIUse=3 WtCom= 0.00D+00 WtEn= 1.00D+00
 Coeff-Com: -0.700D+01 0.800D+01
 Coeff-En:   0.000D+00 0.100D+01
 Coeff:      0.000D+00 0.100D+01
 Gap=     0.067 Goal=   None    Shift=    0.000
 RMSDP=1.70D-03 MaxDP=1.51D-01 DE=-1.87D-04 OVMax= 8.59D-03

 Cycle   3  Pass 1  IDiag  1:
 E= -101.784764472538     Delta-E=       -0.001314735720 Rises=F Damp=F
 DIIS: error= 5.64D-04 at cycle   3 NSaved=   3.
 NSaved= 3 IEnMin= 3 EnMin= -101.784764472538     IErMin= 3 ErrMin= 5.64D-04
 ErrMax= 5.64D-04  0.00D+00 EMaxC= 1.00D-01 BMatC= 3.95D-05 BMatP= 3.82D+01
 IDIUse=3 WtCom= 9.94D-01 WtEn= 5.64D-03
 Coeff-Com: -0.120D+01 0.137D+01 0.829D+00
 Coeff-En:   0.000D+00 0.000D+00 0.100D+01
 Coeff:     -0.119D+01 0.136D+01 0.830D+00
 Gap=     0.067 Goal=   None    Shift=    0.000
 RMSDP=1.57D-04 MaxDP=3.32D-02 DE=-1.31D-03 OVMax= 9.85D-03

 Cycle   4  Pass 1  IDiag  1:
 E= -101.784778953153     Delta-E=       -0.000014480615 Rises=F Damp=F
 DIIS: error= 5.48D-04 at cycle   4 NSaved=   4.
 NSaved= 4 IEnMin= 4 EnMin= -101.784778953153     IErMin= 4 ErrMin= 5.48D-04
 ErrMax= 5.48D-04  0.00D+00 EMaxC= 1.00D-01 BMatC= 2.61D-05 BMatP= 3.95D-05
 IDIUse=3 WtCom= 9.95D-01 WtEn= 5.48D-03
 Coeff-Com: -0.827D+00 0.946D+00 0.464D+00 0.418D+00
 Coeff-En:   0.000D+00 0.000D+00 0.462D+00 0.538D+00
 Coeff:     -0.823D+00 0.940D+00 0.464D+00 0.418D+00
 Gap=     0.067 Goal=   None    Shift=    0.000
 RMSDP=1.61D-04 MaxDP=3.94D-02 DE=-1.45D-05 OVMax= 1.36D-02

 Cycle   5  Pass 1  IDiag  1:
 E= -101.784784244803     Delta-E=       -0.000005291650 Rises=F Damp=F
 DIIS: error= 3.27D-04 at cycle   5 NSaved=   5.
 NSaved= 5 IEnMin= 5 EnMin= -101.784784244803     IErMin= 5 ErrMin= 3.27D-04
 ErrMax= 3.27D-04  0.00D+00 EMaxC= 1.00D-01 BMatC= 1.95D-05 BMatP= 2.61D-05
 IDIUse=3 WtCom= 9.97D-01 WtEn= 3.27D-03
 Coeff-Com: -0.707D+00 0.808D+00 0.995D-01 0.336D+00 0.463D+00
 Coeff-En:   0.000D+00 0.000D+00 0.000D+00 0.486D+00 0.514D+00
 Coeff:     -0.705D+00 0.805D+00 0.992D-01 0.337D+00 0.463D+00
 Gap=     0.067 Goal=   None    Shift=    0.000
 RMSDP=5.22D-05 MaxDP=7.13D-03 DE=-5.29D-06 OVMax= 1.33D-02

 Cycle   6  Pass 1  IDiag  1:
 E= -101.784795564189     Delta-E=       -0.000011319386 Rises=F Damp=F
 DIIS: error= 2.97D-04 at cycle   6 NSaved=   6.
 NSaved= 6 IEnMin= 6 EnMin= -101.784795564189     IErMin= 6 ErrMin= 2.97D-04
 ErrMax= 2.97D-04  0.00D+00 EMaxC= 1.00D-01 BMatC= 1.45D-05 BMatP= 1.95D-05
 IDIUse=3 WtCom= 9.97D-01 WtEn= 2.97D-03
 EnCoef did     4 forward-backward iterations
 Coeff-Com: -0.646D+00 0.739D+00-0.956D-01 0.175D+00 0.473D+00 0.356D+00
 Coeff-En:   0.000D+00 0.000D+00 0.000D+00 0.407D+00 0.460D+00 0.133D+00
 Coeff:     -0.644D+00 0.736D+00-0.954D-01 0.175D+00 0.473D+00 0.355D+00
 Gap=     0.067 Goal=   None    Shift=    0.000
 RMSDP=2.35D-05 MaxDP=2.88D-03 DE=-1.13D-05 OVMax= 6.36D-03

 Cycle   7  Pass 1  IDiag  1:
 E= -101.784816553040     Delta-E=       -0.000020988850 Rises=F Damp=F
 DIIS: error= 2.15D-04 at cycle   7 NSaved=   7.
 NSaved= 7 IEnMin= 7 EnMin= -101.784816553040     IErMin= 7 ErrMin= 2.15D-04
 ErrMax= 2.15D-04  0.00D+00 EMaxC= 1.00D-01 BMatC= 4.89D-06 BMatP= 1.45D-05
 IDIUse=3 WtCom= 9.98D-01 WtEn= 2.15D-03
 Rare condition: small coef for last iteration: -0.222D-15
 Coeff-Com: -0.579D+00 0.662D+00-0.108D+00 0.470D-01 0.238D+00 0.227D+00
 Coeff-Com:  0.512D+00
 Coeff-En:   0.000D+00 0.000D+00 0.000D+00 0.237D+00 0.116D+00 0.118D+00
 Coeff-En:   0.529D+00
 Coeff:     -0.579D+00 0.662D+00-0.108D+00 0.470D-01 0.238D+00 0.227D+00
 Coeff:      0.512D+00
 Gap=     0.067 Goal=   None    Shift=    0.000
 RMSDP=1.75D-05 MaxDP=4.35D-03 DE=-2.10D-05 OVMax= 5.89D-04

 Cycle   8  Pass 1  IDiag  1:
 E= -101.784818339332     Delta-E=       -0.000001786293 Rises=F Damp=F
 DIIS: error= 1.89D-04 at cycle   8 NSaved=   8.
 NSaved= 8 IEnMin= 8 EnMin= -101.784818339332     IErMin= 8 ErrMin= 1.89D-04
 ErrMax= 1.89D-04  0.00D+00 EMaxC= 1.00D-01 BMatC= 3.71D-06 BMatP= 4.89D-06
 IDIUse=3 WtCom= 9.98D-01 WtEn= 1.89D-03
 EnCoef did   100 forward-backward iterations
 Coeff-Com: -0.500D+00 0.572D+00-0.850D-01-0.289D-01 0.496D-01 0.834D-01
 Coeff-Com:  0.304D+00 0.606D+00
 Coeff-En:   0.000D+00 0.000D+00 0.000D+00 0.403D+00 0.451D+00 0.131D+00
 Coeff-En:   0.000D+00 0.147D-01
 Coeff:     -0.499D+00 0.571D+00-0.849D-01-0.281D-01 0.504D-01 0.835D-01
 Coeff:      0.303D+00 0.605D+00
 Gap=     0.067 Goal=   None    Shift=    0.000
 RMSDP=2.17D-05 MaxDP=5.78D-03 DE=-1.79D-06 OVMax= 7.58D-04

 Cycle   9  Pass 1  IDiag  1:
 E= -101.784819924364     Delta-E=       -0.000001585031 Rises=F Damp=F
 DIIS: error= 1.57D-04 at cycle   9 NSaved=   9.
 NSaved= 9 IEnMin= 9 EnMin= -101.784819924364     IErMin= 9 ErrMin= 1.57D-04
 ErrMax= 1.57D-04  0.00D+00 EMaxC= 1.00D-01 BMatC= 2.66D-06 BMatP= 3.71D-06
 IDIUse=3 WtCom= 9.98D-01 WtEn= 1.57D-03
 EnCoef did   100 forward-backward iterations
 Rare condition: small coef for last iteration:  0.000D+00
 Coeff-Com: -0.433D+00 0.495D+00-0.667D-01-0.588D-01-0.381D-01 0.565D-02
 Coeff-Com:  0.130D+00 0.607D+00 0.359D+00
 Coeff-En:   0.000D+00 0.000D+00 0.000D+00 0.210D+00 0.978D-01 0.681D-01
 Coeff-En:   0.000D+00 0.000D+00 0.624D+00
 Coeff:     -0.433D+00 0.495D+00-0.667D-01-0.588D-01-0.381D-01 0.565D-02
 Coeff:      0.130D+00 0.607D+00 0.359D+00
 Gap=     0.067 Goal=   None    Shift=    0.000
 RMSDP=1.72D-05 MaxDP=4.60D-03 DE=-1.59D-06 OVMax= 4.15D-04

 Cycle  10  Pass 1  IDiag  1:
 E= -101.784820978899     Delta-E=       -0.000001054535 Rises=F Damp=F
 DIIS: error= 1.35D-04 at cycle  10 NSaved=  10.
 NSaved=10 IEnMin=10 EnMin= -101.784820978899     IErMin=10 ErrMin= 1.35D-04
 ErrMax= 1.35D-04  0.00D+00 EMaxC= 1.00D-01 BMatC= 1.95D-06 BMatP= 2.66D-06
 IDIUse=3 WtCom= 9.99D-01 WtEn= 1.35D-03
 EnCoef did   100 forward-backward iterations
 Coeff-Com: -0.295D+00 0.337D+00-0.351D-01-0.737D-01-0.112D+00-0.789D-01
 Coeff-Com: -0.109D+00 0.258D+00 0.298D+00 0.811D+00
 Coeff-En:   0.000D+00 0.000D+00 0.000D+00 0.400D+00 0.449D+00 0.130D+00
 Coeff-En:   0.000D+00 0.000D+00 0.000D+00 0.198D-01
 Coeff:     -0.295D+00 0.337D+00-0.350D-01-0.731D-01-0.112D+00-0.787D-01
 Coeff:     -0.109D+00 0.258D+00 0.298D+00 0.810D+00
 Gap=     0.067 Goal=   None    Shift=    0.000
 RMSDP=3.64D-05 MaxDP=1.02D-02 DE=-1.05D-06 OVMax= 4.29D-04

 Cycle  11  Pass 1  IDiag  1:
 E= -101.784822480439     Delta-E=       -0.000001501540 Rises=F Damp=F
 DIIS: error= 9.23D-05 at cycle  11 NSaved=  11.
 NSaved=11 IEnMin=11 EnMin= -101.784822480439     IErMin=11 ErrMin= 9.23D-05
 ErrMax= 9.23D-05  0.00D+00 EMaxC= 1.00D-01 BMatC= 9.00D-07 BMatP= 1.95D-06
 IDIUse=1 WtCom= 1.00D+00 WtEn= 0.00D+00
 Coeff-Com: -0.195D+00 0.223D+00-0.221D-01-0.488D-01-0.755D-01-0.573D-01
 Coeff-Com: -0.984D-01 0.109D+00 0.114D+00 0.162D+00 0.889D+00
 Coeff:     -0.195D+00 0.223D+00-0.221D-01-0.488D-01-0.755D-01-0.573D-01
 Coeff:     -0.984D-01 0.109D+00 0.114D+00 0.162D+00 0.889D+00
 Gap=     0.067 Goal=   None    Shift=    0.000
 RMSDP=2.59D-05 MaxDP=7.35D-03 DE=-1.50D-06 OVMax= 2.82D-04

 Cycle  12  Pass 1  IDiag  1:
 E= -101.784823197898     Delta-E=       -0.000000717459 Rises=F Damp=F
 DIIS: error= 6.15D-05 at cycle  12 NSaved=  12.
 NSaved=12 IEnMin=12 EnMin= -101.784823197898     IErMin=12 ErrMin= 6.15D-05
 ErrMax= 6.15D-05  0.00D+00 EMaxC= 1.00D-01 BMatC= 4.01D-07 BMatP= 9.00D-07
 IDIUse=1 WtCom= 1.00D+00 WtEn= 0.00D+00
 Coeff-Com: -0.385D-01 0.440D-01-0.642D-02 0.470D-02 0.190D-01 0.129D-01
 Coeff-Com:  0.787D-02-0.425D-01-0.168D+00-0.100D+01 0.135D+01 0.820D+00
 Coeff:     -0.385D-01 0.440D-01-0.642D-02 0.470D-02 0.190D-01 0.129D-01
 Coeff:      0.787D-02-0.425D-01-0.168D+00-0.100D+01 0.135D+01 0.820D+00
 Gap=     0.067 Goal=   None    Shift=    0.000
 RMSDP=4.07D-05 MaxDP=1.17D-02 DE=-7.17D-07 OVMax= 4.90D-04

 Cycle  13  Pass 1  IDiag  1:
 E= -101.784823751349     Delta-E=       -0.000000553450 Rises=F Damp=F
 DIIS: error= 1.24D-05 at cycle  13 NSaved=  13.
 NSaved=13 IEnMin=13 EnMin= -101.784823751349     IErMin=13 ErrMin= 1.24D-05
 ErrMax= 1.24D-05  0.00D+00 EMaxC= 1.00D-01 BMatC= 1.67D-08 BMatP= 4.01D-07
 IDIUse=1 WtCom= 1.00D+00 WtEn= 0.00D+00
 Coeff-Com: -0.383D-01 0.438D-01-0.749D-02 0.419D-02 0.189D-01 0.179D-01
 Coeff-Com:  0.369D-01 0.350D-01-0.627D-01-0.505D+00 0.361D+00 0.463D+00
 Coeff-Com:  0.633D+00
 Coeff:     -0.383D-01 0.438D-01-0.749D-02 0.419D-02 0.189D-01 0.179D-01
 Coeff:      0.369D-01 0.350D-01-0.627D-01-0.505D+00 0.361D+00 0.463D+00
 Coeff:      0.633D+00
 Gap=     0.067 Goal=   None    Shift=    0.000
 RMSDP=7.97D-07 MaxDP=1.01D-04 DE=-5.53D-07 OVMax= 6.48D-05

 Cycle  14  Pass 1  IDiag  1:
 E= -101.784823752683     Delta-E=       -0.000000001334 Rises=F Damp=F
 DIIS: error= 1.22D-05 at cycle  14 NSaved=  14.
 NSaved=14 IEnMin=14 EnMin= -101.784823752683     IErMin=14 ErrMin= 1.22D-05
 ErrMax= 1.22D-05  0.00D+00 EMaxC= 1.00D-01 BMatC= 1.56D-08 BMatP= 1.67D-08
 IDIUse=1 WtCom= 1.00D+00 WtEn= 0.00D+00
 Coeff-Com: -0.325D-01 0.372D-01-0.608D-02 0.696D-03 0.942D-02 0.109D-01
 Coeff-Com:  0.289D-01 0.453D-01-0.786D-02-0.180D+00-0.481D-01 0.195D+00
 Coeff-Com:  0.549D+00 0.398D+00
 Coeff:     -0.325D-01 0.372D-01-0.608D-02 0.696D-03 0.942D-02 0.109D-01
 Coeff:      0.289D-01 0.453D-01-0.786D-02-0.180D+00-0.481D-01 0.195D+00
 Coeff:      0.549D+00 0.398D+00
 Gap=     0.067 Goal=   None    Shift=    0.000
 RMSDP=1.70D-06 MaxDP=4.79D-04 DE=-1.33D-09 OVMax= 3.78D-05

 Cycle  15  Pass 1  IDiag  1:
 E= -101.784823759756     Delta-E=       -0.000000007073 Rises=F Damp=F
 DIIS: error= 9.99D-06 at cycle  15 NSaved=  15.
 NSaved=15 IEnMin=15 EnMin= -101.784823759756     IErMin=15 ErrMin= 9.99D-06
 ErrMax= 9.99D-06  0.00D+00 EMaxC= 1.00D-01 BMatC= 1.10D-08 BMatP= 1.56D-08
 IDIUse=1 WtCom= 1.00D+00 WtEn= 0.00D+00
 Coeff-Com: -0.180D-01 0.206D-01-0.306D-02-0.176D-02 0.439D-04 0.235D-02
 Coeff-Com:  0.113D-01 0.286D-01 0.207D-01 0.483D-01-0.241D+00-0.156D-01
 Coeff-Com:  0.274D+00 0.323D+00 0.551D+00
 Coeff:     -0.180D-01 0.206D-01-0.306D-02-0.176D-02 0.439D-04 0.235D-02
 Coeff:      0.113D-01 0.286D-01 0.207D-01 0.483D-01-0.241D+00-0.156D-01
 Coeff:      0.274D+00 0.323D+00 0.551D+00
 Gap=     0.067 Goal=   None    Shift=    0.000
 RMSDP=4.03D-06 MaxDP=1.18D-03 DE=-7.07D-09 OVMax= 4.58D-05

 Cycle  16  Pass 1  IDiag  1:
 E= -101.784823770863     Delta-E=       -0.000000011108 Rises=F Damp=F
 DIIS: error= 5.61D-06 at cycle  16 NSaved=  16.
 NSaved=16 IEnMin=16 EnMin= -101.784823770863     IErMin=16 ErrMin= 5.61D-06
 ErrMax= 5.61D-06  0.00D+00 EMaxC= 1.00D-01 BMatC= 3.37D-09 BMatP= 1.10D-08
 IDIUse=1 WtCom= 1.00D+00 WtEn= 0.00D+00
 Coeff-Com: -0.921D-02 0.105D-01-0.107D-02-0.324D-02-0.579D-02-0.375D-02
 Coeff-Com: -0.375D-02 0.171D-01 0.294D-01 0.127D+00-0.206D+00-0.982D-01
 Coeff-Com:  0.188D-02 0.270D-01 0.225D+00 0.894D+00
 Coeff:     -0.921D-02 0.105D-01-0.107D-02-0.324D-02-0.579D-02-0.375D-02
 Coeff:     -0.375D-02 0.171D-01 0.294D-01 0.127D+00-0.206D+00-0.982D-01
 Coeff:      0.188D-02 0.270D-01 0.225D+00 0.894D+00
 Gap=     0.067 Goal=   None    Shift=    0.000
 RMSDP=2.30D-06 MaxDP=6.68D-04 DE=-1.11D-08 OVMax= 2.95D-05

 Cycle  17  Pass 1  IDiag  1:
 E= -101.784823774441     Delta-E=       -0.000000003578 Rises=F Damp=F
 DIIS: error= 3.02D-06 at cycle  17 NSaved=  17.
 NSaved=17 IEnMin=17 EnMin= -101.784823774441     IErMin=17 ErrMin= 3.02D-06
 ErrMax= 3.02D-06  0.00D+00 EMaxC= 1.00D-01 BMatC= 8.97D-10 BMatP= 3.37D-09
 IDIUse=1 WtCom= 1.00D+00 WtEn= 0.00D+00
 Coeff-Com: -0.453D-02 0.518D-02-0.299D-03-0.241D-02-0.491D-02-0.388D-02
 Coeff-Com: -0.659D-02 0.877D-02 0.189D-01 0.816D-01-0.845D-01-0.701D-01
 Coeff-Com: -0.905D-01-0.120D+00-0.116D+00 0.753D+00 0.636D+00
 Coeff:     -0.453D-02 0.518D-02-0.299D-03-0.241D-02-0.491D-02-0.388D-02
 Coeff:     -0.659D-02 0.877D-02 0.189D-01 0.816D-01-0.845D-01-0.701D-01
 Coeff:     -0.905D-01-0.120D+00-0.116D+00 0.753D+00 0.636D+00
 Gap=     0.067 Goal=   None    Shift=    0.000
 RMSDP=1.18D-06 MaxDP=3.36D-04 DE=-3.58D-09 OVMax= 1.74D-05

 Cycle  18  Pass 1  IDiag  1:
 E= -101.784823775432     Delta-E=       -0.000000000991 Rises=F Damp=F
 DIIS: error= 1.48D-06 at cycle  18 NSaved=  18.
 NSaved=18 IEnMin=18 EnMin= -101.784823775432     IErMin=18 ErrMin= 1.48D-06
 ErrMax= 1.48D-06  0.00D+00 EMaxC= 1.00D-01 BMatC= 2.16D-10 BMatP= 8.97D-10
 IDIUse=1 WtCom= 1.00D+00 WtEn= 0.00D+00
 Coeff-Com: -0.249D-02 0.284D-02-0.220D-03-0.926D-03-0.173D-02-0.142D-02
 Coeff-Com: -0.285D-02 0.466D-02 0.556D-02 0.119D-01 0.152D-02-0.137D-01
 Coeff-Com: -0.502D-01-0.837D-01-0.166D+00 0.172D+00 0.455D+00 0.670D+00
 Coeff:     -0.249D-02 0.284D-02-0.220D-03-0.926D-03-0.173D-02-0.142D-02
 Coeff:     -0.285D-02 0.466D-02 0.556D-02 0.119D-01 0.152D-02-0.137D-01
 Coeff:     -0.502D-01-0.837D-01-0.166D+00 0.172D+00 0.455D+00 0.670D+00
 Gap=     0.067 Goal=   None    Shift=    0.000
 RMSDP=5.51D-07 MaxDP=1.60D-04 DE=-9.91D-10 OVMax= 8.07D-06

 Cycle  19  Pass 1  IDiag  1:
 E= -101.784823775657     Delta-E=       -0.000000000225 Rises=F Damp=F
 DIIS: error= 8.30D-07 at cycle  19 NSaved=  19.
 NSaved=19 IEnMin=19 EnMin= -101.784823775657     IErMin=19 ErrMin= 8.30D-07
 ErrMax= 8.30D-07  0.00D+00 EMaxC= 1.00D-01 BMatC= 6.51D-11 BMatP= 2.16D-10
 IDIUse=1 WtCom= 1.00D+00 WtEn= 0.00D+00
 Coeff-Com: -0.975D-03 0.111D-02-0.160D-03 0.251D-04 0.280D-03 0.277D-03
 Coeff-Com:  0.194D-03 0.180D-02-0.205D-02-0.221D-01 0.301D-01 0.160D-01
 Coeff-Com: -0.235D-02-0.155D-01-0.861D-01-0.184D+00 0.115D+00 0.538D+00
 Coeff-Com:  0.611D+00
 Coeff:     -0.975D-03 0.111D-02-0.160D-03 0.251D-04 0.280D-03 0.277D-03
 Coeff:      0.194D-03 0.180D-02-0.205D-02-0.221D-01 0.301D-01 0.160D-01
 Coeff:     -0.235D-02-0.155D-01-0.861D-01-0.184D+00 0.115D+00 0.538D+00
 Coeff:      0.611D+00
 Gap=     0.067 Goal=   None    Shift=    0.000
 RMSDP=4.20D-07 MaxDP=1.23D-04 DE=-2.25D-10 OVMax= 5.26D-06

 Cycle  20  Pass 1  IDiag  1:
 E= -101.784823775738     Delta-E=       -0.000000000082 Rises=F Damp=F
 DIIS: error= 3.08D-07 at cycle  20 NSaved=  20.
 NSaved=20 IEnMin=20 EnMin= -101.784823775738     IErMin=20 ErrMin= 3.08D-07
 ErrMax= 3.08D-07  0.00D+00 EMaxC= 1.00D-01 BMatC= 9.99D-12 BMatP= 6.51D-11
 IDIUse=1 WtCom= 1.00D+00 WtEn= 0.00D+00
 Coeff-Com:  0.147D-03-0.168D-03-0.127D-04 0.208D-03 0.485D-03 0.415D-03
 Coeff-Com:  0.623D-03-0.618D-03-0.273D-02-0.147D-01 0.174D-01 0.111D-01
 Coeff-Com:  0.524D-02 0.402D-02-0.191D-01-0.130D+00-0.251D-01 0.153D+00
 Coeff-Com:  0.335D+00 0.665D+00
 Coeff:      0.147D-03-0.168D-03-0.127D-04 0.208D-03 0.485D-03 0.415D-03
 Coeff:      0.623D-03-0.618D-03-0.273D-02-0.147D-01 0.174D-01 0.111D-01
 Coeff:      0.524D-02 0.402D-02-0.191D-01-0.130D+00-0.251D-01 0.153D+00
 Coeff:      0.335D+00 0.665D+00
 Gap=     0.067 Goal=   None    Shift=    0.000
 RMSDP=2.93D-07 MaxDP=8.43D-05 DE=-8.15D-11 OVMax= 3.34D-06

 Cycle  21  Pass 1  IDiag  1:
 E= -101.784823775752     Delta-E=       -0.000000000014 Rises=F Damp=F
 DIIS: error= 4.36D-08 at cycle  21 NSaved=  20.
 NSaved=20 IEnMin=20 EnMin= -101.784823775752     IErMin=20 ErrMin= 4.36D-08
 ErrMax= 4.36D-08  0.00D+00 EMaxC= 1.00D-01 BMatC= 2.73D-13 BMatP= 9.99D-12
 IDIUse=1 WtCom= 1.00D+00 WtEn= 0.00D+00
 Coeff-Com:  0.110D-09-0.174D-04 0.674D-04 0.177D-03 0.179D-03 0.477D-03
 Coeff-Com: -0.430D-03-0.810D-03-0.268D-02 0.179D-02 0.271D-02 0.562D-02
 Coeff-Com:  0.775D-02 0.113D-01-0.319D-01-0.464D-01-0.367D-01 0.596D-01
 Coeff-Com:  0.358D+00 0.671D+00
 Coeff:      0.110D-09-0.174D-04 0.674D-04 0.177D-03 0.179D-03 0.477D-03
 Coeff:     -0.430D-03-0.810D-03-0.268D-02 0.179D-02 0.271D-02 0.562D-02
 Coeff:      0.775D-02 0.113D-01-0.319D-01-0.464D-01-0.367D-01 0.596D-01
 Coeff:      0.358D+00 0.671D+00
 Gap=     0.067 Goal=   None    Shift=    0.000
 RMSDP=4.06D-08 MaxDP=1.15D-05 DE=-1.36D-11 OVMax= 6.95D-07

 Cycle  22  Pass 1  IDiag  1:
 E= -101.784823775753     Delta-E=       -0.000000000001 Rises=F Damp=F
 DIIS: error= 1.06D-08 at cycle  22 NSaved=  20.
 NSaved=20 IEnMin=20 EnMin= -101.784823775753     IErMin=20 ErrMin= 1.06D-08
 ErrMax= 1.06D-08  0.00D+00 EMaxC= 1.00D-01 BMatC= 1.37D-14 BMatP= 2.73D-13
 IDIUse=1 WtCom= 1.00D+00 WtEn= 0.00D+00
 Coeff-Com: -0.293D-05-0.291D-06 0.547D-05 0.162D-04 0.145D-03-0.123D-03
 Coeff-Com:  0.115D-03 0.152D-02-0.254D-02-0.885D-03 0.163D-02 0.291D-02
 Coeff-Com:  0.943D-02 0.110D-01-0.187D-01-0.490D-01-0.378D-01 0.192D-01
 Coeff-Com:  0.304D+00 0.759D+00
 Coeff:     -0.293D-05-0.291D-06 0.547D-05 0.162D-04 0.145D-03-0.123D-03
 Coeff:      0.115D-03 0.152D-02-0.254D-02-0.885D-03 0.163D-02 0.291D-02
 Coeff:      0.943D-02 0.110D-01-0.187D-01-0.490D-01-0.378D-01 0.192D-01
 Coeff:      0.304D+00 0.759D+00
 Gap=     0.067 Goal=   None    Shift=    0.000
 RMSDP=9.16D-09 MaxDP=1.32D-06 DE=-6.82D-13 OVMax= 3.26D-07

 Cycle  23  Pass 1  IDiag  1:
 E= -101.784823775752     Delta-E=        0.000000000000 Rises=F Damp=F
 DIIS: error= 1.25D-08 at cycle  23 NSaved=  20.
 NSaved=20 IEnMin=19 EnMin= -101.784823775753     IErMin=19 ErrMin= 1.06D-08
 ErrMax= 1.25D-08  0.00D+00 EMaxC= 1.00D-01 BMatC= 1.03D-14 BMatP= 1.37D-14
 IDIUse=1 WtCom= 1.00D+00 WtEn= 0.00D+00
 Coeff-Com: -0.992D-05-0.220D-04-0.179D-04-0.152D-05 0.974D-04 0.277D-03
 Coeff-Com:  0.131D-02-0.199D-02-0.112D-02-0.229D-03 0.138D-03 0.355D-02
 Coeff-Com:  0.141D-01-0.961D-04-0.202D-01-0.396D-01-0.971D-01-0.215D-01
 Coeff-Com:  0.569D+00 0.593D+00
 Coeff:     -0.992D-05-0.220D-04-0.179D-04-0.152D-05 0.974D-04 0.277D-03
 Coeff:      0.131D-02-0.199D-02-0.112D-02-0.229D-03 0.138D-03 0.355D-02
 Coeff:      0.141D-01-0.961D-04-0.202D-01-0.396D-01-0.971D-01-0.215D-01
 Coeff:      0.569D+00 0.593D+00
 Gap=     0.067 Goal=   None    Shift=    0.000
 RMSDP=6.93D-09 MaxDP=9.46D-07 DE= 4.83D-13 OVMax= 2.31D-07

 SCF Done:  E(ROHF) =  -101.784823776     A.U. after   23 cycles
            NFock= 23  Conv=0.69D-08     -V/T= 2.7910
 <Sx>= 0.0000 <Sy>= 0.0000 <Sz>= 2.0000 <S**2>= 6.0000 S= 2.0000
 <L.S>=  0.00000000000    
 KE= 5.683263516668D+01 PE=-2.952519716599D+02 EE= 1.048838800623D+02
 Annihilation of the first spin contaminant:
 S**2 before annihilation     6.0000,   after     6.0000
 Leave Link  502 at Fri Mar  9 16:18:58 2018, MaxMem= 10737418240 cpu:            1981.7 elap:             143.3
 (Enter /home1/apps/gaussian/16rA.03/g16/l801.exe)
 Windowed orbitals will be sorted by symmetry type.
 GenMOA:  NOpAll=  4 NOp2=4 NOpUse=  4 JSym2X=1
 FoFJK:  IHMeth= 1 ICntrl=       0 DoSepK=F KAlg= 0 I1Cent=           0 FoldK=F
 IRaf=         0 NMat=       1 IRICut=       1 DoRegI=T DoRafI=F ISym2E= 1 IDoP0=0 IntGTp=1.
 FoFCou: FMM=F IPFlag=           8 FMFlag=      100000 FMFlg1=           0
         NFxFlg=           0 DoJE=F BraDBF=F KetDBF=F FulRan=T
         wScrn=  0.000000 ICntrl=         0 IOpCl=  1 I1Cent=           0 NGrid=           0
         NMat0=    1 NMatS0=      1 NMatT0=    0 NMatD0=    1 NMtDS0=    0 NMtDT0=    0
 Petite list used in FoFCou.
 <Sx>= 0.0000 <Sy>= 0.0000 <Sz>= 2.0000 <S**2>= 6.0000 S= 2.0000
 Range of M.O.s used for correlation:     1   380
 NBasis=   384 NAE=    12 NBE=     8 NFC=     0 NFV=     0
 NROrb=    380 NOA=    12 NOB=     8 NVA=   368 NVB=   372

 **** Warning!!: The largest alpha MO coefficient is  0.32423863D+03


 **** Warning!!: The largest beta MO coefficient is  0.32404456D+03

 Singles contribution to E2=   -0.6093128198D-02
 Leave Link  801 at Fri Mar  9 16:19:35 2018, MaxMem= 10737418240 cpu:             555.8 elap:              34.8
 (Enter /home1/apps/gaussian/16rA.03/g16/l804.exe)
 Open-shell transformation, MDV= 10737418240 ITran=4 ISComp=2.
 Unit  1 TFree=       4464409 TCopy=       3213103.
 Semi-Direct transformation.
 ModeAB=           4 MOrb=            12 LenV=   10733102398
 LASXX=     82082530 LTotXX=    82082530 LenRXX=   165023772
 LTotAB=    82941242 MaxLAS=   559279440 LenRXY=           0
 NonZer=   247106302 LenScr=   372113408 LnRSAI=   559279440
 LnScr1=   842209280 LExtra=    22862132 Total=   1961488032
 MaxDsk= 67108864000 SrtSym=           T ITran=            4
 DoSDTr:  NPSUse= 16
 JobTyp=1 Pass  1:  I=   1 to  12.
 (rs|ai) integrals will be sorted in core.
 Complete sort for first half transformation.
 First half transformation complete.
 Begin second half transformation for I=  10.
 Complete sort for second half transformation.
 Second half transformation complete.
 ModeAB=           4 MOrb=             8 LenV=   10733102398
 LASXX=     55242478 LTotXX=    55242478 LenRXX=   107543238
 LTotAB=    52300760 MaxLAS=   372852960 LenRXY=           0
 NonZer=   162785716 LenScr=   245136384 LnRSAI=   372852960
 LnScr1=   561473536 LExtra=   187885904 Total=   1474892022
 MaxDsk= 67108864000 SrtSym=           T ITran=            4
 DoSDTr:  NPSUse= 16
 JobTyp=2 Pass  1:  I=   1 to   8.
 (rs|ai) integrals will be sorted in core.
 Complete sort for first half transformation.
 First half transformation complete.
 Complete sort for second half transformation.
 Second half transformation complete.
 Spin components of T(2) and E(2):
     alpha-alpha T2 =       0.4180615518D-01 E2=     -0.1742157329D+00
     alpha-beta  T2 =       0.1275889867D+00 E2=     -0.6367680135D+00
     beta-beta   T2 =       0.2472148964D-01 E2=     -0.9837498282D-01
 ANorm=    0.1094671485D+01
 E2 =    -0.9154518574D+00 EUMP2 =    -0.10270027563317D+03
 (S**2,0)=  0.60000D+01           (S**2,1)=  0.60000D+01
 E(PUHF)=      -0.10178482378D+03        E(PMP2)=      -0.10270027563D+03
 Recovering and transforming amplitudes from chk file.
 B after Tr=     0.000000    0.000000    0.000000
         Rot=    1.000000    0.000000    0.000000    0.000000 Ang=   0.00 deg.
 Alpha occ  Sing. vals= 9.999996D-01 9.999996D-01 9.999995D-01 9.999989D-01 9.999962D-01 9.999927D-01 9.999926D-01 9.999905D-01 9.999850D-01 9.999703D-01
 Alpha occ  Sing. vals= 9.999680D-01 9.999661D-01
 Alpha occ  NOrbO=    12 NOrbN=    12 NSVal=    12 ThrEig=  0.900000.
 TrMax= 1.000000D+00 PrMax= 1.000000D+00 Trace(Pr)= 1.200000D+01
 B after Tr=     0.000000    0.000000    0.000000
         Rot=    1.000000    0.000000    0.000000    0.000000 Ang=   0.00 deg.
 Alpha virt Sing. vals= 1.000000D+00 1.000000D+00 1.000000D+00 1.000000D+00 1.000000D+00 1.000000D+00 1.000000D+00 1.000000D+00 1.000000D+00 1.000000D+00
 Alpha virt Sing. vals= 1.000000D+00 1.000000D+00 1.000000D+00 1.000000D+00 1.000000D+00 1.000000D+00 1.000000D+00 1.000000D+00 1.000000D+00 1.000000D+00
 Alpha virt Sing. vals= 1.000000D+00 1.000000D+00 1.000000D+00 1.000000D+00 1.000000D+00 1.000000D+00 1.000000D+00 9.999999D-01 9.999999D-01 9.999999D-01
 Alpha virt Sing. vals= 9.999999D-01 9.999999D-01 9.999999D-01 9.999999D-01 9.999999D-01 9.999999D-01 9.999998D-01 9.999998D-01 9.999997D-01 9.999996D-01
 Alpha virt Sing. vals= 9.999995D-01 9.999995D-01 9.999995D-01 9.999995D-01 9.999994D-01 9.999991D-01 9.999991D-01 9.999989D-01 9.999989D-01 9.999987D-01
 Alpha virt Sing. vals= 9.999983D-01 9.999979D-01 9.999978D-01 9.999978D-01 9.999978D-01 9.999962D-01 9.999955D-01 9.999941D-01 9.999938D-01 9.999935D-01
 Alpha virt Sing. vals= 9.999917D-01 9.999894D-01 9.999886D-01 9.999847D-01 9.999806D-01 9.999793D-01 9.999793D-01 9.999752D-01 9.999751D-01 9.999746D-01
 Alpha virt Sing. vals= 9.999743D-01 9.999741D-01 9.999654D-01 9.999531D-01 9.999449D-01 9.999448D-01 9.999310D-01 9.999236D-01 9.999236D-01 9.999221D-01
 Alpha virt Sing. vals= 9.999098D-01 9.999079D-01 9.999078D-01 9.998748D-01 9.998745D-01 9.998578D-01 9.998514D-01 9.998512D-01 9.998247D-01 9.998244D-01
 Alpha virt Sing. vals= 9.998244D-01 9.998226D-01 9.998112D-01 9.998097D-01 9.998095D-01 9.997933D-01 9.997932D-01 9.997931D-01 9.997928D-01 9.997928D-01
 Alpha virt Sing. vals= 9.997735D-01 9.997735D-01 9.997630D-01 9.997626D-01 9.997549D-01 9.997549D-01 9.997432D-01 9.997370D-01 9.997370D-01 9.996825D-01
 Alpha virt Sing. vals= 9.996009D-01 9.996008D-01 9.995931D-01 9.995815D-01 9.995470D-01 9.995470D-01 9.994985D-01 9.994985D-01 9.994786D-01 9.994532D-01
 Alpha virt Sing. vals= 9.993873D-01 9.993872D-01 9.993812D-01 9.993812D-01 9.993767D-01 9.993767D-01 9.993711D-01 9.993711D-01 9.993309D-01 9.992948D-01
 Alpha virt Sing. vals= 9.992946D-01 9.990358D-01 9.988858D-01 9.988858D-01 9.987955D-01 9.987194D-01 9.987190D-01 9.984880D-01 9.983458D-01 9.983458D-01
 Alpha virt Sing. vals= 9.982625D-01 9.982623D-01 9.981392D-01 9.981391D-01 9.979524D-01 9.979302D-01 9.979125D-01 9.979125D-01 9.977916D-01 9.977915D-01
 Alpha virt Sing. vals= 9.976818D-01 9.970203D-01 9.970202D-01 9.969091D-01 9.969091D-01 9.967723D-01 9.967723D-01 9.967509D-01 9.964392D-01 9.964057D-01
 Alpha virt Sing. vals= 9.964057D-01 9.959014D-01 9.957409D-01 9.957409D-01 9.956860D-01 9.956860D-01 9.956859D-01 9.956680D-01 9.956680D-01 9.946119D-01
 Alpha virt Sing. vals= 9.941032D-01 9.941032D-01 9.939831D-01 9.939831D-01 9.930163D-01 9.929709D-01 9.929707D-01 9.924589D-01 9.920038D-01 9.920038D-01
 Alpha virt Sing. vals= 9.903933D-01 9.902805D-01 9.902804D-01 9.875298D-01 9.875296D-01 9.832113D-01 9.832109D-01 9.818944D-01 9.810334D-01 9.810334D-01
 Alpha virt Sing. vals= 9.808466D-01 9.808465D-01 9.800756D-01 9.796425D-01 9.769586D-01 9.759166D-01 9.759163D-01 9.753826D-01 9.753826D-01 9.740308D-01
 Alpha virt Sing. vals= 9.702361D-01 9.702361D-01 9.669220D-01 9.669219D-01 9.614125D-01 9.605593D-01 9.582759D-01 9.582758D-01 9.471559D-01 9.471559D-01
 Alpha virt Sing. vals= 9.467096D-01 9.399977D-01 9.399977D-01 9.399975D-01 9.355257D-01 9.355257D-01 9.329519D-01 9.258260D-01 9.258260D-01 9.253677D-01
 Alpha virt Sing. vals= 9.212993D-01 9.212993D-01 9.200898D-01 9.200898D-01 9.199911D-01 9.199911D-01 9.180627D-01 9.180622D-01 9.174458D-01 8.902519D-01
 Alpha virt Sing. vals= 8.902519D-01 8.811030D-01 8.706517D-01 8.706516D-01 8.483784D-01 8.483784D-01 8.392652D-01 8.392651D-01 8.186816D-01 7.500807D-01
 Alpha virt NOrbO=   240 NOrbN=   368 NSVal=   229 ThrEig=  0.900000.
 TrMax= 9.983925D-01 PrMax= 9.992230D-01 Trace(Pr)= 2.290000D+02
 B after Tr=     0.000000    0.000000    0.000000
         Rot=    1.000000    0.000000    0.000000    0.000000 Ang=   0.00 deg.
 Beta  occ  Sing. vals= 9.999996D-01 9.999995D-01 9.999994D-01 9.999986D-01 9.999958D-01 9.999704D-01 9.999680D-01 9.999678D-01
 Beta  occ  NOrbO=     8 NOrbN=     8 NSVal=     8 ThrEig=  0.900000.
 TrMax= 1.000000D+00 PrMax= 1.000000D+00 Trace(Pr)= 8.000000D+00
 B after Tr=     0.000000    0.000000    0.000000
         Rot=    1.000000    0.000000    0.000000    0.000000 Ang=   0.00 deg.
 Beta  virt Sing. vals= 1.000000D+00 1.000000D+00 1.000000D+00 1.000000D+00 1.000000D+00 1.000000D+00 1.000000D+00 1.000000D+00 1.000000D+00 1.000000D+00
 Beta  virt Sing. vals= 1.000000D+00 1.000000D+00 1.000000D+00 1.000000D+00 1.000000D+00 1.000000D+00 1.000000D+00 1.000000D+00 1.000000D+00 1.000000D+00
 Beta  virt Sing. vals= 1.000000D+00 1.000000D+00 1.000000D+00 1.000000D+00 1.000000D+00 1.000000D+00 1.000000D+00 1.000000D+00 1.000000D+00 1.000000D+00
 Beta  virt Sing. vals= 1.000000D+00 9.999999D-01 9.999999D-01 9.999999D-01 9.999999D-01 9.999999D-01 9.999999D-01 9.999999D-01 9.999999D-01 9.999999D-01
 Beta  virt Sing. vals= 9.999997D-01 9.999997D-01 9.999997D-01 9.999996D-01 9.999995D-01 9.999994D-01 9.999994D-01 9.999994D-01 9.999994D-01 9.999992D-01
 Beta  virt Sing. vals= 9.999991D-01 9.999989D-01 9.999989D-01 9.999987D-01 9.999983D-01 9.999979D-01 9.999978D-01 9.999978D-01 9.999978D-01 9.999957D-01
 Beta  virt Sing. vals= 9.999955D-01 9.999938D-01 9.999938D-01 9.999935D-01 9.999918D-01 9.999894D-01 9.999886D-01 9.999847D-01 9.999806D-01 9.999793D-01
 Beta  virt Sing. vals= 9.999793D-01 9.999748D-01 9.999748D-01 9.999745D-01 9.999741D-01 9.999741D-01 9.999654D-01 9.999531D-01 9.999448D-01 9.999448D-01
 Beta  virt Sing. vals= 9.999307D-01 9.999228D-01 9.999228D-01 9.999221D-01 9.999098D-01 9.999079D-01 9.999078D-01 9.998745D-01 9.998744D-01 9.998577D-01
 Beta  virt Sing. vals= 9.998512D-01 9.998512D-01 9.998247D-01 9.998244D-01 9.998244D-01 9.998226D-01 9.998112D-01 9.998096D-01 9.998095D-01 9.997933D-01
 Beta  virt Sing. vals= 9.997931D-01 9.997931D-01 9.997928D-01 9.997928D-01 9.997735D-01 9.997735D-01 9.997629D-01 9.997626D-01 9.997549D-01 9.997549D-01
 Beta  virt Sing. vals= 9.997432D-01 9.997370D-01 9.997370D-01 9.996825D-01 9.996008D-01 9.996008D-01 9.995931D-01 9.995815D-01 9.995470D-01 9.995470D-01
 Beta  virt Sing. vals= 9.994985D-01 9.994985D-01 9.994784D-01 9.994531D-01 9.993872D-01 9.993872D-01 9.993812D-01 9.993812D-01 9.993767D-01 9.993767D-01
 Beta  virt Sing. vals= 9.993711D-01 9.993711D-01 9.993309D-01 9.992948D-01 9.992947D-01 9.990359D-01 9.988847D-01 9.988847D-01 9.987955D-01 9.987191D-01
 Beta  virt Sing. vals= 9.987190D-01 9.984881D-01 9.983440D-01 9.983440D-01 9.982625D-01 9.982623D-01 9.981392D-01 9.981391D-01 9.979524D-01 9.979303D-01
 Beta  virt Sing. vals= 9.979125D-01 9.979125D-01 9.977916D-01 9.977915D-01 9.976818D-01 9.970202D-01 9.970202D-01 9.969091D-01 9.969091D-01 9.967723D-01
 Beta  virt Sing. vals= 9.967723D-01 9.967509D-01 9.964394D-01 9.964057D-01 9.964057D-01 9.959014D-01 9.957409D-01 9.957409D-01 9.956860D-01 9.956860D-01
 Beta  virt Sing. vals= 9.956859D-01 9.956680D-01 9.956679D-01 9.946119D-01 9.941032D-01 9.941032D-01 9.939831D-01 9.939831D-01 9.930162D-01 9.929708D-01
 Beta  virt Sing. vals= 9.929707D-01 9.924589D-01 9.920038D-01 9.920038D-01 9.903933D-01 9.902805D-01 9.902804D-01 9.875298D-01 9.875298D-01 9.832109D-01
 Beta  virt Sing. vals= 9.832109D-01 9.818947D-01 9.810334D-01 9.810334D-01 9.808462D-01 9.808462D-01 9.800756D-01 9.796421D-01 9.769586D-01 9.759163D-01
 Beta  virt Sing. vals= 9.759163D-01 9.753826D-01 9.753826D-01 9.740303D-01 9.702354D-01 9.702354D-01 9.669221D-01 9.669219D-01 9.614126D-01 9.605589D-01
 Beta  virt Sing. vals= 9.582758D-01 9.582757D-01 9.471558D-01 9.471558D-01 9.467098D-01 9.399977D-01 9.399977D-01 9.399975D-01 9.355256D-01 9.355256D-01
 Beta  virt Sing. vals= 9.329526D-01 9.258260D-01 9.258260D-01 9.253677D-01 9.212993D-01 9.212993D-01 9.200897D-01 9.200897D-01 9.199911D-01 9.199911D-01
 Beta  virt Sing. vals= 9.180622D-01 9.180622D-01 9.174460D-01 8.902519D-01 8.902518D-01 8.811028D-01 8.706516D-01 8.706516D-01 8.483784D-01 8.483784D-01
 Beta  virt Sing. vals= 8.392650D-01 8.392650D-01 8.186817D-01 7.500808D-01
 Beta  virt NOrbO=   244 NOrbN=   372 NSVal=   233 ThrEig=  0.900000.
 TrMax= 9.983492D-01 PrMax= 9.992906D-01 Trace(Pr)= 2.330000D+02
 Leave Link  804 at Fri Mar  9 16:33:16 2018, MaxMem= 10737418240 cpu:           13114.6 elap:             820.7
 (Enter /home1/apps/gaussian/16rA.03/g16/l913.exe)
 CIDS:  MDV= 10737418240.
 IFCWin=0 IBDFC=1 NFBD=     0     0 NFCmp=     0     0 NFFFC=     0     0
 Amplitudes recovered.
 Using DD4UQ or CC4UQ for all iterations.
 Keep R2 and R3 ints in memory in symmetry-blocked form, NReq=3425134269.
 FoFCou: FMM=F IPFlag=           8 FMFlag=           0 FMFlg1=           0
         NFxFlg=           0 DoJE=F BraDBF=F KetDBF=F FulRan=T
         wScrn=  0.000000 ICntrl=       600 IOpCl=  0 I1Cent=           0 NGrid=           0
         NMat0=    1 NMatS0=  73920 NMatT0=    0 NMatD0=    1 NMtDS0=    0 NMtDT0=    0
 Petite list used in FoFCou.
 CIDS: In Core Option IDoMem=           1.
 CCSD(T)
 =======
 Iterations= 150 Convergence= 0.100D-06
 Produce multiple copies of IABC intergrals
 Iteration Nr.   1
 **********************
 DD1Dir will call FoFMem   1 times, MxPair=       286
 NAB=    96 NAA=    66 NBB=    28.
 Maximum subspace dimension=  5
 A-vector RMS=  1.5125727D-04 Max=  2.1929390D-03 conv= 1.00D-05.
 RLE energy=       -0.8967718998
 DE(Corr)= -0.88370140     E(Corr)=     -102.66852518    
 NORM(A)=   0.11040942D+01
 Iteration Nr.   2
 **********************
 DD1Dir will call FoFMem   1 times, MxPair=       286
 NAB=    96 NAA=    66 NBB=    28.
 A-vector RMS=  1.9264179D-03 Max=  2.6590933D-02 conv= 1.00D-05.
 RLE energy=       -0.8624988980
 DE(Corr)= -0.86103447     E(CORR)=     -102.64585825     Delta= 2.27D-02
 NORM(A)=   0.11074899D+01
 Iteration Nr.   3
 **********************
 DD1Dir will call FoFMem   1 times, MxPair=       286
 NAB=    96 NAA=    66 NBB=    28.
 A-vector RMS=  1.0746508D-03 Max=  1.6594488D-02 conv= 1.00D-05.
 RLE energy=       -0.8810282911
 DE(Corr)= -0.88998596     E(CORR)=     -102.67480974     Delta=-2.90D-02
 NORM(A)=   0.11111386D+01
 Iteration Nr.   4
 **********************
 DD1Dir will call FoFMem   1 times, MxPair=       286
 NAB=    96 NAA=    66 NBB=    28.
 A-vector RMS=  5.5898144D-04 Max=  8.4341042D-03 conv= 1.00D-05.
 RLE energy=       -0.8834629777
 DE(Corr)= -0.88005132     E(CORR)=     -102.66487510     Delta= 9.93D-03
 NORM(A)=   0.11179302D+01
 Iteration Nr.   5
 **********************
 DD1Dir will call FoFMem   1 times, MxPair=       286
 NAB=    96 NAA=    66 NBB=    28.
 A-vector RMS=  1.5645514D-04 Max=  3.1265326D-03 conv= 1.00D-05.
 RLE energy=       -0.8837103113
 DE(Corr)= -0.88302530     E(CORR)=     -102.66784907     Delta=-2.97D-03
 NORM(A)=   0.11218416D+01
 Iteration Nr.   6
 **********************
 DD1Dir will call FoFMem   1 times, MxPair=       286
 NAB=    96 NAA=    66 NBB=    28.
 A-vector RMS=  7.8316218D-05 Max=  1.3945348D-03 conv= 1.00D-05.
 RLE energy=       -0.8840739463
 DE(Corr)= -0.88399254     E(CORR)=     -102.66881631     Delta=-9.67D-04
 NORM(A)=   0.11239420D+01
 Iteration Nr.   7
 **********************
 DD1Dir will call FoFMem   1 times, MxPair=       286
 NAB=    96 NAA=    66 NBB=    28.
 A-vector RMS=  4.1352233D-05 Max=  6.7941753D-04 conv= 1.00D-05.
 RLE energy=       -0.8842158426
 DE(Corr)= -0.88408762     E(CORR)=     -102.66891140     Delta=-9.51D-05
 NORM(A)=   0.11246813D+01
 Iteration Nr.   8
 **********************
 DD1Dir will call FoFMem   1 times, MxPair=       286
 NAB=    96 NAA=    66 NBB=    28.
 A-vector RMS=  2.3780684D-05 Max=  3.4657300D-04 conv= 1.00D-05.
 RLE energy=       -0.8841171579
 DE(Corr)= -0.88417686     E(CORR)=     -102.66900063     Delta=-8.92D-05
 NORM(A)=   0.11248763D+01
 Iteration Nr.   9
 **********************
 DD1Dir will call FoFMem   1 times, MxPair=       286
 NAB=    96 NAA=    66 NBB=    28.
 A-vector RMS=  1.3435494D-05 Max=  1.6661116D-04 conv= 1.00D-05.
 RLE energy=       -0.8842366119
 DE(Corr)= -0.88422999     E(CORR)=     -102.66905377     Delta=-5.31D-05
 NORM(A)=   0.11249610D+01
 Iteration Nr.  10
 **********************
 DD1Dir will call FoFMem   1 times, MxPair=       286
 NAB=    96 NAA=    66 NBB=    28.
 A-vector RMS=  6.6671202D-06 Max=  1.1742126D-04 conv= 1.00D-05.
 RLE energy=       -0.8841743530
 DE(Corr)= -0.88417306     E(CORR)=     -102.66899683     Delta= 5.69D-05
 NORM(A)=   0.11249825D+01
 Iteration Nr.  11
 **********************
 DD1Dir will call FoFMem   1 times, MxPair=       286
 NAB=    96 NAA=    66 NBB=    28.
 A-vector RMS=  4.1273383D-06 Max=  6.2761705D-05 conv= 1.00D-05.
 RLE energy=       -0.8842105897
 DE(Corr)= -0.88422707     E(CORR)=     -102.66905085     Delta=-5.40D-05
 NORM(A)=   0.11249873D+01
 Iteration Nr.  12
 **********************
 DD1Dir will call FoFMem   1 times, MxPair=       286
 NAB=    96 NAA=    66 NBB=    28.
 A-vector RMS=  2.3970059D-06 Max=  2.9799598D-05 conv= 1.00D-05.
 RLE energy=       -0.8842060044
 DE(Corr)= -0.88419945     E(CORR)=     -102.66902323     Delta= 2.76D-05
 NORM(A)=   0.11250031D+01
 Iteration Nr.  13
 **********************
 DD1Dir will call FoFMem   1 times, MxPair=       286
 NAB=    96 NAA=    66 NBB=    28.
 A-vector RMS=  9.8682922D-07 Max=  1.4428341D-05 conv= 1.00D-05.
 RLE energy=       -0.8842086888
 DE(Corr)= -0.88420977     E(CORR)=     -102.66903355     Delta=-1.03D-05
 NORM(A)=   0.11250112D+01
 Iteration Nr.  14
 **********************
 DD1Dir will call FoFMem   1 times, MxPair=       286
 NAB=    96 NAA=    66 NBB=    28.
 A-vector RMS=  6.3871254D-07 Max=  1.0309037D-05 conv= 1.00D-05.
 RLE energy=       -0.8842103458
 DE(Corr)= -0.88420956     E(CORR)=     -102.66903334     Delta= 2.09D-07
 NORM(A)=   0.11250199D+01
 Iteration Nr.  15
 **********************
 DD1Dir will call FoFMem   1 times, MxPair=       286
 NAB=    96 NAA=    66 NBB=    28.
 A-vector RMS=  3.1892228D-07 Max=  4.9180063D-06 conv= 1.00D-05.
 RLE energy=       -0.8842113290
 DE(Corr)= -0.88421093     E(CORR)=     -102.66903471     Delta=-1.37D-06
 NORM(A)=   0.11250242D+01
 Iteration Nr.  16
 **********************
 DD1Dir will call FoFMem   1 times, MxPair=       286
 NAB=    96 NAA=    66 NBB=    28.
 A-vector RMS=  2.2958308D-07 Max=  3.0042475D-06 conv= 1.00D-05.
 RLE energy=       -0.8842113074
 DE(Corr)= -0.88421138     E(CORR)=     -102.66903516     Delta=-4.47D-07
 NORM(A)=   0.11250266D+01
 Iteration Nr.  17
 **********************
 DD1Dir will call FoFMem   1 times, MxPair=       286
 NAB=    96 NAA=    66 NBB=    28.
 A-vector RMS=  1.4927483D-07 Max=  1.9016753D-06 conv= 1.00D-05.
 RLE energy=       -0.8842119785
 DE(Corr)= -0.88421181     E(CORR)=     -102.66903559     Delta=-4.35D-07
 NORM(A)=   0.11250280D+01
 Iteration Nr.  18
 **********************
 DD1Dir will call FoFMem   1 times, MxPair=       286
 NAB=    96 NAA=    66 NBB=    28.
 A-vector RMS=  9.3950568D-08 Max=  1.9689387D-06 conv= 1.00D-05.
 RLE energy=       -0.8842115654
 DE(Corr)= -0.88421158     E(CORR)=     -102.66903535     Delta= 2.38D-07
 NORM(A)=   0.11250288D+01
 Iteration Nr.  19
 **********************
 DD1Dir will call FoFMem   1 times, MxPair=       286
 NAB=    96 NAA=    66 NBB=    28.
 A-vector RMS=  6.6826683D-08 Max=  7.6335480D-07 conv= 1.00D-05.
 RLE energy=       -0.8842120134
 DE(Corr)= -0.88421205     E(CORR)=     -102.66903583     Delta=-4.74D-07
 NORM(A)=   0.11250291D+01
 Iteration Nr.  20
 **********************
 DD1Dir will call FoFMem   1 times, MxPair=       286
 NAB=    96 NAA=    66 NBB=    28.
 A-vector RMS=  3.9643690D-08 Max=  4.9949771D-07 conv= 1.00D-05.
 RLE energy=       -0.8842117886
 DE(Corr)= -0.88421173     E(CORR)=     -102.66903550     Delta= 3.23D-07
 NORM(A)=   0.11250294D+01
 Iteration Nr.  21
 **********************
 DD1Dir will call FoFMem   1 times, MxPair=       286
 NAB=    96 NAA=    66 NBB=    28.
 A-vector RMS=  2.4535003D-08 Max=  3.7782290D-07 conv= 1.00D-05.
 RLE energy=       -0.8842119413
 DE(Corr)= -0.88421198     E(CORR)=     -102.66903576     Delta=-2.51D-07
 NORM(A)=   0.11250295D+01
 Iteration Nr.  22
 **********************
 DD1Dir will call FoFMem   1 times, MxPair=       286
 NAB=    96 NAA=    66 NBB=    28.
 A-vector RMS=  1.3468411D-08 Max=  2.0911794D-07 conv= 1.00D-05.
 RLE energy=       -0.8842119292
 DE(Corr)= -0.88421188     E(CORR)=     -102.66903566     Delta= 9.62D-08
 NORM(A)=   0.11250296D+01
 CI/CC converged in   22 iterations to DelEn= 9.62D-08 Conv= 1.00D-07 ErrA1= 1.35D-08 Conv= 1.00D-05
 Wavefunction amplitudes converged. E(Corr)=     -102.66903566    
 Largest amplitude= 9.77D-02
 Time for triples=    56563.64 seconds.
 T4(CCSD)= -0.57915530D-01
 T5(CCSD)=  0.11557737D-01
 CCSD(T)= -0.10271539345D+03
 Discarding MO integrals.
 Leave Link  913 at Fri Mar  9 17:52:46 2018, MaxMem= 10737418240 cpu:           76249.9 elap:            4769.9
 (Enter /home1/apps/gaussian/16rA.03/g16/l601.exe)
 Copying SCF densities to generalized density rwf, IOpCl= 0 IROHF=1.

 **********************************************************************

            Population analysis using the SCF density.

 **********************************************************************

 Orbital symmetries:
       Occupied  (SG) (SG) (PI) (PI) (SG) (?A) (?A) (SG) (?B) (?B)
                 (?B) (?A)
       Virtual   (?A) (SG) (?A) (SG) (SG) (?A) (DLTA) (DLTA) (?A)
                 (?A) (?B) (?A) (SG) (?B) (?A) (?A) (?B) (?B) (?A)
                 (?B) (?B) (?A) (?A) (?A) (?A) (SG) (?C) (?C) (?C)
                 (PHI) (PHI) (?A) (?D) (?A) (?D) (?D) (?D) (?A)
                 (?A) (?A) (?A) (?E) (?E) (?E) (?A) (?A) (SG) (SG)
                 (SG) (PI) (PI) (PHI) (PHI) (?F) (?F) (?G) (?G)
                 (?G) (?A) (?A) (?A) (?A) (?G) (?G) (?A) (?A) (?G)
                 (?G) (?G) (SG) (PI) (PI) (PHI) (PHI) (SG) (PI)
                 (PI) (DLTA) (DLTA) (SG) (PI) (PI) (SG) (DLTA)
                 (DLTA) (PI) (PI) (SG) (SG) (?H) (?H) (PI) (PI)
                 (?H) (DLTA) (DLTA) (?I) (?I) (?I) (?I) (?I) (?I)
                 (?F) (?F) (?I) (?I) (?D) (?F) (?F) (?D) (?D) (?J)
                 (?J) (?D) (PHI) (PHI) (PI) (PI) (?D) (?F) (?F)
                 (?D) (?D) (?D) (PI) (PI) (PHI) (PHI) (SG) (PI)
                 (PI) (DLTA) (DLTA) (PI) (PI) (PHI) (PHI) (SG)
                 (DLTA) (DLTA) (SG) (?K) (?K) (?K) (PI) (PI) (PI)
                 (PI) (?D) (?D) (?D) (?D) (PI) (PI) (SG) (PHI)
                 (PHI) (?L) (?L) (?L) (PI) (PI) (PI) (PI) (SG)
                 (?F) (?F) (PHI) (PHI) (DLTA) (DLTA) (PI) (PI)
                 (?L) (?L) (?L) (?J) (?J) (?L) (?L) (?I) (?I) (?I)
                 (?I) (PI) (PI) (SG) (?F) (?F) (PHI) (PHI) (SG)
                 (DLTA) (DLTA) (PI) (PI) (SG) (PHI) (PHI) (?L)
                 (?L) (?L) (?L) (?L) (PI) (PI) (PI) (PI) (DLTA)
                 (DLTA) (SG) (SG) (PI) (PI) (SG) (SG) (PI) (PI)
                 (SG) (PHI) (PHI) (DLTA) (DLTA) (DLTA) (DLTA) (PI)
                 (PI) (PI) (PI) (SG) (SG) (?F) (?F) (PHI) (PHI)
                 (DLTA) (DLTA) (PI) (PI) (SG) (?L) (?L) (?J) (?J)
                 (PHI) (PHI) (?L) (?L) (PI) (PI) (?L) (PI) (PI)
                 (SG) (SG) (SG) (PI) (PI) (SG) (DLTA) (DLTA) (PI)
                 (PI) (SG) (DLTA) (DLTA) (PI) (PI) (SG) (DLTA)
                 (DLTA) (PI) (PI) (SG) (SG) (PI) (SG) (PI) (SG)
                 (PI) (PI) (SG) (PHI) (PHI) (?L) (?L) (PI) (PI)
                 (?L) (SG) (PI) (PI) (SG) (DLTA) (DLTA) (PI) (PI)
                 (SG) (SG) (PI) (PI) (SG) (DLTA) (DLTA) (PI) (PI)
                 (SG) (SG) (SG) (PI) (PI) (SG) (PI) (PI) (SG) (DLTA)
                 (DLTA) (PI) (PI) (SG) (SG) (SG) (PI) (PI) (SG)
                 (SG) (PI) (PI) (SG) (SG) (PI) (PI) (SG) (SG) (DLTA)
                 (DLTA) (PI) (PI) (SG) (SG) (PI) (PI) (SG) (SG)
                 (SG) (PI) (PI) (SG) (SG) (SG) (PI) (PI) (SG) (SG)
                 (SG) (PI) (PI) (SG) (SG) (PI) (PI) (SG) (SG) (SG)
                 (SG) (SG) (SG) (SG)
 Unable to determine electronic state:  an orbital has unidentified symmetry.
 Alpha  occ. eigenvalues --   -3.73655  -2.50150  -2.45948  -2.45301  -1.23820
 Alpha  occ. eigenvalues --   -0.65362  -0.56949  -0.53729  -0.53504  -0.52076
 Alpha  occ. eigenvalues --   -0.38553  -0.28481
 Alpha virt. eigenvalues --    0.01021   0.01607   0.02031   0.02729   0.04486
 Alpha virt. eigenvalues --    0.04905   0.05377   0.05378   0.05517   0.05723
 Alpha virt. eigenvalues --    0.06932   0.06953   0.10486   0.13629   0.14104
 Alpha virt. eigenvalues --    0.16539   0.17045   0.17057   0.18474   0.19444
 Alpha virt. eigenvalues --    0.20454   0.21211   0.21362   0.21450   0.24348
 Alpha virt. eigenvalues --    0.29916   0.36378   0.38687   0.38696   0.39516
 Alpha virt. eigenvalues --    0.39517   0.44985   0.46025   0.46470   0.46547
 Alpha virt. eigenvalues --    0.46571   0.47747   0.49131   0.49184   0.58710
 Alpha virt. eigenvalues --    0.58861   0.63436   0.66190   0.66197   0.66648
 Alpha virt. eigenvalues --    0.67311   0.69146   0.79933   1.01523   1.07542
 Alpha virt. eigenvalues --    1.07548   1.15673   1.15673   1.15725   1.15725
 Alpha virt. eigenvalues --    1.17084   1.17090   1.19579   1.20675   1.21082
 Alpha virt. eigenvalues --    1.21214   1.21762   1.21893   1.22017   1.27215
 Alpha virt. eigenvalues --    1.29869   1.30684   1.30699   1.35075   1.46064
 Alpha virt. eigenvalues --    1.50345   1.50742   1.62394   1.62394   1.62794
 Alpha virt. eigenvalues --    1.66021   1.66692   1.68468   1.68468   1.72753
 Alpha virt. eigenvalues --    1.95507   1.95912   1.97509   2.16987   2.16990
 Alpha virt. eigenvalues --    2.33207   2.33386   2.34418   2.51898   2.93265
 Alpha virt. eigenvalues --    2.93278   2.95303   2.98625   3.12134   3.21659
 Alpha virt. eigenvalues --    3.21676   3.30535   3.30650   3.31150   3.31157
 Alpha virt. eigenvalues --    3.35869   3.35889   3.38816   3.38816   3.38974
 Alpha virt. eigenvalues --    3.40481   3.44312   3.44855   3.44855   3.51188
 Alpha virt. eigenvalues --    3.51194   3.52075   3.52075   3.59099   3.65224
 Alpha virt. eigenvalues --    3.65224   3.75424   3.75911   3.93043   3.97475
 Alpha virt. eigenvalues --    3.97475   4.01005   4.01013   4.09066   4.10584
 Alpha virt. eigenvalues --    4.11705   4.22722   4.22722   4.24064   4.28250
 Alpha virt. eigenvalues --    4.28811   4.40328   4.40335   4.66279   4.66882
 Alpha virt. eigenvalues --    4.70764   4.70765   4.72413   4.81638   4.81645
 Alpha virt. eigenvalues --    5.20328   5.51119   5.64881   5.64893   5.71929
 Alpha virt. eigenvalues --    5.72126   5.91671   5.92328   6.12377   6.32240
 Alpha virt. eigenvalues --    6.32331   6.41335   6.42351   6.43612   7.47026
 Alpha virt. eigenvalues --    8.42385   8.42386   8.68621   8.68625   8.88533
 Alpha virt. eigenvalues --    9.03339   9.04466   9.27237   9.27320   9.30716
 Alpha virt. eigenvalues --    9.30716   9.31576   9.36018   9.36018   9.64362
 Alpha virt. eigenvalues --    9.64364   9.72616   9.73254   9.80878   9.92654
 Alpha virt. eigenvalues --    9.92702   9.96565   9.96565   9.97373   9.97373
 Alpha virt. eigenvalues --   10.01121  10.01134  10.03645  10.04658  10.33095
 Alpha virt. eigenvalues --   10.33299  10.57702  10.71937  10.71937  10.92977
 Alpha virt. eigenvalues --   10.92977  11.11442  11.28383  11.28383  11.75097
 Alpha virt. eigenvalues --   11.75728  11.83048  11.98864  11.98864  12.12844
 Alpha virt. eigenvalues --   12.12892  12.34346  12.34392  12.35901  12.37426
 Alpha virt. eigenvalues --   12.38072  12.75529  12.76245  12.89461  12.89462
 Alpha virt. eigenvalues --   13.14002  13.33079  13.97940  13.98634  14.72501
 Alpha virt. eigenvalues --   15.94390  17.93079  17.95240  18.33911  20.94809
 Alpha virt. eigenvalues --   20.94809  21.12079  21.12087  21.63833  21.63853
 Alpha virt. eigenvalues --   21.69296  21.70848  21.95455  21.95986  22.11064
 Alpha virt. eigenvalues --   22.35460  23.07065  23.07065  23.09165  23.09165
 Alpha virt. eigenvalues --   23.26563  23.26567  23.47125  23.48372  24.32847
 Alpha virt. eigenvalues --   26.29111  26.29111  26.29690  26.29690  26.33420
 Alpha virt. eigenvalues --   26.33421  26.41055  26.41122  26.64175  26.66222
 Alpha virt. eigenvalues --   26.66828  28.43951  28.44942  29.34981  30.15734
 Alpha virt. eigenvalues --   34.78511  34.79374  34.81932  35.15699  36.98119
 Alpha virt. eigenvalues --   36.98141  37.02769  37.05325  37.46592  46.82430
 Alpha virt. eigenvalues --   46.82430  47.26480  47.27118  48.37567  64.87721
 Alpha virt. eigenvalues --   64.87745  64.91243  64.93933  65.27335  68.02763
 Alpha virt. eigenvalues --   68.24703  68.26137  68.27165  69.32888  69.82553
 Alpha virt. eigenvalues --   69.83604  70.98893 102.95875 102.95876 102.99098
 Alpha virt. eigenvalues --  102.99111 103.02660 103.03220 103.08914 121.46250
 Alpha virt. eigenvalues --  130.54509 130.56498 130.74679 132.64767 132.64784
 Alpha virt. eigenvalues --  132.68201 132.70149 132.99767 137.24985 154.58134
 Alpha virt. eigenvalues --  154.59008 155.44497 206.76870 206.76870 207.00163
 Alpha virt. eigenvalues --  207.00520 207.54443 209.94001 242.28230 244.79524
 Alpha virt. eigenvalues --  244.80999 245.05190 324.79932 324.80551 325.56607
 Alpha virt. eigenvalues --  343.21548 343.21554 343.24975 343.25891 343.50070
 Alpha virt. eigenvalues --  357.92524 441.97611 463.64788 463.65781 463.86033
 Alpha virt. eigenvalues --  612.07592 691.04430 691.04768 691.75003 839.69345
 Alpha virt. eigenvalues --  906.03951 906.04542 906.238781089.968701149.78253
 Alpha virt. eigenvalues -- 1149.782551149.809701149.812441149.972781662.47685
 Alpha virt. eigenvalues -- 1862.596431862.599531862.780422262.305143444.33170
 Alpha virt. eigenvalues -- 4105.950134105.951564106.115856140.979287488.51870
 Alpha virt. eigenvalues -- 9963.465109963.465689963.60934********************
 Alpha virt. eigenvalues -- **************************************************
 Alpha virt. eigenvalues -- **************************************************
 Alpha virt. eigenvalues -- ******************************
     Molecular Orbital Coefficients:
                           4         5         6         7         8
                           O         O         O         O         O
     Eigenvalues --    -2.45301  -1.23820  -0.65362  -0.56949  -0.53729
   1 1   Cr 1S          0.00000   0.00000   0.00000   0.00000   0.00000
   2        2S          0.00000  -0.00000   0.00000   0.00000  -0.00000
   3        3S          0.00000   0.00000   0.00000   0.00000   0.00000
   4        4S          0.00000  -0.00000   0.00000   0.00000  -0.00000
   5        5S          0.00000   0.00000   0.00000   0.00000   0.00000
   6        6S          0.00000  -0.00000   0.00000   0.00000  -0.00000
   7        7S          0.00000   0.00000   0.00000   0.00000   0.00000
   8        8S          0.00000  -0.00002   0.00000   0.00000  -0.00001
   9        9S          0.00000   0.00005   0.00000   0.00000   0.00004
  10       10S          0.00000  -0.00013   0.00000   0.00000  -0.00012
  11       11S          0.00000   0.00037   0.00000   0.00000   0.00032
  12       12S          0.00000  -0.00102   0.00000   0.00000  -0.00088
  13       13S          0.00000   0.00321   0.00000   0.00000   0.00279
  14       14S          0.00000  -0.01564   0.00000   0.00000  -0.01377
  15       15S          0.00000   0.02560   0.00000   0.00000   0.02278
  16       16S          0.00000   0.05164   0.00000   0.00000   0.05107
  17       17S          0.00000  -0.06148   0.00000   0.00000  -0.04988
  18       18S          0.00000  -0.13867   0.00000   0.00000  -0.11619
  19       19S          0.00000  -0.06368   0.00000   0.00000  -0.07927
  20       20S          0.00000  -0.01278   0.00000   0.00000   0.02321
  21       21S          0.00000  -0.01679   0.00000   0.00000   0.05267
  22       22S          0.00000  -0.00134   0.00000   0.00000   0.00124
  23       23S          0.00000   0.00582   0.00000   0.00000  -0.00067
  24       24S          0.00000   0.01702   0.00000   0.00000  -0.00460
  25       25S          0.00000   0.00070   0.00000   0.00000   0.00179
  26       26PX         0.00000   0.00000  -0.00000   0.00000   0.00000
  27       26PY         0.00000   0.00000   0.00000  -0.00000   0.00000
  28       26PZ         0.00000   0.00000   0.00000   0.00000   0.00000
  29       27PX        -0.00000   0.00000   0.00000   0.00000   0.00000
  30       27PY         0.00000   0.00000   0.00000   0.00000   0.00000
  31       27PZ         0.00000  -0.00000   0.00000   0.00000  -0.00000
  32       28PX         0.00000   0.00000  -0.00000   0.00000   0.00000
  33       28PY         0.00000   0.00000   0.00000  -0.00000   0.00000
  34       28PZ         0.00000   0.00000   0.00000   0.00000   0.00000
  35       29PX        -0.00000   0.00000   0.00000   0.00000   0.00000
  36       29PY         0.00000   0.00000   0.00000   0.00000   0.00000
  37       29PZ         0.00000  -0.00000   0.00000   0.00000  -0.00000
  38       30PX         0.00002   0.00000  -0.00000   0.00000   0.00000
  39       30PY         0.00000   0.00000   0.00000  -0.00000   0.00000
  40       30PZ         0.00000   0.00001   0.00000   0.00000   0.00001
  41       31PX        -0.00006   0.00000   0.00001   0.00000   0.00000
  42       31PY         0.00000   0.00000   0.00000   0.00002   0.00000
  43       31PZ         0.00000  -0.00002   0.00000   0.00000  -0.00002
  44       32PX         0.00024   0.00000  -0.00005   0.00000   0.00000
  45       32PY         0.00000   0.00000   0.00000  -0.00005   0.00000
  46       32PZ         0.00000   0.00009   0.00000   0.00000   0.00007
  47       33PX        -0.00136   0.00000   0.00021   0.00000   0.00000
  48       33PY         0.00000   0.00000   0.00000   0.00022   0.00000
  49       33PZ         0.00000  -0.00044   0.00000   0.00000  -0.00030
  50       34PX         0.01621   0.00000  -0.00208   0.00000   0.00000
  51       34PY         0.00000   0.00000   0.00000  -0.00208   0.00000
  52       34PZ         0.00000   0.00481   0.00000   0.00000   0.00286
  53       35PX        -0.07832   0.00000   0.01005   0.00000   0.00000
  54       35PY         0.00000   0.00000   0.00000   0.01000   0.00000
  55       35PZ         0.00000  -0.02338   0.00000   0.00000  -0.01380
  56       36PX        -0.03737   0.00000   0.00737   0.00000   0.00000
  57       36PY         0.00000   0.00000   0.00000   0.00782   0.00000
  58       36PZ         0.00000  -0.01402   0.00000   0.00000  -0.01237
  59       37PX         0.20607   0.00000  -0.02407   0.00000   0.00000
  60       37PY         0.00000   0.00000   0.00000  -0.02347   0.00000
  61       37PZ         0.00000   0.05976   0.00000   0.00000   0.03148
  62       38PX         0.36321   0.00000  -0.09095   0.00000   0.00000
  63       38PY         0.00000   0.00000   0.00000  -0.09814   0.00000
  64       38PZ         0.00000   0.15529   0.00000   0.00000   0.15631
  65       39PX         0.38012   0.00000  -0.05994   0.00000   0.00000
  66       39PY         0.00000   0.00000   0.00000  -0.06019   0.00000
  67       39PZ         0.00000   0.11968   0.00000   0.00000   0.07429
  68       40PX         0.15321   0.00000  -0.01597   0.00000   0.00000
  69       40PY         0.00000   0.00000   0.00000  -0.01060   0.00000
  70       40PZ         0.00000   0.04636   0.00000   0.00000   0.02279
  71       41PX         0.01289   0.00000   0.01433   0.00000   0.00000
  72       41PY         0.00000   0.00000   0.00000   0.01225   0.00000
  73       41PZ         0.00000   0.00509   0.00000   0.00000  -0.01039
  74       42PX        -0.00028   0.00000   0.01331   0.00000   0.00000
  75       42PY         0.00000   0.00000   0.00000  -0.00068   0.00000
  76       42PZ         0.00000   0.00878   0.00000   0.00000  -0.01519
  77       43PX         0.00027   0.00000  -0.00291   0.00000   0.00000
  78       43PY         0.00000   0.00000   0.00000  -0.00376   0.00000
  79       43PZ         0.00000   0.00028   0.00000   0.00000  -0.00251
  80       44PX        -0.01605   0.00000  -0.00214   0.00000   0.00000
  81       44PY         0.00000   0.00000   0.00000  -0.00279   0.00000
  82       44PZ         0.00000  -0.00013   0.00000   0.00000   0.00569
  83       45PX         0.04657   0.00000   0.03886   0.00000   0.00000
  84       45PY         0.00000   0.00000   0.00000   0.04650   0.00000
  85       45PZ         0.00000  -0.02897   0.00000   0.00000  -0.08074
  86       46PX        -0.00008   0.00000  -0.00017   0.00000   0.00000
  87       46PY         0.00000   0.00000   0.00000  -0.00036   0.00000
  88       46PZ         0.00000  -0.00026   0.00000   0.00000   0.00002
  89       47D 0        0.00000   0.00000   0.00000   0.00000   0.00001
  90       47D+1       -0.00000   0.00000  -0.00001   0.00000   0.00000
  91       47D-1        0.00000   0.00000   0.00000  -0.00001   0.00000
  92       47D+2        0.00000   0.00000   0.00000   0.00000   0.00000
  93       47D-2        0.00000   0.00000   0.00000   0.00000   0.00000
  94       48D 0        0.00000  -0.00001   0.00000   0.00000  -0.00003
[...]
 166       62F 0        0.00060   0.00030   0.00030   0.00000
 167       62F+1        0.00020   0.00010   0.00010  -0.00001
 168       62F-1        0.00023   0.00012   0.00012   0.00000
 169       62F+2        0.00001   0.00000   0.00000   0.00000
 170       62F-2        0.00000   0.00000   0.00000   0.00000
 171       62F+3        0.00001   0.00000   0.00000   0.00000
 172       62F-3        0.00001   0.00000   0.00000   0.00000
 173       63F 0        0.00706   0.00354   0.00352   0.00002
 174       63F+1        0.00391   0.00210   0.00181   0.00029
 175       63F-1        0.00422   0.00211   0.00211   0.00000
 176       63F+2        0.00003   0.00002   0.00001   0.00002
 177       63F-2        0.00000   0.00000   0.00000   0.00000
 178       63F+3        0.00001   0.00000   0.00000  -0.00000
 179       63F-3        0.00001   0.00000   0.00000   0.00000
 180       64F 0        0.00397   0.00194   0.00203  -0.00009
 181       64F+1        0.01639   0.01009   0.00630   0.00378
 182       64F-1        0.01371   0.00686   0.00686   0.00000
 183       64F+2        0.00010   0.00010   0.00000   0.00009
 184       64F-2        0.00006   0.00006   0.00000   0.00006
 185       64F+3        0.00000   0.00000   0.00000   0.00000
 186       64F-3        0.00000   0.00000   0.00000   0.00000
 187       65F 0       -0.00337  -0.00184  -0.00152  -0.00032
 188       65F+1       -0.00089   0.00016  -0.00105   0.00120
 189       65F-1       -0.00218  -0.00109  -0.00109   0.00000
 190       65F+2        0.00003   0.00003   0.00000   0.00003
 191       65F-2        0.00002   0.00002   0.00000   0.00002
 192       65F+3        0.00000   0.00000   0.00000   0.00000
 193       65F-3        0.00000   0.00000   0.00000   0.00000
 194       66G 0        0.00000   0.00000   0.00000   0.00000
 195       66G+1        0.00000   0.00000   0.00000  -0.00000
 196       66G-1        0.00000   0.00000   0.00000   0.00000
 197       66G+2        0.00000   0.00000   0.00000   0.00000
 198       66G-2        0.00000   0.00000   0.00000   0.00000
 199       66G+3        0.00000   0.00000   0.00000   0.00000
 200       66G-3        0.00000   0.00000   0.00000   0.00000
 201       66G+4        0.00000   0.00000   0.00000   0.00000
 202       66G-4        0.00000   0.00000   0.00000   0.00000
 203       67G 0        0.00033   0.00017   0.00016   0.00001
 204       67G+1        0.00014   0.00007   0.00007  -0.00000
 205       67G-1        0.00014   0.00007   0.00007   0.00000
 206       67G+2        0.00000   0.00000   0.00000   0.00000
 207       67G-2        0.00000   0.00000   0.00000   0.00000
 208       67G+3        0.00000   0.00000   0.00000   0.00000
 209       67G-3        0.00000   0.00000   0.00000   0.00000
 210       67G+4        0.00000   0.00000   0.00000   0.00000
 211       67G-4        0.00000   0.00000   0.00000   0.00000
 212       68G 0        0.00194   0.00098   0.00095   0.00003
 213       68G+1        0.00217   0.00112   0.00105   0.00008
 214       68G-1        0.00207   0.00103   0.00103   0.00000
 215       68G+2        0.00000   0.00000   0.00000   0.00000
 216       68G-2       -0.00000  -0.00000   0.00000  -0.00000
 217       68G+3        0.00000   0.00000   0.00000   0.00000
 218       68G-3        0.00000   0.00000   0.00000   0.00000
 219       68G+4        0.00000   0.00000   0.00000   0.00000
 220       68G-4        0.00000   0.00000   0.00000   0.00000
 221       69G 0       -0.00034  -0.00016  -0.00018   0.00001
 222       69G+1        0.00255   0.00158   0.00097   0.00061
 223       69G-1        0.00175   0.00088   0.00088   0.00000
 224       69G+2       -0.00000  -0.00000   0.00000  -0.00000
 225       69G-2       -0.00000  -0.00000   0.00000  -0.00000
 226       69G+3        0.00000   0.00000   0.00000   0.00000
 227       69G-3        0.00000   0.00000   0.00000   0.00000
 228       69G+4        0.00000   0.00000   0.00000   0.00000
 229       69G-4        0.00000   0.00000   0.00000   0.00000
 230       70H 0        0.00000   0.00000   0.00000   0.00000
 231       70H+1        0.00000   0.00000   0.00000  -0.00000
 232       70H-1        0.00000   0.00000   0.00000   0.00000
 233       70H+2        0.00000   0.00000   0.00000   0.00000
 234       70H-2        0.00000   0.00000   0.00000   0.00000
 235       70H+3        0.00000   0.00000   0.00000  -0.00000
 236       70H-3        0.00000   0.00000   0.00000   0.00000
 237       70H+4       -0.00000  -0.00000   0.00000  -0.00000
 238       70H-4       -0.00000  -0.00000   0.00000  -0.00000
 239       70H+5        0.00000   0.00000   0.00000  -0.00000
 240       70H-5        0.00000   0.00000   0.00000   0.00000
 241       71H 0        0.00012   0.00006   0.00006  -0.00000
 242       71H+1        0.00009   0.00004   0.00004  -0.00000
 243       71H-1        0.00009   0.00005   0.00005   0.00000
 244       71H+2        0.00000   0.00000   0.00000   0.00000
 245       71H-2        0.00000   0.00000   0.00000   0.00000
 246       71H+3        0.00000   0.00000   0.00000  -0.00000
 247       71H-3        0.00000   0.00000   0.00000   0.00000
 248       71H+4        0.00000   0.00000   0.00000   0.00000
 249       71H-4        0.00000   0.00000   0.00000   0.00000
 250       71H+5        0.00000   0.00000   0.00000   0.00000
 251       71H-5        0.00000   0.00000   0.00000   0.00000
 252       72H 0        0.00024   0.00012   0.00012   0.00000
 253       72H+1        0.00059   0.00029   0.00030  -0.00002
 254       72H-1        0.00063   0.00032   0.00032   0.00000
 255       72H+2        0.00000   0.00000  -0.00000   0.00000
 256       72H-2        0.00000   0.00000  -0.00000   0.00000
 257       72H+3        0.00000   0.00000   0.00000   0.00000
 258       72H-3        0.00000   0.00000   0.00000   0.00000
 259       72H+4        0.00000   0.00000   0.00000   0.00000
 260       72H-4        0.00000   0.00000   0.00000   0.00000
 261       72H+5        0.00000   0.00000   0.00000   0.00000
 262       72H-5        0.00000   0.00000   0.00000   0.00000
 263 2   O  1S         -0.00000  -0.00000  -0.00000   0.00000
 264        2S          0.00000   0.00000   0.00000  -0.00000
 265        3S         -0.00000  -0.00000  -0.00000   0.00000
 266        4S          0.00000   0.00000   0.00000  -0.00000
 267        5S         -0.00000  -0.00000  -0.00000   0.00000
 268        6S         -0.00007  -0.00003  -0.00003   0.00000
 269        7S         -0.00052  -0.00026  -0.00027   0.00001
 270        8S         -0.09215  -0.04614  -0.04601  -0.00014
 271        9S         -0.07763  -0.03892  -0.03872  -0.00020
 272       10S          0.43217   0.21659   0.21559   0.00100
 273       11S          1.06548   0.53308   0.53239   0.00069
 274       12S          0.58054   0.28995   0.29059  -0.00065
 275       13S          0.05553   0.02780   0.02773   0.00007
 276       14S          0.00031   0.00015   0.00016  -0.00001
 277       15S          0.00003   0.00001   0.00001  -0.00000
 278       16S          0.07535   0.03535   0.04000  -0.00465
 279       17PX        -0.00018  -0.00009  -0.00009  -0.00001
 280       17PY        -0.00016  -0.00008  -0.00008   0.00000
 281       17PZ        -0.00018  -0.00009  -0.00009  -0.00000
 282       18PX        -0.12957  -0.06751  -0.06207  -0.00544
 283       18PY        -0.11314  -0.05657  -0.05657   0.00000
 284       18PZ        -0.12986  -0.06517  -0.06469  -0.00048
 285       19PX         0.14366   0.07553   0.06813   0.00740
 286       19PY         0.12394   0.06197   0.06197   0.00000
 287       19PZ         0.13180   0.06626   0.06554   0.00071
 288       20PX         0.49036   0.25607   0.23430   0.02177
 289       20PY         0.43083   0.21541   0.21541   0.00000
 290       20PZ         0.46109   0.23161   0.22948   0.00214
 291       21PX         0.71783   0.37118   0.34665   0.02453
 292       21PY         0.65200   0.32600   0.32600   0.00000
 293       21PZ         0.56725   0.28627   0.28098   0.00530
 294       22PX         0.41482   0.22010   0.19472   0.02537
 295       22PY         0.36382   0.18191   0.18191   0.00000
 296       22PZ         0.21190   0.11597   0.09593   0.02004
 297       23PX         0.14821   0.07729   0.07092   0.00638
 298       23PY         0.12921   0.06461   0.06461   0.00000
 299       23PZ         0.14725   0.07391   0.07334   0.00057
 300       24PX         0.00068   0.00036   0.00033   0.00003
 301       24PY         0.00059   0.00030   0.00030   0.00000
 302       24PZ         0.00067   0.00034   0.00033   0.00000
 303       25PX         0.00001   0.00000   0.00000   0.00000
 304       25PY         0.00001   0.00000   0.00000   0.00000
 305       25PZ         0.00001   0.00000   0.00000   0.00000
 306       26PX         0.03619   0.02170   0.01449   0.00722
 307       26PY         0.02301   0.01150   0.01150   0.00000
 308       26PZ         0.02028   0.01525   0.00504   0.01021
 309       27D 0        0.00029   0.00015   0.00014   0.00001
 310       27D+1        0.00013   0.00009   0.00005   0.00004
 311       27D-1        0.00014   0.00007   0.00007   0.00000
 312       27D+2        0.00001   0.00001   0.00000   0.00001
 313       27D-2        0.00001   0.00001   0.00000   0.00001
 314       28D 0        0.00514   0.00269   0.00245   0.00024
 315       28D+1        0.00313   0.00201   0.00112   0.00088
 316       28D-1        0.00324   0.00162   0.00162   0.00000
 317       28D+2        0.00016   0.00016   0.00000   0.00016
 318       28D-2        0.00016   0.00016   0.00000   0.00016
 319       29D 0        0.00409   0.00227   0.00183   0.00044
 320       29D+1        0.00882   0.00491   0.00391   0.00100
 321       29D-1        0.01185   0.00593   0.00593   0.00000
 322       29D+2        0.00089   0.00089   0.00000   0.00089
 323       29D-2        0.00089   0.00089   0.00000   0.00089
 324       30D 0        0.00001   0.00000   0.00000   0.00000
 325       30D+1        0.00000   0.00000   0.00000   0.00000
 326       30D-1        0.00000   0.00000   0.00000   0.00000
 327       30D+2        0.00000   0.00000   0.00000   0.00000
 328       30D-2        0.00000   0.00000   0.00000   0.00000
 329       31D 0       -0.00000  -0.00000  -0.00000  -0.00000
 330       31D+1       -0.00000  -0.00000  -0.00000  -0.00000
 331       31D-1       -0.00000  -0.00000  -0.00000   0.00000
 332       31D+2       -0.00000  -0.00000  -0.00000  -0.00000
 333       31D-2       -0.00000  -0.00000  -0.00000  -0.00000
 334       32D 0       -0.00151  -0.00064  -0.00087   0.00024
 335       32D+1        0.00261   0.00129   0.00132  -0.00002
 336       32D-1        0.00378   0.00189   0.00189   0.00000
 337       32D+2        0.00028   0.00028   0.00000   0.00028
 338       32D-2        0.00027   0.00027   0.00000   0.00027
 339       33F 0        0.00017   0.00009   0.00008   0.00001
 340       33F+1        0.00009   0.00007   0.00003   0.00004
 341       33F-1        0.00006   0.00003   0.00003   0.00000
 342       33F+2        0.00001   0.00001   0.00000   0.00001
 343       33F-2        0.00001   0.00001   0.00000   0.00001
 344       33F+3        0.00000   0.00000   0.00000   0.00000
 345       33F-3        0.00000   0.00000   0.00000   0.00000
 346       34F 0        0.00213   0.00117   0.00096   0.00021
 347       34F+1        0.00166   0.00105   0.00061   0.00044
 348       34F-1        0.00161   0.00080   0.00080   0.00000
 349       34F+2        0.00027   0.00027   0.00000   0.00026
 350       34F-2        0.00026   0.00026   0.00000   0.00026
 351       34F+3        0.00000   0.00000   0.00000   0.00000
 352       34F-3        0.00000   0.00000   0.00000   0.00000
 353       35F 0        0.00000   0.00000   0.00000   0.00000
 354       35F+1        0.00000   0.00000   0.00000   0.00000
 355       35F-1        0.00000   0.00000   0.00000   0.00000
 356       35F+2        0.00000   0.00000   0.00000   0.00000
 357       35F-2        0.00000   0.00000   0.00000   0.00000
 358       35F+3        0.00000   0.00000   0.00000   0.00000
 359       35F-3        0.00000   0.00000   0.00000   0.00000
 360       36F 0       -0.00009   0.00005  -0.00014   0.00020
 361       36F+1        0.00021   0.00007   0.00013  -0.00006
 362       36F-1        0.00046   0.00023   0.00023   0.00000
 363       36F+2        0.00017   0.00017   0.00000   0.00017
 364       36F-2        0.00017   0.00017   0.00000   0.00017
 365       36F+3        0.00000   0.00000   0.00000   0.00000
 366       36F-3        0.00000   0.00000   0.00000   0.00000
 367       37G 0        0.00015   0.00008   0.00007   0.00001
 368       37G+1        0.00011   0.00008   0.00003   0.00005
 369       37G-1        0.00007   0.00004   0.00004   0.00000
 370       37G+2        0.00002   0.00002   0.00000   0.00002
 371       37G-2        0.00002   0.00002   0.00000   0.00002
 372       37G+3       -0.00000  -0.00000  -0.00000  -0.00000
 373       37G-3        0.00000   0.00000   0.00000   0.00000
 374       37G+4        0.00000   0.00000   0.00000   0.00000
 375       37G-4        0.00000   0.00000   0.00000   0.00000
 376       38G 0        0.00035   0.00021   0.00014   0.00008
 377       38G+1        0.00025   0.00013   0.00012   0.00002
 378       38G-1        0.00033   0.00016   0.00016   0.00000
 379       38G+2        0.00007   0.00007   0.00000   0.00007
 380       38G-2        0.00007   0.00007   0.00000   0.00007
 381       38G+3        0.00000   0.00000   0.00000  -0.00000
 382       38G-3        0.00000   0.00000   0.00000   0.00000
 383       38G+4        0.00000   0.00000   0.00000   0.00000
 384       38G-4        0.00000   0.00000   0.00000   0.00000
          Condensed to atoms (all electrons):
               1          2
     1  Cr  12.965790   0.099867
     2  O    0.099867   6.834476
          Atomic-Atomic Spin Densities.
               1          2
     1  Cr   3.889953  -0.019349
     2  O   -0.019349   0.148746
 Mulliken charges and spin densities:
               1          2
     1  Cr   0.934343   3.870604
     2  O   -0.934343   0.129396
 Sum of Mulliken charges =  -0.00000   4.00000
 Mulliken charges and spin densities with hydrogens summed into heavy atoms:
               1          2
     1  Cr   0.934343   3.870604
     2  O   -0.934343   0.129396
 Electronic spatial extent (au):  <R**2>=             78.0684
 Charge=             -0.0000 electrons
 Dipole moment (field-independent basis, Debye):
    X=              0.0000    Y=              0.0000    Z=              3.0723  Tot=              3.0723
 Quadrupole moment (field-independent basis, Debye-Ang):
   XX=            -21.0408   YY=            -19.7603   ZZ=            -24.1928
   XY=              0.0000   XZ=              0.0000   YZ=              0.0000
 Traceless Quadrupole moment (field-independent basis, Debye-Ang):
   XX=              0.6238   YY=              1.9043   ZZ=             -2.5282
   XY=              0.0000   XZ=              0.0000   YZ=              0.0000
 Octapole moment (field-independent basis, Debye-Ang**2):
  XXX=              0.0000  YYY=              0.0000  ZZZ=              1.1340  XYY=              0.0000
  XXY=              0.0000  XXZ=             -0.9957  XZZ=              0.0000  YZZ=              0.0000
  YYZ=             -0.3880  XYZ=              0.0000
 Hexadecapole moment (field-independent basis, Debye-Ang**3):
 XXXX=            -33.5606 YYYY=            -29.5762 ZZZZ=            -92.8903 XXXY=              0.0000
 XXXZ=              0.0000 YYYX=              0.0000 YYYZ=              0.0000 ZZZX=              0.0000
 ZZZY=              0.0000 XXYY=            -10.5217 XXZZ=            -22.0232 YYZZ=            -20.1167
 XXYZ=              0.0000 YYXZ=              0.0000 ZZXY=              0.0000
 N-N= 3.175063265520D+01 E-N=-2.952519714805D+02  KE= 5.683263516668D+01
 Symmetry A1   KE= 2.468472081461D+01
 Symmetry A2   KE= 5.298828312926D+00
 Symmetry B1   KE= 1.594679365656D+01
 Symmetry B2   KE= 1.090229238208D+01
 Symmetry A1   SP= 2.000000000000D+00
 Symmetry A2   SP= 1.000000000000D+00
 Symmetry B1   SP= 1.000000000000D+00
 Symmetry B2   SP= 0.000000000000D+00
 Orbital energies and kinetic energies (alpha):
                                 1                 2
   4         O                -2.453006          3.121422
   5         O                -1.238200          1.362991
   6         O                -0.653616          2.290016
   7         O                -0.569486          2.324578
   8         O                -0.537293          3.177229
   9         O                -0.535043          2.759829
  10         O                -0.520759          5.298828
  11         O                -0.385527          3.226367
  12         O                -0.284810          5.123918
  13         V                 0.010208          0.106398
  14         V                 0.016072          0.071623
  15         V                 0.020312          0.067839
  16         V                 0.027294          0.037736
  17         V                 0.044862          0.097270
 Total kinetic energy from orbitals= 7.324157724485D+01
                          Isotropic Fermi Contact Couplings
        Atom                 a.u.       MegaHertz       Gauss      10(-4) cm-1
     1  Cr(53)             0.00005      -0.00315      -0.00112      -0.00105
     2  O(17)              0.00005      -0.00827      -0.00295      -0.00276
 --------------------------------------------------------
       Center         ----  Spin Dipole Couplings  ----
                      3XX-RR        3YY-RR        3ZZ-RR
 --------------------------------------------------------
     1   Atom        2.172484      0.089077     -2.261561
     2   Atom        0.150458     -0.272710      0.122252
 --------------------------------------------------------
                        XY            XZ            YZ
 --------------------------------------------------------
     1   Atom        0.000000      0.000000      0.000000
     2   Atom        0.000000      0.000000      0.000000
 --------------------------------------------------------


 ---------------------------------------------------------------------------------
              Anisotropic Spin Dipole Couplings in Principal Axis System
 ---------------------------------------------------------------------------------

       Atom             a.u.   MegaHertz   Gauss  10(-4) cm-1        Axes

              Baa    -2.2616    68.342    24.386    22.797  0.0000  0.0000  1.0000
     1 Cr(53) Bbb     0.0891    -2.692    -0.961    -0.898 -0.0000  1.0000  0.0000
              Bcc     2.1725   -65.651   -23.426   -21.899  1.0000  0.0000  0.0000
 
              Baa    -0.2727    19.733     7.041     6.582 -0.0000  1.0000  0.0000
     2 O(17)  Bbb     0.1223    -8.846    -3.156    -2.951  0.0000  0.0000  1.0000
              Bcc     0.1505   -10.887    -3.885    -3.632  1.0000  0.0000  0.0000
 

 ---------------------------------------------------------------------------------

 No NMR shielding tensors so no spin-rotation constants.
 Leave Link  601 at Fri Mar  9 17:52:54 2018, MaxMem= 10737418240 cpu:             113.4 elap:               7.4
 (Enter /home1/apps/gaussian/16rA.03/g16/l9999.exe)
 1\1\GINC-C405-041\SP\ROCCSD(T)-Full\Gen\Cr1O1(5)\AANNABE\09-Mar-2018\0
 \\#P ROCCSD(T)=(maxcyc=150, Full, SaveAmplitudes, ReadAmplitudes)/Gen 
 5d 7f SCF=(maxcycles=300) Integral(NoXCTest) MaxDisk=500GB Pop=Regular
  Pseudo=Read Guess=Read\\CrO\\0,5\Cr,0,0.,0.,0.\O,0,0.,0.,1.4\\Version
 =ES64L-G16RevA.03\HF=-101.7848238\MP2=-102.7002756\PUHF=-101.7848238\P
 MP2-0=-102.7002756\CCSD=-102.6690357\CCSD(T)=-102.7153935\RMSD=6.926e-
 09\PG=C*V [C*(O1Cr1)]\\@


 A SOLDIER'S LIFE IS A LIFE OF HONOR, BUT A DOG WOULD NOT LEAD IT.
 -- PRINCE RUPERT, FOUNDER OF THE HUDSON'S BAY COMPANY
 Job cpu time:       1 days  1 hours 34 minutes 45.0 seconds.
 Elapsed time:       0 days  1 hours 36 minutes 20.8 seconds.
 File lengths (MBytes):  RWF=  14970 Int=      0 D2E=      0 Chk=     74 Scr=      1
 Normal termination of Gaussian 16 at Fri Mar  9 17:52:54 2018.
