 Entering Gaussian System, Link 0=g16
 Initial command:
 /home1/apps/gaussian/16rA.03/g16/l1.exe "/tmp/Gau-242085.inp" -scrdir="/tmp/"
 Entering Link 1 = /home1/apps/gaussian/16rA.03/g16/l1.exe PID=    242086.
  
 Copyright (c) 1988,1990,1992,1993,1995,1998,2003,2009,2016,
            Gaussian, Inc.  All Rights Reserved.
  
 This is part of the Gaussian(R) 16 program.  It is based on
 the Gaussian(R) 09 system (copyright 2009, Gaussian, Inc.),
 the Gaussian(R) 03 system (copyright 2003, Gaussian, Inc.),
 the Gaussian(R) 98 system (copyright 1998, Gaussian, Inc.),
 the Gaussian(R) 94 system (copyright 1995, Gaussian, Inc.),
 the Gaussian 92(TM) system (copyright 1992, Gaussian, Inc.),
 the Gaussian 90(TM) system (copyright 1990, Gaussian, Inc.),
 the Gaussian 88(TM) system (copyright 1988, Gaussian, Inc.),
 the Gaussian 86(TM) system (copyright 1986, Carnegie Mellon
 University), and the Gaussian 82(TM) system (copyright 1983,
 Carnegie Mellon University). Gaussian is a federally registered
 trademark of Gaussian, Inc.
  
 This software contains proprietary and confidential information,
 including trade secrets, belonging to Gaussian, Inc.
  
 This software is provided under written license and may be
 used, copied, transmitted, or stored only in accord with that
 written license.
  
 The following legend is applicable only to US Government
 contracts under FAR:
  
                    RESTRICTED RIGHTS LEGEND
  
 Use, reproduction and disclosure by the US Government is
 subject to restrictions as set forth in subparagraphs (a)
 and (c) of the Commercial Computer Software - Restricted
 Rights clause in FAR 52.227-19.
  
 Gaussian, Inc.
 340 Quinnipiac St., Bldg. 40, Wallingford CT 06492
  
  
 ---------------------------------------------------------------
 Warning -- This program may not be used in any manner that
 competes with the business of Gaussian, Inc. or will provide
 assistance to any competitor of Gaussian, Inc.  The licensee
 of this program is prohibited from giving any competitor of
 Gaussian, Inc. access to this program.  By using this program,
 the user acknowledges that Gaussian, Inc. is engaged in the
 business of creating and licensing software in the field of
 computational chemistry and represents and warrants to the
 licensee that it is not a competitor of Gaussian, Inc. and that
 it will not use this program in any manner prohibited above.
 ---------------------------------------------------------------
  

 Cite this work as:
 Gaussian 16, Revision A.03,
 M. J. Frisch, G. W. Trucks, H. B. Schlegel, G. E. Scuseria, 
 M. A. Robb, J. R. Cheeseman, G. Scalmani, V. Barone, 
 G. A. Petersson, H. Nakatsuji, X. Li, M. Caricato, A. V. Marenich, 
 J. Bloino, B. G. Janesko, R. Gomperts, B. Mennucci, H. P. Hratchian, 
 J. V. Ortiz, A. F. Izmaylov, J. L. Sonnenberg, D. Williams-Young, 
 F. Ding, F. Lipparini, F. Egidi, J. Goings, B. Peng, A. Petrone, 
 T. Henderson, D. Ranasinghe, V. G. Zakrzewski, J. Gao, N. Rega, 
 G. Zheng, W. Liang, M. Hada, M. Ehara, K. Toyota, R. Fukuda, 
 J. Hasegawa, M. Ishida, T. Nakajima, Y. Honda, O. Kitao, H. Nakai, 
 T. Vreven, K. Throssell, J. A. Montgomery, Jr., J. E. Peralta, 
 F. Ogliaro, M. J. Bearpark, J. J. Heyd, E. N. Brothers, K. N. Kudin, 
 V. N. Staroverov, T. A. Keith, R. Kobayashi, J. Normand, 
 K. Raghavachari, A. P. Rendell, J. C. Burant, S. S. Iyengar, 
 J. Tomasi, M. Cossi, J. M. Millam, M. Klene, C. Adamo, R. Cammi, 
 J. W. Ochterski, R. L. Martin, K. Morokuma, O. Farkas, 
 J. B. Foresman, and D. J. Fox, Gaussian, Inc., Wallingford CT, 2016.
 
 ******************************************
 Gaussian 16:  ES64L-G16RevA.03 25-Dec-2016
                 8-Mar-2018 
 ******************************************
 %mem=80GB
 %cpu=0-31
 SetSPE:  set environment variable "MP_BIND" = "yes"
 SetSPE:  set environment variable "MP_BLIST" = "0,1,2,3,4,5,6,7,8,9,10,11,12,13,14,15,16,17,18,19,20,21,22,23,24,25,26,27,28,29,30,31"
 Will use up to   32 processors via shared memory.
 %chk=5z.chk
 %rwf=/scratch/04843/gwang18/feh/
 ----------------------------------------------------------------------
 #P ROCCSD(T)=(MaxCyc=150, FrzINGC)/Gen SCF=(maxcycle=400, vshift=200) 
 Integral(DKHSO, NoXCTest) Pop=Regular MaxDisk=500GB Guess=Read IOp(5/1
 5=2)
 ----------------------------------------------------------------------
 1/38=1,172=1/1;
 2/12=2,17=6,18=5,40=1/2;
 3/5=7,11=2,25=1,30=1,47=8,91=5,116=101/1,2,3;
 4/5=1/1;
 5/5=2,7=400,10=200,15=2,38=6/2;
 8/5=-1,6=4,9=120000,10=3/1,4;
 9/5=7,6=150,14=2/13;
 6//1;
 99/5=1,9=1/99;
 Leave Link    1 at Thu Mar  8 12:53:33 2018, MaxMem= 10737418240 cpu:               9.6 elap:               0.3
 (Enter /home1/apps/gaussian/16rA.03/g16/l101.exe)
 ---
 FeH
 ---
 Symbolic Z-matrix:
 Charge =  0 Multiplicity = 4
 Fe                    0.        0.        0. 
 H                     0.        0.        1.6 
 
 ITRead=  0  0
 MicOpt= -1 -1
 NAtoms=      2 NQM=        2 NQMF=       0 NMMI=      0 NMMIF=      0
                NMic=       0 NMicF=      0.
                    Isotopes and Nuclear Properties:
 (Nuclear quadrupole moments (NQMom) in fm**2, nuclear magnetic moments (NMagM)
  in nuclear magnetons)

  Atom         1           2
 IAtWgt=          56           1
 AtmWgt=  55.9349393   1.0078250
 NucSpn=           0           1
 AtZEff=  -0.0000000  -0.0000000
 NQMom=    0.0000000   0.0000000
 NMagM=    0.0000000   2.7928460
 AtZNuc=  26.0000000   1.0000000
 Leave Link  101 at Thu Mar  8 12:53:33 2018, MaxMem= 10737418240 cpu:               3.4 elap:               0.1
 (Enter /home1/apps/gaussian/16rA.03/g16/l202.exe)
                          Input orientation:                          
 ---------------------------------------------------------------------
 Center     Atomic      Atomic             Coordinates (Angstroms)
 Number     Number       Type             X           Y           Z
 ---------------------------------------------------------------------
      1         26           0        0.000000    0.000000    0.000000
      2          1           0        0.000000    0.000000    1.600000
 ---------------------------------------------------------------------
 Stoichiometry    FeH(4)
 Framework group  C*V[C*(HFe)]
 Deg. of freedom     1
 Full point group                 C*V     NOp   4
 Largest Abelian subgroup         C2V     NOp   4
 Largest concise Abelian subgroup C1      NOp   1
                         Standard orientation:                         
 ---------------------------------------------------------------------
 Center     Atomic      Atomic             Coordinates (Angstroms)
 Number     Number       Type             X           Y           Z
 ---------------------------------------------------------------------
      1         26           0        0.000000    0.000000    0.059259
      2          1           0        0.000000    0.000000   -1.540741
 ---------------------------------------------------------------------
 Rotational constants (GHZ):           0.0000000         199.4102448         199.4102448
 Leave Link  202 at Thu Mar  8 12:53:33 2018, MaxMem= 10737418240 cpu:               0.7 elap:               0.1
 (Enter /home1/apps/gaussian/16rA.03/g16/l301.exe)
 General basis read from cards:  (5D, 7F)
 Centers:       1
 S 1 1.00
     Exponent=  1.4976900000D+08 Coefficients=  1.0000000000D+00
 S 1 1.00
     Exponent=  2.6722500000D+07 Coefficients=  1.0000000000D+00
 S 1 1.00
     Exponent=  5.9590000000D+06 Coefficients=  1.0000000000D+00
 S 1 1.00
     Exponent=  1.5936100000D+06 Coefficients=  1.0000000000D+00
 S 1 1.00
     Exponent=  4.9346400000D+05 Coefficients=  1.0000000000D+00
 S 1 1.00
     Exponent=  1.7179000000D+05 Coefficients=  1.0000000000D+00
 S 1 1.00
     Exponent=  6.5620900000D+04 Coefficients=  1.0000000000D+00
 S 1 1.00
     Exponent=  2.6965600000D+04 Coefficients=  1.0000000000D+00
 S 1 1.00
     Exponent=  1.1735300000D+04 Coefficients=  1.0000000000D+00
 S 1 1.00
     Exponent=  5.3434300000D+03 Coefficients=  1.0000000000D+00
 S 1 1.00
     Exponent=  2.5225000000D+03 Coefficients=  1.0000000000D+00
 S 1 1.00
     Exponent=  1.2264300000D+03 Coefficients=  1.0000000000D+00
 S 1 1.00
     Exponent=  6.1126900000D+02 Coefficients=  1.0000000000D+00
 S 1 1.00
     Exponent=  3.1130800000D+02 Coefficients=  1.0000000000D+00
 S 1 1.00
     Exponent=  1.6162400000D+02 Coefficients=  1.0000000000D+00
 S 1 1.00
     Exponent=  8.5376700000D+01 Coefficients=  1.0000000000D+00
 S 1 1.00
     Exponent=  4.5791100000D+01 Coefficients=  1.0000000000D+00
 S 1 1.00
     Exponent=  2.4867700000D+01 Coefficients=  1.0000000000D+00
 S 1 1.00
     Exponent=  1.3620200000D+01 Coefficients=  1.0000000000D+00
 S 1 1.00
     Exponent=  7.4810600000D+00 Coefficients=  1.0000000000D+00
 S 1 1.00
     Exponent=  4.0881700000D+00 Coefficients=  1.0000000000D+00
 S 1 1.00
     Exponent=  2.1990500000D+00 Coefficients=  1.0000000000D+00
 S 1 1.00
     Exponent=  1.1481500000D+00 Coefficients=  1.0000000000D+00
 S 1 1.00
     Exponent=  5.7726500000D-01 Coefficients=  1.0000000000D+00
 S 1 1.00
     Exponent=  1.9763500000D-01 Coefficients=  1.0000000000D+00
 S 1 1.00
     Exponent=  1.0898600000D-01 Coefficients=  1.0000000000D+00
 S 1 1.00
     Exponent=  5.3216000000D-02 Coefficients=  1.0000000000D+00
 S 1 1.00
     Exponent=  2.5571000000D-02 Coefficients=  1.0000000000D+00
 S 1 1.00
     Exponent=  6.6224000000D+00 Coefficients=  1.0000000000D+00
 S 1 1.00
     Exponent=  2.2140000000D+00 Coefficients=  1.0000000000D+00
 S 1 1.00
     Exponent=  1.2290000000D-02 Coefficients=  1.0000000000D+00
 P 1 1.00
     Exponent=  8.6947300000D+04 Coefficients=  1.0000000000D+00
 P 1 1.00
     Exponent=  2.1254000000D+04 Coefficients=  1.0000000000D+00
 P 1 1.00
     Exponent=  6.7411400000D+03 Coefficients=  1.0000000000D+00
 P 1 1.00
     Exponent=  2.5571600000D+03 Coefficients=  1.0000000000D+00
 P 1 1.00
     Exponent=  1.0935100000D+03 Coefficients=  1.0000000000D+00
 P 1 1.00
     Exponent=  5.0616100000D+02 Coefficients=  1.0000000000D+00
 P 1 1.00
     Exponent=  2.4713900000D+02 Coefficients=  1.0000000000D+00
 P 1 1.00
     Exponent=  1.2541500000D+02 Coefficients=  1.0000000000D+00
 P 1 1.00
     Exponent=  6.5651200000D+01 Coefficients=  1.0000000000D+00
 P 1 1.00
     Exponent=  3.5307900000D+01 Coefficients=  1.0000000000D+00
 P 1 1.00
     Exponent=  1.9426000000D+01 Coefficients=  1.0000000000D+00
 P 1 1.00
     Exponent=  1.0843800000D+01 Coefficients=  1.0000000000D+00
 P 1 1.00
     Exponent=  6.0435900000D+00 Coefficients=  1.0000000000D+00
 P 1 1.00
     Exponent=  3.3024500000D+00 Coefficients=  1.0000000000D+00
 P 1 1.00
     Exponent=  1.7638900000D+00 Coefficients=  1.0000000000D+00
 P 1 1.00
     Exponent=  9.2138600000D-01 Coefficients=  1.0000000000D+00
 P 1 1.00
     Exponent=  4.6037300000D-01 Coefficients=  1.0000000000D+00
 P 1 1.00
     Exponent=  1.8377200000D-01 Coefficients=  1.0000000000D+00
 P 1 1.00
     Exponent=  7.5833000000D-02 Coefficients=  1.0000000000D+00
 P 1 1.00
     Exponent=  3.1099000000D-02 Coefficients=  1.0000000000D+00
 P 1 1.00
     Exponent=  1.0012800000D+01 Coefficients=  1.0000000000D+00
 P 1 1.00
     Exponent=  3.1869000000D+00 Coefficients=  1.0000000000D+00
 P 1 1.00
     Exponent=  1.2750000000D-02 Coefficients=  1.0000000000D+00
 D 1 1.00
     Exponent=  5.1841600000D+02 Coefficients=  1.0000000000D+00
 D 1 1.00
     Exponent=  1.5281900000D+02 Coefficients=  1.0000000000D+00
 D 1 1.00
     Exponent=  5.8586900000D+01 Coefficients=  1.0000000000D+00
 D 1 1.00
     Exponent=  2.5456400000D+01 Coefficients=  1.0000000000D+00
 D 1 1.00
     Exponent=  1.1786800000D+01 Coefficients=  1.0000000000D+00
 D 1 1.00
     Exponent=  5.7186100000D+00 Coefficients=  1.0000000000D+00
 D 1 1.00
     Exponent=  2.8241700000D+00 Coefficients=  1.0000000000D+00
 D 1 1.00
     Exponent=  1.3798500000D+00 Coefficients=  1.0000000000D+00
 D 1 1.00
     Exponent=  6.5616000000D-01 Coefficients=  1.0000000000D+00
 D 1 1.00
     Exponent=  2.9960900000D-01 Coefficients=  1.0000000000D+00
 D 1 1.00
     Exponent=  1.2936100000D-01 Coefficients=  1.0000000000D+00
 D 1 1.00
     Exponent=  5.1155000000D-02 Coefficients=  1.0000000000D+00
 D 1 1.00
     Exponent=  7.0982000000D+00 Coefficients=  1.0000000000D+00
 D 1 1.00
     Exponent=  4.2772000000D+00 Coefficients=  1.0000000000D+00
 D 1 1.00
     Exponent=  2.0230000000D-02 Coefficients=  1.0000000000D+00
 F 1 1.00
     Exponent=  1.1047100000D+01 Coefficients=  1.0000000000D+00
 F 1 1.00
     Exponent=  4.8541000000D+00 Coefficients=  1.0000000000D+00
 F 1 1.00
     Exponent=  2.1329000000D+00 Coefficients=  1.0000000000D+00
 F 1 1.00
     Exponent=  9.3720000000D-01 Coefficients=  1.0000000000D+00
 F 1 1.00
     Exponent=  3.1410000000D-01 Coefficients=  1.0000000000D+00
 F 1 1.00
     Exponent=  1.0527000000D-01 Coefficients=  1.0000000000D+00
 G 1 1.00
     Exponent=  7.5475000000D+00 Coefficients=  1.0000000000D+00
 G 1 1.00
     Exponent=  3.6737000000D+00 Coefficients=  1.0000000000D+00
 G 1 1.00
     Exponent=  1.7881000000D+00 Coefficients=  1.0000000000D+00
 G 1 1.00
     Exponent=  6.5640000000D-01 Coefficients=  1.0000000000D+00
 G 1 1.00
     Exponent=  2.4096000000D-01 Coefficients=  1.0000000000D+00
 H 1 1.00
     Exponent=  6.9263000000D+00 Coefficients=  1.0000000000D+00
 H 1 1.00
     Exponent=  3.2527000000D+00 Coefficients=  1.0000000000D+00
 H 1 1.00
     Exponent=  1.2964000000D+00 Coefficients=  1.0000000000D+00
 H 1 1.00
     Exponent=  5.1669000000D-01 Coefficients=  1.0000000000D+00
 I 1 1.00
     Exponent=  7.0569000000D+00 Coefficients=  1.0000000000D+00
 I 1 1.00
     Exponent=  1.3776500000D+00 Coefficients=  1.0000000000D+00
 ****
 Centers:       2
 S 1 1.00
     Exponent=  4.0200000000D+02 Coefficients=  1.0000000000D+00
 S 1 1.00
     Exponent=  6.0240000000D+01 Coefficients=  1.0000000000D+00
 S 1 1.00
     Exponent=  1.3730000000D+01 Coefficients=  1.0000000000D+00
 S 1 1.00
     Exponent=  3.9050000000D+00 Coefficients=  1.0000000000D+00
 S 1 1.00
     Exponent=  1.2830000000D+00 Coefficients=  1.0000000000D+00
 S 1 1.00
     Exponent=  4.6550000000D-01 Coefficients=  1.0000000000D+00
 S 1 1.00
     Exponent=  1.8110000000D-01 Coefficients=  1.0000000000D+00
 S 1 1.00
     Exponent=  7.2790000000D-02 Coefficients=  1.0000000000D+00
 S 1 1.00
     Exponent=  2.0700000000D-02 Coefficients=  1.0000000000D+00
 P 1 1.00
     Exponent=  4.5160000000D+00 Coefficients=  1.0000000000D+00
 P 1 1.00
     Exponent=  1.7120000000D+00 Coefficients=  1.0000000000D+00
 P 1 1.00
     Exponent=  6.4900000000D-01 Coefficients=  1.0000000000D+00
 P 1 1.00
     Exponent=  2.4600000000D-01 Coefficients=  1.0000000000D+00
 P 1 1.00
     Exponent=  7.4400000000D-02 Coefficients=  1.0000000000D+00
 D 1 1.00
     Exponent=  2.9500000000D+00 Coefficients=  1.0000000000D+00
 D 1 1.00
     Exponent=  1.2060000000D+00 Coefficients=  1.0000000000D+00
 D 1 1.00
     Exponent=  4.9300000000D-01 Coefficients=  1.0000000000D+00
 D 1 1.00
     Exponent=  1.5600000000D-01 Coefficients=  1.0000000000D+00
 F 1 1.00
     Exponent=  2.5060000000D+00 Coefficients=  1.0000000000D+00
 F 1 1.00
     Exponent=  8.7500000000D-01 Coefficients=  1.0000000000D+00
 F 1 1.00
     Exponent=  2.7400000000D-01 Coefficients=  1.0000000000D+00
 G 1 1.00
     Exponent=  2.3580000000D+00 Coefficients=  1.0000000000D+00
 G 1 1.00
     Exponent=  5.4300000000D-01 Coefficients=  1.0000000000D+00
 ****
 Ernie: Thresh=  0.10000D-02 Tol=  0.10000D-05 Strict=F.
 There are   238 symmetry adapted cartesian basis functions of A1  symmetry.
 There are    73 symmetry adapted cartesian basis functions of A2  symmetry.
 There are   131 symmetry adapted cartesian basis functions of B1  symmetry.
 There are   131 symmetry adapted cartesian basis functions of B2  symmetry.
 There are   165 symmetry adapted basis functions of A1  symmetry.
 There are    56 symmetry adapted basis functions of A2  symmetry.
 There are    97 symmetry adapted basis functions of B1  symmetry.
 There are    97 symmetry adapted basis functions of B2  symmetry.
   415 basis functions,   573 primitive gaussians,   573 cartesian basis functions
    15 alpha electrons       12 beta electrons
       nuclear repulsion energy         8.5991296774 Hartrees.
 IExCor=    0 DFT=F Ex=HF Corr=None ExCW=0 ScaHFX=  1.000000
 ScaDFX=  1.000000  1.000000  1.000000  1.000000 ScalE2=  1.000000  1.000000
 IRadAn=      5 IRanWt=     -1 IRanGd=            0 ICorTp=0 IEmpDi=  4
 NAtoms=    2 NActive=    2 NUniq=    2 SFac= 1.00D+00 NAtFMM=   60 NAOKFM=F Big=F
 Integral buffers will be    131072 words long.
 Raffenetti 2 integral format.
 Two-electron integral symmetry is turned on.
 FoFCou: FMM=F IPFlag=           8 FMFlag=           0 FMFlg1=           0
         NFxFlg=           0 DoJE=F BraDBF=T KetDBF=T FulRan=T
         wScrn=  0.000000 ICntrl=       600 IOpCl=  3 I1Cent=           6 NGrid=           0
         NMat0=    1 NMatS0=      2 NMatT0=    0 NMatD0=    1 NMtDS0=    0 NMtDT0=    0
 Symmetry not used in FoFCou.
 Finite nuclear repulsion energy         8.5991296774.
 Leave Link  301 at Thu Mar  8 12:53:34 2018, MaxMem= 10737418240 cpu:              17.2 elap:               0.6
 (Enter /home1/apps/gaussian/16rA.03/g16/l302.exe)
 Using DK4 one-electron Hamiltonian with SO, DoBoet=T.
 NPDir=0 NMtPBC=     1 NCelOv=     1 NCel=       1 NClECP=     1 NCelD=      1
         NCelK=      1 NCelE2=     1 NClLst=     1 CellRange=     0.0.
 One-electron integrals computed using PRISM.
 One-electron integral symmetry used in STVInt
 FoFCou: FMM=F IPFlag=           8 FMFlag=      100000 FMFlg1=           0
         NFxFlg=           0 DoJE=T BraDBF=F KetDBF=T FulRan=T
         wScrn=  0.000000 ICntrl=       500 IOpCl=  0 I1Cent=           4 NGrid=           0
         NMat0=    1 NMatS0=      1 NMatT0=    0 NMatD0=    1 NMtDS0=    0 NMtDT0=    0
 Symmetry not used in FoFCou.
 UnConB:  Uncontracting AO basis from    415 functions to    415 functions (excluding duplicates).
 RelInt: Using uncontracted basis, NUnBas=   415 NBsUse=   415 0.100E-13 EigKep=  5.18D-10 EigRej= -1.00D+00
 NBasis=   415 RedAO= T EigKep=  6.07D-06  NBF=   165    56    97    97
 NBsUse=   407 1.00D-06 EigRej=  9.25D-07 NBFU=   161    56    95    95
 Leave Link  302 at Thu Mar  8 12:54:00 2018, MaxMem= 10737418240 cpu:             649.9 elap:              24.9
 (Enter /home1/apps/gaussian/16rA.03/g16/l303.exe)
 DipDrv:  MaxL=1.
 Leave Link  303 at Thu Mar  8 12:54:00 2018, MaxMem= 10737418240 cpu:               4.5 elap:               0.2
 (Enter /home1/apps/gaussian/16rA.03/g16/l401.exe)
 Initial guess from the checkpoint file:  "5z.chk"
 B after Tr=     0.000000    0.000000    0.000000
         Rot=    1.000000    0.000000    0.000000    0.000000 Ang=   0.00 deg.
 Guess basis will be translated and rotated to current coordinates.
 JPrj=2 DoOrth=T DoCkMO=T.
 Initial guess orbital symmetries:
       Occupied  (SG) (SG) (PI) (PI) (SG) (SG) (SG) (PI) (PI) (SG)
                 (?A) (SG) (PI) (PI) (?A)
       Virtual   (SG) (PI) (PI) (SG) (SG) (PI) (PI) (SG) (DLTA)
                 (DLTA) (PI) (PI) (SG) (SG) (SG) (PI) (PI) (SG)
                 (PI) (PI) (?A) (?A) (SG) (PI) (PI) (SG) (SG) (SG)
                 (DLTA) (DLTA) (PI) (PI) (SG) (PHI) (PHI) (PI)
                 (PI) (SG) (PI) (PI) (?A) (?A) (PI) (PI) (SG) (?A)
                 (?A) (SG) (PI) (PI) (SG) (SG) (SG) (?B) (?B) (?B)
                 (?B) (SG) (DLTA) (?B) (?B) (DLTA) (SG) (SG) (PI)
                 (PI) (DLTA) (DLTA) (DLTA) (PHI) (PHI) (DLTA) (?C)
                 (?C) (PI) (PI) (DLTA) (DLTA) (SG) (PI) (PI) (PI)
                 (PI) (SG) (SG) (SG) (?D) (?D) (DLTA) (DLTA) (?D)
                 (?D) (DLTA) (DLTA) (SG) (?D) (?D) (PI) (PI) (SG)
                 (SG) (?E) (?E) (?F) (?F) (DLTA) (DLTA) (?E) (?E)
                 (?F) (SG) (SG) (DLTA) (DLTA) (PI) (PI) (SG) (PI)
                 (PI) (SG) (DLTA) (?E) (?E) (DLTA) (?E) (?E) (SG)
                 (?E) (?E) (DLTA) (?G) (?G) (DLTA) (?E) (?E) (?G)
                 (SG) (DLTA) (DLTA) (PI) (PI) (SG) (PI) (PI) (SG)
                 (DLTA) (DLTA) (PI) (PI) (SG) (SG) (SG) (PI) (PI)
                 (SG) (DLTA) (DLTA) (PI) (PI) (SG) (SG) (PI) (PI)
                 (SG) (SG) (PI) (PI) (SG) (DLTA) (DLTA) (PI) (PI)
                 (SG) (PI) (PI) (SG) (SG) (PI) (PI) (SG) (SG) (PI)
                 (PI) (SG) (SG) (SG) (PI) (PI) (SG) (SG) (PI) (PI)
                 (SG) (SG) (SG) (SG) (SG) (SG) (DLTA) (SG) (SG)
                 (SG) (DLTA) (SG) (SG) (SG) (SG) (SG) (DLTA) (SG)
                 (SG) (DLTA) (SG) (DLTA) (?C) (SG) (SG) (DLTA)
                 (DLTA) (SG) (SG) (?C) (SG) (DLTA) (SG) (SG) (SG)
                 (DLTA) (DLTA) (SG) (SG) (?C) (SG) (DLTA) (DLTA)
                 (SG) (SG) (?C) (SG) (DLTA) (SG) (DLTA) (SG) (?C)
                 (SG) (DLTA) (SG) (?C) (SG) (DLTA) (SG) (DLTA)
                 (?C) (SG) (DLTA) (SG) (DLTA) (?C) (SG) (?C) (DLTA)
                 (DLTA) (SG) (?C) (SG) (DLTA) (DLTA) (DLTA) (DLTA)
                 (DLTA) (?C) (DLTA) (DLTA) (?C) (DLTA) (DLTA) (DLTA)
                 (?C) (DLTA) (DLTA) (?C) (DLTA) (DLTA) (?C) (DLTA)
                 (SG) (?C) (DLTA) (DLTA) (?C) (SG) (DLTA) (DLTA)
                 (?C) (?C) (DLTA) (DLTA) (?C) (PI) (PI) (PI) (PI)
                 (PI) (PI) (PHI) (PI) (PI) (PHI) (PI) (PI) (PHI)
                 (PI) (PI) (?H) (PHI) (PI) (PI) (PHI) (PI) (PI)
                 (PHI) (PI) (PI) (PHI) (?H) (PI) (PI) (PI) (PHI)
                 (PI) (?H) (PHI) (PI) (PHI) (PI) (?H) (PHI) (PI)
                 (PHI) (PI) (PHI) (PHI) (?H) (PHI) (?H) (PI) (PI)
                 (PI) (PI) (PI) (PI) (PHI) (PI) (PI) (PHI) (PI)
                 (PI) (PHI) (PI) (PI) (?H) (PHI) (PI) (PI) (PHI)
                 (PI) (PI) (PHI) (PI) (PI) (PHI) (?H) (PI) (PI)
                 (PI) (PHI) (PI) (?H) (PHI) (PI) (PHI) (PI) (?H)
                 (PHI) (PI) (PHI) (PI) (PHI) (PHI) (?H) (PHI) (?H)
 Leave Link  401 at Thu Mar  8 12:54:02 2018, MaxMem= 10737418240 cpu:              33.4 elap:               1.3
 (Enter /home1/apps/gaussian/16rA.03/g16/l502.exe)
 Keep R1 and R2 ints in memory in symmetry-blocked form, NReq=4666733380.
 FoFCou: FMM=F IPFlag=           8 FMFlag=           0 FMFlg1=           0
         NFxFlg=           0 DoJE=F BraDBF=F KetDBF=F FulRan=T
         wScrn=  0.000000 ICntrl=       600 IOpCl=  0 I1Cent=           0 NGrid=           0
         NMat0=    1 NMatS0=  86320 NMatT0=    0 NMatD0=    1 NMtDS0=    0 NMtDT0=    0
 Petite list used in FoFCou.
 Restricted open shell SCF:
 Using DIIS extrapolation, IDIIS=  1040.
 NGot= 10737418240 LenX=  8854695926 LenY=  8854367024
 Requested convergence on RMS density matrix=1.00D-08 within 400 cycles.
 Requested convergence on MAX density matrix=1.00D-06.
 Requested convergence on             energy=1.00D-06.
 Virtual orbitals will be shifted by   0.200 hartree.
 No special actions if energy rises.

 Cycle   1  Pass 1  IDiag  1:
 E= -1271.82040756690    
 DIIS: error= 3.40D+00 at cycle   1 NSaved=   1.
 NSaved= 1 IEnMin= 1 EnMin= -1271.82040756690     IErMin= 1 ErrMin= 3.40D+00
 ErrMax= 3.40D+00  0.00D+00 EMaxC= 1.00D-01 BMatC= 1.29D+03 BMatP= 1.29D+03
 IDIUse=3 WtCom= 0.00D+00 WtEn= 1.00D+00
 Coeff-Com:  0.100D+01
 Coeff-En:   0.100D+01
 Coeff:      0.100D+01
 Fock symm off for IB=2 I1=   25 I=  186 J=  159 Cut=1.00D-07 Err=1.26D-07
 Fock matrix is not symmetric: symmetry in diagonalization turned off.
 Gap=     0.161 Goal=   None    Shift=    0.200
 GapD=    0.161 DampG=1.000 DampE=0.125 DampFc=0.1250 IDamp=-1.
 Damping current iteration by 1.25D-01
 RMSDP=9.03D-02 MaxDP=2.77D+01              OVMax= 1.00D+00

 Cycle   2  Pass 1  IDiag  1:
 E= -1271.68871705567     Delta-E=        0.131690511228 Rises=F Damp=T
 DIIS: error= 2.98D+00 at cycle   2 NSaved=   2.
 NSaved= 2 IEnMin= 1 EnMin= -1271.82040756690     IErMin= 2 ErrMin= 2.98D+00
 ErrMax= 2.98D+00  0.00D+00 EMaxC= 1.00D-01 BMatC= 9.85D+02 BMatP= 1.29D+03
 IDIUse=3 WtCom= 0.00D+00 WtEn= 1.00D+00
 Coeff-Com: -0.699D+01 0.799D+01
 Coeff-En:   0.000D+00 0.100D+01
 Coeff:      0.000D+00 0.100D+01
 Gap=     0.005 Goal=   None    Shift=    0.000
 RMSDP=1.13D-02 MaxDP=3.47D+00 DE= 1.32D-01 OVMax= 1.00D+00

 Cycle   3  Pass 1  IDiag  1:
 Density matrix breaks symmetry, PCut= 1.00D-07
 Density matrix has no symmetry -- integrals replicated.
 E= -1271.79807056535     Delta-E=       -0.109353509677 Rises=F Damp=F
 DIIS: error= 2.93D-02 at cycle   3 NSaved=   3.
 NSaved= 3 IEnMin= 1 EnMin= -1271.82040756690     IErMin= 3 ErrMin= 2.93D-02
 ErrMax= 2.93D-02  0.00D+00 EMaxC= 1.00D-01 BMatC= 5.26D-02 BMatP= 9.85D+02
 IDIUse=3 WtCom= 7.07D-01 WtEn= 2.93D-01
 Coeff-Com: -0.990D+00 0.113D+01 0.859D+00
 Coeff-En:   0.000D+00 0.164D-02 0.998D+00
 Coeff:     -0.700D+00 0.800D+00 0.900D+00
 Gap=     0.018 Goal=   None    Shift=    0.000
 RMSDP=1.49D-04 MaxDP=1.38D-02 DE=-1.09D-01 OVMax= 1.11D-01

 Cycle   4  Pass 1  IDiag  1:
 E= -1271.80773007244     Delta-E=       -0.009659507087 Rises=F Damp=F
 DIIS: error= 1.83D-02 at cycle   4 NSaved=   4.
 NSaved= 4 IEnMin= 1 EnMin= -1271.82040756690     IErMin= 4 ErrMin= 1.83D-02
 ErrMax= 1.83D-02  0.00D+00 EMaxC= 1.00D-01 BMatC= 1.89D-02 BMatP= 5.26D-02
 IDIUse=3 WtCom= 8.17D-01 WtEn= 1.83D-01
 Coeff-Com: -0.528D+00 0.604D+00 0.449D+00 0.476D+00
 Coeff-En:   0.000D+00 0.000D+00 0.338D+00 0.662D+00
 Coeff:     -0.431D+00 0.493D+00 0.429D+00 0.510D+00
 Gap=     0.033 Goal=   None    Shift=    0.000
 RMSDP=1.74D-04 MaxDP=3.47D-02 DE=-9.66D-03 OVMax= 1.27D-01

 Cycle   5  Pass 1  IDiag  1:
 Density matrix breaks symmetry, PCut= 1.00D-07
 Density matrix has no symmetry -- integrals replicated.
 E= -1271.81302209233     Delta-E=       -0.005292019892 Rises=F Damp=F
 DIIS: error= 1.13D-02 at cycle   5 NSaved=   5.
 NSaved= 5 IEnMin= 1 EnMin= -1271.82040756690     IErMin= 5 ErrMin= 1.13D-02
 ErrMax= 1.13D-02  0.00D+00 EMaxC= 1.00D-01 BMatC= 7.45D-03 BMatP= 1.89D-02
 IDIUse=3 WtCom= 8.87D-01 WtEn= 1.13D-01
 Coeff-Com: -0.490D+00 0.560D+00 0.268D+00 0.304D+00 0.358D+00
 Coeff-En:   0.000D+00 0.000D+00 0.000D+00 0.350D+00 0.650D+00
 Coeff:     -0.435D+00 0.497D+00 0.238D+00 0.309D+00 0.391D+00
 Gap=     0.033 Goal=   None    Shift=    0.000
 RMSDP=1.94D-04 MaxDP=4.07D-02 DE=-5.29D-03 OVMax= 1.12D-01

 Cycle   6  Pass 1  IDiag  1:
 Density matrix breaks symmetry, PCut= 1.00D-07
 Density matrix has no symmetry -- integrals replicated.
 E= -1271.81479071393     Delta-E=       -0.001768621601 Rises=F Damp=F
 DIIS: error= 9.46D-03 at cycle   6 NSaved=   6.
 NSaved= 6 IEnMin= 1 EnMin= -1271.82040756690     IErMin= 6 ErrMin= 9.46D-03
 ErrMax= 9.46D-03  0.00D+00 EMaxC= 1.00D-01 BMatC= 6.37D-03 BMatP= 7.45D-03
 IDIUse=3 WtCom= 9.05D-01 WtEn= 9.46D-02
 EnCoef did     6 forward-backward iterations
 Coeff-Com: -0.439D+00 0.502D+00 0.449D-01 0.753D-01 0.359D+00 0.458D+00
 Coeff-En:   0.000D+00 0.000D+00 0.000D+00 0.430D-01 0.405D+00 0.552D+00
 Coeff:     -0.398D+00 0.455D+00 0.407D-01 0.722D-01 0.364D+00 0.467D+00
 Gap=     0.029 Goal=   None    Shift=    0.000
 RMSDP=1.03D-04 MaxDP=1.89D-02 DE=-1.77D-03 OVMax= 4.56D-02

 Cycle   7  Pass 1  IDiag  1:
 Density matrix breaks symmetry, PCut= 1.00D-07
 Density matrix has no symmetry -- integrals replicated.
 E= -1271.81686523225     Delta-E=       -0.002074518321 Rises=F Damp=F
 DIIS: error= 7.64D-03 at cycle   7 NSaved=   7.
 NSaved= 7 IEnMin= 1 EnMin= -1271.82040756690     IErMin= 7 ErrMin= 7.64D-03
 ErrMax= 7.64D-03  0.00D+00 EMaxC= 1.00D-01 BMatC= 4.27D-03 BMatP= 6.37D-03
 IDIUse=3 WtCom= 9.24D-01 WtEn= 7.64D-02
 Coeff-Com: -0.359D+00 0.410D+00-0.152D-01-0.687D-01-0.119D+00-0.786D-01
 Coeff-Com:  0.123D+01
 Coeff-En:   0.000D+00 0.000D+00 0.000D+00 0.000D+00 0.000D+00 0.000D+00
 Coeff-En:   0.100D+01
 Coeff:     -0.332D+00 0.379D+00-0.141D-01-0.635D-01-0.110D+00-0.726D-01
 Coeff:      0.121D+01
 Gap=     0.024 Goal=   None    Shift=    0.000
 RMSDP=4.35D-05 MaxDP=5.53D-03 DE=-2.07D-03 OVMax= 1.35D-02

 Cycle   8  Pass 1  IDiag  1:
 Density matrix breaks symmetry, PCut= 1.00D-07
 Density matrix has no symmetry -- integrals replicated.
 E= -1271.81841266758     Delta-E=       -0.001547435330 Rises=F Damp=F
 DIIS: error= 6.57D-03 at cycle   8 NSaved=   8.
 NSaved= 8 IEnMin= 1 EnMin= -1271.82040756690     IErMin= 8 ErrMin= 6.57D-03
 ErrMax= 6.57D-03  0.00D+00 EMaxC= 1.00D-01 BMatC= 3.14D-03 BMatP= 4.27D-03
 IDIUse=3 WtCom= 9.34D-01 WtEn= 6.57D-02
 Coeff-Com: -0.296D+00 0.338D+00 0.377D-01-0.355D-01-0.333D+00-0.406D+00
 Coeff-Com:  0.831D+00 0.863D+00
 Coeff-En:   0.000D+00 0.000D+00 0.000D+00 0.000D+00 0.000D+00 0.000D+00
 Coeff-En:   0.000D+00 0.100D+01
 Coeff:     -0.277D+00 0.316D+00 0.352D-01-0.332D-01-0.311D+00-0.380D+00
 Coeff:      0.777D+00 0.872D+00
 Gap=     0.020 Goal=   None    Shift=    0.000
 RMSDP=3.81D-05 MaxDP=3.49D-03 DE=-1.55D-03 OVMax= 1.42D-02

 Cycle   9  Pass 1  IDiag  1:
 Density matrix breaks symmetry, PCut= 1.00D-07
 Density matrix has no symmetry -- integrals replicated.
 E= -1271.81965095338     Delta-E=       -0.001238285803 Rises=F Damp=F
 DIIS: error= 5.18D-03 at cycle   9 NSaved=   9.
 NSaved= 9 IEnMin= 1 EnMin= -1271.82040756690     IErMin= 9 ErrMin= 5.18D-03
 ErrMax= 5.18D-03  0.00D+00 EMaxC= 1.00D-01 BMatC= 2.11D-03 BMatP= 3.14D-03
 IDIUse=3 WtCom= 9.48D-01 WtEn= 5.18D-02
 Coeff-Com: -0.253D+00 0.289D+00 0.588D-01-0.778D-02-0.294D+00-0.389D+00
 Coeff-Com:  0.304D+00 0.739D+00 0.553D+00
 Coeff-En:   0.000D+00 0.000D+00 0.000D+00 0.000D+00 0.000D+00 0.000D+00
 Coeff-En:   0.000D+00 0.000D+00 0.100D+01
 Coeff:     -0.239D+00 0.274D+00 0.558D-01-0.738D-02-0.278D+00-0.369D+00
 Coeff:      0.288D+00 0.700D+00 0.576D+00
 Gap=     0.018 Goal=   None    Shift=    0.000
 RMSDP=5.31D-05 MaxDP=5.08D-03 DE=-1.24D-03 OVMax= 1.49D-02

 Cycle  10  Pass 1  IDiag  1:
 Density matrix breaks symmetry, PCut= 1.00D-07
 Density matrix has no symmetry -- integrals replicated.
 E= -1271.82037857246     Delta-E=       -0.000727619076 Rises=F Damp=F
 DIIS: error= 4.48D-03 at cycle  10 NSaved=  10.
 NSaved=10 IEnMin= 1 EnMin= -1271.82040756690     IErMin=10 ErrMin= 4.48D-03
 ErrMax= 4.48D-03  0.00D+00 EMaxC= 1.00D-01 BMatC= 1.61D-03 BMatP= 2.11D-03
 IDIUse=3 WtCom= 9.55D-01 WtEn= 4.48D-02
 Coeff-Com: -0.225D+00 0.257D+00 0.514D-01-0.404D-02-0.211D+00-0.291D+00
 Coeff-Com:  0.737D-01 0.418D+00 0.585D+00 0.345D+00
 Coeff-En:   0.000D+00 0.000D+00 0.000D+00 0.000D+00 0.000D+00 0.000D+00
 Coeff-En:   0.000D+00 0.000D+00 0.000D+00 0.100D+01
 Coeff:     -0.215D+00 0.246D+00 0.491D-01-0.386D-02-0.202D+00-0.278D+00
 Coeff:      0.704D-01 0.399D+00 0.559D+00 0.374D+00
 Gap=     0.017 Goal=   None    Shift=    0.000
 RMSDP=1.49D-04 MaxDP=2.27D-02 DE=-7.28D-04 OVMax= 5.35D-02

 Cycle  11  Pass 1  IDiag  1:
 Density matrix breaks symmetry, PCut= 1.00D-07
 Density matrix has no symmetry -- integrals replicated.
 E= -1271.82027865103     Delta-E=        0.000099921434 Rises=F Damp=F
 DIIS: error= 3.84D-03 at cycle  11 NSaved=  11.
 NSaved=11 IEnMin= 1 EnMin= -1271.82040756690     IErMin=11 ErrMin= 3.84D-03
 ErrMax= 3.84D-03  0.00D+00 EMaxC= 1.00D-01 BMatC= 1.45D-03 BMatP= 1.61D-03
 IDIUse=3 WtCom= 9.62D-01 WtEn= 3.84D-02
 Coeff-Com: -0.208D+00 0.238D+00 0.441D-01-0.403D-02-0.156D+00-0.221D+00
 Coeff-Com: -0.436D-01 0.210D+00 0.546D+00 0.499D+00 0.949D-01
 Coeff-En:   0.000D+00 0.000D+00 0.000D+00 0.000D+00 0.000D+00 0.000D+00
 Coeff-En:   0.000D+00 0.000D+00 0.000D+00 0.529D+00 0.471D+00
 Coeff:     -0.200D+00 0.228D+00 0.424D-01-0.388D-02-0.150D+00-0.212D+00
 Coeff:     -0.419D-01 0.202D+00 0.525D+00 0.501D+00 0.109D+00
 Gap=     0.017 Goal=   None    Shift=    0.000
 RMSDP=1.49D-04 MaxDP=2.21D-02 DE= 9.99D-05 OVMax= 5.89D-02

 Cycle  12  Pass 1  IDiag  1:
 Density matrix breaks symmetry, PCut= 1.00D-07
 Density matrix has no symmetry -- integrals replicated.
 E= -1271.82103458497     Delta-E=       -0.000755933948 Rises=F Damp=F
 DIIS: error= 3.68D-03 at cycle  12 NSaved=  12.
 NSaved=12 IEnMin=12 EnMin= -1271.82103458497     IErMin=12 ErrMin= 3.68D-03
 ErrMax= 3.68D-03  0.00D+00 EMaxC= 1.00D-01 BMatC= 1.12D-03 BMatP= 1.45D-03
 IDIUse=3 WtCom= 9.63D-01 WtEn= 3.68D-02
 Coeff-Com: -0.186D+00 0.212D+00 0.295D-01-0.615D-02-0.808D-01-0.121D+00
 Coeff-Com: -0.835D-01-0.604D-02 0.306D+00 0.374D+00 0.188D+00 0.373D+00
 Coeff-En:   0.000D+00 0.000D+00 0.000D+00 0.000D+00 0.000D+00 0.000D+00
 Coeff-En:   0.000D+00 0.000D+00 0.000D+00 0.000D+00 0.315D+00 0.685D+00
 Coeff:     -0.179D+00 0.204D+00 0.284D-01-0.592D-02-0.778D-01-0.116D+00
 Coeff:     -0.805D-01-0.582D-02 0.295D+00 0.360D+00 0.193D+00 0.385D+00
 Gap=     0.017 Goal=   None    Shift=    0.200
 RMSDP=1.73D-05 MaxDP=2.46D-03 DE=-7.56D-04 OVMax= 2.67D-03

 Cycle  13  Pass 1  IDiag  1:
 Density matrix breaks symmetry, PCut= 1.00D-07
 Density matrix has no symmetry -- integrals replicated.
 E= -1271.82130453952     Delta-E=       -0.000269954543 Rises=F Damp=F
 DIIS: error= 3.35D-03 at cycle  13 NSaved=  13.
 NSaved=13 IEnMin=13 EnMin= -1271.82130453952     IErMin=13 ErrMin= 3.35D-03
 ErrMax= 3.35D-03  0.00D+00 EMaxC= 1.00D-01 BMatC= 9.19D-04 BMatP= 1.12D-03
 IDIUse=3 WtCom= 9.67D-01 WtEn= 3.35D-02
 Coeff-Com: -0.157D+00 0.179D+00-0.105D-01-0.167D-01 0.538D-01 0.855D-01
 Coeff-Com:  0.101D+00-0.147D+00-0.216D+00-0.196D+00 0.248D+00-0.136D+01
 Coeff-Com:  0.244D+01
 Coeff-En:   0.000D+00 0.000D+00 0.000D+00 0.000D+00 0.000D+00 0.000D+00
 Coeff-En:   0.000D+00 0.000D+00 0.000D+00 0.000D+00 0.233D+00 0.000D+00
 Coeff-En:   0.767D+00
 Coeff:     -0.151D+00 0.173D+00-0.102D-01-0.162D-01 0.520D-01 0.826D-01
 Coeff:      0.975D-01-0.143D+00-0.209D+00-0.190D+00 0.247D+00-0.132D+01
 Coeff:      0.239D+01
 Gap=     0.016 Goal=   None    Shift=    0.200
 RMSDP=2.24D-05 MaxDP=3.36D-03 DE=-2.70D-04 OVMax= 3.63D-03

 Cycle  14  Pass 1  IDiag  1:
 Density matrix breaks symmetry, PCut= 1.00D-07
 Density matrix has no symmetry -- integrals replicated.
 E= -1271.82165848523     Delta-E=       -0.000353945718 Rises=F Damp=F
 DIIS: error= 2.95D-03 at cycle  14 NSaved=  14.
 NSaved=14 IEnMin=14 EnMin= -1271.82165848523     IErMin=14 ErrMin= 2.95D-03
 ErrMax= 2.95D-03  0.00D+00 EMaxC= 1.00D-01 BMatC= 6.87D-04 BMatP= 9.19D-04
 IDIUse=3 WtCom= 9.71D-01 WtEn= 2.95D-02
 Coeff-Com: -0.144D+00 0.164D+00-0.151D-01-0.176D-01 0.654D-01 0.107D+00
 Coeff-Com:  0.666D-01-0.160D+00-0.168D+00-0.151D+00 0.227D+00-0.108D+01
 Coeff-Com:  0.122D+01 0.883D+00
 Coeff-En:   0.000D+00 0.000D+00 0.000D+00 0.000D+00 0.000D+00 0.000D+00
 Coeff-En:   0.000D+00 0.000D+00 0.000D+00 0.000D+00 0.106D+00 0.000D+00
 Coeff-En:   0.000D+00 0.894D+00
 Coeff:     -0.139D+00 0.159D+00-0.146D-01-0.171D-01 0.635D-01 0.104D+00
 Coeff:      0.647D-01-0.155D+00-0.163D+00-0.146D+00 0.224D+00-0.105D+01
 Coeff:      0.119D+01 0.884D+00
 Gap=     0.016 Goal=   None    Shift=    0.200
 RMSDP=1.92D-05 MaxDP=2.95D-03 DE=-3.54D-04 OVMax= 2.82D-03

 Cycle  15  Pass 1  IDiag  1:
 Density matrix breaks symmetry, PCut= 1.00D-07
 Density matrix has no symmetry -- integrals replicated.
 E= -1271.82186065486     Delta-E=       -0.000202169629 Rises=F Damp=F
 DIIS: error= 2.71D-03 at cycle  15 NSaved=  15.
 NSaved=15 IEnMin=15 EnMin= -1271.82186065486     IErMin=15 ErrMin= 2.71D-03
 ErrMax= 2.71D-03  0.00D+00 EMaxC= 1.00D-01 BMatC= 5.72D-04 BMatP= 6.87D-04
 IDIUse=3 WtCom= 9.73D-01 WtEn= 2.71D-02
 Coeff-Com: -0.121D+00 0.138D+00-0.791D-02-0.957D-02 0.618D-01 0.983D-01
 Coeff-Com: -0.352D-01-0.170D+00-0.643D-01-0.469D-01 0.193D+00-0.551D+00
 Coeff-Com:  0.309D+00-0.255D+00 0.146D+01
 Coeff-En:   0.000D+00 0.000D+00 0.000D+00 0.000D+00 0.000D+00 0.000D+00
 Coeff-En:   0.000D+00 0.000D+00 0.000D+00 0.000D+00 0.000D+00 0.000D+00
 Coeff-En:   0.000D+00 0.000D+00 0.100D+01
 Coeff:     -0.117D+00 0.134D+00-0.770D-02-0.931D-02 0.601D-01 0.957D-01
 Coeff:     -0.343D-01-0.165D+00-0.626D-01-0.457D-01 0.188D+00-0.536D+00
 Coeff:      0.301D+00-0.248D+00 0.145D+01
 Gap=     0.015 Goal=   None    Shift=    0.200
 RMSDP=1.32D-05 MaxDP=1.50D-03 DE=-2.02D-04 OVMax= 3.76D-03

 Cycle  16  Pass 1  IDiag  1:
 Density matrix breaks symmetry, PCut= 1.00D-07
 Density matrix has no symmetry -- integrals replicated.
 E= -1271.82211603007     Delta-E=       -0.000255375205 Rises=F Damp=F
 DIIS: error= 2.32D-03 at cycle  16 NSaved=  16.
 NSaved=16 IEnMin=16 EnMin= -1271.82211603007     IErMin=16 ErrMin= 2.32D-03
 ErrMax= 2.32D-03  0.00D+00 EMaxC= 1.00D-01 BMatC= 4.15D-04 BMatP= 5.72D-04
 IDIUse=3 WtCom= 9.77D-01 WtEn= 2.32D-02
 Coeff-Com: -0.952D-01 0.109D+00-0.196D-02-0.619D-02 0.427D-01 0.712D-01
 Coeff-Com: -0.124D+00-0.137D+00 0.105D+00 0.153D+00 0.127D+00 0.284D+00
 Coeff-Com: -0.514D+00-0.112D+01 0.154D+00 0.195D+01
 Coeff-En:   0.000D+00 0.000D+00 0.000D+00 0.000D+00 0.000D+00 0.000D+00
 Coeff-En:   0.000D+00 0.000D+00 0.000D+00 0.000D+00 0.000D+00 0.000D+00
 Coeff-En:   0.000D+00 0.000D+00 0.000D+00 0.100D+01
 Coeff:     -0.930D-01 0.106D+00-0.191D-02-0.604D-02 0.417D-01 0.695D-01
 Coeff:     -0.121D+00-0.134D+00 0.103D+00 0.149D+00 0.124D+00 0.277D+00
 Coeff:     -0.502D+00-0.109D+01 0.150D+00 0.193D+01
 Gap=     0.014 Goal=   None    Shift=    0.200
 RMSDP=1.40D-05 MaxDP=1.22D-03 DE=-2.55D-04 OVMax= 4.99D-03

 Cycle  17  Pass 1  IDiag  1:
 Density matrix breaks symmetry, PCut= 1.00D-07
 Density matrix has no symmetry -- integrals replicated.
 E= -1271.82236847390     Delta-E=       -0.000252443829 Rises=F Damp=F
 DIIS: error= 1.89D-03 at cycle  17 NSaved=  17.
 NSaved=17 IEnMin=17 EnMin= -1271.82236847390     IErMin=17 ErrMin= 1.89D-03
 ErrMax= 1.89D-03  0.00D+00 EMaxC= 1.00D-01 BMatC= 2.71D-04 BMatP= 4.15D-04
 IDIUse=3 WtCom= 9.81D-01 WtEn= 1.89D-02
 Coeff-Com: -0.867D-01 0.991D-01-0.101D-01-0.143D-01 0.299D-01 0.601D-01
 Coeff-Com: -0.799D-01-0.841D-01 0.974D-01 0.143D+00 0.122D+00 0.198D+00
 Coeff-Com: -0.378D+00-0.606D+00 0.272D+00-0.247D+00 0.148D+01
 Coeff-En:   0.000D+00 0.000D+00 0.000D+00 0.000D+00 0.000D+00 0.000D+00
 Coeff-En:   0.000D+00 0.000D+00 0.000D+00 0.000D+00 0.000D+00 0.000D+00
 Coeff-En:   0.000D+00 0.000D+00 0.000D+00 0.000D+00 0.100D+01
 Coeff:     -0.851D-01 0.973D-01-0.988D-02-0.140D-01 0.293D-01 0.589D-01
 Coeff:     -0.784D-01-0.825D-01 0.956D-01 0.140D+00 0.120D+00 0.194D+00
 Coeff:     -0.371D+00-0.594D+00 0.267D+00-0.242D+00 0.147D+01
 Gap=     0.013 Goal=   None    Shift=    0.200
 RMSDP=1.07D-05 MaxDP=1.33D-03 DE=-2.52D-04 OVMax= 3.22D-03

 Cycle  18  Pass 1  IDiag  1:
 Density matrix breaks symmetry, PCut= 1.00D-07
 Density matrix has no symmetry -- integrals replicated.
 E= -1271.82247808483     Delta-E=       -0.000109610934 Rises=F Damp=F
 DIIS: error= 1.69D-03 at cycle  18 NSaved=  18.
 NSaved=18 IEnMin=18 EnMin= -1271.82247808483     IErMin=18 ErrMin= 1.69D-03
 ErrMax= 1.69D-03  0.00D+00 EMaxC= 1.00D-01 BMatC= 2.18D-04 BMatP= 2.71D-04
 IDIUse=3 WtCom= 9.83D-01 WtEn= 1.69D-02
 Coeff-Com: -0.552D-01 0.631D-01-0.817D-02-0.843D-02 0.134D-01 0.370D-01
 Coeff-Com:  0.259D-01 0.209D-01-0.109D+00-0.161D+00 0.137D+00-0.658D+00
 Coeff-Com:  0.520D+00 0.471D+00 0.123D+01-0.282D+01-0.733D+00 0.304D+01
 Coeff-En:   0.000D+00 0.000D+00 0.000D+00 0.000D+00 0.000D+00 0.000D+00
 Coeff-En:   0.000D+00 0.000D+00 0.000D+00 0.000D+00 0.000D+00 0.000D+00
 Coeff-En:   0.000D+00 0.000D+00 0.000D+00 0.000D+00 0.000D+00 0.100D+01
 Coeff:     -0.543D-01 0.620D-01-0.803D-02-0.829D-02 0.132D-01 0.364D-01
 Coeff:      0.254D-01 0.206D-01-0.108D+00-0.159D+00 0.134D+00-0.647D+00
 Coeff:      0.512D+00 0.463D+00 0.121D+01-0.278D+01-0.721D+00 0.300D+01
 Gap=     0.012 Goal=   None    Shift=    0.200
 RMSDP=1.72D-05 MaxDP=1.77D-03 DE=-1.10D-04 OVMax= 6.02D-03

 Cycle  19  Pass 1  IDiag  1:
 Density matrix breaks symmetry, PCut= 1.00D-07
 Density matrix has no symmetry -- integrals replicated.
 E= -1271.82267029410     Delta-E=       -0.000192209267 Rises=F Damp=F
 DIIS: error= 1.18D-03 at cycle  19 NSaved=  19.
 NSaved=19 IEnMin=19 EnMin= -1271.82267029410     IErMin=19 ErrMin= 1.18D-03
 ErrMax= 1.18D-03  0.00D+00 EMaxC= 1.00D-01 BMatC= 1.06D-04 BMatP= 2.18D-04
 IDIUse=3 WtCom= 9.88D-01 WtEn= 1.18D-02
 Coeff-Com: -0.364D-01 0.415D-01-0.293D-02-0.200D-02 0.461D-02 0.212D-01
 Coeff-Com:  0.132D-01 0.397D-01-0.124D+00-0.185D+00 0.146D+00-0.734D+00
 Coeff-Com:  0.399D+00 0.458D+00 0.265D+01-0.274D+01-0.354D+01 0.307D+01
 Coeff-Com:  0.152D+01
 Coeff-En:   0.000D+00 0.000D+00 0.000D+00 0.000D+00 0.000D+00 0.000D+00
 Coeff-En:   0.000D+00 0.000D+00 0.000D+00 0.000D+00 0.000D+00 0.000D+00
 Coeff-En:   0.000D+00 0.000D+00 0.000D+00 0.000D+00 0.000D+00 0.000D+00
 Coeff-En:   0.100D+01
 Coeff:     -0.359D-01 0.411D-01-0.289D-02-0.197D-02 0.455D-02 0.209D-01
 Coeff:      0.131D-01 0.392D-01-0.122D+00-0.183D+00 0.144D+00-0.726D+00
 Coeff:      0.395D+00 0.453D+00 0.262D+01-0.271D+01-0.350D+01 0.303D+01
 Coeff:      0.152D+01
 Gap=     0.012 Goal=   None    Shift=    0.200
 RMSDP=1.19D-05 MaxDP=1.22D-03 DE=-1.92D-04 OVMax= 5.38D-03

 Cycle  20  Pass 1  IDiag  1:
 Density matrix breaks symmetry, PCut= 1.00D-07
 Density matrix has no symmetry -- integrals replicated.
 E= -1271.82277440051     Delta-E=       -0.000104106410 Rises=F Damp=F
 DIIS: error= 8.03D-04 at cycle  20 NSaved=  20.
 NSaved=20 IEnMin=20 EnMin= -1271.82277440051     IErMin=20 ErrMin= 8.03D-04
 ErrMax= 8.03D-04  0.00D+00 EMaxC= 1.00D-01 BMatC= 5.22D-05 BMatP= 1.06D-04
 IDIUse=3 WtCom= 9.92D-01 WtEn= 8.03D-03
 Coeff-Com: -0.217D-01 0.248D-01-0.219D-03 0.338D-02 0.234D-01 0.354D-01
 Coeff-Com: -0.103D+00-0.266D-01-0.311D-01-0.104D-01 0.154D+00-0.241D+00
 Coeff-Com: -0.174D+00-0.611D-01 0.210D+01-0.118D+01-0.172D+01 0.134D+01
 Coeff-Com: -0.161D+01 0.249D+01
 Coeff-En:   0.000D+00 0.000D+00 0.000D+00 0.000D+00 0.000D+00 0.000D+00
 Coeff-En:   0.000D+00 0.000D+00 0.000D+00 0.000D+00 0.000D+00 0.000D+00
 Coeff-En:   0.000D+00 0.000D+00 0.000D+00 0.000D+00 0.000D+00 0.000D+00
 Coeff-En:   0.000D+00 0.100D+01
 Coeff:     -0.216D-01 0.246D-01-0.217D-03 0.335D-02 0.232D-01 0.351D-01
 Coeff:     -0.102D+00-0.264D-01-0.309D-01-0.103D-01 0.153D+00-0.239D+00
 Coeff:     -0.173D+00-0.606D-01 0.209D+01-0.117D+01-0.171D+01 0.133D+01
 Coeff:     -0.159D+01 0.248D+01
 Gap=     0.011 Goal=   None    Shift=    0.200
 RMSDP=8.98D-06 MaxDP=9.47D-04 DE=-1.04D-04 OVMax= 3.96D-03

 Cycle  21  Pass 1  IDiag  1:
 Density matrix breaks symmetry, PCut= 1.00D-07
 Density matrix has no symmetry -- integrals replicated.
 E= -1271.82282822506     Delta-E=       -0.000053824552 Rises=F Damp=F
 DIIS: error= 5.07D-04 at cycle  21 NSaved=  20.
 NSaved=20 IEnMin=20 EnMin= -1271.82282822506     IErMin=20 ErrMin= 5.07D-04
 ErrMax= 5.07D-04  0.00D+00 EMaxC= 1.00D-01 BMatC= 2.40D-05 BMatP= 5.22D-05
 IDIUse=3 WtCom= 9.95D-01 WtEn= 5.07D-03
 Coeff-Com: -0.190D-07 0.112D-02 0.601D-02 0.223D-01 0.259D-01-0.147D+00
 Coeff-Com: -0.183D-01 0.429D-01 0.112D+00 0.136D+00 0.162D+00-0.543D+00
 Coeff-Com: -0.238D+00 0.105D+01-0.703D+00 0.552D+00 0.158D+00-0.233D+01
 Coeff-Com:  0.915D+00 0.180D+01
 Coeff-En:   0.000D+00 0.000D+00 0.000D+00 0.000D+00 0.000D+00 0.000D+00
 Coeff-En:   0.000D+00 0.000D+00 0.000D+00 0.000D+00 0.000D+00 0.000D+00
 Coeff-En:   0.000D+00 0.000D+00 0.000D+00 0.000D+00 0.000D+00 0.000D+00
 Coeff-En:   0.000D+00 0.100D+01
 Coeff:     -0.189D-07 0.112D-02 0.598D-02 0.222D-01 0.258D-01-0.147D+00
 Coeff:     -0.182D-01 0.427D-01 0.112D+00 0.135D+00 0.161D+00-0.540D+00
 Coeff:     -0.236D+00 0.104D+01-0.699D+00 0.549D+00 0.157D+00-0.231D+01
 Coeff:      0.910D+00 0.179D+01
 Gap=     0.010 Goal=   None    Shift=    0.200
 RMSDP=1.07D-05 MaxDP=1.14D-03 DE=-5.38D-05 OVMax= 4.56D-03

 Cycle  22  Pass 1  IDiag  1:
 Density matrix breaks symmetry, PCut= 1.00D-07
 Density matrix has no symmetry -- integrals replicated.
 E= -1271.82286093005     Delta-E=       -0.000032704987 Rises=F Damp=F
 DIIS: error= 2.91D-04 at cycle  22 NSaved=  20.
 NSaved=20 IEnMin=20 EnMin= -1271.82286093005     IErMin=20 ErrMin= 2.91D-04
 ErrMax= 2.91D-04  0.00D+00 EMaxC= 1.00D-01 BMatC= 7.61D-06 BMatP= 2.40D-05
 IDIUse=3 WtCom= 9.97D-01 WtEn= 2.91D-03
 Coeff-Com: -0.858D-10 0.321D-02 0.121D-01 0.143D-01-0.918D-01 0.895D-02
 Coeff-Com:  0.218D-01 0.816D-01 0.135D+00 0.856D-01-0.403D+00-0.150D+00
 Coeff-Com:  0.102D+01-0.938D+00 0.222D+00 0.558D+00-0.994D+00-0.462D+00
 Coeff-Com:  0.655D+00 0.122D+01
 Coeff-En:   0.000D+00 0.000D+00 0.000D+00 0.000D+00 0.000D+00 0.000D+00
 Coeff-En:   0.000D+00 0.000D+00 0.000D+00 0.000D+00 0.000D+00 0.000D+00
 Coeff-En:   0.000D+00 0.000D+00 0.000D+00 0.000D+00 0.000D+00 0.000D+00
 Coeff-En:   0.000D+00 0.100D+01
 Coeff:     -0.855D-10 0.320D-02 0.121D-01 0.143D-01-0.915D-01 0.893D-02
 Coeff:      0.217D-01 0.814D-01 0.134D+00 0.854D-01-0.402D+00-0.150D+00
 Coeff:      0.101D+01-0.935D+00 0.222D+00 0.557D+00-0.991D+00-0.461D+00
 Coeff:      0.653D+00 0.122D+01
 Gap=     0.010 Goal=   None    Shift=    0.200
 RMSDP=5.22D-06 MaxDP=4.53D-04 DE=-3.27D-05 OVMax= 1.60D-03

 Cycle  23  Pass 1  IDiag  1:
 Density matrix breaks symmetry, PCut= 1.00D-07
 Density matrix has no symmetry -- integrals replicated.
 E= -1271.82286443633     Delta-E=       -0.000003506283 Rises=F Damp=F
 DIIS: error= 2.92D-04 at cycle  23 NSaved=  20.
 NSaved=20 IEnMin=20 EnMin= -1271.82286443633     IErMin=19 ErrMin= 2.91D-04
 ErrMax= 2.92D-04  0.00D+00 EMaxC= 1.00D-01 BMatC= 6.12D-06 BMatP= 7.61D-06
 IDIUse=3 WtCom= 9.97D-01 WtEn= 2.91D-03
 Coeff-Com:  0.403D-10-0.473D-02-0.394D-02 0.115D-01 0.620D-01-0.592D-01
 Coeff-Com: -0.480D-01 0.133D+00-0.237D+00 0.927D-01 0.169D+00 0.633D+00
 Coeff-Com: -0.148D+01 0.152D+00 0.916D+00 0.740D+00-0.160D+01-0.273D+00
 Coeff-Com:  0.649D+00 0.115D+01
 Coeff-En:   0.000D+00 0.000D+00 0.000D+00 0.000D+00 0.000D+00 0.000D+00
 Coeff-En:   0.000D+00 0.000D+00 0.000D+00 0.000D+00 0.000D+00 0.000D+00
 Coeff-En:   0.000D+00 0.000D+00 0.000D+00 0.000D+00 0.000D+00 0.000D+00
 Coeff-En:   0.000D+00 0.100D+01
 Coeff:      0.402D-10-0.472D-02-0.393D-02 0.115D-01 0.618D-01-0.590D-01
 Coeff:     -0.479D-01 0.133D+00-0.236D+00 0.925D-01 0.169D+00 0.632D+00
 Coeff:     -0.148D+01 0.152D+00 0.914D+00 0.737D+00-0.160D+01-0.272D+00
 Coeff:      0.647D+00 0.115D+01
 Gap=     0.010 Goal=   None    Shift=    0.200
 RMSDP=3.60D-06 MaxDP=4.47D-04 DE=-3.51D-06 OVMax= 6.28D-04

 Cycle  24  Pass 1  IDiag  1:
 Density matrix breaks symmetry, PCut= 1.00D-07
 Density matrix has no symmetry -- integrals replicated.
 E= -1271.82286528062     Delta-E=       -0.000000844289 Rises=F Damp=F
 DIIS: error= 2.94D-04 at cycle  24 NSaved=  20.
 NSaved=20 IEnMin=20 EnMin= -1271.82286528062     IErMin=18 ErrMin= 2.91D-04
 ErrMax= 2.94D-04  0.00D+00 EMaxC= 1.00D-01 BMatC= 5.80D-06 BMatP= 6.12D-06
 IDIUse=3 WtCom= 9.97D-01 WtEn= 2.91D-03
 Coeff-Com:  0.612D-10 0.209D-02 0.134D-02 0.324D-01-0.524D-01-0.337D-01
 Coeff-Com:  0.138D+00-0.204D+00 0.723D-01 0.116D-01 0.569D+00-0.738D+00
 Coeff-Com:  0.152D-01 0.255D+00 0.114D+00-0.277D+00-0.258D+00 0.435D+00
 Coeff-Com: -0.457D+00 0.137D+01
 Coeff-En:   0.000D+00 0.000D+00 0.000D+00 0.000D+00 0.000D+00 0.000D+00
 Coeff-En:   0.000D+00 0.000D+00 0.000D+00 0.000D+00 0.000D+00 0.000D+00
 Coeff-En:   0.000D+00 0.000D+00 0.000D+00 0.000D+00 0.000D+00 0.000D+00
 Coeff-En:   0.000D+00 0.100D+01
 Coeff:      0.610D-10 0.208D-02 0.134D-02 0.323D-01-0.523D-01-0.336D-01
 Coeff:      0.138D+00-0.203D+00 0.721D-01 0.115D-01 0.567D+00-0.736D+00
 Coeff:      0.152D-01 0.255D+00 0.114D+00-0.276D+00-0.257D+00 0.434D+00
 Coeff:     -0.455D+00 0.137D+01
 Gap=     0.010 Goal=   None    Shift=    0.200
 RMSDP=2.37D-06 MaxDP=3.24D-04 DE=-8.44D-07 OVMax= 4.42D-04

 Cycle  25  Pass 1  IDiag  1:
 Density matrix breaks symmetry, PCut= 1.00D-07
 Density matrix has no symmetry -- integrals replicated.
 E= -1271.82286563573     Delta-E=       -0.000000355113 Rises=F Damp=F
 DIIS: error= 2.94D-04 at cycle  25 NSaved=  20.
 NSaved=20 IEnMin=20 EnMin= -1271.82286563573     IErMin=17 ErrMin= 2.91D-04
 ErrMax= 2.94D-04  0.00D+00 EMaxC= 1.00D-01 BMatC= 5.71D-06 BMatP= 5.80D-06
 IDIUse=3 WtCom= 9.97D-01 WtEn= 2.91D-03
 Coeff-Com: -0.140D-10-0.104D-01 0.140D-01-0.267D-01-0.531D-02 0.136D+00
 Coeff-Com: -0.127D+00 0.475D-01-0.143D+00 0.321D+00-0.210D+00 0.104D+00
 Coeff-Com: -0.823D-01-0.172D+00 0.205D+00-0.151D+00 0.232D+00-0.573D+00
 Coeff-Com:  0.162D+00 0.128D+01
 Coeff-En:   0.000D+00 0.000D+00 0.000D+00 0.000D+00 0.000D+00 0.000D+00
 Coeff-En:   0.000D+00 0.000D+00 0.000D+00 0.000D+00 0.000D+00 0.000D+00
 Coeff-En:   0.000D+00 0.000D+00 0.000D+00 0.000D+00 0.000D+00 0.000D+00
 Coeff-En:   0.000D+00 0.100D+01
 Coeff:     -0.140D-10-0.104D-01 0.140D-01-0.266D-01-0.530D-02 0.135D+00
 Coeff:     -0.127D+00 0.473D-01-0.143D+00 0.320D+00-0.210D+00 0.103D+00
 Coeff:     -0.821D-01-0.172D+00 0.205D+00-0.151D+00 0.231D+00-0.572D+00
 Coeff:      0.162D+00 0.128D+01
 Gap=     0.010 Goal=   None    Shift=    0.200
 RMSDP=1.34D-06 MaxDP=1.96D-04 DE=-3.55D-07 OVMax= 2.44D-04

 Cycle  26  Pass 1  IDiag  1:
 Density matrix breaks symmetry, PCut= 1.00D-07
 Density matrix has no symmetry -- integrals replicated.
 E= -1271.82286581353     Delta-E=       -0.000000177799 Rises=F Damp=F
 DIIS: error= 2.93D-04 at cycle  26 NSaved=  20.
 NSaved=20 IEnMin=20 EnMin= -1271.82286581353     IErMin=16 ErrMin= 2.91D-04
 ErrMax= 2.93D-04  0.00D+00 EMaxC= 1.00D-01 BMatC= 5.65D-06 BMatP= 5.71D-06
 IDIUse=3 WtCom= 9.97D-01 WtEn= 2.91D-03
 Coeff-Com: -0.664D-10 0.122D-01-0.333D-01-0.247D-01 0.134D+00-0.173D+00
 Coeff-Com:  0.112D+00-0.124D+00 0.281D+00-0.223D+00-0.279D-01 0.395D-01
 Coeff-Com:  0.432D-01 0.103D+00-0.202D+00 0.970D-01-0.270D+00 0.467D-01
 Coeff-Com:  0.124D+00 0.109D+01
 Coeff-En:   0.000D+00 0.000D+00 0.000D+00 0.000D+00 0.000D+00 0.000D+00
 Coeff-En:   0.000D+00 0.000D+00 0.000D+00 0.000D+00 0.000D+00 0.000D+00
 Coeff-En:   0.000D+00 0.000D+00 0.000D+00 0.000D+00 0.000D+00 0.000D+00
 Coeff-En:   0.000D+00 0.100D+01
 Coeff:     -0.662D-10 0.122D-01-0.332D-01-0.246D-01 0.134D+00-0.173D+00
 Coeff:      0.112D+00-0.123D+00 0.280D+00-0.222D+00-0.278D-01 0.394D-01
 Coeff:      0.431D-01 0.102D+00-0.202D+00 0.967D-01-0.269D+00 0.466D-01
 Coeff:      0.123D+00 0.108D+01
 Gap=     0.010 Goal=   None    Shift=    0.200
 RMSDP=6.02D-07 MaxDP=7.86D-05 DE=-1.78D-07 OVMax= 1.28D-04

 Cycle  27  Pass 1  IDiag  1:
 Density matrix breaks symmetry, PCut= 1.00D-07
 Density matrix has no symmetry -- integrals replicated.
 E= -1271.82286593354     Delta-E=       -0.000000120009 Rises=F Damp=F
 DIIS: error= 2.93D-04 at cycle  27 NSaved=  20.
 NSaved=20 IEnMin=20 EnMin= -1271.82286593354     IErMin=15 ErrMin= 2.91D-04
 ErrMax= 2.93D-04  0.00D+00 EMaxC= 1.00D-01 BMatC= 5.60D-06 BMatP= 5.65D-06
 IDIUse=3 WtCom= 9.97D-01 WtEn= 2.91D-03
 Coeff-Com: -0.130D-09-0.171D-01-0.230D-01 0.131D+00-0.178D+00 0.123D+00
 Coeff-Com: -0.126D+00 0.257D+00-0.148D+00-0.187D+00 0.906D-01 0.121D+00
 Coeff-Com:  0.739D-01-0.135D+00 0.557D-01 0.118D+00-0.363D+00-0.419D+00
 Coeff-Com: -0.599D+00 0.223D+01
 Coeff-En:   0.000D+00 0.000D+00 0.000D+00 0.000D+00 0.000D+00 0.000D+00
 Coeff-En:   0.000D+00 0.000D+00 0.000D+00 0.000D+00 0.000D+00 0.000D+00
 Coeff-En:   0.000D+00 0.000D+00 0.000D+00 0.000D+00 0.000D+00 0.000D+00
 Coeff-En:   0.000D+00 0.100D+01
 Coeff:     -0.129D-09-0.170D-01-0.230D-01 0.131D+00-0.178D+00 0.123D+00
 Coeff:     -0.126D+00 0.256D+00-0.147D+00-0.187D+00 0.903D-01 0.120D+00
 Coeff:      0.736D-01-0.134D+00 0.555D-01 0.117D+00-0.362D+00-0.418D+00
 Coeff:     -0.597D+00 0.222D+01
 Gap=     0.010 Goal=   None    Shift=    0.200
 RMSDP=1.32D-06 MaxDP=1.79D-04 DE=-1.20D-07 OVMax= 9.89D-05

 Cycle  28  Pass 1  IDiag  1:
 Density matrix breaks symmetry, PCut= 1.00D-07
 Density matrix has no symmetry -- integrals replicated.
 E= -1271.82286605230     Delta-E=       -0.000000118764 Rises=F Damp=F
 DIIS: error= 2.93D-04 at cycle  28 NSaved=  20.
 NSaved=20 IEnMin=20 EnMin= -1271.82286605230     IErMin=14 ErrMin= 2.91D-04
 ErrMax= 2.93D-04  0.00D+00 EMaxC= 1.00D-01 BMatC= 5.56D-06 BMatP= 5.60D-06
 IDIUse=3 WtCom= 9.97D-01 WtEn= 2.91D-03
 Coeff-Com: -0.130D-09-0.151D-01 0.126D+00-0.150D+00 0.998D-01-0.116D+00
 Coeff-Com:  0.986D-01-0.178D+00 0.942D-01 0.903D-01 0.206D+00-0.374D+00
 Coeff-Com: -0.256D-01 0.142D+00 0.517D+00-0.512D+00-0.660D+00-0.129D+01
 Coeff-Com:  0.174D+01 0.120D+01
 Coeff-En:   0.000D+00 0.000D+00 0.000D+00 0.000D+00 0.000D+00 0.000D+00
 Coeff-En:   0.000D+00 0.000D+00 0.000D+00 0.000D+00 0.000D+00 0.000D+00
 Coeff-En:   0.000D+00 0.000D+00 0.000D+00 0.000D+00 0.000D+00 0.000D+00
 Coeff-En:   0.000D+00 0.100D+01
 Coeff:     -0.130D-09-0.151D-01 0.125D+00-0.149D+00 0.995D-01-0.116D+00
 Coeff:      0.983D-01-0.178D+00 0.939D-01 0.900D-01 0.205D+00-0.373D+00
 Coeff:     -0.255D-01 0.141D+00 0.516D+00-0.510D+00-0.659D+00-0.128D+01
 Coeff:      0.174D+01 0.120D+01
 Gap=     0.010 Goal=   None    Shift=    0.200
 RMSDP=3.10D-07 MaxDP=2.52D-05 DE=-1.19D-07 OVMax= 6.44D-05

 Cycle  29  Pass 1  IDiag  1:
 Density matrix breaks symmetry, PCut= 1.00D-07
 Density matrix has no symmetry -- integrals replicated.
 E= -1271.82286614158     Delta-E=       -0.000000089276 Rises=F Damp=F
 DIIS: error= 2.92D-04 at cycle  29 NSaved=  20.
 NSaved=20 IEnMin=20 EnMin= -1271.82286614158     IErMin=13 ErrMin= 2.91D-04
 ErrMax= 2.92D-04  0.00D+00 EMaxC= 1.00D-01 BMatC= 5.53D-06 BMatP= 5.56D-06
 IDIUse=3 WtCom= 9.97D-01 WtEn= 2.91D-03
 Large coefficients: NSaved= 20 BigCof=   17.41 CofMax=   10.00 Det=-9.91D-11
 Inversion failed.  Reducing to 19 matrices.
 Large coefficients: NSaved= 19 BigCof=   15.42 CofMax=   10.00 Det=-1.01D-10
 Inversion failed.  Reducing to 18 matrices.
 Large coefficients: NSaved= 18 BigCof=   15.42 CofMax=   10.00 Det=-1.01D-10
 Inversion failed.  Reducing to 17 matrices.
 Large coefficients: NSaved= 17 BigCof=   11.28 CofMax=   10.00 Det=-1.17D-10
 Inversion failed.  Reducing to 16 matrices.
 Large coefficients: NSaved= 16 BigCof=   11.44 CofMax=   10.00 Det=-1.29D-10
 Inversion failed.  Reducing to 15 matrices.
 Large coefficients: NSaved= 15 BigCof=   13.43 CofMax=   10.00 Det=-1.30D-10
 Inversion failed.  Reducing to 14 matrices.
 Large coefficients: NSaved= 14 BigCof=   23.48 CofMax=   10.00 Det=-1.38D-10
 Inversion failed.  Reducing to 13 matrices.
 Large coefficients: NSaved= 13 BigCof=   33.96 CofMax=   10.00 Det=-1.43D-10
 Inversion failed.  Reducing to 12 matrices.
 Large coefficients: NSaved= 12 BigCof=   23.59 CofMax=   10.00 Det=-1.62D-10
 Inversion failed.  Reducing to 11 matrices.
 Large coefficients: NSaved= 11 BigCof=   24.32 CofMax=   10.00 Det=-1.63D-10
 Inversion failed.  Reducing to 10 matrices.
 Large coefficients: NSaved= 10 BigCof=   23.38 CofMax=   10.00 Det=-1.67D-10
 Inversion failed.  Reducing to  9 matrices.
 Coeff-Com: -0.387D-01 0.189D+00-0.419D+00 0.856D+00 0.164D+01-0.391D+01
 Coeff-Com: -0.470D+01 0.303D+01 0.435D+01
 Coeff-En:   0.000D+00 0.000D+00 0.000D+00 0.000D+00 0.000D+00 0.000D+00
 Coeff-En:   0.000D+00 0.000D+00 0.100D+01
 Coeff:     -0.386D-01 0.188D+00-0.418D+00 0.854D+00 0.164D+01-0.390D+01
 Coeff:     -0.468D+01 0.302D+01 0.434D+01
 Gap=     0.010 Goal=   None    Shift=    0.200
 RMSDP=3.01D-05 MaxDP=4.54D-03 DE=-8.93D-08 OVMax= 1.05D-02

 Cycle  30  Pass 1  IDiag  1:
 Density matrix breaks symmetry, PCut= 1.00D-07
 Density matrix has no symmetry -- integrals replicated.
 E= -1271.82287469941     Delta-E=       -0.000008557832 Rises=F Damp=F
 DIIS: error= 1.86D-04 at cycle  30 NSaved=  10.
 NSaved=10 IEnMin=10 EnMin= -1271.82287469941     IErMin=10 ErrMin= 1.86D-04
 ErrMax= 1.86D-04  0.00D+00 EMaxC= 1.00D-01 BMatC= 2.88D-06 BMatP= 5.53D-06
 IDIUse=3 WtCom= 9.98D-01 WtEn= 1.86D-03
 Coeff-Com: -0.113D-01-0.264D+00 0.843D+00-0.923D+00 0.181D+01 0.459D+00
 Coeff-Com: -0.555D+01-0.362D+01 0.767D+01 0.585D+00
 Coeff-En:   0.000D+00 0.000D+00 0.000D+00 0.000D+00 0.000D+00 0.000D+00
 Coeff-En:   0.000D+00 0.000D+00 0.444D+00 0.556D+00
 Coeff:     -0.113D-01-0.263D+00 0.841D+00-0.921D+00 0.181D+01 0.459D+00
 Coeff:     -0.554D+01-0.361D+01 0.765D+01 0.585D+00
 Gap=     0.010 Goal=   None    Shift=    0.200
 RMSDP=4.24D-06 MaxDP=5.53D-04 DE=-8.56D-06 OVMax= 1.51D-03

 Cycle  31  Pass 1  IDiag  1:
 Density matrix breaks symmetry, PCut= 1.00D-07
 Density matrix has no symmetry -- integrals replicated.
 E= -1271.82287606466     Delta-E=       -0.000001365247 Rises=F Damp=F
 DIIS: error= 1.80D-04 at cycle  31 NSaved=  11.
 NSaved=11 IEnMin=11 EnMin= -1271.82287606466     IErMin=11 ErrMin= 1.80D-04
 ErrMax= 1.80D-04  0.00D+00 EMaxC= 1.00D-01 BMatC= 2.24D-06 BMatP= 2.88D-06
 IDIUse=3 WtCom= 9.98D-01 WtEn= 1.80D-03
 Coeff-Com: -0.148D-01-0.935D-01 0.225D+00-0.132D+00 0.707D+00-0.250D+00
 Coeff-Com: -0.134D+01-0.360D+01 0.488D+01-0.323D+00 0.944D+00
 Coeff-En:   0.000D+00 0.000D+00 0.000D+00 0.000D+00 0.000D+00 0.000D+00
 Coeff-En:   0.000D+00 0.000D+00 0.433D+00 0.000D+00 0.567D+00
 Coeff:     -0.148D-01-0.934D-01 0.224D+00-0.132D+00 0.706D+00-0.250D+00
 Coeff:     -0.134D+01-0.359D+01 0.487D+01-0.323D+00 0.943D+00
 Gap=     0.010 Goal=   None    Shift=    0.200
 RMSDP=4.62D-06 MaxDP=7.65D-04 DE=-1.37D-06 OVMax= 5.02D-04

 Cycle  32  Pass 1  IDiag  1:
 Density matrix breaks symmetry, PCut= 1.00D-07
 Density matrix has no symmetry -- integrals replicated.
 E= -1271.82287681280     Delta-E=       -0.000000748143 Rises=F Damp=F
 DIIS: error= 1.58D-04 at cycle  32 NSaved=  12.
 NSaved=12 IEnMin=12 EnMin= -1271.82287681280     IErMin=12 ErrMin= 1.58D-04
 ErrMax= 1.58D-04  0.00D+00 EMaxC= 1.00D-01 BMatC= 1.88D-06 BMatP= 2.24D-06
 IDIUse=3 WtCom= 9.98D-01 WtEn= 1.58D-03
 Rare condition: small coef for last iteration:  0.000D+00
 Coeff-Com: -0.514D-02-0.338D-01 0.753D-01-0.629D-01 0.217D+00-0.594D+00
 Coeff-Com:  0.108D+01-0.295D+01 0.262D+01-0.355D+00 0.535D-01 0.952D+00
 Coeff-En:   0.000D+00 0.000D+00 0.000D+00 0.000D+00 0.000D+00 0.000D+00
 Coeff-En:   0.000D+00 0.000D+00 0.426D+00 0.000D+00 0.000D+00 0.574D+00
 Coeff:     -0.514D-02-0.338D-01 0.753D-01-0.629D-01 0.217D+00-0.594D+00
 Coeff:      0.108D+01-0.295D+01 0.262D+01-0.355D+00 0.535D-01 0.952D+00
 Gap=     0.010 Goal=   None    Shift=    0.200
 RMSDP=1.65D-06 MaxDP=2.51D-04 DE=-7.48D-07 OVMax= 3.24D-04

 Cycle  33  Pass 1  IDiag  1:
 Density matrix breaks symmetry, PCut= 1.00D-07
 Density matrix has no symmetry -- integrals replicated.
 E= -1271.82287756356     Delta-E=       -0.000000750760 Rises=F Damp=F
 DIIS: error= 1.43D-04 at cycle  33 NSaved=  13.
 NSaved=13 IEnMin=13 EnMin= -1271.82287756356     IErMin=13 ErrMin= 1.43D-04
 ErrMax= 1.43D-04  0.00D+00 EMaxC= 1.00D-01 BMatC= 1.56D-06 BMatP= 1.88D-06
 IDIUse=3 WtCom= 9.99D-01 WtEn= 1.43D-03
 EnCoef did    33 forward-backward iterations
 Rare condition: small coef for last iteration:  0.000D+00
 Coeff-Com: -0.360D-02-0.497D-01 0.131D+00-0.756D-01 0.123D+00-0.479D+00
 Coeff-Com:  0.103D+01-0.285D+01 0.251D+01-0.312D+00 0.116D+00 0.382D+00
 Coeff-Com:  0.476D+00
 Coeff-En:   0.000D+00 0.000D+00 0.000D+00 0.000D+00 0.000D+00 0.000D+00
 Coeff-En:   0.000D+00 0.000D+00 0.416D+00 0.000D+00 0.000D+00 0.000D+00
 Coeff-En:   0.584D+00
 Coeff:     -0.360D-02-0.497D-01 0.131D+00-0.756D-01 0.123D+00-0.479D+00
 Coeff:      0.103D+01-0.285D+01 0.251D+01-0.312D+00 0.116D+00 0.382D+00
 Coeff:      0.476D+00
 Gap=     0.010 Goal=   None    Shift=    0.200
 RMSDP=8.94D-07 MaxDP=1.41D-04 DE=-7.51D-07 OVMax= 2.56D-04

 Cycle  34  Pass 1  IDiag  1:
 Density matrix breaks symmetry, PCut= 1.00D-07
 Density matrix has no symmetry -- integrals replicated.
 E= -1271.82287815500     Delta-E=       -0.000000591431 Rises=F Damp=F
 DIIS: error= 1.32D-04 at cycle  34 NSaved=  14.
 NSaved=14 IEnMin=14 EnMin= -1271.82287815500     IErMin=14 ErrMin= 1.32D-04
 ErrMax= 1.32D-04  0.00D+00 EMaxC= 1.00D-01 BMatC= 1.32D-06 BMatP= 1.56D-06
 IDIUse=3 WtCom= 9.99D-01 WtEn= 1.32D-03
 EnCoef did   100 forward-backward iterations
 Rare condition: small coef for last iteration:  0.000D+00
 Coeff-Com: -0.251D-02-0.390D-01 0.910D-01 0.152D-01-0.784D-02-0.213D+00
 Coeff-Com:  0.827D+00-0.209D+01 0.171D+01-0.104D+00 0.158D+00 0.338D-01
 Coeff-Com: -0.157D+01 0.219D+01
 Coeff-En:   0.000D+00 0.000D+00 0.000D+00 0.000D+00 0.000D+00 0.000D+00
 Coeff-En:   0.000D+00 0.871D-04 0.408D+00 0.000D+00 0.000D+00 0.000D+00
 Coeff-En:   0.000D+00 0.592D+00
 Coeff:     -0.251D-02-0.390D-01 0.910D-01 0.152D-01-0.784D-02-0.213D+00
 Coeff:      0.827D+00-0.209D+01 0.171D+01-0.104D+00 0.158D+00 0.338D-01
 Coeff:     -0.157D+01 0.219D+01
 Gap=     0.010 Goal=   None    Shift=    0.200
 RMSDP=8.71D-07 MaxDP=1.32D-04 DE=-5.91D-07 OVMax= 2.05D-04

 Cycle  35  Pass 1  IDiag  1:
 Density matrix breaks symmetry, PCut= 1.00D-07
 Density matrix has no symmetry -- integrals replicated.
 E= -1271.82287859619     Delta-E=       -0.000000441199 Rises=F Damp=F
 DIIS: error= 1.25D-04 at cycle  35 NSaved=  15.
 NSaved=15 IEnMin=15 EnMin= -1271.82287859619     IErMin=15 ErrMin= 1.25D-04
 ErrMax= 1.25D-04  0.00D+00 EMaxC= 1.00D-01 BMatC= 1.15D-06 BMatP= 1.32D-06
 IDIUse=3 WtCom= 9.99D-01 WtEn= 1.25D-03
 EnCoef did   100 forward-backward iterations
 Rare condition: small coef for last iteration:  0.000D+00
 Coeff-Com: -0.561D-02-0.152D-01 0.260D-01-0.424D-01 0.218D+00 0.279D-01
 Coeff-Com:  0.181D+00-0.194D+01 0.184D+01-0.796D-01 0.128D+00 0.627D-01
 Coeff-Com: -0.115D+01 0.948D+00 0.802D+00
 Coeff-En:   0.000D+00 0.000D+00 0.000D+00 0.000D+00 0.000D+00 0.000D+00
 Coeff-En:   0.167D-03 0.279D-03 0.401D+00 0.000D+00 0.000D+00 0.000D+00
 Coeff-En:   0.000D+00 0.000D+00 0.599D+00
 Coeff:     -0.561D-02-0.152D-01 0.260D-01-0.424D-01 0.218D+00 0.279D-01
 Coeff:      0.181D+00-0.194D+01 0.184D+01-0.796D-01 0.128D+00 0.627D-01
 Coeff:     -0.115D+01 0.948D+00 0.802D+00
 Gap=     0.010 Goal=   None    Shift=    0.200
 RMSDP=8.25D-07 MaxDP=1.10D-04 DE=-4.41D-07 OVMax= 1.82D-04

 Cycle  36  Pass 1  IDiag  1:
 Density matrix breaks symmetry, PCut= 1.00D-07
 Density matrix has no symmetry -- integrals replicated.
 E= -1271.82287895353     Delta-E=       -0.000000357335 Rises=F Damp=F
 DIIS: error= 1.19D-04 at cycle  36 NSaved=  16.
 NSaved=16 IEnMin=16 EnMin= -1271.82287895353     IErMin=16 ErrMin= 1.19D-04
 ErrMax= 1.19D-04  0.00D+00 EMaxC= 1.00D-01 BMatC= 1.01D-06 BMatP= 1.15D-06
 IDIUse=3 WtCom= 9.99D-01 WtEn= 1.19D-03
 EnCoef did   100 forward-backward iterations
 Rare condition: small coef for last iteration: -0.112D-15
 Coeff-Com: -0.594D-02-0.791D-02-0.218D-01-0.577D-02 0.266D+00 0.648D-01
 Coeff-Com: -0.183D+00-0.153D+01 0.171D+01-0.656D-01 0.148D-01 0.951D-01
 Coeff-Com:  0.351D-01-0.627D-01-0.107D+01 0.177D+01
 Coeff-En:   0.000D+00 0.000D+00 0.000D+00 0.000D+00 0.000D+00 0.000D+00
 Coeff-En:   0.316D-03 0.418D-03 0.394D+00 0.000D+00 0.000D+00 0.000D+00
 Coeff-En:   0.000D+00 0.000D+00 0.000D+00 0.605D+00
 Coeff:     -0.594D-02-0.791D-02-0.218D-01-0.577D-02 0.266D+00 0.648D-01
 Coeff:     -0.183D+00-0.153D+01 0.171D+01-0.656D-01 0.148D-01 0.951D-01
 Coeff:      0.351D-01-0.627D-01-0.107D+01 0.177D+01
 Gap=     0.010 Goal=   None    Shift=    0.200
 RMSDP=6.94D-07 MaxDP=8.61D-05 DE=-3.57D-07 OVMax= 1.61D-04

 Cycle  37  Pass 1  IDiag  1:
 Density matrix breaks symmetry, PCut= 1.00D-07
 Density matrix has no symmetry -- integrals replicated.
 E= -1271.82287924942     Delta-E=       -0.000000295891 Rises=F Damp=F
 DIIS: error= 1.13D-04 at cycle  37 NSaved=  17.
 NSaved=17 IEnMin=17 EnMin= -1271.82287924942     IErMin=17 ErrMin= 1.13D-04
 ErrMax= 1.13D-04  0.00D+00 EMaxC= 1.00D-01 BMatC= 8.95D-07 BMatP= 1.01D-06
 IDIUse=3 WtCom= 9.99D-01 WtEn= 1.13D-03
 EnCoef did   100 forward-backward iterations
 Rare condition: small coef for last iteration:  0.000D+00
 Coeff-Com: -0.487D-02-0.711D-02-0.348D-01 0.368D-01 0.205D+00-0.228D-01
 Coeff-Com: -0.681D-01-0.138D+01 0.155D+01-0.571D-01-0.514D-01 0.987D-01
 Coeff-Com:  0.404D+00-0.347D-01-0.150D+01 0.825D+00 0.104D+01
 Coeff-En:   0.000D+00 0.000D+00 0.000D+00 0.000D+00 0.000D+00 0.000D+00
 Coeff-En:   0.427D-03 0.511D-03 0.388D+00 0.000D+00 0.000D+00 0.000D+00
 Coeff-En:   0.000D+00 0.000D+00 0.000D+00 0.000D+00 0.611D+00
 Coeff:     -0.487D-02-0.711D-02-0.348D-01 0.368D-01 0.205D+00-0.228D-01
 Coeff:     -0.681D-01-0.138D+01 0.155D+01-0.571D-01-0.514D-01 0.987D-01
 Coeff:      0.404D+00-0.347D-01-0.150D+01 0.825D+00 0.104D+01
 Gap=     0.010 Goal=   None    Shift=    0.200
 RMSDP=5.81D-07 MaxDP=8.06D-05 DE=-2.96D-07 OVMax= 1.47D-04

 Cycle  38  Pass 1  IDiag  1:
 Density matrix breaks symmetry, PCut= 1.00D-07
 Density matrix has no symmetry -- integrals replicated.
 E= -1271.82287951256     Delta-E=       -0.000000263143 Rises=F Damp=F
 DIIS: error= 1.07D-04 at cycle  38 NSaved=  18.
 NSaved=18 IEnMin=18 EnMin= -1271.82287951256     IErMin=18 ErrMin= 1.07D-04
 ErrMax= 1.07D-04  0.00D+00 EMaxC= 1.00D-01 BMatC= 7.96D-07 BMatP= 8.95D-07
 IDIUse=3 WtCom= 9.99D-01 WtEn= 1.07D-03
 EnCoef did   100 forward-backward iterations
 Rare condition: small coef for last iteration:  0.000D+00
 Coeff-Com: -0.464D-02 0.785D-02-0.101D+00 0.160D+00 0.700D-01-0.400D-01
 Coeff-Com:  0.469D-01-0.112D+01 0.123D+01-0.255D-01-0.104D+00 0.844D-01
 Coeff-Com:  0.392D+00 0.109D+00-0.846D+00 0.342D-01-0.117D+01 0.227D+01
 Coeff-En:   0.000D+00 0.000D+00 0.000D+00 0.000D+00 0.000D+00 0.000D+00
 Coeff-En:   0.478D-03 0.565D-03 0.382D+00 0.000D+00 0.000D+00 0.000D+00
 Coeff-En:   0.000D+00 0.000D+00 0.000D+00 0.000D+00 0.000D+00 0.617D+00
 Coeff:     -0.464D-02 0.785D-02-0.101D+00 0.160D+00 0.700D-01-0.400D-01
 Coeff:      0.469D-01-0.112D+01 0.123D+01-0.255D-01-0.104D+00 0.844D-01
 Coeff:      0.392D+00 0.109D+00-0.846D+00 0.342D-01-0.117D+01 0.227D+01
 Gap=     0.010 Goal=   None    Shift=    0.200
 RMSDP=7.18D-07 MaxDP=8.99D-05 DE=-2.63D-07 OVMax= 1.38D-04

 Cycle  39  Pass 1  IDiag  1:
 Density matrix breaks symmetry, PCut= 1.00D-07
 Density matrix has no symmetry -- integrals replicated.
 E= -1271.82287975131     Delta-E=       -0.000000238751 Rises=F Damp=F
 DIIS: error= 1.02D-04 at cycle  39 NSaved=  19.
 NSaved=19 IEnMin=19 EnMin= -1271.82287975131     IErMin=19 ErrMin= 1.02D-04
 ErrMax= 1.02D-04  0.00D+00 EMaxC= 1.00D-01 BMatC= 7.07D-07 BMatP= 7.96D-07
 IDIUse=3 WtCom= 9.99D-01 WtEn= 1.02D-03
 EnCoef did   100 forward-backward iterations
 Rare condition: small coef for last iteration:  0.000D+00
 Coeff-Com: -0.347D-02 0.151D-01-0.986D-01 0.144D+00 0.361D-01-0.103D+00
 Coeff-Com:  0.403D-01-0.646D+00 0.850D+00-0.284D-01-0.111D+00 0.176D+00
 Coeff-Com:  0.511D+00-0.646D+00-0.151D+00 0.768D+00-0.197D+01 0.250D+00
 Coeff-Com:  0.196D+01
 Coeff-En:   0.000D+00 0.000D+00 0.000D+00 0.000D+00 0.000D+00 0.000D+00
 Coeff-En:   0.515D-03 0.602D-03 0.376D+00 0.000D+00 0.000D+00 0.000D+00
 Coeff-En:   0.000D+00 0.000D+00 0.000D+00 0.000D+00 0.000D+00 0.000D+00
 Coeff-En:   0.623D+00
 Coeff:     -0.347D-02 0.151D-01-0.986D-01 0.144D+00 0.361D-01-0.103D+00
 Coeff:      0.403D-01-0.646D+00 0.850D+00-0.284D-01-0.111D+00 0.176D+00
 Coeff:      0.511D+00-0.646D+00-0.151D+00 0.768D+00-0.197D+01 0.250D+00
 Coeff:      0.196D+01
 Gap=     0.010 Goal=   None    Shift=    0.200
 RMSDP=4.91D-07 MaxDP=7.63D-05 DE=-2.39D-07 OVMax= 1.29D-04

 Cycle  40  Pass 1  IDiag  1:
 Density matrix breaks symmetry, PCut= 1.00D-07
 Density matrix has no symmetry -- integrals replicated.
 E= -1271.82287996177     Delta-E=       -0.000000210452 Rises=F Damp=F
 DIIS: error= 9.65D-05 at cycle  40 NSaved=  20.
 NSaved=20 IEnMin=20 EnMin= -1271.82287996177     IErMin=20 ErrMin= 9.65D-05
 ErrMax= 9.65D-05  0.00D+00 EMaxC= 1.00D-01 BMatC= 6.30D-07 BMatP= 7.07D-07
 IDIUse=1 WtCom= 1.00D+00 WtEn= 0.00D+00
 Coeff-Com: -0.345D-02 0.188D-01-0.863D-01 0.508D-01 0.154D+00-0.565D-01
 Coeff-Com: -0.198D+00-0.391D+00 0.740D+00-0.429D-01-0.121D+00 0.248D+00
 Coeff-Com:  0.789D+00-0.123D+01-0.354D+00 0.156D+01-0.117D+01-0.116D+01
 Coeff-Com:  0.854D+00 0.141D+01
 Coeff:     -0.345D-02 0.188D-01-0.863D-01 0.508D-01 0.154D+00-0.565D-01
 Coeff:     -0.198D+00-0.391D+00 0.740D+00-0.429D-01-0.121D+00 0.248D+00
 Coeff:      0.789D+00-0.123D+01-0.354D+00 0.156D+01-0.117D+01-0.116D+01
 Coeff:      0.854D+00 0.141D+01
 Gap=     0.010 Goal=   None    Shift=    0.200
 RMSDP=4.73D-07 MaxDP=6.99D-05 DE=-2.10D-07 OVMax= 1.20D-04

 Cycle  41  Pass 1  IDiag  1:
 Density matrix breaks symmetry, PCut= 1.00D-07
 Density matrix has no symmetry -- integrals replicated.
 E= -1271.82288014516     Delta-E=       -0.000000183394 Rises=F Damp=F
 DIIS: error= 9.14D-05 at cycle  41 NSaved=  20.
 NSaved=20 IEnMin=20 EnMin= -1271.82288014516     IErMin=20 ErrMin= 9.14D-05
 ErrMax= 9.14D-05  0.00D+00 EMaxC= 1.00D-01 BMatC= 5.63D-07 BMatP= 6.30D-07
 IDIUse=1 WtCom= 1.00D+00 WtEn= 0.00D+00
 Coeff-Com:  0.702D-02-0.370D-01 0.231D-01 0.750D-01-0.169D+00-0.375D-01
 Coeff-Com: -0.820D-01 0.438D+00-0.419D-01-0.152D+00 0.237D+00 0.102D+01
 Coeff-Com: -0.119D+01-0.957D+00 0.158D+01-0.218D+00-0.128D+01 0.132D-01
 Coeff-Com:  0.450D+00 0.132D+01
 Coeff:      0.702D-02-0.370D-01 0.231D-01 0.750D-01-0.169D+00-0.375D-01
 Coeff:     -0.820D-01 0.438D+00-0.419D-01-0.152D+00 0.237D+00 0.102D+01
 Coeff:     -0.119D+01-0.957D+00 0.158D+01-0.218D+00-0.128D+01 0.132D-01
 Coeff:      0.450D+00 0.132D+01
 Gap=     0.010 Goal=   None    Shift=    0.200
 RMSDP=4.13D-07 MaxDP=5.45D-05 DE=-1.83D-07 OVMax= 1.15D-04

 Cycle  42  Pass 1  IDiag  1:
 Density matrix breaks symmetry, PCut= 1.00D-07
 Density matrix has no symmetry -- integrals replicated.
 E= -1271.82288030793     Delta-E=       -0.000000162767 Rises=F Damp=F
 DIIS: error= 8.67D-05 at cycle  42 NSaved=  20.
 NSaved=20 IEnMin=20 EnMin= -1271.82288030793     IErMin=20 ErrMin= 8.67D-05
 ErrMax= 8.67D-05  0.00D+00 EMaxC= 1.00D-01 BMatC= 5.03D-07 BMatP= 5.63D-07
 IDIUse=1 WtCom= 1.00D+00 WtEn= 0.00D+00
 Coeff-Com: -0.138D-01 0.161D-02 0.795D-01-0.168D+00-0.723D-03-0.194D+00
 Coeff-Com:  0.512D+00-0.401D-01-0.142D+00 0.200D+00 0.944D+00-0.882D+00
 Coeff-Com: -0.117D+01 0.132D+01-0.428D-01-0.594D+00-0.992D-01-0.192D+00
 Coeff-Com:  0.623D+00 0.855D+00
 Coeff:     -0.138D-01 0.161D-02 0.795D-01-0.168D+00-0.723D-03-0.194D+00
 Coeff:      0.512D+00-0.401D-01-0.142D+00 0.200D+00 0.944D+00-0.882D+00
 Coeff:     -0.117D+01 0.132D+01-0.428D-01-0.594D+00-0.992D-01-0.192D+00
 Coeff:      0.623D+00 0.855D+00
 Gap=     0.010 Goal=   None    Shift=    0.200
 RMSDP=3.15D-07 MaxDP=4.64D-05 DE=-1.63D-07 OVMax= 1.08D-04

 Cycle  43  Pass 1  IDiag  1:
 Density matrix breaks symmetry, PCut= 1.00D-07
 Density matrix has no symmetry -- integrals replicated.
 E= -1271.82288045042     Delta-E=       -0.000000142491 Rises=F Damp=F
 DIIS: error= 8.23D-05 at cycle  43 NSaved=  20.
 NSaved=20 IEnMin=20 EnMin= -1271.82288045042     IErMin=20 ErrMin= 8.23D-05
 ErrMax= 8.23D-05  0.00D+00 EMaxC= 1.00D-01 BMatC= 4.51D-07 BMatP= 5.03D-07
 IDIUse=1 WtCom= 1.00D+00 WtEn= 0.00D+00
 Coeff-Com: -0.102D-01 0.712D-01-0.282D+00 0.154D+00 0.500D-01 0.183D+00
 Coeff-Com: -0.164D-01-0.141D+00 0.210D+00 0.962D+00-0.138D+01-0.325D+00
 Coeff-Com:  0.145D+01-0.513D+00-0.154D+01 0.946D+00-0.372D+00 0.879D+00
 Coeff-Com: -0.370D+01 0.437D+01
 Coeff:     -0.102D-01 0.712D-01-0.282D+00 0.154D+00 0.500D-01 0.183D+00
 Coeff:     -0.164D-01-0.141D+00 0.210D+00 0.962D+00-0.138D+01-0.325D+00
 Coeff:      0.145D+01-0.513D+00-0.154D+01 0.946D+00-0.372D+00 0.879D+00
 Coeff:     -0.370D+01 0.437D+01
 Gap=     0.010 Goal=   None    Shift=    0.200
 RMSDP=3.23D-07 MaxDP=3.67D-05 DE=-1.42D-07 OVMax= 1.03D-04

 Cycle  44  Pass 1  IDiag  1:
 Density matrix breaks symmetry, PCut= 1.00D-07
 Density matrix has no symmetry -- integrals replicated.
 E= -1271.82288057635     Delta-E=       -0.000000125934 Rises=F Damp=F
 DIIS: error= 7.83D-05 at cycle  44 NSaved=  20.
 NSaved=20 IEnMin=20 EnMin= -1271.82288057635     IErMin=20 ErrMin= 7.83D-05
 ErrMax= 7.83D-05  0.00D+00 EMaxC= 1.00D-01 BMatC= 4.05D-07 BMatP= 4.51D-07
 IDIUse=1 WtCom= 1.00D+00 WtEn= 0.00D+00
 Coeff-Com: -0.180D-01-0.280D+00 0.593D+00-0.596D+00 0.436D+00 0.380D-02
 Coeff-Com: -0.936D-01 0.201D+00 0.314D+00-0.933D+00 0.139D+01 0.916D-01
 Coeff-Com: -0.209D+01-0.118D+01 0.256D+01 0.933D+00 0.122D+01-0.935D+01
 Coeff-Com:  0.484D+01 0.296D+01
 Coeff:     -0.180D-01-0.280D+00 0.593D+00-0.596D+00 0.436D+00 0.380D-02
 Coeff:     -0.936D-01 0.201D+00 0.314D+00-0.933D+00 0.139D+01 0.916D-01
 Coeff:     -0.209D+01-0.118D+01 0.256D+01 0.933D+00 0.122D+01-0.935D+01
 Coeff:      0.484D+01 0.296D+01
 Gap=     0.010 Goal=   None    Shift=    0.200
 RMSDP=3.80D-07 MaxDP=4.84D-05 DE=-1.26D-07 OVMax= 9.54D-05

 Cycle  45  Pass 1  IDiag  1:
 Density matrix breaks symmetry, PCut= 1.00D-07
 Density matrix has no symmetry -- integrals replicated.
 E= -1271.82288068530     Delta-E=       -0.000000108952 Rises=F Damp=F
 DIIS: error= 7.46D-05 at cycle  45 NSaved=  20.
 NSaved=20 IEnMin=20 EnMin= -1271.82288068530     IErMin=20 ErrMin= 7.46D-05
 ErrMax= 7.46D-05  0.00D+00 EMaxC= 1.00D-01 BMatC= 3.65D-07 BMatP= 4.05D-07
 IDIUse=1 WtCom= 1.00D+00 WtEn= 0.00D+00
 Coeff-Com: -0.273D+00 0.462D+00-0.604D+00 0.565D+00 0.507D-02-0.925D-01
 Coeff-Com:  0.175D+00 0.205D+00-0.659D+00 0.112D+01-0.159D+00-0.979D+00
 Coeff-Com: -0.134D+01 0.131D+01 0.123D+01 0.103D+01-0.466D+01 0.485D+00
 Coeff-Com:  0.115D+01 0.205D+01
 Coeff:     -0.273D+00 0.462D+00-0.604D+00 0.565D+00 0.507D-02-0.925D-01
 Coeff:      0.175D+00 0.205D+00-0.659D+00 0.112D+01-0.159D+00-0.979D+00
 Coeff:     -0.134D+01 0.131D+01 0.123D+01 0.103D+01-0.466D+01 0.485D+00
 Coeff:      0.115D+01 0.205D+01
 Gap=     0.010 Goal=   None    Shift=    0.200
 RMSDP=2.29D-07 MaxDP=3.60D-05 DE=-1.09D-07 OVMax= 9.01D-05

 Cycle  46  Pass 1  IDiag  1:
 Density matrix breaks symmetry, PCut= 1.00D-07
 Density matrix has no symmetry -- integrals replicated.
 E= -1271.82288078324     Delta-E=       -0.000000097938 Rises=F Damp=F
 DIIS: error= 7.12D-05 at cycle  46 NSaved=  20.
 NSaved=20 IEnMin=20 EnMin= -1271.82288078324     IErMin=20 ErrMin= 7.12D-05
 ErrMax= 7.12D-05  0.00D+00 EMaxC= 1.00D-01 BMatC= 3.29D-07 BMatP= 3.65D-07
 IDIUse=1 WtCom= 1.00D+00 WtEn= 0.00D+00
 Coeff-Com: -0.812D-01-0.385D+00 0.627D+00 0.124D-01-0.870D-01 0.112D+00
 Coeff-Com:  0.185D+00-0.452D+00 0.387D+00 0.138D+00 0.401D+00-0.131D+01
 Coeff-Com: -0.373D+00 0.643D+00 0.587D+00 0.924D+00-0.277D+01-0.263D+00
 Coeff-Com:  0.134D+01 0.136D+01
 Coeff:     -0.812D-01-0.385D+00 0.627D+00 0.124D-01-0.870D-01 0.112D+00
 Coeff:      0.185D+00-0.452D+00 0.387D+00 0.138D+00 0.401D+00-0.131D+01
 Coeff:     -0.373D+00 0.643D+00 0.587D+00 0.924D+00-0.277D+01-0.263D+00
 Coeff:      0.134D+01 0.136D+01
 Gap=     0.010 Goal=   None    Shift=    0.200
 RMSDP=4.80D-07 MaxDP=6.77D-05 DE=-9.79D-08 OVMax= 8.65D-05

 Cycle  47  Pass 1  IDiag  1:
 Density matrix breaks symmetry, PCut= 1.00D-07
 Density matrix has no symmetry -- integrals replicated.
 E= -1271.82288087144     Delta-E=       -0.000000088196 Rises=F Damp=F
 DIIS: error= 6.79D-05 at cycle  47 NSaved=  20.
 NSaved=20 IEnMin=20 EnMin= -1271.82288087144     IErMin=20 ErrMin= 6.79D-05
 ErrMax= 6.79D-05  0.00D+00 EMaxC= 1.00D-01 BMatC= 2.98D-07 BMatP= 3.29D-07
 IDIUse=1 WtCom= 1.00D+00 WtEn= 0.00D+00
 Coeff-Com: -0.494D+00 0.643D+00 0.790D-02-0.789D-01 0.115D+00 0.352D-01
 Coeff-Com: -0.159D+00 0.450D+00-0.269D+00 0.590D+00-0.110D+01-0.280D+00
 Coeff-Com:  0.503D+00 0.148D+00 0.605D+00-0.218D+01-0.984D-01 0.882D+00
 Coeff-Com:  0.693D+00 0.983D+00
 Coeff:     -0.494D+00 0.643D+00 0.790D-02-0.789D-01 0.115D+00 0.352D-01
 Coeff:     -0.159D+00 0.450D+00-0.269D+00 0.590D+00-0.110D+01-0.280D+00
 Coeff:      0.503D+00 0.148D+00 0.605D+00-0.218D+01-0.984D-01 0.882D+00
 Coeff:      0.693D+00 0.983D+00
 Gap=     0.010 Goal=   None    Shift=    0.200
 RMSDP=2.05D-07 MaxDP=2.62D-05 DE=-8.82D-08 OVMax= 8.22D-05

 Cycle  48  Pass 1  IDiag  1:
 Density matrix breaks symmetry, PCut= 1.00D-07
 Density matrix has no symmetry -- integrals replicated.
 E= -1271.82288095309     Delta-E=       -0.000000081647 Rises=F Damp=F
 DIIS: error= 6.46D-05 at cycle  48 NSaved=  20.
 NSaved=20 IEnMin=20 EnMin= -1271.82288095309     IErMin=20 ErrMin= 6.46D-05
 ErrMax= 6.46D-05  0.00D+00 EMaxC= 1.00D-01 BMatC= 2.68D-07 BMatP= 2.98D-07
 IDIUse=1 WtCom= 1.00D+00 WtEn= 0.00D+00
 Coeff-Com:  0.103D+00 0.905D-02-0.795D-01 0.213D+00-0.224D+00-0.189D-01
 Coeff-Com:  0.495D+00-0.364D+00 0.102D+01-0.196D+01 0.107D+00 0.949D+00
 Coeff-Com: -0.670D+00 0.689D+00-0.636D+00-0.443D+00-0.136D+00-0.373D+00
 Coeff-Com: -0.183D+01 0.415D+01
 Coeff:      0.103D+00 0.905D-02-0.795D-01 0.213D+00-0.224D+00-0.189D-01
 Coeff:      0.495D+00-0.364D+00 0.102D+01-0.196D+01 0.107D+00 0.949D+00
 Coeff:     -0.670D+00 0.689D+00-0.636D+00-0.443D+00-0.136D+00-0.373D+00
 Coeff:     -0.183D+01 0.415D+01
 Gap=     0.010 Goal=   None    Shift=    0.200
 RMSDP=2.80D-07 MaxDP=2.38D-05 DE=-8.16D-08 OVMax= 7.79D-05

 Cycle  49  Pass 1  IDiag  1:
 Density matrix breaks symmetry, PCut= 1.00D-07
 Density matrix has no symmetry -- integrals replicated.
 E= -1271.82288102752     Delta-E=       -0.000000074431 Rises=F Damp=F
 DIIS: error= 6.14D-05 at cycle  49 NSaved=  20.
 NSaved=20 IEnMin=20 EnMin= -1271.82288102752     IErMin=20 ErrMin= 6.14D-05
 ErrMax= 6.14D-05  0.00D+00 EMaxC= 1.00D-01 BMatC= 2.42D-07 BMatP= 2.68D-07
 IDIUse=1 WtCom= 1.00D+00 WtEn= 0.00D+00
 Coeff-Com:  0.554D-01-0.902D-01 0.207D+00-0.164D+00-0.244D+00 0.182D+01
 Coeff-Com: -0.196D+01 0.269D+00-0.146D+01 0.184D+01 0.492D+00-0.521D+00
 Coeff-Com: -0.672D+01 0.467D+01 0.132D+01-0.614D+00-0.109D+01-0.208D+01
 Coeff-Com:  0.388D+01 0.139D+01
 Coeff:      0.554D-01-0.902D-01 0.207D+00-0.164D+00-0.244D+00 0.182D+01
 Coeff:     -0.196D+01 0.269D+00-0.146D+01 0.184D+01 0.492D+00-0.521D+00
 Coeff:     -0.672D+01 0.467D+01 0.132D+01-0.614D+00-0.109D+01-0.208D+01
 Coeff:      0.388D+01 0.139D+01
 Gap=     0.010 Goal=   None    Shift=    0.200
 RMSDP=3.57D-07 MaxDP=2.68D-05 DE=-7.44D-08 OVMax= 6.84D-05

 Cycle  50  Pass 1  IDiag  1:
 Density matrix breaks symmetry, PCut= 1.00D-07
 Density matrix has no symmetry -- integrals replicated.
 E= -1271.82288108721     Delta-E=       -0.000000059691 Rises=F Damp=F
 DIIS: error= 5.88D-05 at cycle  50 NSaved=  20.
 NSaved=20 IEnMin=20 EnMin= -1271.82288108721     IErMin=20 ErrMin= 5.88D-05
 ErrMax= 5.88D-05  0.00D+00 EMaxC= 1.00D-01 BMatC= 2.20D-07 BMatP= 2.42D-07
 IDIUse=1 WtCom= 1.00D+00 WtEn= 0.00D+00
 Coeff-Com: -0.822D-01 0.321D+00 0.520D-01-0.569D+00 0.177D+01-0.172D+01
 Coeff-Com:  0.451D+00-0.227D+01 0.222D+01 0.910D+00-0.560D+00-0.727D+01
 Coeff-Com:  0.561D+01 0.129D+01-0.128D+01-0.172D+01-0.280D+01 0.498D+01
 Coeff-Com:  0.135D+01 0.303D+00
 Coeff:     -0.822D-01 0.321D+00 0.520D-01-0.569D+00 0.177D+01-0.172D+01
 Coeff:      0.451D+00-0.227D+01 0.222D+01 0.910D+00-0.560D+00-0.727D+01
 Coeff:      0.561D+01 0.129D+01-0.128D+01-0.172D+01-0.280D+01 0.498D+01
 Coeff:      0.135D+01 0.303D+00
 Gap=     0.010 Goal=   None    Shift=    0.200
 RMSDP=3.05D-07 MaxDP=3.07D-05 DE=-5.97D-08 OVMax= 6.95D-05

 Cycle  51  Pass 1  IDiag  1:
 Density matrix breaks symmetry, PCut= 1.00D-07
 Density matrix has no symmetry -- integrals replicated.
 E= -1271.82288114838     Delta-E=       -0.000000061176 Rises=F Damp=F
 DIIS: error= 5.57D-05 at cycle  51 NSaved=  20.
 NSaved=20 IEnMin=20 EnMin= -1271.82288114838     IErMin=20 ErrMin= 5.57D-05
 ErrMax= 5.57D-05  0.00D+00 EMaxC= 1.00D-01 BMatC= 1.97D-07 BMatP= 2.20D-07
 IDIUse=1 WtCom= 1.00D+00 WtEn= 0.00D+00
 Coeff-Com:  0.261D+00-0.526D-01-0.141D+01 0.208D+01-0.857D+00 0.226D+01
 Coeff-Com: -0.461D+01 0.230D+01 0.137D+01 0.348D+00-0.845D+01 0.524D+01
 Coeff-Com:  0.212D+01-0.131D+01-0.197D+01-0.302D+01 0.454D+01 0.285D+01
 Coeff-Com: -0.406D+01 0.335D+01
 Coeff:      0.261D+00-0.526D-01-0.141D+01 0.208D+01-0.857D+00 0.226D+01
 Coeff:     -0.461D+01 0.230D+01 0.137D+01 0.348D+00-0.845D+01 0.524D+01
 Coeff:      0.212D+01-0.131D+01-0.197D+01-0.302D+01 0.454D+01 0.285D+01
 Coeff:     -0.406D+01 0.335D+01
 Gap=     0.010 Goal=   None    Shift=    0.200
 RMSDP=5.06D-07 MaxDP=4.43D-05 DE=-6.12D-08 OVMax= 6.70D-05

 Cycle  52  Pass 1  IDiag  1:
 Density matrix breaks symmetry, PCut= 1.00D-07
 Density matrix has no symmetry -- integrals replicated.
 E= -1271.82288119607     Delta-E=       -0.000000047687 Rises=F Damp=F
 DIIS: error= 5.28D-05 at cycle  52 NSaved=  20.
 NSaved=20 IEnMin=20 EnMin= -1271.82288119607     IErMin=20 ErrMin= 5.28D-05
 ErrMax= 5.28D-05  0.00D+00 EMaxC= 1.00D-01 BMatC= 1.77D-07 BMatP= 1.97D-07
 IDIUse=1 WtCom= 1.00D+00 WtEn= 0.00D+00
 Coeff-Com:  0.435D+00-0.998D+00 0.501D+00-0.124D+01 0.443D+01-0.323D+01
[...]
 199       73F-1        0.00004   0.00004   0.00000   0.00004
 200       73F+2        0.00003   0.00003   0.00000   0.00003
 201       73F-2        0.00006   0.00003   0.00003   0.00000
 202       73F+3        0.00003   0.00002   0.00002  -0.00000
 203       73F-3        0.00003   0.00002   0.00002  -0.00000
 204       74F 0        0.00293   0.00146   0.00146   0.00000
 205       74F+1        0.00008   0.00008   0.00000   0.00007
 206       74F-1        0.00008   0.00008   0.00000   0.00007
 207       74F+2        0.00009   0.00009   0.00000   0.00009
 208       74F-2        0.00022   0.00011   0.00011   0.00000
 209       74F+3        0.00001   0.00000   0.00000   0.00000
 210       74F-3        0.00001   0.00000   0.00000   0.00000
 211       75F 0        0.00171   0.00086   0.00086   0.00000
 212       75F+1        0.00001   0.00001   0.00000   0.00001
 213       75F-1        0.00001   0.00001   0.00000   0.00001
 214       75F+2        0.00002   0.00002   0.00000   0.00002
 215       75F-2        0.00008   0.00004   0.00004   0.00000
 216       75F+3        0.00000   0.00000   0.00000  -0.00000
 217       75F-3        0.00000   0.00000   0.00000  -0.00000
 218       76G 0        0.00000   0.00000   0.00000   0.00000
 219       76G+1        0.00000   0.00000   0.00000   0.00000
 220       76G-1        0.00000   0.00000   0.00000   0.00000
 221       76G+2        0.00000   0.00000   0.00000   0.00000
 222       76G-2        0.00000   0.00000   0.00000   0.00000
 223       76G+3        0.00000   0.00000   0.00000   0.00000
 224       76G-3        0.00000   0.00000   0.00000   0.00000
 225       76G+4        0.00000   0.00000   0.00000   0.00000
 226       76G-4        0.00000   0.00000   0.00000   0.00000
 227       77G 0        0.00000   0.00000   0.00000  -0.00000
 228       77G+1       -0.00000  -0.00000   0.00000  -0.00000
 229       77G-1       -0.00000  -0.00000   0.00000  -0.00000
 230       77G+2        0.00000   0.00000   0.00000   0.00000
 231       77G-2        0.00000   0.00000   0.00000   0.00000
 232       77G+3        0.00000   0.00000   0.00000   0.00000
 233       77G-3        0.00000   0.00000   0.00000   0.00000
 234       77G+4        0.00000   0.00000   0.00000   0.00000
 235       77G-4        0.00000   0.00000   0.00000   0.00000
 236       78G 0        0.00001   0.00001   0.00001   0.00000
 237       78G+1        0.00000   0.00000  -0.00000   0.00000
 238       78G-1        0.00000   0.00000  -0.00000   0.00000
 239       78G+2        0.00000   0.00000   0.00000   0.00000
 240       78G-2        0.00000   0.00000   0.00000   0.00000
 241       78G+3        0.00000   0.00000   0.00000   0.00000
 242       78G-3        0.00000   0.00000   0.00000   0.00000
 243       78G+4        0.00000   0.00000   0.00000   0.00000
 244       78G-4        0.00000   0.00000   0.00000   0.00000
 245       79G 0        0.00021   0.00010   0.00010   0.00000
 246       79G+1        0.00000   0.00000   0.00000   0.00000
 247       79G-1        0.00000   0.00000   0.00000   0.00000
 248       79G+2        0.00000   0.00000   0.00000   0.00000
 249       79G-2        0.00000   0.00000   0.00000   0.00000
 250       79G+3        0.00000   0.00000   0.00000   0.00000
 251       79G-3        0.00000   0.00000   0.00000   0.00000
 252       79G+4        0.00000   0.00000   0.00000   0.00000
 253       79G-4        0.00000   0.00000   0.00000   0.00000
 254       80G 0        0.00042   0.00021   0.00021   0.00000
 255       80G+1        0.00000   0.00000  -0.00000   0.00000
 256       80G-1        0.00000   0.00000  -0.00000   0.00000
 257       80G+2        0.00000   0.00000  -0.00000   0.00000
 258       80G-2       -0.00000  -0.00000  -0.00000   0.00000
 259       80G+3        0.00000   0.00000   0.00000   0.00000
 260       80G-3        0.00000   0.00000   0.00000   0.00000
 261       80G+4        0.00000   0.00000   0.00000   0.00000
 262       80G-4        0.00000   0.00000   0.00000   0.00000
 263       81H 0        0.00000   0.00000   0.00000   0.00000
 264       81H+1        0.00000   0.00000   0.00000   0.00000
 265       81H-1        0.00000   0.00000   0.00000   0.00000
 266       81H+2       -0.00000  -0.00000   0.00000  -0.00000
 267       81H-2        0.00000   0.00000   0.00000   0.00000
 268       81H+3        0.00000   0.00000   0.00000   0.00000
 269       81H-3        0.00000   0.00000   0.00000   0.00000
 270       81H+4        0.00000   0.00000   0.00000   0.00000
 271       81H-4        0.00000   0.00000   0.00000   0.00000
 272       81H+5        0.00000   0.00000   0.00000   0.00000
 273       81H-5        0.00000   0.00000   0.00000   0.00000
 274       82H 0        0.00000   0.00000   0.00000  -0.00000
 275       82H+1        0.00000   0.00000   0.00000  -0.00000
 276       82H-1        0.00000   0.00000   0.00000  -0.00000
 277       82H+2        0.00000   0.00000   0.00000   0.00000
 278       82H-2       -0.00000  -0.00000  -0.00000   0.00000
 279       82H+3        0.00000   0.00000   0.00000   0.00000
 280       82H-3        0.00000   0.00000   0.00000   0.00000
 281       82H+4        0.00000   0.00000   0.00000   0.00000
 282       82H-4        0.00000   0.00000   0.00000   0.00000
 283       82H+5        0.00000   0.00000   0.00000   0.00000
 284       82H-5        0.00000   0.00000   0.00000   0.00000
 285       83H 0        0.00000   0.00000   0.00000  -0.00000
 286       83H+1        0.00000   0.00000  -0.00000   0.00000
 287       83H-1        0.00000   0.00000  -0.00000   0.00000
 288       83H+2        0.00000   0.00000   0.00000   0.00000
 289       83H-2       -0.00000  -0.00000  -0.00000   0.00000
 290       83H+3        0.00000   0.00000  -0.00000   0.00000
 291       83H-3        0.00000   0.00000  -0.00000   0.00000
 292       83H+4        0.00000   0.00000   0.00000   0.00000
 293       83H-4        0.00000   0.00000   0.00000   0.00000
 294       83H+5        0.00000   0.00000   0.00000   0.00000
 295       83H-5        0.00000   0.00000   0.00000   0.00000
 296       84H 0        0.00001   0.00001   0.00001   0.00000
 297       84H+1        0.00000   0.00000   0.00000   0.00000
 298       84H-1        0.00000   0.00000   0.00000   0.00000
 299       84H+2       -0.00000  -0.00000  -0.00000  -0.00000
 300       84H-2       -0.00000  -0.00000  -0.00000  -0.00000
 301       84H+3        0.00000   0.00000   0.00000   0.00000
 302       84H-3        0.00000   0.00000   0.00000   0.00000
 303       84H+4        0.00000   0.00000   0.00000   0.00000
 304       84H-4        0.00000   0.00000   0.00000   0.00000
 305       84H+5        0.00000   0.00000   0.00000   0.00000
 306       84H-5        0.00000   0.00000   0.00000   0.00000
 307       85I 0        0.00000   0.00000   0.00000   0.00000
 308       85I+1        0.00000   0.00000   0.00000   0.00000
 309       85I-1        0.00000   0.00000   0.00000   0.00000
 310       85I+2        0.00000   0.00000   0.00000   0.00000
 311       85I-2        0.00000   0.00000   0.00000   0.00000
 312       85I+3        0.00000   0.00000   0.00000   0.00000
 313       85I-3        0.00000   0.00000   0.00000   0.00000
 314       85I+4        0.00000   0.00000   0.00000   0.00000
 315       85I-4        0.00000   0.00000   0.00000   0.00000
 316       85I+5        0.00000   0.00000   0.00000   0.00000
 317       85I-5        0.00000   0.00000   0.00000   0.00000
 318       85I+6        0.00000   0.00000   0.00000   0.00000
 319       85I-6        0.00000   0.00000   0.00000   0.00000
 320       86I 0       -0.00000  -0.00000  -0.00000   0.00000
 321       86I+1        0.00000   0.00000   0.00000   0.00000
 322       86I-1        0.00000   0.00000   0.00000   0.00000
 323       86I+2        0.00000   0.00000   0.00000   0.00000
 324       86I-2        0.00000   0.00000   0.00000   0.00000
 325       86I+3        0.00000   0.00000   0.00000   0.00000
 326       86I-3        0.00000   0.00000   0.00000   0.00000
 327       86I+4        0.00000   0.00000   0.00000   0.00000
 328       86I-4        0.00000   0.00000   0.00000   0.00000
 329       86I+5        0.00000   0.00000   0.00000   0.00000
 330       86I-5        0.00000   0.00000   0.00000   0.00000
 331       86I+6        0.00000   0.00000   0.00000   0.00000
 332       86I-6        0.00000   0.00000   0.00000   0.00000
 333 2   H  1S          0.00001   0.00000   0.00000   0.00000
 334        2S          0.00023   0.00012   0.00012   0.00000
 335        3S          0.00314   0.00157   0.00157   0.00000
 336        4S          0.02528   0.01264   0.01264   0.00000
 337        5S          0.12208   0.06104   0.06104   0.00000
 338        6S          0.35735   0.17867   0.17867   0.00000
 339        7S          0.50404   0.25202   0.25202   0.00000
 340        8S          0.24259   0.12130   0.12130   0.00000
 341        9S          0.01862   0.00931   0.00931   0.00000
 342       10PX         0.00000   0.00000   0.00000   0.00000
 343       10PY         0.00000   0.00000   0.00000   0.00000
 344       10PZ         0.00004   0.00002   0.00002   0.00000
 345       11PX         0.00004   0.00004   0.00000   0.00004
 346       11PY         0.00004   0.00004   0.00000   0.00004
 347       11PZ         0.00042   0.00021   0.00021   0.00000
 348       12PX         0.00055   0.00054   0.00001   0.00053
 349       12PY         0.00055   0.00054   0.00001   0.00053
 350       12PZ         0.00474   0.00237   0.00237   0.00000
 351       13PX         0.00100   0.00096   0.00004   0.00092
 352       13PY         0.00100   0.00096   0.00004   0.00092
 353       13PZ         0.00367   0.00183   0.00183   0.00000
 354       14PX         0.00029   0.00027   0.00002   0.00026
 355       14PY         0.00029   0.00027   0.00002   0.00026
 356       14PZ        -0.00276  -0.00138  -0.00138   0.00000
 357       15D 0        0.00001   0.00000   0.00000   0.00000
 358       15D+1        0.00000   0.00000   0.00000   0.00000
 359       15D-1        0.00000   0.00000   0.00000   0.00000
 360       15D+2        0.00000   0.00000   0.00000   0.00000
 361       15D-2        0.00000   0.00000   0.00000   0.00000
 362       16D 0        0.00029   0.00014   0.00014   0.00000
 363       16D+1        0.00007   0.00007   0.00000   0.00007
 364       16D-1        0.00007   0.00007   0.00000   0.00007
 365       16D+2        0.00000   0.00000   0.00000   0.00000
 366       16D-2        0.00001   0.00000   0.00000   0.00000
 367       17D 0        0.00100   0.00050   0.00050   0.00000
 368       17D+1        0.00030   0.00028   0.00002   0.00026
 369       17D-1        0.00030   0.00028   0.00002   0.00026
 370       17D+2        0.00003   0.00003   0.00000   0.00003
 371       17D-2        0.00008   0.00004   0.00004   0.00000
 372       18D 0        0.00017   0.00009   0.00009  -0.00000
 373       18D+1        0.00007   0.00005   0.00002   0.00003
 374       18D-1        0.00007   0.00005   0.00002   0.00003
 375       18D+2        0.00005   0.00005   0.00000   0.00005
 376       18D-2        0.00009   0.00004   0.00004   0.00000
 377       19F 0        0.00000   0.00000   0.00000   0.00000
 378       19F+1        0.00000   0.00000   0.00000   0.00000
 379       19F-1        0.00000   0.00000   0.00000   0.00000
 380       19F+2        0.00000   0.00000   0.00000   0.00000
 381       19F-2        0.00000   0.00000   0.00000   0.00000
 382       19F+3       -0.00000  -0.00000  -0.00000   0.00000
 383       19F-3       -0.00000  -0.00000  -0.00000   0.00000
 384       20F 0        0.00025   0.00013   0.00013   0.00000
 385       20F+1        0.00004   0.00004   0.00000   0.00004
 386       20F-1        0.00004   0.00004   0.00000   0.00004
 387       20F+2        0.00001   0.00001   0.00000   0.00001
 388       20F-2        0.00002   0.00001   0.00001   0.00000
 389       20F+3        0.00000   0.00000   0.00000  -0.00000
 390       20F-3        0.00000   0.00000   0.00000  -0.00000
 391       21F 0        0.00035   0.00017   0.00017  -0.00000
 392       21F+1       -0.00005  -0.00005  -0.00001  -0.00004
 393       21F-1       -0.00005  -0.00005  -0.00001  -0.00004
 394       21F+2        0.00004   0.00004   0.00000   0.00004
 395       21F-2        0.00004   0.00002   0.00002   0.00000
 396       21F+3       -0.00000  -0.00000  -0.00000  -0.00000
 397       21F-3       -0.00000  -0.00000  -0.00000  -0.00000
 398       22G 0        0.00001   0.00000   0.00000   0.00000
 399       22G+1        0.00000   0.00000   0.00000   0.00000
 400       22G-1        0.00000   0.00000   0.00000   0.00000
 401       22G+2        0.00000   0.00000   0.00000   0.00000
 402       22G-2        0.00000   0.00000   0.00000   0.00000
 403       22G+3        0.00000   0.00000   0.00000  -0.00000
 404       22G-3        0.00000   0.00000   0.00000  -0.00000
 405       22G+4       -0.00000  -0.00000  -0.00000  -0.00000
 406       22G-4       -0.00000  -0.00000  -0.00000  -0.00000
 407       23G 0        0.00012   0.00006   0.00006  -0.00000
 408       23G+1       -0.00006  -0.00005  -0.00001  -0.00003
 409       23G-1       -0.00006  -0.00005  -0.00001  -0.00003
 410       23G+2        0.00000   0.00000   0.00000   0.00000
 411       23G-2        0.00001   0.00001   0.00001   0.00000
 412       23G+3       -0.00000  -0.00000  -0.00000  -0.00000
 413       23G-3       -0.00000  -0.00000  -0.00000  -0.00000
 414       23G+4        0.00000   0.00000   0.00000   0.00000
 415       23G-4        0.00000   0.00000   0.00000   0.00000
          Condensed to atoms (all electrons):
               1          2
     1  Fe  25.330080   0.383353
     2  H    0.383353   0.903214
          Atomic-Atomic Spin Densities.
               1          2
     1  Fe   2.991617   0.004068
     2  H    0.004068   0.000248
 Mulliken charges and spin densities:
               1          2
     1  Fe   0.286567   2.995684
     2  H   -0.286567   0.004316
 Sum of Mulliken charges =  -0.00000   3.00000
 Mulliken charges and spin densities with hydrogens summed into heavy atoms:
               1          2
     1  Fe  -0.000000   3.000000
 Electronic spatial extent (au):  <R**2>=             45.6504
 Charge=             -0.0000 electrons
 Dipole moment (field-independent basis, Debye):
    X=              0.0000    Y=             -0.0000    Z=              4.3996  Tot=              4.3996
 Quadrupole moment (field-independent basis, Debye-Ang):
   XX=            -15.9040   YY=            -15.9040   ZZ=            -17.7526
   XY=             -0.0000   XZ=              0.0001   YZ=             -0.0000
 Traceless Quadrupole moment (field-independent basis, Debye-Ang):
   XX=              0.6162   YY=              0.6162   ZZ=             -1.2324
   XY=             -0.0000   XZ=              0.0001   YZ=             -0.0000
 Octapole moment (field-independent basis, Debye-Ang**2):
  XXX=              0.0000  YYY=             -0.0000  ZZZ=             17.0673  XYY=              0.0000
  XXY=             -0.0000  XXZ=              4.1299  XZZ=              0.0000  YZZ=             -0.0000
  YYZ=              4.1299  XYZ=              0.0000
 Hexadecapole moment (field-independent basis, Debye-Ang**3):
 XXXX=            -24.1823 YYYY=            -24.1823 ZZZZ=            -55.0283 XXXY=             -0.0001
 XXXZ=              0.0001 YYYX=              0.0001 YYYZ=             -0.0000 ZZZX=              0.0001
 ZZZY=             -0.0000 XXYY=             -8.4003 XXZZ=            -12.4177 YYZZ=            -12.4177
 XXYZ=             -0.0000 YYXZ=              0.0001 ZZXY=             -0.0000
 N-N= 8.599129677450D+00 E-N=-3.103205682301D+03  KE= 1.325553573973D+03
 Orbital energies and kinetic energies (alpha):
                                 1                 2
   8         O                -2.751288         11.039361
   9         O                -2.751288         11.039362
  10         O                -0.498644          3.386675
  11         O                -0.498644          6.547110
  12         O                -0.490764          3.041987
  13         O                -0.446060          6.851044
  14         O                -0.441205          6.851044
  15         O                -0.318771          6.876931
  16         V                -0.004712          0.269807
  17         V                 0.021348          0.044492
  18         V                 0.021348          0.044492
  19         V                 0.026154          0.037777
  20         V                 0.033782          0.290380
 Total kinetic energy from orbitals= 1.346132592378D+03
 FoFCou: FMM=F IPFlag=           8 FMFlag=           0 FMFlg1=           0
         NFxFlg=           0 DoJE=F BraDBF=T KetDBF=F FulRan=T
         wScrn=  0.000000 ICntrl=   2000500 IOpCl=  0 I1Cent=           5 NGrid=           0
         NMat0=    1 NMatS0=      1 NMatT0=    0 NMatD0=    1 NMtDS0=    0 NMtDT0=    0
 Symmetry not used in FoFCou.
                          Isotropic Fermi Contact Couplings
        Atom                 a.u.       MegaHertz       Gauss      10(-4) cm-1
     1  Fe(57)             0.00000       0.00000       0.00000       0.00000
     2  H(1)               0.00000       0.00000       0.00000       0.00000
 --------------------------------------------------------
       Center         ----  Spin Dipole Couplings  ----
                      3XX-RR        3YY-RR        3ZZ-RR
 --------------------------------------------------------
     1   Atom        0.012509      0.012522     -0.025030
     2   Atom       -0.095400     -0.095400      0.190800
 --------------------------------------------------------
                        XY            XZ            YZ
 --------------------------------------------------------
     1   Atom       -0.000000      0.000074     -0.000001
     2   Atom       -0.000000      0.000000     -0.000000
 --------------------------------------------------------


 ---------------------------------------------------------------------------------
              Anisotropic Spin Dipole Couplings in Principal Axis System
 ---------------------------------------------------------------------------------

       Atom             a.u.   MegaHertz   Gauss  10(-4) cm-1        Axes

              Baa    -0.0250    -0.433    -0.155    -0.145 -0.0020  0.0000  1.0000
     1 Fe(57) Bbb     0.0125     0.217     0.077     0.072  1.0000  0.0003  0.0020
              Bcc     0.0125     0.217     0.077     0.072 -0.0002  1.0000 -0.0000
 
              Baa    -0.0954   -50.901   -18.163   -16.979  1.0000  0.0022 -0.0000
     2 H(1)   Bbb    -0.0954   -50.901   -18.163   -16.979 -0.0022  1.0000  0.0000
              Bcc     0.1908   101.802    36.325    33.957  0.0000 -0.0000  1.0000
 

 ---------------------------------------------------------------------------------

 No NMR shielding tensors so no spin-rotation constants.
 Leave Link  601 at Thu Mar  8 19:28:39 2018, MaxMem= 10737418240 cpu:             381.8 elap:              12.5
 (Enter /home1/apps/gaussian/16rA.03/g16/l9999.exe)

 Test job not archived.
 1\1\GINC-C475-041\SP\ROCCSD(T)-FC1\Gen\Fe1H1(4)\GWANG18\08-Mar-2018\0\
 \#P ROCCSD(T)=(MaxCyc=150, FrzINGC)/Gen SCF=(maxcycle=400, vshift=200)
  Integral(DKHSO, NoXCTest) Pop=Regular MaxDisk=500GB Guess=Read IOp(5/
 15=2)\\FeH\\0,4\Fe,0,0.,0.,0.\H,0,0.,0.,1.6\\Version=ES64L-G16RevA.03\
 HF=-1271.8228817\MP2=-1272.6249648\MP3=-1272.5493048\PUHF=-1271.822881
 7\PMP2-0=-1272.6249648\MP4SDQ=-1272.5951317\CCSD=-1272.5833449\CCSD(T)
 =-1272.6123827\RMSD=7.914e-09\PG=C*V [C*(H1Fe1)]\\@


 MAN IS A SINGULAR CREATURE.  HE HAS A SET OF GIFTS
 WHICH MAKE HIM UNIQUE AMONG THE ANIMALS: SO THAT, 
 UNLIKE THEM, HE IS NOT A FIGURE IN THE LANDSCAPE --
 HE IS A SHAPER OF THE LANDSCAPE.

                       -- JACOB BRONOWSKI
 Job cpu time:       8 days 12 hours 31 minutes 50.8 seconds.
 Elapsed time:       0 days  6 hours 34 minutes 51.7 seconds.
 File lengths (MBytes):  RWF=  54228 Int=      0 D2E=      0 Chk=     19 Scr=      1
 Normal termination of Gaussian 16 at Thu Mar  8 19:28:40 2018.
