 Entering Gaussian System, Link 0=g16
 Initial command:
 /home1/apps/gaussian/16rA.03/g16/l1.exe "/tmp/Gau-13019.inp" -scrdir="/tmp/"
 Entering Link 1 = /home1/apps/gaussian/16rA.03/g16/l1.exe PID=     13020.
  
 Copyright (c) 1988,1990,1992,1993,1995,1998,2003,2009,2016,
            Gaussian, Inc.  All Rights Reserved.
  
 This is part of the Gaussian(R) 16 program.  It is based on
 the Gaussian(R) 09 system (copyright 2009, Gaussian, Inc.),
 the Gaussian(R) 03 system (copyright 2003, Gaussian, Inc.),
 the Gaussian(R) 98 system (copyright 1998, Gaussian, Inc.),
 the Gaussian(R) 94 system (copyright 1995, Gaussian, Inc.),
 the Gaussian 92(TM) system (copyright 1992, Gaussian, Inc.),
 the Gaussian 90(TM) system (copyright 1990, Gaussian, Inc.),
 the Gaussian 88(TM) system (copyright 1988, Gaussian, Inc.),
 the Gaussian 86(TM) system (copyright 1986, Carnegie Mellon
 University), and the Gaussian 82(TM) system (copyright 1983,
 Carnegie Mellon University). Gaussian is a federally registered
 trademark of Gaussian, Inc.
  
 This software contains proprietary and confidential information,
 including trade secrets, belonging to Gaussian, Inc.
  
 This software is provided under written license and may be
 used, copied, transmitted, or stored only in accord with that
 written license.
  
 The following legend is applicable only to US Government
 contracts under FAR:
  
                    RESTRICTED RIGHTS LEGEND
  
 Use, reproduction and disclosure by the US Government is
 subject to restrictions as set forth in subparagraphs (a)
 and (c) of the Commercial Computer Software - Restricted
 Rights clause in FAR 52.227-19.
  
 Gaussian, Inc.
 340 Quinnipiac St., Bldg. 40, Wallingford CT 06492
  
  
 ---------------------------------------------------------------
 Warning -- This program may not be used in any manner that
 competes with the business of Gaussian, Inc. or will provide
 assistance to any competitor of Gaussian, Inc.  The licensee
 of this program is prohibited from giving any competitor of
 Gaussian, Inc. access to this program.  By using this program,
 the user acknowledges that Gaussian, Inc. is engaged in the
 business of creating and licensing software in the field of
 computational chemistry and represents and warrants to the
 licensee that it is not a competitor of Gaussian, Inc. and that
 it will not use this program in any manner prohibited above.
 ---------------------------------------------------------------
  

 Cite this work as:
 Gaussian 16, Revision A.03,
 M. J. Frisch, G. W. Trucks, H. B. Schlegel, G. E. Scuseria, 
 M. A. Robb, J. R. Cheeseman, G. Scalmani, V. Barone, 
 G. A. Petersson, H. Nakatsuji, X. Li, M. Caricato, A. V. Marenich, 
 J. Bloino, B. G. Janesko, R. Gomperts, B. Mennucci, H. P. Hratchian, 
 J. V. Ortiz, A. F. Izmaylov, J. L. Sonnenberg, D. Williams-Young, 
 F. Ding, F. Lipparini, F. Egidi, J. Goings, B. Peng, A. Petrone, 
 T. Henderson, D. Ranasinghe, V. G. Zakrzewski, J. Gao, N. Rega, 
 G. Zheng, W. Liang, M. Hada, M. Ehara, K. Toyota, R. Fukuda, 
 J. Hasegawa, M. Ishida, T. Nakajima, Y. Honda, O. Kitao, H. Nakai, 
 T. Vreven, K. Throssell, J. A. Montgomery, Jr., J. E. Peralta, 
 F. Ogliaro, M. J. Bearpark, J. J. Heyd, E. N. Brothers, K. N. Kudin, 
 V. N. Staroverov, T. A. Keith, R. Kobayashi, J. Normand, 
 K. Raghavachari, A. P. Rendell, J. C. Burant, S. S. Iyengar, 
 J. Tomasi, M. Cossi, J. M. Millam, M. Klene, C. Adamo, R. Cammi, 
 J. W. Ochterski, R. L. Martin, K. Morokuma, O. Farkas, 
 J. B. Foresman, and D. J. Fox, Gaussian, Inc., Wallingford CT, 2016.
 
 ******************************************
 Gaussian 16:  ES64L-G16RevA.03 25-Dec-2016
                14-Feb-2018 
 ******************************************
 %mem=64GB
 %cpu=0-31
 SetSPE:  set environment variable "MP_BIND" = "yes"
 SetSPE:  set environment variable "MP_BLIST" = "0,1,2,3,4,5,6,7,8,9,10,11,12,13,14,15,16,17,18,19,20,21,22,23,24,25,26,27,28,29,30,31"
 Will use up to   32 processors via shared memory.
 %chk=ScH
 ----------------------------------------------------------------------
 #P ROCCSD(T)=(maxcyc=150, Full)/Gen 5d 7f SCF=(maxcycles=300) Integral
 (NoXCTest) MaxDisk=500GB Pop=Regular Pseudo=Read IOp(5/15=2) Guess=Rea
 d
 ----------------------------------------------------------------------
 1/38=1,172=1/1;
 2/12=2,17=6,18=5,40=1/2;
 3/5=7,8=11,11=2,16=1,17=8,25=1,30=1,47=8,116=101/1,2,3;
 4/5=1/1;
 5/5=2,7=300,15=2,38=6/2;
 8/5=-1,6=4,9=120000,10=90/1,4;
 9/5=7,6=150,14=2/13;
 6//1;
 99/5=1,9=1/99;
 Leave Link    1 at Wed Feb 14 08:03:14 2018, MaxMem=  8589934592 cpu:               9.0 elap:               0.3
 (Enter /home1/apps/gaussian/16rA.03/g16/l101.exe)
 ---
 ScH
 ---
 Symbolic Z-matrix:
 Charge =  0 Multiplicity = 1
 Sc                    0.        0.        0. 
 H                     0.        0.        2. 
 
 ITRead=  0  0
 MicOpt= -1 -1
 NAtoms=      2 NQM=        2 NQMF=       0 NMMI=      0 NMMIF=      0
                NMic=       0 NMicF=      0.
                    Isotopes and Nuclear Properties:
 (Nuclear quadrupole moments (NQMom) in fm**2, nuclear magnetic moments (NMagM)
  in nuclear magnetons)

  Atom         1           2
 IAtWgt=          45           1
 AtmWgt=  44.9559136   1.0078250
 NucSpn=           7           1
 AtZEff=  -0.0000000  -0.0000000
 NQMom=  -22.0000000   0.0000000
 NMagM=    4.7564830   2.7928460
 AtZNuc=  21.0000000   1.0000000
 Leave Link  101 at Wed Feb 14 08:03:14 2018, MaxMem=  8589934592 cpu:               3.0 elap:               0.1
 (Enter /home1/apps/gaussian/16rA.03/g16/l202.exe)
                          Input orientation:                          
 ---------------------------------------------------------------------
 Center     Atomic      Atomic             Coordinates (Angstroms)
 Number     Number       Type             X           Y           Z
 ---------------------------------------------------------------------
      1         21           0        0.000000    0.000000    0.000000
      2          1           0        0.000000    0.000000    2.000000
 ---------------------------------------------------------------------
 Stoichiometry    HSc
 Framework group  C*V[C*(HSc)]
 Deg. of freedom     1
 Full point group                 C*V     NOp   4
 Largest Abelian subgroup         C2V     NOp   4
 Largest concise Abelian subgroup C1      NOp   1
                         Standard orientation:                         
 ---------------------------------------------------------------------
 Center     Atomic      Atomic             Coordinates (Angstroms)
 Number     Number       Type             X           Y           Z
 ---------------------------------------------------------------------
      1         21           0        0.000000    0.000000    0.090909
      2          1           0        0.000000    0.000000   -1.909091
 ---------------------------------------------------------------------
 Rotational constants (GHZ):           0.0000000         128.1741906         128.1741906
 Leave Link  202 at Wed Feb 14 08:03:15 2018, MaxMem=  8589934592 cpu:               0.7 elap:               0.1
 (Enter /home1/apps/gaussian/16rA.03/g16/l301.exe)
 General basis read from cards:  (5D, 7F)
 Centers:       1
 S 1 1.00
     Exponent=  2.7152780000D+06 Coefficients=  1.0000000000D+00
 S 1 1.00
     Exponent=  4.0659840000D+05 Coefficients=  1.0000000000D+00
 S 1 1.00
     Exponent=  9.2530040000D+04 Coefficients=  1.0000000000D+00
 S 1 1.00
     Exponent=  2.6207920000D+04 Coefficients=  1.0000000000D+00
 S 1 1.00
     Exponent=  8.5494290000D+03 Coefficients=  1.0000000000D+00
 S 1 1.00
     Exponent=  3.0859750000D+03 Coefficients=  1.0000000000D+00
 S 1 1.00
     Exponent=  1.2031720000D+03 Coefficients=  1.0000000000D+00
 S 1 1.00
     Exponent=  4.9848690000D+02 Coefficients=  1.0000000000D+00
 S 1 1.00
     Exponent=  2.1673600000D+02 Coefficients=  1.0000000000D+00
 S 1 1.00
     Exponent=  9.7874760000D+01 Coefficients=  1.0000000000D+00
 S 1 1.00
     Exponent=  4.5204330000D+01 Coefficients=  1.0000000000D+00
 S 1 1.00
     Exponent=  2.0211870000D+01 Coefficients=  1.0000000000D+00
 S 1 1.00
     Exponent=  9.5747510000D+00 Coefficients=  1.0000000000D+00
 S 1 1.00
     Exponent=  4.5403460000D+00 Coefficients=  1.0000000000D+00
 S 1 1.00
     Exponent=  1.9956870000D+00 Coefficients=  1.0000000000D+00
 S 1 1.00
     Exponent=  9.4221500000D-01 Coefficients=  1.0000000000D+00
 S 1 1.00
     Exponent=  4.1784500000D-01 Coefficients=  1.0000000000D+00
 S 1 1.00
     Exponent=  9.5761000000D-02 Coefficients=  1.0000000000D+00
 S 1 1.00
     Exponent=  5.1351000000D-02 Coefficients=  1.0000000000D+00
 S 1 1.00
     Exponent=  2.3878000000D-02 Coefficients=  1.0000000000D+00
 S 1 1.00
     Exponent=  2.6472000000D+00 Coefficients=  1.0000000000D+00
 S 1 1.00
     Exponent=  6.2170000000D-01 Coefficients=  1.0000000000D+00
 S 1 1.00
     Exponent=  1.1100000000D-02 Coefficients=  1.0000000000D+00
 P 1 1.00
     Exponent=  1.0592190000D+04 Coefficients=  1.0000000000D+00
 P 1 1.00
     Exponent=  2.5075330000D+03 Coefficients=  1.0000000000D+00
 P 1 1.00
     Exponent=  8.1445710000D+02 Coefficients=  1.0000000000D+00
 P 1 1.00
     Exponent=  3.1151950000D+02 Coefficients=  1.0000000000D+00
 P 1 1.00
     Exponent=  1.3196170000D+02 Coefficients=  1.0000000000D+00
 P 1 1.00
     Exponent=  5.9987180000D+01 Coefficients=  1.0000000000D+00
 P 1 1.00
     Exponent=  2.8662500000D+01 Coefficients=  1.0000000000D+00
 P 1 1.00
     Exponent=  1.4108510000D+01 Coefficients=  1.0000000000D+00
 P 1 1.00
     Exponent=  7.1037060000D+00 Coefficients=  1.0000000000D+00
 P 1 1.00
     Exponent=  3.6092000000D+00 Coefficients=  1.0000000000D+00
 P 1 1.00
     Exponent=  1.7760700000D+00 Coefficients=  1.0000000000D+00
 P 1 1.00
     Exponent=  8.5476000000D-01 Coefficients=  1.0000000000D+00
 P 1 1.00
     Exponent=  4.0223900000D-01 Coefficients=  1.0000000000D+00
 P 1 1.00
     Exponent=  1.5468000000D-01 Coefficients=  1.0000000000D+00
 P 1 1.00
     Exponent=  6.4888000000D-02 Coefficients=  1.0000000000D+00
 P 1 1.00
     Exponent=  2.6301000000D-02 Coefficients=  1.0000000000D+00
 P 1 1.00
     Exponent=  3.4418000000D+00 Coefficients=  1.0000000000D+00
 P 1 1.00
     Exponent=  8.0840000000D-01 Coefficients=  1.0000000000D+00
 P 1 1.00
     Exponent=  1.0660000000D-02 Coefficients=  1.0000000000D+00
 D 1 1.00
     Exponent=  5.0654200000D+01 Coefficients=  1.0000000000D+00
 D 1 1.00
     Exponent=  1.4732500000D+01 Coefficients=  1.0000000000D+00
 D 1 1.00
     Exponent=  5.1804600000D+00 Coefficients=  1.0000000000D+00
 D 1 1.00
     Exponent=  2.0195900000D+00 Coefficients=  1.0000000000D+00
 D 1 1.00
     Exponent=  7.9921900000D-01 Coefficients=  1.0000000000D+00
 D 1 1.00
     Exponent=  3.0531600000D-01 Coefficients=  1.0000000000D+00
 D 1 1.00
     Exponent=  1.1044400000D-01 Coefficients=  1.0000000000D+00
 D 1 1.00
     Exponent=  3.7065000000D-02 Coefficients=  1.0000000000D+00
 D 1 1.00
     Exponent=  1.8520000000D+00 Coefficients=  1.0000000000D+00
 D 1 1.00
     Exponent=  7.8750000000D-01 Coefficients=  1.0000000000D+00
 D 1 1.00
     Exponent=  1.2440000000D-02 Coefficients=  1.0000000000D+00
 F 1 1.00
     Exponent=  2.1048000000D+00 Coefficients=  1.0000000000D+00
 F 1 1.00
     Exponent=  6.5870000000D-01 Coefficients=  1.0000000000D+00
 F 1 1.00
     Exponent=  1.6360000000D-01 Coefficients=  1.0000000000D+00
 F 1 1.00
     Exponent=  4.0630000000D-02 Coefficients=  1.0000000000D+00
 G 1 1.00
     Exponent=  1.7850000000D+00 Coefficients=  1.0000000000D+00
 G 1 1.00
     Exponent=  4.1120000000D-01 Coefficients=  1.0000000000D+00
 G 1 1.00
     Exponent=  9.4730000000D-02 Coefficients=  1.0000000000D+00
 ****
 Centers:       2
 S 1 1.00
     Exponent=  3.3870000000D+01 Coefficients=  1.0000000000D+00
 S 1 1.00
     Exponent=  5.0950000000D+00 Coefficients=  1.0000000000D+00
 S 1 1.00
     Exponent=  1.1590000000D+00 Coefficients=  1.0000000000D+00
 S 1 1.00
     Exponent=  3.2580000000D-01 Coefficients=  1.0000000000D+00
 S 1 1.00
     Exponent=  1.0270000000D-01 Coefficients=  1.0000000000D+00
 S 1 1.00
     Exponent=  2.5260000000D-02 Coefficients=  1.0000000000D+00
 P 1 1.00
     Exponent=  1.4070000000D+00 Coefficients=  1.0000000000D+00
 P 1 1.00
     Exponent=  3.8800000000D-01 Coefficients=  1.0000000000D+00
 P 1 1.00
     Exponent=  1.0200000000D-01 Coefficients=  1.0000000000D+00
 D 1 1.00
     Exponent=  1.0570000000D+00 Coefficients=  1.0000000000D+00
 D 1 1.00
     Exponent=  2.4700000000D-01 Coefficients=  1.0000000000D+00
 ****
 ======================================================================================================
                                       Pseudopotential Parameters
 ======================================================================================================
  Center     Atomic      Valence      Angular      Power
  Number     Number     Electrons     Momentum     of R      Exponent        Coefficient   SO-Coeffient
 ======================================================================================================
    1         21           11
                                      F and up 
                                                     1        8.6843244       11.00000000    0.00000000
                                                     2       12.9608105     1293.12711495    0.00000000
                                                     2        3.4272602      -59.34807006    0.00000000
                                                     2       13.9264987    -6626.33658022    0.00000000
                                                     2       14.1135521     5365.41708240    0.00000000
                                                     3        3.8783422       95.52756785    0.00000000
                                      S - F
                                                     2       14.1143229    -1492.86349923    0.00000000
                                                     2        4.4283560     1499.37242000    0.00000000
                                                     2        7.4604557     1088.20049735    0.00000000
                                                     2       10.2353388    -1981.91696501    0.00000000
                                                     2        4.5248959    -1710.45115474    0.00000000
                                                     2       13.0788594     2625.43810581    0.00000000
                                      P - F
                                                     2        9.8399764    -2070.12504374    0.00000000
                                                     2        7.2507207     5801.02991534    0.00000000
                                                     2       11.8197475     1554.97375552    0.00000000
                                                     2       14.0743327     -853.69420879    0.00000000
                                                     2        7.0846032    -4878.01776292    0.00000000
                                                     2       14.0716643      462.12967346    0.00000000
                                      D - F
                                                     2       11.2984945     -570.27953430    0.00000000
                                                     2        5.7211985     -549.43824610    0.00000000
                                                     2        6.5323409     1672.92599442    0.00000000
                                                     2        8.1143102    -2704.80905453    0.00000000
                                                     2        9.9572828     4666.19773963    0.00000000
                                                     2       10.2402945    -2524.96335631    0.00000000
    2          1            1
                                      P and up 
                                                     2       21.7769666      -10.85192405    0.00000000
                                                     1       21.2435951        1.00000000    0.00000000
                                                     3       21.2435951       21.24359508    0.00000000
                                      S - P
                                                     2        1.0000000        0.00000000    0.00000000
 ======================================================================================================
 Ernie: Thresh=  0.10000D-02 Tol=  0.10000D-05 Strict=F.
 There are   120 symmetry adapted cartesian basis functions of A1  symmetry.
 There are    26 symmetry adapted cartesian basis functions of A2  symmetry.
 There are    56 symmetry adapted cartesian basis functions of B1  symmetry.
 There are    56 symmetry adapted cartesian basis functions of B2  symmetry.
 There are    94 symmetry adapted basis functions of A1  symmetry.
 There are    23 symmetry adapted basis functions of A2  symmetry.
 There are    49 symmetry adapted basis functions of B1  symmetry.
 There are    49 symmetry adapted basis functions of B2  symmetry.
   215 basis functions,   258 primitive gaussians,   258 cartesian basis functions
     6 alpha electrons        6 beta electrons
       nuclear repulsion energy         2.9104746601 Hartrees.
 IExCor=    0 DFT=F Ex=HF Corr=None ExCW=0 ScaHFX=  1.000000
 ScaDFX=  1.000000  1.000000  1.000000  1.000000 ScalE2=  1.000000  1.000000
 IRadAn=      5 IRanWt=     -1 IRanGd=            0 ICorTp=0 IEmpDi=  4
 NAtoms=    2 NActive=    2 NUniq=    2 SFac= 1.00D+00 NAtFMM=   60 NAOKFM=F Big=F
 Integral buffers will be    131072 words long.
 Raffenetti 2 integral format.
 Two-electron integral symmetry is turned on.
 Leave Link  301 at Wed Feb 14 08:03:16 2018, MaxMem=  8589934592 cpu:               7.8 elap:               0.3
 (Enter /home1/apps/gaussian/16rA.03/g16/l302.exe)
 NPDir=0 NMtPBC=     1 NCelOv=     1 NCel=       1 NClECP=     1 NCelD=      1
         NCelK=      1 NCelE2=     1 NClLst=     1 CellRange=     0.0.
 One-electron integrals computed using PRISM.
 One-electron integral symmetry used in STVInt
   4 Symmetry operations used in ECPInt.
 ECPInt:  NShTT=    2556 NPrTT=    2556 LenC2=    2520 LenP2D=    2519.
 LDataN:  DoStor=T MaxTD1= 8 Len=  415
 NBasis=   215 RedAO= T EigKep=  1.42D-06  NBF=    94    23    49    49
 NBsUse=   212 1.00D-06 EigRej=  6.61D-07 NBFU=    93    23    48    48
 Leave Link  302 at Wed Feb 14 08:03:17 2018, MaxMem=  8589934592 cpu:              32.6 elap:               1.1
 (Enter /home1/apps/gaussian/16rA.03/g16/l303.exe)
 DipDrv:  MaxL=1.
 Leave Link  303 at Wed Feb 14 08:03:18 2018, MaxMem=  8589934592 cpu:               1.9 elap:               0.1
 (Enter /home1/apps/gaussian/16rA.03/g16/l401.exe)
 Initial guess from the checkpoint file:  "ScH.chk"
 B after Tr=     0.000000    0.000000    0.000000
         Rot=    1.000000    0.000000    0.000000    0.000000 Ang=   0.00 deg.
 Guess basis will be translated and rotated to current coordinates.
 JPrj=2 DoOrth=T DoCkMO=T.
 Initial guess orbital symmetries:
       Occupied  (SG) (SG) (PI) (PI) (SG) (SG)
       Virtual   (PI) (PI) (SG) (SG) (SG) (DLTA) (DLTA) (PI) (PI)
                 (PI) (PI) (SG) (DLTA) (DLTA) (SG) (PI) (PI) (SG)
                 (SG) (PI) (PI) (SG) (PI) (PI) (DLTA) (DLTA) (PHI)
                 (PHI) (DLTA) (DLTA) (PI) (PI) (SG) (SG) (SG) (PI)
                 (PI) (SG) (DLTA) (DLTA) (DLTA) (DLTA) (PI) (PI)
                 (?A) (?A) (PHI) (PHI) (SG) (PI) (PI) (SG) (PI)
                 (PI) (PHI) (PHI) (DLTA) (DLTA) (SG) (SG) (PI)
                 (PI) (SG) (SG) (PI) (PI) (DLTA) (DLTA) (SG) (DLTA)
                 (DLTA) (PI) (PI) (SG) (PI) (PI) (PI) (PI) (SG)
                 (SG) (?A) (?A) (PHI) (PHI) (DLTA) (DLTA) (PI)
                 (PI) (PHI) (PHI) (DLTA) (DLTA) (SG) (PI) (PI)
                 (SG) (SG) (DLTA) (DLTA) (PI) (PI) (SG) (SG) (PI)
                 (PI) (DLTA) (DLTA) (SG) (PI) (PI) (PI) (PI) (SG)
                 (SG) (DLTA) (DLTA) (PI) (PI) (SG) (PHI) (PHI)
                 (DLTA) (DLTA) (PI) (PI) (SG) (?A) (?A) (PHI) (PHI)
                 (DLTA) (DLTA) (SG) (PI) (PI) (SG) (PI) (PI) (SG)
                 (SG) (DLTA) (DLTA) (PI) (PI) (SG) (SG) (PI) (PI)
                 (SG) (DLTA) (DLTA) (PI) (PI) (SG) (SG) (PI) (PI)
                 (SG) (SG) (DLTA) (DLTA) (PI) (PI) (SG) (SG) (PI)
                 (PI) (SG) (SG) (PI) (PI) (SG) (SG) (DLTA) (DLTA)
                 (PI) (PI) (SG) (PI) (PI) (SG) (SG) (PI) (PI) (SG)
                 (SG) (PI) (PI) (SG) (SG) (PI) (PI) (SG) (SG) (PI)
                 (PI) (SG) (SG) (SG) (PI) (PI) (SG) (SG) (SG) (SG)
                 (SG)
 The electronic state of the initial guess is 1-SG.
 Leave Link  401 at Wed Feb 14 08:03:19 2018, MaxMem=  8589934592 cpu:               9.4 elap:               0.4
 (Enter /home1/apps/gaussian/16rA.03/g16/l502.exe)
 Keep R1 and R2 ints in memory in symmetry-blocked form, NReq=338797193.
 FoFCou: FMM=F IPFlag=           8 FMFlag=           0 FMFlg1=           0
         NFxFlg=           0 DoJE=F BraDBF=F KetDBF=F FulRan=T
         wScrn=  0.000000 ICntrl=       600 IOpCl=  0 I1Cent=           0 NGrid=           0
         NMat0=    1 NMatS0=  23220 NMatT0=    0 NMatD0=    1 NMtDS0=    0 NMtDT0=    0
 Petite list used in FoFCou.
 Restricted open shell SCF:
 Using DIIS extrapolation, IDIIS=  1040.
 NGot=  8589934592 LenX=  8451446295 LenY=  8451379290
 Requested convergence on RMS density matrix=1.00D-08 within 300 cycles.
 Requested convergence on MAX density matrix=1.00D-06.
 Requested convergence on             energy=1.00D-06.
 No special actions if energy rises.

 Cycle   1  Pass 1  IDiag  1:
 E= -46.5804782372700    
 DIIS: error= 1.57D-02 at cycle   1 NSaved=   1.
 NSaved= 1 IEnMin= 1 EnMin= -46.5804782372700     IErMin= 1 ErrMin= 1.57D-02
 ErrMax= 1.57D-02  0.00D+00 EMaxC= 1.00D-01 BMatC= 1.27D-02 BMatP= 1.27D-02
 IDIUse=3 WtCom= 8.43D-01 WtEn= 1.57D-01
 Coeff-Com:  0.100D+01
 Coeff-En:   0.100D+01
 Coeff:      0.100D+01
 Gap=     0.252 Goal=   None    Shift=    0.000
 GapD=    0.252 DampG=1.000 DampE=0.250 DampFc=0.2500 IDamp=-1.
 Damping current iteration by 2.50D-01
 RMSDP=3.44D-03 MaxDP=3.57D-01              OVMax= 4.92D-02

 Cycle   2  Pass 1  IDiag  1:
 E= -46.5822067575592     Delta-E=       -0.001728520289 Rises=F Damp=T
 DIIS: error= 1.19D-02 at cycle   2 NSaved=   2.
 NSaved= 2 IEnMin= 2 EnMin= -46.5822067575592     IErMin= 2 ErrMin= 1.19D-02
 ErrMax= 1.19D-02  0.00D+00 EMaxC= 1.00D-01 BMatC= 7.50D-03 BMatP= 1.27D-02
 IDIUse=3 WtCom= 8.81D-01 WtEn= 1.19D-01
 Coeff-Com: -0.326D+01 0.426D+01
 Coeff-En:   0.000D+00 0.100D+01
 Coeff:     -0.287D+01 0.387D+01
 Gap=     0.246 Goal=   None    Shift=    0.000
 RMSDP=3.53D-03 MaxDP=3.72D-01 DE=-1.73D-03 OVMax= 2.25D-02

 Cycle   3  Pass 1  IDiag  1:
 E= -46.5895900752816     Delta-E=       -0.007383317722 Rises=F Damp=F
 DIIS: error= 1.41D-03 at cycle   3 NSaved=   3.
 NSaved= 3 IEnMin= 3 EnMin= -46.5895900752816     IErMin= 3 ErrMin= 1.41D-03
 ErrMax= 1.41D-03  0.00D+00 EMaxC= 1.00D-01 BMatC= 6.76D-05 BMatP= 7.50D-03
 IDIUse=3 WtCom= 9.86D-01 WtEn= 1.41D-02
 Coeff-Com:  0.210D+01-0.278D+01 0.168D+01
 Coeff-En:   0.000D+00 0.000D+00 0.100D+01
 Coeff:      0.207D+01-0.274D+01 0.167D+01
 Gap=     0.249 Goal=   None    Shift=    0.000
 RMSDP=6.06D-04 MaxDP=5.41D-02 DE=-7.38D-03 OVMax= 1.90D-02

 Cycle   4  Pass 1  IDiag  1:
 E= -46.5900123117305     Delta-E=       -0.000422236449 Rises=F Damp=F
 DIIS: error= 4.12D-04 at cycle   4 NSaved=   4.
 NSaved= 4 IEnMin= 4 EnMin= -46.5900123117305     IErMin= 4 ErrMin= 4.12D-04
 ErrMax= 4.12D-04  0.00D+00 EMaxC= 1.00D-01 BMatC= 5.80D-06 BMatP= 6.76D-05
 IDIUse=3 WtCom= 9.96D-01 WtEn= 4.12D-03
 Coeff-Com:  0.483D+00-0.634D+00 0.788D-01 0.107D+01
 Coeff-En:   0.000D+00 0.000D+00 0.000D+00 0.100D+01
 Coeff:      0.481D+00-0.632D+00 0.785D-01 0.107D+01
 Gap=     0.249 Goal=   None    Shift=    0.000
 RMSDP=1.79D-04 MaxDP=1.77D-02 DE=-4.22D-04 OVMax= 6.01D-03

 Cycle   5  Pass 1  IDiag  1:
 E= -46.5900605019135     Delta-E=       -0.000048190183 Rises=F Damp=F
 DIIS: error= 1.57D-04 at cycle   5 NSaved=   5.
 NSaved= 5 IEnMin= 5 EnMin= -46.5900605019135     IErMin= 5 ErrMin= 1.57D-04
 ErrMax= 1.57D-04  0.00D+00 EMaxC= 1.00D-01 BMatC= 1.60D-06 BMatP= 5.80D-06
 IDIUse=3 WtCom= 9.98D-01 WtEn= 1.57D-03
 Coeff-Com: -0.381D+00 0.504D+00-0.301D+00-0.411D-01 0.122D+01
 Coeff-En:   0.000D+00 0.000D+00 0.000D+00 0.000D+00 0.100D+01
 Coeff:     -0.381D+00 0.503D+00-0.301D+00-0.410D-01 0.122D+01
 Gap=     0.250 Goal=   None    Shift=    0.000
 RMSDP=8.76D-05 MaxDP=8.57D-03 DE=-4.82D-05 OVMax= 4.19D-03

 Cycle   6  Pass 1  IDiag  1:
 E= -46.5900729825811     Delta-E=       -0.000012480668 Rises=F Damp=F
 DIIS: error= 9.58D-05 at cycle   6 NSaved=   6.
 NSaved= 6 IEnMin= 6 EnMin= -46.5900729825811     IErMin= 6 ErrMin= 9.58D-05
 ErrMax= 9.58D-05  0.00D+00 EMaxC= 1.00D-01 BMatC= 5.07D-07 BMatP= 1.60D-06
 IDIUse=1 WtCom= 1.00D+00 WtEn= 0.00D+00
 Coeff-Com:  0.263D+00-0.349D+00 0.215D+00 0.254D+00-0.196D+01 0.258D+01
 Coeff:      0.263D+00-0.349D+00 0.215D+00 0.254D+00-0.196D+01 0.258D+01
 Gap=     0.250 Goal=   None    Shift=    0.000
 RMSDP=9.34D-05 MaxDP=9.36D-03 DE=-1.25D-05 OVMax= 4.33D-03

 Cycle   7  Pass 1  IDiag  1:
 E= -46.5900791349418     Delta-E=       -0.000006152361 Rises=F Damp=F
 DIIS: error= 3.89D-05 at cycle   7 NSaved=   7.
 NSaved= 7 IEnMin= 7 EnMin= -46.5900791349418     IErMin= 7 ErrMin= 3.89D-05
 ErrMax= 3.89D-05  0.00D+00 EMaxC= 1.00D-01 BMatC= 7.27D-08 BMatP= 5.07D-07
 IDIUse=1 WtCom= 1.00D+00 WtEn= 0.00D+00
 Coeff-Com: -0.930D-01 0.123D+00-0.851D-01-0.391D-01 0.639D+00-0.133D+01
 Coeff-Com:  0.178D+01
 Coeff:     -0.930D-01 0.123D+00-0.851D-01-0.391D-01 0.639D+00-0.133D+01
 Coeff:      0.178D+01
 Gap=     0.250 Goal=   None    Shift=    0.000
 RMSDP=4.50D-05 MaxDP=4.57D-03 DE=-6.15D-06 OVMax= 2.00D-03

 Cycle   8  Pass 1  IDiag  1:
 E= -46.5900799470915     Delta-E=       -0.000000812150 Rises=F Damp=F
 DIIS: error= 9.96D-06 at cycle   8 NSaved=   8.
 NSaved= 8 IEnMin= 8 EnMin= -46.5900799470915     IErMin= 8 ErrMin= 9.96D-06
 ErrMax= 9.96D-06  0.00D+00 EMaxC= 1.00D-01 BMatC= 3.60D-09 BMatP= 7.27D-08
 IDIUse=1 WtCom= 1.00D+00 WtEn= 0.00D+00
 Coeff-Com: -0.342D-01 0.454D-01-0.314D-01-0.446D-02 0.198D+00-0.264D+00
 Coeff-Com:  0.654D-01 0.103D+01
 Coeff:     -0.342D-01 0.454D-01-0.314D-01-0.446D-02 0.198D+00-0.264D+00
 Coeff:      0.654D-01 0.103D+01
 Gap=     0.250 Goal=   None    Shift=    0.000
 RMSDP=2.65D-06 MaxDP=2.29D-04 DE=-8.12D-07 OVMax= 9.40D-05

 Cycle   9  Pass 1  IDiag  1:
 E= -46.5900799577110     Delta-E=       -0.000000010619 Rises=F Damp=F
 DIIS: error= 2.02D-06 at cycle   9 NSaved=   9.
 NSaved= 9 IEnMin= 9 EnMin= -46.5900799577110     IErMin= 9 ErrMin= 2.02D-06
 ErrMax= 2.02D-06  0.00D+00 EMaxC= 1.00D-01 BMatC= 4.09D-10 BMatP= 3.60D-09
 IDIUse=1 WtCom= 1.00D+00 WtEn= 0.00D+00
 Coeff-Com:  0.431D-02-0.574D-02 0.405D-02 0.539D-02-0.471D-01 0.934D-01
 Coeff-Com: -0.160D+00-0.329D-01 0.114D+01
 Coeff:      0.431D-02-0.574D-02 0.405D-02 0.539D-02-0.471D-01 0.934D-01
 Coeff:     -0.160D+00-0.329D-01 0.114D+01
 Gap=     0.250 Goal=   None    Shift=    0.000
 RMSDP=2.30D-06 MaxDP=2.33D-04 DE=-1.06D-08 OVMax= 8.27D-05

 Cycle  10  Pass 1  IDiag  1:
 E= -46.5900799597236     Delta-E=       -0.000000002013 Rises=F Damp=F
 DIIS: error= 2.71D-07 at cycle  10 NSaved=  10.
 NSaved=10 IEnMin=10 EnMin= -46.5900799597236     IErMin=10 ErrMin= 2.71D-07
 ErrMax= 2.71D-07  0.00D+00 EMaxC= 1.00D-01 BMatC= 4.32D-12 BMatP= 4.09D-10
 IDIUse=1 WtCom= 1.00D+00 WtEn= 0.00D+00
 Coeff-Com: -0.538D-04 0.735D-04 0.517D-04-0.119D-02 0.399D-02-0.108D-01
 Coeff-Com:  0.299D-01-0.331D-01-0.196D+00 0.121D+01
 Coeff:     -0.538D-04 0.735D-04 0.517D-04-0.119D-02 0.399D-02-0.108D-01
 Coeff:      0.299D-01-0.331D-01-0.196D+00 0.121D+01
 Gap=     0.250 Goal=   None    Shift=    0.000
 RMSDP=1.22D-07 MaxDP=9.60D-06 DE=-2.01D-09 OVMax= 3.38D-06

 Cycle  11  Pass 1  IDiag  1:
 E= -46.5900799597374     Delta-E=       -0.000000000014 Rises=F Damp=F
 DIIS: error= 3.36D-08 at cycle  11 NSaved=  11.
 NSaved=11 IEnMin=11 EnMin= -46.5900799597374     IErMin=11 ErrMin= 3.36D-08
 ErrMax= 3.36D-08  0.00D+00 EMaxC= 1.00D-01 BMatC= 5.86D-14 BMatP= 4.32D-12
 IDIUse=1 WtCom= 1.00D+00 WtEn= 0.00D+00
 Coeff-Com:  0.199D-04-0.267D-04-0.135D-04 0.277D-03-0.859D-03 0.219D-02
 Coeff-Com: -0.647D-02 0.820D-02 0.393D-01-0.311D+00 0.127D+01
 Coeff:      0.199D-04-0.267D-04-0.135D-04 0.277D-03-0.859D-03 0.219D-02
 Coeff:     -0.647D-02 0.820D-02 0.393D-01-0.311D+00 0.127D+01
 Gap=     0.250 Goal=   None    Shift=    0.000
 RMSDP=2.12D-08 MaxDP=1.43D-06 DE=-1.37D-11 OVMax= 1.11D-06

 Cycle  12  Pass 1  IDiag  1:
 E= -46.5900799597377     Delta-E=       -0.000000000000 Rises=F Damp=F
 DIIS: error= 4.45D-09 at cycle  12 NSaved=  12.
 NSaved=12 IEnMin=12 EnMin= -46.5900799597377     IErMin=12 ErrMin= 4.45D-09
 ErrMax= 4.45D-09  0.00D+00 EMaxC= 1.00D-01 BMatC= 1.38D-15 BMatP= 5.86D-14
 IDIUse=1 WtCom= 1.00D+00 WtEn= 0.00D+00
 Coeff-Com: -0.345D-06 0.508D-06 0.941D-05-0.752D-04 0.192D-03-0.503D-03
 Coeff-Com:  0.167D-02-0.220D-02-0.102D-01 0.867D-01-0.432D+00 0.136D+01
 Coeff:     -0.345D-06 0.508D-06 0.941D-05-0.752D-04 0.192D-03-0.503D-03
 Coeff:      0.167D-02-0.220D-02-0.102D-01 0.867D-01-0.432D+00 0.136D+01
 Gap=     0.250 Goal=   None    Shift=    0.000
 RMSDP=3.84D-09 MaxDP=2.68D-07 DE=-3.55D-13 OVMax= 8.99D-08

 SCF Done:  E(ROHF) =  -46.5900799597     A.U. after   12 cycles
            NFock= 12  Conv=0.38D-08     -V/T= 3.6526
 <Sx>= 0.0000 <Sy>= 0.0000 <Sz>= 0.0000 <S**2>=-0.0000 S=-0.0000
 <L.S>=  0.00000000000    
 KE= 1.756365818289D+01 PE=-9.980215917642D+01 EE= 3.273794637374D+01
 Annihilation of the first spin contaminant:
 S**2 before annihilation    -0.0000,   after    -0.0000
 Leave Link  502 at Wed Feb 14 08:03:29 2018, MaxMem=  8589934592 cpu:             274.3 elap:               9.2
 (Enter /home1/apps/gaussian/16rA.03/g16/l801.exe)
 Windowed orbitals will be sorted by symmetry type.
 GenMOA:  NOpAll=  4 NOp2=4 NOpUse=  4 JSym2X=1
 FoFJK:  IHMeth= 1 ICntrl=       0 DoSepK=F KAlg= 0 I1Cent=           0 FoldK=F
 IRaf=         0 NMat=       1 IRICut=       1 DoRegI=T DoRafI=F ISym2E= 1 IDoP0=0 IntGTp=1.
 FoFCou: FMM=F IPFlag=           8 FMFlag=      100000 FMFlg1=           0
         NFxFlg=           0 DoJE=F BraDBF=F KetDBF=F FulRan=T
         wScrn=  0.000000 ICntrl=         0 IOpCl=  1 I1Cent=           0 NGrid=           0
         NMat0=    1 NMatS0=      1 NMatT0=    0 NMatD0=    1 NMtDS0=    0 NMtDT0=    0
 Petite list used in FoFCou.
 <Sx>= 0.0000 <Sy>= 0.0000 <Sz>= 0.0000 <S**2>=-0.0000 S=-0.0000
 Range of M.O.s used for correlation:     1   212
 NBasis=   215 NAE=     6 NBE=     6 NFC=     0 NFV=     0
 NROrb=    212 NOA=     6 NOB=     6 NVA=   206 NVB=   206

 **** Warning!!: The largest alpha MO coefficient is  0.32473042D+03


 **** Warning!!: The largest beta MO coefficient is  0.32473042D+03

 Singles contribution to E2=   -0.1342850376D-15
 Leave Link  801 at Wed Feb 14 08:03:33 2018, MaxMem=  8589934592 cpu:              94.7 elap:               3.0
 (Enter /home1/apps/gaussian/16rA.03/g16/l804.exe)
 Open-shell transformation, MDV=  8589934592 ITran=4 ISComp=2.
 Unit  1 TFree=       1395284 TCopy=       1088891.
 Semi-Direct transformation.
 ModeAB=           2 MOrb=             6 LenV=    8588447990
 LASXX=      7305744 LTotXX=     7305744 LenRXX=     7305744
 LTotAB=     7449723 MaxLAS=    42498792 LenRXY=    42498792
 NonZer=    43323048 LenScr=    65759232 LnRSAI=           0
 LnScr1=           0 LExtra=     3358319 Total=    118922087
 MaxDsk= 67108864000 SrtSym=           F ITran=            4
 DoSDTr:  NPSUse= 32
 JobTyp=1 Pass  1:  I=   1 to   6.
 (rs|ai) integrals will be sorted in core.
 Complete sort for first half transformation.
 First half transformation complete.
 Complete sort for second half transformation.
 Second half transformation complete.
 ModeAB=           2 MOrb=             6 LenV=    8588447990
 LASXX=      7305744 LTotXX=     7305744 LenRXX=    42498792
 LTotAB=     7016478 MaxLAS=    42498792 LenRXY=     7016478
 NonZer=    43323048 LenScr=    65759232 LnRSAI=           0
 LnScr1=           0 LExtra=    53162855 Total=    168437357
 MaxDsk= 67108864000 SrtSym=           F ITran=            4
 DoSDTr:  NPSUse= 32
 JobTyp=2 Pass  1:  I=   1 to   6.
 (rs|ai) integrals will be sorted in core.
 Complete sort for first half transformation.
 First half transformation complete.
 Complete sort for second half transformation.
 Second half transformation complete.
 Spin components of T(2) and E(2):
     alpha-alpha T2 =       0.1214197749D-01 E2=     -0.4752862505D-01
     alpha-beta  T2 =       0.9854018522D-01 E2=     -0.3087382492D+00
     beta-beta   T2 =       0.1214197749D-01 E2=     -0.4752862505D-01
 ANorm=    0.1059633965D+01
 E2 =    -0.4037954993D+00 EUMP2 =    -0.46993875459050D+02
 (S**2,0)=  0.00000D+00           (S**2,1)=  0.00000D+00
 E(PUHF)=      -0.46590079960D+02        E(PMP2)=      -0.46993875459D+02
 Leave Link  804 at Wed Feb 14 08:04:46 2018, MaxMem=  8589934592 cpu:            2336.1 elap:              73.0
 (Enter /home1/apps/gaussian/16rA.03/g16/l913.exe)
 CIDS:  MDV=  8589934592.
 IFCWin=0 IBDFC=1 NFBD=     0     0 NFCmp=     0     0 NFFFC=     0     0
 Using original routines for 1st iteration.
 Using DD4UQ or CC4UQ for 2nd and later iterations.
 Keep R2 and R3 ints in memory in symmetry-blocked form, NReq=338806075.
 FoFCou: FMM=F IPFlag=           8 FMFlag=           0 FMFlg1=           0
         NFxFlg=           0 DoJE=F BraDBF=F KetDBF=F FulRan=T
         wScrn=  0.000000 ICntrl=       600 IOpCl=  0 I1Cent=           0 NGrid=           0
         NMat0=    1 NMatS0=  23220 NMatT0=    0 NMatD0=    1 NMtDS0=    0 NMtDT0=    0
 Petite list used in FoFCou.
 CIDS: In Core Option IDoMem=           1.
 CCSD(T)
 =======
 Iterations= 150 Convergence= 0.100D-06
 Produce multiple copies of IABC intergrals
 Iteration Nr.   1
 **********************
 DD1Dir will call FoFMem   1 times, MxPair=       102
 NAB=    36 NAA=    15 NBB=    15.
 DD1Dir will call FoFMem   1 times, MxPair=       102
 NAB=    36 NAA=    15 NBB=    15.
 MP4(R+Q)=  0.37637477D-01
 Maximum subspace dimension=  5
 A-vector RMS=  3.7480760D-05 Max=  5.6329137D-03 conv= 1.00D-05.
 RLE energy=       -0.3923791702
 E3=       -0.25888988D-01        EROMP3=      -0.47019764447D+02
 E4(SDQ)=  -0.21748816D-02        ROMP4(SDQ)=  -0.47021939329D+02
 VARIATIONAL ENERGIES WITH THE FIRST-ORDER WAVEFUNCTION:
 DE(Corr)= -0.39204701     E(Corr)=     -46.982126970    
 NORM(A)=   0.10533264D+01
 Iteration Nr.   2
 **********************
 DD1Dir will call FoFMem   1 times, MxPair=       102
 NAB=    36 NAA=    15 NBB=    15.
 A-vector RMS=  3.5762257D-03 Max=  2.9645896D-02 conv= 1.00D-05.
 RLE energy=       -0.4006567823
 DE(Corr)= -0.41702781     E(CORR)=     -47.007107770     Delta=-2.50D-02
 NORM(A)=   0.10578893D+01
 Iteration Nr.   3
 **********************
 DD1Dir will call FoFMem   1 times, MxPair=       102
 NAB=    36 NAA=    15 NBB=    15.
 A-vector RMS=  2.5564923D-03 Max=  2.1758209D-02 conv= 1.00D-05.
 RLE energy=       -0.4109202715
 DE(Corr)= -0.42057784     E(CORR)=     -47.010657799     Delta=-3.55D-03
 NORM(A)=   0.10652785D+01
 Iteration Nr.   4
 **********************
 DD1Dir will call FoFMem   1 times, MxPair=       102
 NAB=    36 NAA=    15 NBB=    15.
 A-vector RMS=  2.3318380D-03 Max=  1.9637575D-02 conv= 1.00D-05.
 RLE energy=       -0.4316371615
 DE(Corr)= -0.42325262     E(CORR)=     -47.013332578     Delta=-2.67D-03
 NORM(A)=   0.10930090D+01
 Iteration Nr.   5
 **********************
 DD1Dir will call FoFMem   1 times, MxPair=       102
 NAB=    36 NAA=    15 NBB=    15.
 A-vector RMS=  3.7078296D-04 Max=  3.5222393D-03 conv= 1.00D-05.
 RLE energy=       -0.4377903437
 DE(Corr)= -0.43175468     E(CORR)=     -47.021834640     Delta=-8.50D-03
 NORM(A)=   0.11081693D+01
 Iteration Nr.   6
 **********************
 DD1Dir will call FoFMem   1 times, MxPair=       102
 NAB=    36 NAA=    15 NBB=    15.
 A-vector RMS=  4.8482307D-04 Max=  3.6116037D-03 conv= 1.00D-05.
 RLE energy=       -0.4318763689
 DE(Corr)= -0.43412284     E(CORR)=     -47.024202804     Delta=-2.37D-03
 NORM(A)=   0.10994794D+01
 Iteration Nr.   7
 **********************
 DD1Dir will call FoFMem   1 times, MxPair=       102
 NAB=    36 NAA=    15 NBB=    15.
 A-vector RMS=  2.1714327D-04 Max=  2.4102479D-03 conv= 1.00D-05.
 RLE energy=       -0.4320432461
 DE(Corr)= -0.43187093     E(CORR)=     -47.021950894     Delta= 2.25D-03
 NORM(A)=   0.11026504D+01
 Iteration Nr.   8
 **********************
 DD1Dir will call FoFMem   1 times, MxPair=       102
 NAB=    36 NAA=    15 NBB=    15.
 A-vector RMS=  6.3851774D-05 Max=  5.3554751D-04 conv= 1.00D-05.
 RLE energy=       -0.4320346306
 DE(Corr)= -0.43208697     E(CORR)=     -47.022166933     Delta=-2.16D-04
 NORM(A)=   0.11028429D+01
 Iteration Nr.   9
 **********************
 DD1Dir will call FoFMem   1 times, MxPair=       102
 NAB=    36 NAA=    15 NBB=    15.
 A-vector RMS=  6.3961164D-05 Max=  6.1510733D-04 conv= 1.00D-05.
 RLE energy=       -0.4320137331
 DE(Corr)= -0.43199434     E(CORR)=     -47.022074299     Delta= 9.26D-05
 NORM(A)=   0.11031961D+01
 Iteration Nr.  10
 **********************
 DD1Dir will call FoFMem   1 times, MxPair=       102
 NAB=    36 NAA=    15 NBB=    15.
 A-vector RMS=  1.3941654D-05 Max=  1.3196773D-04 conv= 1.00D-05.
 RLE energy=       -0.4319920601
 DE(Corr)= -0.43199351     E(CORR)=     -47.022073472     Delta= 8.27D-07
 NORM(A)=   0.11032095D+01
 Iteration Nr.  11
 **********************
 DD1Dir will call FoFMem   1 times, MxPair=       102
 NAB=    36 NAA=    15 NBB=    15.
 A-vector RMS=  9.4877772D-06 Max=  7.7963364D-05 conv= 1.00D-05.
 RLE energy=       -0.4320063463
 DE(Corr)= -0.43199331     E(CORR)=     -47.022073268     Delta= 2.04D-07
 NORM(A)=   0.11033019D+01
 Iteration Nr.  12
 **********************
 DD1Dir will call FoFMem   1 times, MxPair=       102
 NAB=    36 NAA=    15 NBB=    15.
 A-vector RMS=  3.4558782D-06 Max=  3.3630608D-05 conv= 1.00D-05.
 RLE energy=       -0.4319933391
 DE(Corr)= -0.43199242     E(CORR)=     -47.022072380     Delta= 8.88D-07
 NORM(A)=   0.11033113D+01
 Iteration Nr.  13
 **********************
 DD1Dir will call FoFMem   1 times, MxPair=       102
 NAB=    36 NAA=    15 NBB=    15.
 A-vector RMS=  1.4893756D-06 Max=  1.3179822D-05 conv= 1.00D-05.
 RLE energy=       -0.4319970525
 DE(Corr)= -0.43199652     E(CORR)=     -47.022076478     Delta=-4.10D-06
 NORM(A)=   0.11033212D+01
 Iteration Nr.  14
 **********************
 DD1Dir will call FoFMem   1 times, MxPair=       102
 NAB=    36 NAA=    15 NBB=    15.
 A-vector RMS=  9.3853122D-07 Max=  8.0867334D-06 conv= 1.00D-05.
 RLE energy=       -0.4319956207
 DE(Corr)= -0.43199566     E(CORR)=     -47.022075624     Delta= 8.54D-07
 NORM(A)=   0.11033250D+01
 Iteration Nr.  15
 **********************
 DD1Dir will call FoFMem   1 times, MxPair=       102
 NAB=    36 NAA=    15 NBB=    15.
 A-vector RMS=  3.4132760D-07 Max=  2.5899147D-06 conv= 1.00D-05.
 RLE energy=       -0.4319959623
 DE(Corr)= -0.43199605     E(CORR)=     -47.022076005     Delta=-3.81D-07
 NORM(A)=   0.11033256D+01
 Iteration Nr.  16
 **********************
 DD1Dir will call FoFMem   1 times, MxPair=       102
 NAB=    36 NAA=    15 NBB=    15.
 A-vector RMS=  3.6107494D-07 Max=  3.1327750D-06 conv= 1.00D-05.
 RLE energy=       -0.4319957918
 DE(Corr)= -0.43199582     E(CORR)=     -47.022075781     Delta= 2.24D-07
 NORM(A)=   0.11033260D+01
 Iteration Nr.  17
 **********************
 DD1Dir will call FoFMem   1 times, MxPair=       102
 NAB=    36 NAA=    15 NBB=    15.
 A-vector RMS=  1.9655776D-07 Max=  2.1093648D-06 conv= 1.00D-05.
 RLE energy=       -0.4319955664
 DE(Corr)= -0.43199571     E(CORR)=     -47.022075672     Delta= 1.09D-07
 NORM(A)=   0.11033267D+01
 Iteration Nr.  18
 **********************
 DD1Dir will call FoFMem   1 times, MxPair=       102
 NAB=    36 NAA=    15 NBB=    15.
 A-vector RMS=  1.5031787D-07 Max=  1.4861280D-06 conv= 1.00D-05.
 RLE energy=       -0.4319957452
 DE(Corr)= -0.43199571     E(CORR)=     -47.022075671     Delta= 1.26D-09
 NORM(A)=   0.11033277D+01
 CI/CC converged in   18 iterations to DelEn= 1.26D-09 Conv= 1.00D-07 ErrA1= 1.50D-07 Conv= 1.00D-05
 Wavefunction amplitudes converged. E(Corr)=     -47.022075671    
 Largest amplitude= 7.92D-02
 Time for triples=     6651.67 seconds.
 T4(CCSD)= -0.20758283D-01
 T5(CCSD)=  0.19073178D-02
 CCSD(T)= -0.47040926635D+02
 Discarding MO integrals.
 Leave Link  913 at Wed Feb 14 08:09:47 2018, MaxMem=  8589934592 cpu:            9602.2 elap:             300.8
 (Enter /home1/apps/gaussian/16rA.03/g16/l601.exe)
 Copying SCF densities to generalized density rwf, IOpCl= 0 IROHF=1.

 **********************************************************************

            Population analysis using the SCF density.

 **********************************************************************

 Orbital symmetries:
       Occupied  (SG) (PI) (PI) (SG) (SG) (SG)
       Virtual   (PI) (PI) (SG) (SG) (SG) (DLTA) (DLTA) (PI) (PI)
                 (PI) (PI) (SG) (DLTA) (DLTA) (PI) (PI) (SG) (SG)
                 (SG) (SG) (DLTA) (DLTA) (PI) (PI) (PI) (PI) (PHI)
                 (PHI) (PI) (PI) (DLTA) (DLTA) (SG) (SG) (SG) (PI)
                 (PI) (SG) (DLTA) (DLTA) (PI) (PI) (DLTA) (DLTA)
                 (?A) (?A) (PHI) (PHI) (SG) (PI) (PI) (SG) (PI)
                 (PI) (SG) (PHI) (PHI) (DLTA) (DLTA) (SG) (PI)
                 (PI) (SG) (DLTA) (DLTA) (SG) (PI) (PI) (PI) (PI)
                 (DLTA) (DLTA) (SG) (SG) (PI) (PI) (PI) (PI) (SG)
                 (SG) (?A) (?A) (PHI) (PHI) (DLTA) (DLTA) (PHI)
                 (PHI) (DLTA) (DLTA) (PI) (PI) (PI) (PI) (SG) (SG)
                 (SG) (DLTA) (DLTA) (PI) (PI) (SG) (SG) (PI) (PI)
                 (SG) (DLTA) (DLTA) (PI) (PI) (PI) (PI) (SG) (SG)
                 (DLTA) (DLTA) (PI) (PI) (SG) (PHI) (PHI) (DLTA)
                 (DLTA) (PI) (PI) (SG) (?A) (?A) (PHI) (PHI) (DLTA)
                 (DLTA) (SG) (PI) (PI) (SG) (PI) (PI) (SG) (SG)
                 (DLTA) (DLTA) (PI) (PI) (SG) (SG) (PI) (PI) (SG)
                 (DLTA) (DLTA) (PI) (PI) (SG) (SG) (PI) (PI) (SG)
                 (SG) (DLTA) (DLTA) (PI) (PI) (SG) (SG) (PI) (PI)
                 (SG) (SG) (PI) (PI) (SG) (SG) (DLTA) (DLTA) (PI)
                 (PI) (SG) (PI) (PI) (SG) (SG) (PI) (PI) (SG) (SG)
                 (PI) (PI) (SG) (SG) (PI) (PI) (SG) (SG) (PI) (PI)
                 (SG) (SG) (SG) (PI) (PI) (SG) (SG) (SG) (SG) (SG)
 The electronic state is 1-SG.
 Alpha  occ. eigenvalues --   -2.71523  -1.68290  -1.68290  -1.68104  -0.37989
 Alpha  occ. eigenvalues --   -0.23934
 Alpha virt. eigenvalues --    0.01030   0.01030   0.01328   0.02273   0.03582
 Alpha virt. eigenvalues --    0.03780   0.03780   0.03937   0.03937   0.04373
 Alpha virt. eigenvalues --    0.04373   0.04387   0.07479   0.07479   0.08505
 Alpha virt. eigenvalues --    0.08505   0.09902   0.11097   0.13446   0.15597
 Alpha virt. eigenvalues --    0.15962   0.15962   0.16027   0.16027   0.16152
 Alpha virt. eigenvalues --    0.16152   0.16919   0.16919   0.16967   0.16967
 Alpha virt. eigenvalues --    0.17287   0.17287   0.21456   0.29206   0.34135
 Alpha virt. eigenvalues --    0.38165   0.38165   0.39562   0.45811   0.45811
 Alpha virt. eigenvalues --    0.47560   0.47560   0.48132   0.48132   0.48345
 Alpha virt. eigenvalues --    0.48345   0.48671   0.48671   0.48881   0.49113
 Alpha virt. eigenvalues --    0.49113   0.51988   0.52768   0.52768   0.62015
 Alpha virt. eigenvalues --    0.62472   0.62472   0.62771   0.62771   0.71943
 Alpha virt. eigenvalues --    0.74910   0.74910   0.92093   1.08993   1.08993
 Alpha virt. eigenvalues --    1.14830   1.17140   1.17140   1.24543   1.24543
 Alpha virt. eigenvalues --    1.24984   1.24984   1.28226   1.36955   1.42893
 Alpha virt. eigenvalues --    1.42893   1.56671   1.56671   1.59251   1.71311
 Alpha virt. eigenvalues --    1.93806   1.93806   1.94078   1.94078   1.96567
 Alpha virt. eigenvalues --    1.96567   2.11780   2.11780   2.13503   2.13503
 Alpha virt. eigenvalues --    2.17704   2.17704   2.21957   2.21957   2.27628
 Alpha virt. eigenvalues --    2.35162   2.82209   2.92903   2.92903   2.97379
 Alpha virt. eigenvalues --    2.97379   3.05033   3.43553   3.97324   3.97324
 Alpha virt. eigenvalues --    4.01046   4.06092   4.06092   4.18989   4.18989
 Alpha virt. eigenvalues --    4.41561   4.41561   4.56058   4.86718   5.92407
 Alpha virt. eigenvalues --    5.92407   5.95978   5.95978   6.09058   6.57578
 Alpha virt. eigenvalues --    6.57578   6.59197   6.59197   6.63165   6.63165
 Alpha virt. eigenvalues --    6.91601   7.65285   7.65285   7.65930   7.65930
 Alpha virt. eigenvalues --    7.67281   7.67281   7.73318   7.74993   7.74993
 Alpha virt. eigenvalues --    7.83657   8.58079   8.58079   8.78970  10.40683
 Alpha virt. eigenvalues --   11.36100  11.36100  11.39801  11.39801  11.49651
 Alpha virt. eigenvalues --   14.88403  16.88727  16.88727  17.11201  21.58624
 Alpha virt. eigenvalues --   21.58624  21.62380  21.62380  21.70978  26.29396
 Alpha virt. eigenvalues --   33.33855  33.33855  33.57889  48.09132  53.72241
 Alpha virt. eigenvalues --   53.72241  53.75241  53.75241  53.81313  64.00517
 Alpha virt. eigenvalues --   66.94427  66.94427  67.18904  91.65098 135.51797
 Alpha virt. eigenvalues --  135.51797 135.75459 181.77059 196.60198 196.60198
 Alpha virt. eigenvalues --  196.61797 196.61797 196.65209 279.47115 279.47115
 Alpha virt. eigenvalues --  279.69317 376.28808 597.05090 597.05090 597.25403
 Alpha virt. eigenvalues --  808.260741348.663541348.663541348.845001799.17439
 Alpha virt. eigenvalues -- 3317.392383317.392383317.549474175.564089372.76295
 Alpha virt. eigenvalues -- 9372.762959372.89178******************************
 Alpha virt. eigenvalues -- **************************************************
 Alpha virt. eigenvalues -- **********
     Molecular Orbital Coefficients:
                           2         3         4         5         6
                           O         O         O         O         O
     Eigenvalues --    -1.68290  -1.68290  -1.68104  -0.37989  -0.23934
   1 1   Sc 1S          0.00000   0.00000   0.00000  -0.00000   0.00000
   2        2S          0.00000   0.00000  -0.00000   0.00000  -0.00000
   3        3S          0.00000   0.00000   0.00000  -0.00000   0.00000
   4        4S          0.00000   0.00000  -0.00000   0.00000  -0.00000
   5        5S          0.00000   0.00000   0.00000  -0.00000   0.00000
   6        6S          0.00000   0.00000  -0.00000   0.00000  -0.00001
   7        7S          0.00000   0.00000   0.00000  -0.00002   0.00003
   8        8S          0.00000   0.00000  -0.00000   0.00005  -0.00009
   9        9S          0.00000   0.00000   0.00000  -0.00016   0.00028
  10       10S          0.00000   0.00000  -0.00000   0.00048  -0.00083
  11       11S          0.00000   0.00000   0.00000  -0.00147   0.00254
  12       12S          0.00000   0.00000   0.00009   0.00626  -0.01087
  13       13S          0.00000   0.00000  -0.00073  -0.02954   0.05154
  14       14S          0.00000   0.00000   0.00124   0.08644  -0.15356
  15       15S          0.00000   0.00000  -0.01510  -0.02128   0.01801
  16       16S          0.00000   0.00000   0.00681  -0.08533   0.18748
  17       17S          0.00000   0.00000   0.01931  -0.07549   0.19285
  18       18S          0.00000   0.00000   0.00083   0.17978  -0.40759
  19       19S          0.00000   0.00000  -0.00754   0.08909  -0.42667
  20       20S          0.00000   0.00000  -0.00232   0.03660  -0.17553
  21       21S          0.00000   0.00000   0.01103  -0.01113   0.03425
  22       22S          0.00000   0.00000  -0.02225  -0.08936   0.10040
  23       23S          0.00000   0.00000  -0.00155  -0.00765   0.00872
  24       24PX        -0.00000   0.00000   0.00000   0.00000   0.00000
  25       24PY         0.00000  -0.00000   0.00000   0.00000   0.00000
  26       24PZ         0.00000   0.00000  -0.00000  -0.00000  -0.00000
  27       25PX         0.00001   0.00000   0.00000   0.00000   0.00000
  28       25PY         0.00000   0.00001   0.00000   0.00000   0.00000
  29       25PZ         0.00000   0.00000   0.00001   0.00000   0.00000
  30       26PX        -0.00005   0.00000   0.00000   0.00000   0.00000
  31       26PY         0.00000  -0.00005   0.00000   0.00000   0.00000
  32       26PZ         0.00000   0.00000  -0.00005  -0.00001  -0.00000
  33       27PX         0.00021   0.00000   0.00000   0.00000   0.00000
  34       27PY         0.00000   0.00021   0.00000   0.00000   0.00000
  35       27PZ         0.00000   0.00000   0.00020   0.00003   0.00002
  36       28PX        -0.00077   0.00000   0.00000   0.00000   0.00000
  37       28PY         0.00000  -0.00077   0.00000   0.00000   0.00000
  38       28PZ         0.00000   0.00000  -0.00076  -0.00010  -0.00006
  39       29PX         0.00259   0.00000   0.00000   0.00000   0.00000
  40       29PY         0.00000   0.00259   0.00000   0.00000   0.00000
  41       29PZ         0.00000   0.00000   0.00255   0.00033   0.00020
  42       30PX        -0.00815   0.00000   0.00000   0.00000   0.00000
  43       30PY         0.00000  -0.00815   0.00000   0.00000   0.00000
  44       30PZ         0.00000   0.00000  -0.00804  -0.00106  -0.00063
  45       31PX         0.02476   0.00000   0.00000   0.00000   0.00000
  46       31PY         0.00000   0.02476   0.00000   0.00000   0.00000
  47       31PZ         0.00000   0.00000   0.02446   0.00332   0.00197
  48       32PX        -0.05072   0.00000   0.00000   0.00000   0.00000
  49       32PY         0.00000  -0.05072   0.00000   0.00000   0.00000
  50       32PZ         0.00000   0.00000  -0.04984  -0.00714  -0.00437
  51       33PX        -0.19517   0.00000   0.00000   0.00000   0.00000
  52       33PY         0.00000  -0.19517   0.00000   0.00000   0.00000
  53       33PZ         0.00000   0.00000  -0.21864  -0.03616  -0.01627
  54       34PX         0.36934   0.00000   0.00000   0.00000   0.00000
  55       34PY         0.00000   0.36934   0.00000   0.00000   0.00000
  56       34PZ         0.00000   0.00000   0.36991   0.05339   0.03215
  57       35PX        -0.06835   0.00000   0.00000   0.00000   0.00000
  58       35PY         0.00000  -0.06835   0.00000   0.00000   0.00000
  59       35PZ         0.00000   0.00000  -0.09349  -0.03486  -0.02348
  60       36PX         0.25113   0.00000   0.00000   0.00000   0.00000
  61       36PY         0.00000   0.25113   0.00000   0.00000   0.00000
  62       36PZ         0.00000   0.00000   0.24526   0.03218   0.03566
  63       37PX         0.04838   0.00000   0.00000   0.00000   0.00000
  64       37PY         0.00000   0.04838   0.00000   0.00000   0.00000
  65       37PZ         0.00000   0.00000   0.04108  -0.07378  -0.08694
  66       38PX        -0.00901   0.00000   0.00000   0.00000   0.00000
  67       38PY         0.00000  -0.00901   0.00000   0.00000   0.00000
  68       38PZ         0.00000   0.00000  -0.00498  -0.08071  -0.18302
  69       39PX         0.00445   0.00000   0.00000   0.00000   0.00000
  70       39PY         0.00000   0.00445   0.00000   0.00000   0.00000
  71       39PZ         0.00000   0.00000   0.00569  -0.01315  -0.05836
  72       40PX         0.15606   0.00000   0.00000   0.00000   0.00000
  73       40PY         0.00000   0.15606   0.00000   0.00000   0.00000
  74       40PZ         0.00000   0.00000   0.18039   0.03325   0.01452
  75       41PX         0.54500   0.00000   0.00000   0.00000   0.00000
  76       41PY         0.00000   0.54500   0.00000   0.00000   0.00000
  77       41PZ         0.00000   0.00000   0.57474   0.11738   0.07168
  78       42PX        -0.00135   0.00000   0.00000   0.00000   0.00000
  79       42PY         0.00000  -0.00135   0.00000   0.00000   0.00000
  80       42PZ         0.00000   0.00000  -0.00036   0.00178   0.00206
  81       43D 0        0.00000   0.00000  -0.00002  -0.00025  -0.00043
  82       43D+1        0.00001   0.00000   0.00000   0.00000   0.00000
  83       43D-1        0.00000   0.00001   0.00000   0.00000   0.00000
  84       43D+2        0.00000   0.00000   0.00000   0.00000  -0.00000
  85       43D-2        0.00000   0.00000   0.00000   0.00000   0.00000
  86       44D 0        0.00000   0.00000   0.00015   0.00179   0.00305
  87       44D+1       -0.00005   0.00000   0.00000   0.00000   0.00000
  88       44D-1        0.00000  -0.00005   0.00000   0.00000   0.00000
  89       44D+2        0.00000   0.00000  -0.00000  -0.00000   0.00000
  90       44D-2        0.00000   0.00000   0.00000   0.00000   0.00000
  91       45D 0        0.00000   0.00000   0.00241   0.03413   0.05747
  92       45D+1       -0.00075   0.00000   0.00000   0.00000   0.00000
  93       45D-1        0.00000  -0.00075   0.00000   0.00000   0.00000
  94       45D+2        0.00000   0.00000   0.00000  -0.00000   0.00000
  95       45D-2        0.00000   0.00000   0.00000   0.00000   0.00000
  96       46D 0        0.00000   0.00000   0.00165  -0.04385  -0.06438
  97       46D+1       -0.00141   0.00000   0.00000   0.00000   0.00000
  98       46D-1        0.00000  -0.00141   0.00000   0.00000   0.00000
  99       46D+2        0.00000   0.00000  -0.00000   0.00000  -0.00000
 100       46D-2        0.00000   0.00000   0.00000   0.00000   0.00000
 101       47D 0        0.00000   0.00000   0.01071  -0.45532  -0.65593
 102       47D+1       -0.03767   0.00000   0.00000   0.00000   0.00000
 103       47D-1        0.00000  -0.03767   0.00000   0.00000   0.00000
 104       47D+2        0.00000   0.00000  -0.00000   0.00000  -0.00000
 105       47D-2        0.00000   0.00000   0.00000   0.00000   0.00000
 106       48D 0        0.00000   0.00000   0.00622   0.10468   0.16744
 107       48D+1        0.00257   0.00000   0.00000   0.00000   0.00000
 108       48D-1        0.00000   0.00257   0.00000   0.00000   0.00000
 109       48D+2        0.00000   0.00000  -0.00000  -0.00000   0.00000
 110       48D-2        0.00000   0.00000   0.00000   0.00000   0.00000
 111       49D 0        0.00000   0.00000  -0.00408   0.08086   0.12499
 112       49D+1        0.00190   0.00000   0.00000   0.00000   0.00000
 113       49D-1        0.00000   0.00190   0.00000   0.00000   0.00000
 114       49D+2        0.00000   0.00000   0.00000  -0.00000   0.00000
 115       49D-2        0.00000   0.00000   0.00000   0.00000   0.00000
 116       50D 0        0.00000   0.00000  -0.00063   0.01450   0.02916
 117       50D+1        0.00036   0.00000   0.00000   0.00000   0.00000
 118       50D-1        0.00000   0.00036   0.00000   0.00000   0.00000
 119       50D+2        0.00000   0.00000   0.00000  -0.00000   0.00000
 120       50D-2        0.00000   0.00000   0.00000   0.00000   0.00000
 121       51D 0        0.00000   0.00000   0.00161   0.11167   0.17675
 122       51D+1       -0.00042   0.00000   0.00000   0.00000   0.00000
 123       51D-1        0.00000  -0.00042   0.00000   0.00000   0.00000
 124       51D+2        0.00000   0.00000   0.00000  -0.00000   0.00000
 125       51D-2        0.00000   0.00000   0.00000   0.00000   0.00000
 126       52D 0        0.00000   0.00000  -0.00250   0.53722   0.79491
 127       52D+1        0.03790   0.00000   0.00000   0.00000   0.00000
 128       52D-1        0.00000   0.03790   0.00000   0.00000   0.00000
 129       52D+2        0.00000   0.00000   0.00000  -0.00000   0.00000
 130       52D-2        0.00000   0.00000   0.00000   0.00000   0.00000
 131       53D 0        0.00000   0.00000  -0.00054  -0.00024  -0.00076
 132       53D+1       -0.00006   0.00000   0.00000   0.00000   0.00000
 133       53D-1        0.00000  -0.00006   0.00000   0.00000   0.00000
 134       53D+2        0.00000   0.00000  -0.00000   0.00000  -0.00000
 135       53D-2        0.00000   0.00000   0.00000   0.00000   0.00000
 136       54F 0        0.00000   0.00000  -0.00011  -0.00140  -0.00028
 137       54F+1       -0.00201   0.00000   0.00000   0.00000   0.00000
 138       54F-1        0.00000  -0.00201   0.00000   0.00000   0.00000
 139       54F+2        0.00000   0.00000   0.00000   0.00000  -0.00000
 140       54F-2        0.00000   0.00000   0.00000   0.00000   0.00000
 141       54F+3        0.00000   0.00000   0.00000   0.00000   0.00000
 142       54F-3        0.00000   0.00000   0.00000   0.00000   0.00000
 143       55F 0        0.00000   0.00000   0.00114  -0.00855   0.00263
 144       55F+1       -0.00351   0.00000   0.00000   0.00000   0.00000
 145       55F-1        0.00000  -0.00351   0.00000   0.00000   0.00000
 146       55F+2        0.00000   0.00000   0.00000  -0.00000   0.00000
 147       55F-2        0.00000   0.00000   0.00000   0.00000   0.00000
 148       55F+3        0.00000   0.00000   0.00000   0.00000   0.00000
 149       55F-3        0.00000   0.00000   0.00000   0.00000   0.00000
 150       56F 0        0.00000   0.00000   0.00173  -0.02199   0.00160
 151       56F+1       -0.00189   0.00000   0.00000   0.00000   0.00000
 152       56F-1        0.00000  -0.00189   0.00000   0.00000   0.00000
 153       56F+2        0.00000   0.00000  -0.00000   0.00000  -0.00000
 154       56F-2        0.00000   0.00000   0.00000   0.00000   0.00000
 155       56F+3       -0.00000   0.00000   0.00000   0.00000   0.00000
 156       56F-3        0.00000  -0.00000   0.00000   0.00000   0.00000
 157       57F 0        0.00000   0.00000   0.00040  -0.00733  -0.00125
 158       57F+1       -0.00021   0.00000   0.00000   0.00000   0.00000
 159       57F-1        0.00000  -0.00021   0.00000   0.00000   0.00000
 160       57F+2        0.00000   0.00000   0.00000  -0.00000   0.00000
 161       57F-2        0.00000   0.00000   0.00000   0.00000   0.00000
 162       57F+3        0.00000   0.00000   0.00000   0.00000   0.00000
 163       57F-3        0.00000   0.00000   0.00000   0.00000   0.00000
 164       58G 0        0.00000   0.00000  -0.00002   0.00008  -0.00068
 165       58G+1        0.00006   0.00000   0.00000   0.00000   0.00000
 166       58G-1        0.00000   0.00006   0.00000   0.00000   0.00000
 167       58G+2        0.00000   0.00000  -0.00000  -0.00000  -0.00000
 168       58G-2        0.00000   0.00000   0.00000   0.00000   0.00000
 169       58G+3        0.00000   0.00000   0.00000   0.00000   0.00000
 170       58G-3        0.00000   0.00000   0.00000   0.00000   0.00000
 171       58G+4        0.00000   0.00000   0.00000   0.00000  -0.00000
 172       58G-4        0.00000   0.00000   0.00000   0.00000   0.00000
 173       59G 0        0.00000   0.00000   0.00054   0.00252  -0.00019
 174       59G+1        0.00048   0.00000   0.00000   0.00000   0.00000
 175       59G-1        0.00000   0.00048   0.00000   0.00000   0.00000
 176       59G+2        0.00000   0.00000  -0.00000   0.00000  -0.00000
 177       59G-2        0.00000   0.00000   0.00000   0.00000   0.00000
 178       59G+3       -0.00000   0.00000   0.00000   0.00000   0.00000
 179       59G-3        0.00000  -0.00000   0.00000   0.00000   0.00000
 180       59G+4        0.00000   0.00000   0.00000  -0.00000   0.00000
 181       59G-4        0.00000   0.00000   0.00000   0.00000   0.00000
 182       60G 0        0.00000   0.00000  -0.00029   0.00455  -0.00021
 183       60G+1        0.00019   0.00000   0.00000   0.00000   0.00000
 184       60G-1        0.00000   0.00019   0.00000   0.00000   0.00000
 185       60G+2        0.00000   0.00000  -0.00000  -0.00000   0.00000
 186       60G-2        0.00000   0.00000   0.00000   0.00000   0.00000
 187       60G+3        0.00000   0.00000   0.00000   0.00000   0.00000
 188       60G-3        0.00000   0.00000   0.00000   0.00000   0.00000
 189       60G+4        0.00000   0.00000  -0.00000   0.00000   0.00000
 190       60G-4        0.00000   0.00000   0.00000   0.00000   0.00000
 191 2   H  1S          0.00000   0.00000  -0.00012   0.00322   0.00056
 192        2S          0.00000   0.00000  -0.00128   0.03528   0.00595
 193        3S          0.00000   0.00000  -0.00425   0.13325   0.02416
 194        4S          0.00000   0.00000  -0.01126   0.31763   0.05247
 195        5S          0.00000   0.00000   0.00246   0.29412   0.04573
 196        6S          0.00000   0.00000   0.00648   0.01464  -0.00248
 197        7PX         0.00010   0.00000   0.00000   0.00000   0.00000
 198        7PY         0.00000   0.00010   0.00000   0.00000   0.00000
 199        7PZ         0.00000   0.00000  -0.00079   0.00307   0.00081
 200        8PX         0.00033   0.00000   0.00000   0.00000   0.00000
 201        8PY         0.00000   0.00033   0.00000   0.00000   0.00000
 202        8PZ         0.00000   0.00000  -0.00453   0.02534   0.00168
 203        9PX         0.00111   0.00000   0.00000   0.00000   0.00000
 204        9PY         0.00000   0.00111   0.00000   0.00000   0.00000
 205        9PZ         0.00000   0.00000   0.00152   0.02478   0.00016
 206       10D 0        0.00000   0.00000  -0.00092   0.00183   0.00011
 207       10D+1        0.00015   0.00000   0.00000   0.00000   0.00000
 208       10D-1        0.00000   0.00015   0.00000   0.00000   0.00000
 209       10D+2        0.00000   0.00000  -0.00000   0.00000  -0.00000
 210       10D-2        0.00000   0.00000   0.00000   0.00000   0.00000
 211       11D 0        0.00000   0.00000  -0.00166   0.00543  -0.00068
 212       11D+1        0.00013   0.00000   0.00000   0.00000   0.00000
 213       11D-1        0.00000   0.00013   0.00000   0.00000   0.00000
 214       11D+2        0.00000   0.00000   0.00000  -0.00000   0.00000
 215       11D-2        0.00000   0.00000   0.00000   0.00000   0.00000
                           7         8         9        10        11
                           V         V         V         V         V
     Eigenvalues --     0.01030   0.01030   0.01328   0.02273   0.03582
   1 1   Sc 1S          0.00000   0.00000  -0.00000   0.00000   0.00000
   2        2S          0.00000   0.00000   0.00000  -0.00000  -0.00000
   3        3S          0.00000   0.00000  -0.00000   0.00000   0.00000
   4        4S          0.00000   0.00000   0.00000  -0.00000  -0.00000
   5        5S          0.00000   0.00000  -0.00000   0.00000   0.00000
   6        6S          0.00000   0.00000   0.00000  -0.00000  -0.00000
   7        7S          0.00000   0.00000  -0.00001   0.00002   0.00001
   8        8S          0.00000   0.00000   0.00003  -0.00005  -0.00003
   9        9S          0.00000   0.00000  -0.00010   0.00016   0.00010
  10       10S          0.00000   0.00000   0.00029  -0.00045  -0.00028
  11       11S          0.00000   0.00000  -0.00079   0.00121   0.00072
  12       12S          0.00000   0.00000   0.00272  -0.00411  -0.00216
  13       13S          0.00000   0.00000  -0.01085   0.01615   0.00739
  14       14S          0.00000   0.00000   0.04098  -0.06118  -0.03340
  15       15S          0.00000   0.00000   0.12107  -0.18904  -0.16997
  16       16S          0.00000   0.00000  -0.19610   0.29143   0.25075
  17       17S          0.00000   0.00000  -0.19451   0.26632   0.29015
  18       18S          0.00000   0.00000   0.36751  -0.44422  -0.36075
  19       19S          0.00000   0.00000  -0.49882   1.49540   0.60661
  20       20S          0.00000   0.00000   1.16926  -1.24865  -5.04343
  21       21S          0.00000   0.00000  -0.10128   0.15752   0.13354
  22       22S          0.00000   0.00000   0.24785  -0.36521  -0.39874
  23       23S          0.00000   0.00000  -1.13221   2.61480  -0.65376
  24       24PX         0.00000   0.00000   0.00000   0.00000   0.00000
  25       24PY         0.00000   0.00000   0.00000   0.00000   0.00000
  26       24PZ         0.00000   0.00000   0.00000  -0.00000  -0.00000
  27       25PX        -0.00000   0.00000   0.00000   0.00000   0.00000
  28       25PY         0.00000  -0.00000   0.00000   0.00000   0.00000
  29       25PZ         0.00000   0.00000  -0.00000   0.00000   0.00000
  30       26PX         0.00000   0.00000   0.00000   0.00000   0.00000
  31       26PY         0.00000   0.00000   0.00000   0.00000   0.00000
  32       26PZ         0.00000   0.00000   0.00000  -0.00000  -0.00000
  33       27PX        -0.00001   0.00000   0.00000   0.00000   0.00000
  34       27PY         0.00000  -0.00001   0.00000   0.00000   0.00000
  35       27PZ         0.00000   0.00000  -0.00000   0.00001   0.00000
  36       28PX         0.00003   0.00000   0.00000   0.00000   0.00000
  37       28PY         0.00000   0.00003   0.00000   0.00000   0.00000
  38       28PZ         0.00000   0.00000   0.00001  -0.00005  -0.00001
  39       29PX        -0.00011   0.00000   0.00000   0.00000   0.00000
  40       29PY         0.00000  -0.00011   0.00000   0.00000   0.00000
  41       29PZ         0.00000   0.00000  -0.00001   0.00016   0.00002
  42       30PX         0.00038   0.00000   0.00000   0.00000   0.00000
  43       30PY         0.00000   0.00038   0.00000   0.00000   0.00000
  44       30PZ         0.00000   0.00000   0.00001  -0.00049  -0.00009
  45       31PX        -0.00131   0.00000   0.00000   0.00000   0.00000
  46       31PY         0.00000  -0.00131   0.00000   0.00000   0.00000
  47       31PZ         0.00000   0.00000   0.00007   0.00147   0.00034
  48       32PX         0.00150   0.00000   0.00000   0.00000   0.00000
  49       32PY         0.00000   0.00150   0.00000   0.00000   0.00000
  50       32PZ         0.00000   0.00000   0.00118  -0.00406   0.00006
  51       33PX         0.10970   0.00000   0.00000   0.00000   0.00000
  52       33PY         0.00000   0.10970   0.00000   0.00000   0.00000
  53       33PZ         0.00000   0.00000  -0.09494   0.04716  -0.06158
  54       34PX        -0.04011   0.00000   0.00000   0.00000   0.00000
  55       34PY         0.00000  -0.04011   0.00000   0.00000   0.00000
  56       34PZ         0.00000   0.00000   0.01801   0.01349   0.01282
  57       35PX         0.16618   0.00000   0.00000   0.00000   0.00000
  58       35PY         0.00000   0.16618   0.00000   0.00000   0.00000
  59       35PZ         0.00000   0.00000  -0.13293   0.09856  -0.06656
  60       36PX        -0.00681   0.00000   0.00000   0.00000   0.00000
  61       36PY         0.00000  -0.00681   0.00000   0.00000   0.00000
  62       36PZ         0.00000   0.00000  -0.00577   0.04626  -0.01242
  63       37PX         0.01988   0.00000   0.00000   0.00000   0.00000
  64       37PY         0.00000   0.01988   0.00000   0.00000   0.00000
  65       37PZ         0.00000   0.00000   0.00648  -0.10172   0.05200
  66       38PX         0.31580   0.00000   0.00000   0.00000   0.00000
  67       38PY         0.00000   0.31580   0.00000   0.00000   0.00000
  68       38PZ         0.00000   0.00000  -0.26028  -0.44611   0.15371
  69       39PX        -0.02030   0.00000   0.00000   0.00000   0.00000
  70       39PY         0.00000  -0.02030   0.00000   0.00000   0.00000
  71       39PZ         0.00000   0.00000   0.14825  -0.58363   1.98777
  72       40PX        -0.10803   0.00000   0.00000   0.00000   0.00000
  73       40PY         0.00000  -0.10803   0.00000   0.00000   0.00000
  74       40PZ         0.00000   0.00000   0.09463  -0.04871   0.06192
  75       41PX        -0.24602   0.00000   0.00000   0.00000   0.00000
  76       41PY         0.00000  -0.24602   0.00000   0.00000   0.00000
  77       41PZ         0.00000   0.00000   0.17825  -0.09656   0.10310
  78       42PX         0.82717   0.00000   0.00000   0.00000   0.00000
  79       42PY         0.00000   0.82717   0.00000   0.00000   0.00000
  80       42PZ         0.00000   0.00000  -0.82756  -0.70410   1.31953
  81       43D 0        0.00000   0.00000   0.00030   0.00008   0.00010
  82       43D+1       -0.00006   0.00000   0.00000   0.00000   0.00000
  83       43D-1        0.00000  -0.00006   0.00000   0.00000   0.00000
  84       43D+2        0.00000   0.00000   0.00000   0.00000   0.00000
  85       43D-2        0.00000   0.00000   0.00000   0.00000   0.00000
  86       44D 0        0.00000   0.00000  -0.00214  -0.00054  -0.00073
  87       44D+1        0.00041   0.00000   0.00000   0.00000   0.00000
  88       44D-1        0.00000   0.00041   0.00000   0.00000   0.00000
  89       44D+2        0.00000   0.00000  -0.00000  -0.00000  -0.00000
  90       44D-2        0.00000   0.00000   0.00000   0.00000   0.00000
  91       45D 0        0.00000   0.00000  -0.04085  -0.01015  -0.01354
  92       45D+1        0.00803   0.00000   0.00000   0.00000   0.00000
  93       45D-1        0.00000   0.00803   0.00000   0.00000   0.00000
  94       45D+2        0.00000   0.00000  -0.00000  -0.00000  -0.00000
  95       45D-2        0.00000   0.00000   0.00000   0.00000   0.00000
  96       46D 0        0.00000   0.00000   0.05420   0.01259   0.01058
  97       46D+1       -0.01359   0.00000   0.00000   0.00000   0.00000
  98       46D-1        0.00000  -0.01359   0.00000   0.00000   0.00000
  99       46D+2        0.00000   0.00000   0.00000   0.00000   0.00000
 100       46D-2        0.00000   0.00000   0.00000   0.00000   0.00000
 101       47D 0        0.00000   0.00000   0.62902   0.17044   0.00138
 102       47D+1       -0.16174   0.00000   0.00000   0.00000   0.00000
 103       47D-1        0.00000  -0.16174   0.00000   0.00000   0.00000
 104       47D+2        0.00000   0.00000   0.00000   0.00000   0.00000
 105       47D-2        0.00000   0.00000   0.00000   0.00000   0.00000
 106       48D 0        0.00000   0.00000  -0.10999  -0.02693  -0.04498
 107       48D+1        0.02150   0.00000   0.00000   0.00000   0.00000
 108       48D-1        0.00000   0.02150   0.00000   0.00000   0.00000
 109       48D+2        0.00000   0.00000  -0.00000  -0.00000  -0.00000
 110       48D-2        0.00000   0.00000   0.00000   0.00000   0.00000
 111       49D 0        0.00000   0.00000  -0.09577   0.09872  -0.14807
 112       49D+1        0.04492   0.00000   0.00000   0.00000   0.00000
 113       49D-1        0.00000   0.04492   0.00000   0.00000   0.00000
 114       49D+2        0.00000   0.00000  -0.00000  -0.00000  -0.00000
 115       49D-2        0.00000   0.00000   0.00000   0.00000   0.00000
 116       50D 0        0.00000   0.00000  -0.06815   0.20357  -0.53575
 117       50D+1        0.04638   0.00000   0.00000   0.00000   0.00000
 118       50D-1        0.00000   0.04638   0.00000   0.00000   0.00000
 119       50D+2        0.00000   0.00000   0.00000   0.00000   0.00000
 120       50D-2        0.00000   0.00000   0.00000   0.00000   0.00000
 121       51D 0        0.00000   0.00000  -0.13599  -0.03295  -0.03615
 122       51D+1        0.03018   0.00000   0.00000   0.00000   0.00000
 123       51D-1        0.00000   0.03018   0.00000   0.00000   0.00000
 124       51D+2        0.00000   0.00000  -0.00000  -0.00000  -0.00000
 125       51D-2        0.00000   0.00000   0.00000   0.00000   0.00000
 126       52D 0        0.00000   0.00000  -0.72771  -0.19592  -0.03211
 127       52D+1        0.18053   0.00000   0.00000   0.00000   0.00000
 128       52D-1        0.00000   0.18053   0.00000   0.00000   0.00000
 129       52D+2        0.00000   0.00000  -0.00000  -0.00000  -0.00000
 130       52D-2        0.00000   0.00000   0.00000   0.00000   0.00000
 131       53D 0        0.00000   0.00000  -0.13819   0.00189  -1.37351
 132       53D+1        0.10836   0.00000   0.00000   0.00000   0.00000
 133       53D-1        0.00000   0.10836   0.00000   0.00000   0.00000
 134       53D+2        0.00000   0.00000  -0.00000  -0.00000  -0.00000
 135       53D-2        0.00000   0.00000   0.00000   0.00000   0.00000
 136       54F 0        0.00000   0.00000   0.00026  -0.00005   0.00004
 137       54F+1       -0.00008   0.00000   0.00000   0.00000   0.00000
 138       54F-1        0.00000  -0.00008   0.00000   0.00000   0.00000
 139       54F+2        0.00000   0.00000   0.00000   0.00000   0.00000
 140       54F-2        0.00000   0.00000   0.00000   0.00000   0.00000
 141       54F+3        0.00000   0.00000   0.00000   0.00000   0.00000
 142       54F-3        0.00000  -0.00000   0.00000   0.00000   0.00000
 143       55F 0        0.00000   0.00000  -0.00085   0.00196  -0.00057
 144       55F+1       -0.00129   0.00000   0.00000   0.00000   0.00000
 145       55F-1        0.00000  -0.00129   0.00000   0.00000   0.00000
 146       55F+2        0.00000   0.00000  -0.00000   0.00000  -0.00000
 147       55F-2        0.00000   0.00000   0.00000   0.00000   0.00000
 148       55F+3       -0.00000   0.00000   0.00000   0.00000   0.00000
 149       55F-3        0.00000  -0.00000   0.00000   0.00000   0.00000
 150       56F 0        0.00000   0.00000  -0.00868  -0.03666   0.02615
 151       56F+1       -0.00362   0.00000   0.00000   0.00000   0.00000
 152       56F-1        0.00000  -0.00362   0.00000   0.00000   0.00000
 153       56F+2        0.00000   0.00000  -0.00000   0.00000  -0.00000
 154       56F-2        0.00000   0.00000   0.00000   0.00000   0.00000
 155       56F+3        0.00000   0.00000   0.00000   0.00000   0.00000
 156       56F-3        0.00000   0.00000   0.00000   0.00000   0.00000
 157       57F 0        0.00000   0.00000  -0.00626  -0.07631   0.19335
 158       57F+1       -0.00684   0.00000   0.00000   0.00000   0.00000
 159       57F-1        0.00000  -0.00684   0.00000   0.00000   0.00000
 160       57F+2        0.00000   0.00000  -0.00000  -0.00000  -0.00000
 161       57F-2        0.00000   0.00000   0.00000   0.00000   0.00000
 162       57F+3        0.00000   0.00000   0.00000   0.00000   0.00000
 163       57F-3        0.00000   0.00000   0.00000   0.00000   0.00000
 164       58G 0        0.00000   0.00000   0.00043  -0.00009   0.00031
 165       58G+1       -0.00013   0.00000   0.00000   0.00000   0.00000
 166       58G-1        0.00000  -0.00013   0.00000   0.00000   0.00000
 167       58G+2        0.00000   0.00000   0.00000   0.00000   0.00000
 168       58G-2        0.00000   0.00000   0.00000   0.00000   0.00000
 169       58G+3        0.00000   0.00000   0.00000   0.00000   0.00000
 170       58G-3        0.00000   0.00000   0.00000   0.00000   0.00000
 171       58G+4        0.00000   0.00000  -0.00000  -0.00000   0.00000
 172       58G-4        0.00000   0.00000   0.00000   0.00000   0.00000
 173       59G 0        0.00000   0.00000   0.00165   0.00289  -0.00180
 174       59G+1       -0.00044   0.00000   0.00000   0.00000   0.00000
 175       59G-1        0.00000  -0.00044   0.00000   0.00000   0.00000
 176       59G+2        0.00000   0.00000   0.00000  -0.00000   0.00000
 177       59G-2        0.00000   0.00000   0.00000   0.00000   0.00000
 178       59G+3        0.00000   0.00000   0.00000   0.00000   0.00000
 179       59G-3        0.00000   0.00000   0.00000   0.00000   0.00000
 180       59G+4        0.00000   0.00000   0.00000   0.00000  -0.00000
 181       59G-4        0.00000   0.00000   0.00000   0.00000   0.00000
 182       60G 0        0.00000   0.00000  -0.00137   0.01173  -0.02758
 183       60G+1        0.00138   0.00000   0.00000   0.00000   0.00000
 184       60G-1        0.00000   0.00138   0.00000   0.00000   0.00000
 185       60G+2        0.00000   0.00000   0.00000   0.00000   0.00000
 186       60G-2        0.00000   0.00000   0.00000   0.00000   0.00000
 187       60G+3        0.00000   0.00000   0.00000   0.00000   0.00000
 188       60G-3        0.00000   0.00000   0.00000   0.00000   0.00000
 189       60G+4        0.00000   0.00000  -0.00000  -0.00000   0.00000
 190       60G-4        0.00000   0.00000   0.00000   0.00000   0.00000
 191 2   H  1S          0.00000   0.00000   0.00006  -0.00012   0.00014
 192        2S          0.00000   0.00000   0.00078  -0.00085   0.00133
 193        3S          0.00000   0.00000   0.00213  -0.00554   0.00622
 194        4S          0.00000   0.00000   0.01214   0.00482   0.00637
 195        5S          0.00000   0.00000  -0.07540  -0.59006   0.55764
 196        6S          0.00000   0.00000  -0.08295  -1.86675   5.92654
 197        7PX         0.00065   0.00000   0.00000   0.00000   0.00000
 198        7PY         0.00000   0.00065   0.00000   0.00000   0.00000
 199        7PZ         0.00000   0.00000  -0.00043   0.00121  -0.00219
 200        8PX         0.00350   0.00000   0.00000   0.00000   0.00000
 201        8PY         0.00000   0.00350   0.00000   0.00000   0.00000
 202        8PZ         0.00000   0.00000  -0.00628  -0.02051   0.02077
 203        9PX         0.00068   0.00000   0.00000   0.00000   0.00000
 204        9PY         0.00000   0.00068   0.00000   0.00000   0.00000
 205        9PZ         0.00000   0.00000  -0.05167  -0.22075   0.13593
 206       10D 0        0.00000   0.00000  -0.00007  -0.00032  -0.00006
 207       10D+1        0.00017   0.00000   0.00000   0.00000   0.00000
 208       10D-1        0.00000   0.00017   0.00000   0.00000   0.00000
 209       10D+2        0.00000   0.00000  -0.00000   0.00000  -0.00000
 210       10D-2        0.00000   0.00000   0.00000   0.00000   0.00000
 211       11D 0        0.00000   0.00000  -0.00572  -0.01587   0.01476
 212       11D+1       -0.00012   0.00000   0.00000   0.00000   0.00000
 213       11D-1        0.00000  -0.00012   0.00000   0.00000   0.00000
 214       11D+2        0.00000   0.00000  -0.00000  -0.00000   0.00000
 215       11D-2        0.00000   0.00000   0.00000   0.00000   0.00000
     Alpha Density Matrix:
                           1         2         3         4         5
   1 1   Sc 1S          0.00000
   2        2S         -0.00000   0.00000
   3        3S          0.00000  -0.00000   0.00000
   4        4S         -0.00000   0.00000  -0.00000   0.00000
   5        5S          0.00000  -0.00000   0.00000  -0.00000   0.00000
   6        6S         -0.00000   0.00000  -0.00000   0.00000  -0.00000
   7        7S          0.00000  -0.00000   0.00000  -0.00000   0.00000
   8        8S         -0.00000   0.00000  -0.00000   0.00000  -0.00000
   9        9S          0.00000  -0.00000   0.00000  -0.00000   0.00000
  10       10S         -0.00000   0.00000  -0.00000   0.00000  -0.00000
  11       11S          0.00000  -0.00000   0.00000  -0.00000   0.00000
  12       12S         -0.00000   0.00000  -0.00000   0.00000  -0.00000
  13       13S          0.00000  -0.00000   0.00000  -0.00000   0.00000
  14       14S         -0.00000   0.00000  -0.00000   0.00000  -0.00001
  15       15S          0.00000  -0.00000   0.00000  -0.00000   0.00000
  16       16S          0.00000  -0.00000   0.00000  -0.00000   0.00001
  17       17S          0.00000  -0.00000   0.00000  -0.00000   0.00001
  18       18S         -0.00000   0.00000  -0.00000   0.00000  -0.00000
  19       19S         -0.00000   0.00000  -0.00000   0.00000  -0.00000
  20       20S         -0.00000   0.00000  -0.00000   0.00000  -0.00000
  21       21S          0.00000  -0.00000   0.00000  -0.00000   0.00000
  22       22S          0.00000  -0.00000   0.00000  -0.00000   0.00000
  23       23S          0.00000  -0.00000   0.00000  -0.00000   0.00000
  24       24PX         0.00000   0.00000   0.00000   0.00000   0.00000
  25       24PY         0.00000   0.00000   0.00000   0.00000   0.00000
  26       24PZ        -0.00000   0.00000  -0.00000   0.00000  -0.00000
  27       25PX         0.00000   0.00000   0.00000   0.00000   0.00000
  28       25PY         0.00000   0.00000   0.00000   0.00000   0.00000
  29       25PZ         0.00000  -0.00000   0.00000  -0.00000   0.00000
  30       26PX         0.00000   0.00000   0.00000   0.00000   0.00000
  31       26PY         0.00000   0.00000   0.00000   0.00000   0.00000
  32       26PZ        -0.00000   0.00000  -0.00000   0.00000  -0.00000
  33       27PX         0.00000   0.00000   0.00000   0.00000   0.00000
  34       27PY         0.00000   0.00000   0.00000   0.00000   0.00000
  35       27PZ         0.00000  -0.00000   0.00000  -0.00000   0.00000
[...]
                         211       212       213       214       215
 211       11D 0        0.00007
 212       11D+1        0.00000   0.00000
 213       11D-1        0.00000   0.00000   0.00000
 214       11D+2       -0.00000   0.00000   0.00000   0.00000
 215       11D-2        0.00000   0.00000   0.00000   0.00000   0.00000
     Gross orbital populations:
                         Total     Alpha     Beta      Spin
   1 1   Sc 1S          0.00000   0.00000   0.00000   0.00000
   2        2S         -0.00000  -0.00000  -0.00000   0.00000
   3        3S          0.00000   0.00000   0.00000   0.00000
   4        4S         -0.00000  -0.00000  -0.00000   0.00000
   5        5S          0.00000   0.00000   0.00000   0.00000
   6        6S         -0.00000  -0.00000  -0.00000  -0.00000
   7        7S          0.00000   0.00000   0.00000  -0.00000
   8        8S         -0.00001  -0.00000  -0.00000  -0.00000
   9        9S          0.00004   0.00002   0.00002   0.00000
  10       10S         -0.00020  -0.00010  -0.00010   0.00000
  11       11S          0.00112   0.00056   0.00056   0.00000
  12       12S         -0.00929  -0.00465  -0.00465  -0.00000
  13       13S          0.08570   0.04285   0.04285   0.00000
  14       14S         -0.48916  -0.24458  -0.24458  -0.00000
  15       15S          0.08608   0.04304   0.04304   0.00000
  16       16S          1.30634   0.65317   0.65317   0.00000
  17       17S          0.68029   0.34014   0.34014   0.00000
  18       18S          0.68481   0.34240   0.34240   0.00000
  19       19S          0.70039   0.35020   0.35020   0.00000
  20       20S          0.27960   0.13980   0.13980   0.00000
  21       21S          0.14613   0.07306   0.07306   0.00000
  22       22S          0.16993   0.08496   0.08496   0.00000
  23       23S         -0.01477  -0.00739  -0.00739  -0.00000
  24       24PX        -0.00000  -0.00000  -0.00000  -0.00000
  25       24PY        -0.00000  -0.00000  -0.00000   0.00000
  26       24PZ        -0.00000  -0.00000  -0.00000   0.00000
  27       25PX         0.00000   0.00000   0.00000  -0.00000
  28       25PY         0.00000   0.00000   0.00000   0.00000
  29       25PZ         0.00000   0.00000   0.00000   0.00000
  30       26PX        -0.00000  -0.00000  -0.00000  -0.00000
  31       26PY        -0.00000  -0.00000  -0.00000  -0.00000
  32       26PZ        -0.00000  -0.00000  -0.00000  -0.00000
  33       27PX         0.00000   0.00000   0.00000   0.00000
  34       27PY         0.00000   0.00000   0.00000   0.00000
  35       27PZ         0.00000   0.00000   0.00000   0.00000
  36       28PX        -0.00001  -0.00001  -0.00001  -0.00000
  37       28PY        -0.00001  -0.00001  -0.00001  -0.00000
  38       28PZ        -0.00001  -0.00001  -0.00001   0.00000
  39       29PX         0.00013   0.00007   0.00007   0.00000
  40       29PY         0.00013   0.00007   0.00007   0.00000
  41       29PZ         0.00013   0.00007   0.00007   0.00000
  42       30PX        -0.00102  -0.00051  -0.00051   0.00000
  43       30PY        -0.00102  -0.00051  -0.00051   0.00000
  44       30PZ        -0.00104  -0.00052  -0.00052  -0.00000
  45       31PX         0.00729   0.00364   0.00364   0.00000
  46       31PY         0.00729   0.00364   0.00364   0.00000
  47       31PZ         0.00742   0.00371   0.00371   0.00000
  48       32PX        -0.03173  -0.01586  -0.01586  -0.00000
  49       32PY        -0.03173  -0.01586  -0.01586  -0.00000
  50       32PZ        -0.03211  -0.01606  -0.01606  -0.00000
  51       33PX        -0.22226  -0.11113  -0.11113  -0.00000
  52       33PY        -0.22226  -0.11113  -0.11113  -0.00000
  53       33PZ        -0.25616  -0.12808  -0.12808  -0.00000
  54       34PX         0.62972   0.31486   0.31486   0.00000
  55       34PY         0.62972   0.31486   0.31486   0.00000
  56       34PZ         0.64426   0.32213   0.32213   0.00000
  57       35PX        -0.13539  -0.06769  -0.06769   0.00000
  58       35PY        -0.13539  -0.06769  -0.06769  -0.00000
  59       35PZ        -0.18944  -0.09472  -0.09472  -0.00000
  60       36PX         0.44132   0.22066   0.22066   0.00000
  61       36PY         0.44132   0.22066   0.22066   0.00000
  62       36PZ         0.41870   0.20935   0.20935   0.00000
  63       37PX         0.05139   0.02570   0.02570   0.00000
  64       37PY         0.05139   0.02570   0.02570   0.00000
  65       37PZ         0.14373   0.07186   0.07186   0.00000
  66       38PX        -0.00464  -0.00232  -0.00232  -0.00000
  67       38PY        -0.00464  -0.00232  -0.00232   0.00000
  68       38PZ         0.19862   0.09931   0.09931   0.00000
  69       39PX         0.00091   0.00045   0.00045   0.00000
  70       39PY         0.00091   0.00045   0.00045   0.00000
  71       39PZ         0.04205   0.02103   0.02103   0.00000
  72       40PX         0.18400   0.09200   0.09200   0.00000
  73       40PY         0.18400   0.09200   0.09200   0.00000
  74       40PZ         0.21934   0.10967   0.10967   0.00000
  75       41PX         1.07998   0.53999   0.53999   0.00000
  76       41PY         1.07998   0.53999   0.53999   0.00000
  77       41PZ         1.15050   0.57525   0.57525   0.00000
  78       42PX        -0.00010  -0.00005  -0.00005  -0.00000
  79       42PY        -0.00010  -0.00005  -0.00005   0.00000
  80       42PZ        -0.00129  -0.00064  -0.00064   0.00000
  81       43D 0       -0.00002  -0.00001  -0.00001   0.00000
  82       43D+1       -0.00000  -0.00000  -0.00000  -0.00000
  83       43D-1       -0.00000  -0.00000  -0.00000  -0.00000
  84       43D+2       -0.00000  -0.00000  -0.00000   0.00000
  85       43D-2       -0.00000  -0.00000  -0.00000  -0.00000
  86       44D 0        0.00057   0.00028   0.00028   0.00000
  87       44D+1        0.00000   0.00000   0.00000   0.00000
  88       44D-1        0.00000   0.00000   0.00000   0.00000
  89       44D+2        0.00000   0.00000   0.00000   0.00000
  90       44D-2        0.00000   0.00000   0.00000   0.00000
  91       45D 0        0.02714   0.01357   0.01357   0.00000
  92       45D+1        0.00000   0.00000   0.00000   0.00000
  93       45D-1        0.00000   0.00000   0.00000   0.00000
  94       45D+2        0.00000   0.00000   0.00000   0.00000
  95       45D-2        0.00000   0.00000   0.00000   0.00000
  96       46D 0       -0.05391  -0.02696  -0.02696   0.00000
  97       46D+1        0.00000   0.00000   0.00000   0.00000
  98       46D-1        0.00000   0.00000   0.00000   0.00000
  99       46D+2       -0.00000  -0.00000  -0.00000   0.00000
 100       46D-2       -0.00000  -0.00000  -0.00000   0.00000
 101       47D 0       -0.76094  -0.38047  -0.38047  -0.00000
 102       47D+1       -0.00006  -0.00003  -0.00003   0.00000
 103       47D-1       -0.00006  -0.00003  -0.00003   0.00000
 104       47D+2       -0.00000  -0.00000  -0.00000  -0.00000
 105       47D-2       -0.00000  -0.00000  -0.00000  -0.00000
 106       48D 0        0.22702   0.11351   0.11351   0.00000
 107       48D+1        0.00002   0.00001   0.00001   0.00000
 108       48D-1        0.00002   0.00001   0.00001   0.00000
 109       48D+2        0.00000   0.00000   0.00000   0.00000
 110       48D-2        0.00000   0.00000   0.00000  -0.00000
 111       49D 0        0.16853   0.08427   0.08427   0.00000
 112       49D+1        0.00001   0.00001   0.00001   0.00000
 113       49D-1        0.00001   0.00001   0.00001   0.00000
 114       49D+2        0.00000   0.00000   0.00000   0.00000
 115       49D-2        0.00000   0.00000   0.00000   0.00000
 116       50D 0        0.01920   0.00960   0.00960   0.00000
 117       50D+1        0.00000   0.00000   0.00000   0.00000
 118       50D-1        0.00000   0.00000   0.00000   0.00000
 119       50D+2        0.00000   0.00000   0.00000   0.00000
 120       50D-2        0.00000   0.00000   0.00000   0.00000
 121       51D 0        0.15052   0.07526   0.07526   0.00000
 122       51D+1        0.00000   0.00000   0.00000   0.00000
 123       51D-1        0.00000   0.00000   0.00000   0.00000
 124       51D+2        0.00000   0.00000   0.00000   0.00000
 125       51D-2        0.00000   0.00000   0.00000   0.00000
 126       52D 0        0.91790   0.45895   0.45895   0.00000
 127       52D+1        0.00007   0.00003   0.00003   0.00000
 128       52D-1        0.00007   0.00003   0.00003   0.00000
 129       52D+2        0.00000   0.00000   0.00000   0.00000
 130       52D-2        0.00000   0.00000   0.00000   0.00000
 131       53D 0       -0.00013  -0.00006  -0.00006  -0.00000
 132       53D+1       -0.00000  -0.00000  -0.00000   0.00000
 133       53D-1       -0.00000  -0.00000  -0.00000  -0.00000
 134       53D+2        0.00000   0.00000   0.00000   0.00000
 135       53D-2        0.00000   0.00000   0.00000   0.00000
 136       54F 0        0.00003   0.00002   0.00002   0.00000
 137       54F+1        0.00002   0.00001   0.00001   0.00000
 138       54F-1        0.00002   0.00001   0.00001   0.00000
 139       54F+2        0.00000   0.00000   0.00000   0.00000
 140       54F-2       -0.00000  -0.00000  -0.00000   0.00000
 141       54F+3       -0.00000  -0.00000  -0.00000  -0.00000
 142       54F-3       -0.00000  -0.00000  -0.00000  -0.00000
 143       55F 0        0.00104   0.00052   0.00052   0.00000
 144       55F+1        0.00004   0.00002   0.00002   0.00000
 145       55F-1        0.00004   0.00002   0.00002   0.00000
 146       55F+2       -0.00000  -0.00000  -0.00000  -0.00000
 147       55F-2       -0.00000  -0.00000  -0.00000  -0.00000
 148       55F+3        0.00000   0.00000   0.00000   0.00000
 149       55F-3        0.00000   0.00000   0.00000   0.00000
 150       56F 0        0.01129   0.00564   0.00564   0.00000
 151       56F+1        0.00001   0.00001   0.00001   0.00000
 152       56F-1        0.00001   0.00001   0.00001   0.00000
 153       56F+2        0.00000   0.00000   0.00000   0.00000
 154       56F-2        0.00000   0.00000   0.00000   0.00000
 155       56F+3       -0.00000  -0.00000  -0.00000   0.00000
 156       56F-3        0.00000   0.00000   0.00000   0.00000
 157       57F 0        0.00205   0.00102   0.00102   0.00000
 158       57F+1        0.00000   0.00000   0.00000   0.00000
 159       57F-1        0.00000   0.00000   0.00000   0.00000
 160       57F+2        0.00000   0.00000   0.00000   0.00000
 161       57F-2        0.00000   0.00000   0.00000   0.00000
 162       57F+3        0.00000   0.00000   0.00000   0.00000
 163       57F-3        0.00000   0.00000   0.00000   0.00000
 164       58G 0        0.00000   0.00000   0.00000   0.00000
 165       58G+1        0.00000   0.00000   0.00000   0.00000
 166       58G-1        0.00000   0.00000   0.00000   0.00000
 167       58G+2        0.00000   0.00000   0.00000   0.00000
 168       58G-2        0.00000   0.00000   0.00000   0.00000
 169       58G+3       -0.00000  -0.00000  -0.00000  -0.00000
 170       58G-3        0.00000   0.00000   0.00000   0.00000
 171       58G+4        0.00000   0.00000   0.00000   0.00000
 172       58G-4        0.00000   0.00000   0.00000   0.00000
 173       59G 0        0.00043   0.00021   0.00021   0.00000
 174       59G+1        0.00000   0.00000   0.00000  -0.00000
 175       59G-1        0.00000   0.00000   0.00000   0.00000
 176       59G+2       -0.00000  -0.00000  -0.00000  -0.00000
 177       59G-2       -0.00000  -0.00000  -0.00000  -0.00000
 178       59G+3        0.00000   0.00000   0.00000   0.00000
 179       59G-3       -0.00000  -0.00000  -0.00000  -0.00000
 180       59G+4        0.00000   0.00000   0.00000   0.00000
 181       59G-4        0.00000   0.00000   0.00000   0.00000
 182       60G 0        0.00133   0.00067   0.00067   0.00000
 183       60G+1       -0.00000  -0.00000  -0.00000   0.00000
 184       60G-1       -0.00000  -0.00000  -0.00000  -0.00000
 185       60G+2        0.00000   0.00000   0.00000   0.00000
 186       60G-2        0.00000   0.00000   0.00000   0.00000
 187       60G+3        0.00000   0.00000   0.00000   0.00000
 188       60G-3        0.00000   0.00000   0.00000   0.00000
 189       60G+4       -0.00000  -0.00000  -0.00000  -0.00000
 190       60G-4        0.00000   0.00000   0.00000   0.00000
 191 2   H  1S          0.00066   0.00033   0.00033   0.00000
 192        2S          0.02314   0.01157   0.01157   0.00000
 193        3S          0.17522   0.08761   0.08761   0.00000
 194        4S          0.58295   0.29148   0.29148   0.00000
 195        5S          0.50306   0.25153   0.25153   0.00000
 196        6S          0.01698   0.00849   0.00849   0.00000
 197        7PX         0.00000   0.00000   0.00000   0.00000
 198        7PY         0.00000   0.00000   0.00000   0.00000
 199        7PZ         0.00048   0.00024   0.00024   0.00000
 200        8PX         0.00002   0.00001   0.00001   0.00000
 201        8PY         0.00002   0.00001   0.00001   0.00000
 202        8PZ         0.00893   0.00446   0.00446   0.00000
 203        9PX         0.00025   0.00013   0.00013   0.00000
 204        9PY         0.00025   0.00013   0.00013   0.00000
 205        9PZ         0.00384   0.00192   0.00192   0.00000
 206       10D 0        0.00018   0.00009   0.00009   0.00000
 207       10D+1        0.00000   0.00000   0.00000   0.00000
 208       10D-1        0.00000   0.00000   0.00000   0.00000
 209       10D+2       -0.00000  -0.00000  -0.00000  -0.00000
 210       10D-2       -0.00000  -0.00000  -0.00000  -0.00000
 211       11D 0        0.00083   0.00041   0.00041   0.00000
 212       11D+1        0.00004   0.00002   0.00002   0.00000
 213       11D-1        0.00004   0.00002   0.00002   0.00000
 214       11D+2        0.00000   0.00000   0.00000   0.00000
 215       11D-2        0.00000   0.00000   0.00000   0.00000
          Condensed to atoms (all electrons):
               1          2
     1  Sc  10.349762   0.333347
     2  H    0.333347   0.983543
          Atomic-Atomic Spin Densities.
               1          2
     1  Sc   0.000000   0.000000
     2  H    0.000000   0.000000
 Mulliken charges and spin densities:
               1          2
     1  Sc   0.316890   0.000000
     2  H   -0.316890   0.000000
 Sum of Mulliken charges =  -0.00000   0.00000
 Mulliken charges and spin densities with hydrogens summed into heavy atoms:
               1          2
     1  Sc  -0.000000   0.000000
 Electronic spatial extent (au):  <R**2>=             68.5958
 Charge=             -0.0000 electrons
 Dipole moment (field-independent basis, Debye):
    X=              0.0000    Y=              0.0000    Z=              2.2019  Tot=              2.2019
 Quadrupole moment (field-independent basis, Debye-Ang):
   XX=            -22.9729   YY=            -22.9729   ZZ=            -28.3753
   XY=              0.0000   XZ=              0.0000   YZ=              0.0000
 Traceless Quadrupole moment (field-independent basis, Debye-Ang):
   XX=              1.8008   YY=              1.8008   ZZ=             -3.6016
   XY=              0.0000   XZ=              0.0000   YZ=              0.0000
 Octapole moment (field-independent basis, Debye-Ang**2):
  XXX=              0.0000  YYY=              0.0000  ZZZ=             10.2916  XYY=              0.0000
  XXY=              0.0000  XXZ=             -2.3780  XZZ=              0.0000  YZZ=              0.0000
  YYZ=             -2.3780  XYZ=              0.0000
 Hexadecapole moment (field-independent basis, Debye-Ang**3):
 XXXX=            -69.0721 YYYY=            -69.0721 ZZZZ=           -129.5244 XXXY=              0.0000
 XXXZ=              0.0000 YYYX=              0.0000 YYYZ=              0.0000 ZZZX=              0.0000
 ZZZY=              0.0000 XXYY=            -23.0240 XXZZ=            -30.2980 YYZZ=            -30.2980
 XXYZ=              0.0000 YYXZ=              0.0000 ZZXY=              0.0000
 N-N= 2.910474660060D+00 E-N=-9.980215929474D+01  KE= 1.756365818289D+01
 Symmetry A1   KE= 9.189555460604D+00
 Symmetry A2   KE= 1.760414777104D-48
 Symmetry B1   KE= 4.187051361097D+00
 Symmetry B2   KE= 4.187051361243D+00
 Symmetry A1   SP= 1.116193993547D-15
 Symmetry A2   SP= 1.624404972886D-64
 Symmetry B1   SP= 3.175932680953D-17
 Symmetry B2   SP= 1.146609535094D-16
 Orbital energies and kinetic energies (alpha):
                                 1                 2
   2         O                -1.682900          2.093526
   3         O                -1.682900          2.093526
   4         O                -1.681040          2.103617
   5         O                -0.379891          0.585138
   6         O                -0.239343          0.734575
   7         V                 0.010304          0.084841
   8         V                 0.010304          0.084841
   9         V                 0.013276          0.293762
  10         V                 0.022733          0.049317
  11         V                 0.035821          0.073615
 Total kinetic energy from orbitals= 1.756365818289D+01
                          Isotropic Fermi Contact Couplings
        Atom                 a.u.       MegaHertz       Gauss      10(-4) cm-1
     1  Sc(45)             0.00000       0.00000       0.00000       0.00000
     2  H(1)               0.00000       0.00000       0.00000       0.00000
 --------------------------------------------------------
       Center         ----  Spin Dipole Couplings  ----
                      3XX-RR        3YY-RR        3ZZ-RR
 --------------------------------------------------------
     1   Atom        0.000000      0.000000      0.000000
     2   Atom        0.000000      0.000000      0.000000
 --------------------------------------------------------
                        XY            XZ            YZ
 --------------------------------------------------------
     1   Atom        0.000000      0.000000      0.000000
     2   Atom        0.000000      0.000000      0.000000
 --------------------------------------------------------


 ---------------------------------------------------------------------------------
              Anisotropic Spin Dipole Couplings in Principal Axis System
 ---------------------------------------------------------------------------------

       Atom             a.u.   MegaHertz   Gauss  10(-4) cm-1        Axes

              Baa     0.0000     0.000     0.000     0.000  1.0000  0.0000  0.0000
     1 Sc(45) Bbb     0.0000     0.000     0.000     0.000 -0.0000  1.0000  0.0000
              Bcc     0.0000     0.000     0.000     0.000  0.0000  0.0000  1.0000
 
              Baa     0.0000     0.000     0.000     0.000  1.0000  0.0000  0.0000
     2 H(1)   Bbb     0.0000     0.000     0.000     0.000 -0.0000  1.0000  0.0000
              Bcc     0.0000     0.000     0.000     0.000  0.0000  0.0000  1.0000
 

 ---------------------------------------------------------------------------------

 No NMR shielding tensors so no spin-rotation constants.
 Leave Link  601 at Wed Feb 14 08:09:49 2018, MaxMem=  8589934592 cpu:              66.4 elap:               2.2
 (Enter /home1/apps/gaussian/16rA.03/g16/l9999.exe)

 Test job not archived.
 1\1\GINC-C402-093\SP\ROCCSD(T)-Full\Gen\H1Sc1\AANNABE\14-Feb-2018\0\\#
 P ROCCSD(T)=(maxcyc=150, Full)/Gen 5d 7f SCF=(maxcycles=300) Integral(
 NoXCTest) MaxDisk=500GB Pop=Regular Pseudo=Read IOp(5/15=2) Guess=Read
 \\ScH\\0,1\Sc,0,0.,0.,0.\H,0,0.,0.,2.\\Version=ES64L-G16RevA.03\State=
 1-SG\HF=-46.59008\MP2=-46.9938755\MP3=-47.0197644\PUHF=-46.59008\PMP2-
 0=-46.9938755\MP4SDQ=-47.0219393\CCSD=-47.0220757\CCSD(T)=-47.0409266\
 RMSD=3.836e-09\PG=C*V [C*(H1Sc1)]\\@


 ... FOR AFTERWARDS A MAN FINDS PLEASURE IN HIS PAINS,
 WHEN HE HAS SUFFERED LONG AND WANDERED FAR.

                                    -- HOMER
 Job cpu time:       0 days  3 hours 27 minutes 23.0 seconds.
 Elapsed time:       0 days  0 hours  6 minutes 30.7 seconds.
 File lengths (MBytes):  RWF=   1913 Int=      0 D2E=      0 Chk=      6 Scr=      1
 Normal termination of Gaussian 16 at Wed Feb 14 08:09:50 2018.
