
 Primary working directories    : /tmp/cmelton
 Secondary working directories  : /tmp/cmelton
 Wavefunction directory         : /remote/cmelton/wfu/
 Main file repository           : /tmp/cmelton/

 SHA1      : 4c1979699e6aeda0524d0210415ba82a958648b0
 NAME      : 2012.1.39
 ARCHNAME  : Linux/x86_64
 FC        : /projects/sems/install/rhel6-x86_64/sems/compiler/intel/16.0.1/base/bin/ifort
 FCVERSION : 16.0.1
 BLASLIB   : -L/projects/sems/install/rhel6-x86_64/sems/compiler/intel/16.0.1/base/compilers_and_libraries_2016.1.150/linux/mkl/lib/intel64 -lmkl_intel_ilp64 -lmkl_sequential -lmkl_core
 id        : sandiacon

 Nodes             nprocs
 s989256.sandia.gov    1

 Using customized tuning parameters: mindgm=7; mindgv=16; mindgc=1; mindgr=1; noblas=0; minvec=7
 default implementation of scratch files=df  

 ***,Calculation for Be atom, singlet and triplet
 memory,512,m
 gthresh,twoint=1.e-12
 geometry={
 1
 Mn
 Mn  0.0 0.0 0.0
 }
 
 basis={
 ecp,Mn,10,2,0
 4
 1,2.19193743333594e+01, 15.000
 3,2.13552712793287e+01, 328.79061500039097
 2,2.12716265399047e+01,-1.62051728053531e+02
 2,7.93913962228987e+00,-1.82694272662286e+00
 2
 2,1.89204496586198e+01, 2.44668704927046e+02
 2,8.32764757132573e+00, 3.35416271719809e+01
 2
 2,2.01734702034533e+01, 1.62350336855005e+02
 2,7.80047874086443e+00, 2.41795669512888e+01
 Including file /remote/cmelton/data/corrECP/Mn/gani_cc121/basis/aug-cc-pwCVTZ-dk.basis
 }
 
 
 Including file /remote/cmelton/data/corrECP/Mn/gani_cc121/basis/states.proc
 
 do i=1,13
    if (i.eq.1) then
       Is2d5
    else if (i.eq.2) then
       Is1d6
    else if (i.eq.3) then
       Id7
    else if (i.eq.4) then
       IIs1d5
    else if (i.eq.5) then
       IId6
    else if (i.eq.6) then
       IIId5
    else if (i.eq.7) then
       IVd4
    else if (i.eq.8) then
       Vd3
    else if (i.eq.9) then
       VId2
    else if (i.eq.10) then
       VIId1
    else if (i.eq.11) then
       VIII
    else if (i.eq.12) then
       XIV
    else if (i.eq.13) then
       As2d6
    endif
    scf(i)=energy
     _CC_NORM_MAX=2.0
     {rccsd(t),maxit=100;core}
     ccsd(i)=energy
 enddo
 
 table,scf,ccsd
 save
 type,csv

 Variables initialized (782), CPU time= 0.01 sec
 Commands  initialized (547), CPU time= 0.01 sec, 517 directives.
 Default parameters read. Elapsed time= 0.30 sec

 Checking input...
 Passed
1


                                         ***  PROGRAM SYSTEM MOLPRO  ***
                         Copyright, University College Cardiff Consultants Limited, 2008

                                    Version 2012.1 linked Aug  2 2016 14:07:26


 **********************************************************************************************************************************
 LABEL *   Calculation for Be atom, singlet and triplet                                  
 Linux-3.10.0-693.21.1.el7.x86_64/s989256.sandia.gov(x86_64) 64 bit serial version       DATE: 04-May-18          TIME: 13:00:25  
 **********************************************************************************************************************************

 SHA1:             4c1979699e6aeda0524d0210415ba82a958648b0
 **********************************************************************************************************************************

 THRESHOLDS:

 ZERO    =  1.00D-12  ONEINT  =  1.00D-12  TWOINT  =  1.00D-12  PREFAC  =  1.00D-14  LOCALI  =  1.00D-09  EORDER  =  1.00D-04
 ENERGY  =  0.00D+00  ETEST   =  0.00D+00  EDENS   =  0.00D+00  THRDEDEF=  1.00D-06  GRADIENT=  1.00D-02  STEP    =  1.00D-03
 ORBITAL =  1.00D-05  CIVEC   =  1.00D-05  COEFF   =  1.00D-04  PRINTCI =  5.00D-02  PUNCHCI =  9.90D+01  OPTGRAD =  3.00D-04
 OPTENERG=  1.00D-06  OPTSTEP =  3.00D-04  THRGRAD =  1.00D-10  COMPRESS=  1.00D-11  VARMIN  =  1.00D-07  VARMAX  =  1.00D-03
 THRDOUB =  0.00D+00  THRDIV  =  1.00D-05  THRRED  =  1.00D-07  THRPSP  =  1.00D+00  THRDC   =  1.00D-10  THRCS   =  1.00D-10
 THRNRM  =  1.00D-08  THREQ   =  0.00D+00  THRDE   =  1.00D+00  THRREF  =  1.00D-05  SPARFAC =  1.00D+00  THRDLP  =  1.00D-07
 THRDIA  =  1.00D-10  THRDLS  =  1.00D-07  THRGPS  =  0.00D+00  THRKEX  =  0.00D+00  THRDIS  =  2.00D-01  THRVAR  =  1.00D-10
 THRLOC  =  1.00D-06  THRGAP  =  1.00D-06  THRLOCT = -1.00D+00  THRGAPT = -1.00D+00  THRORB  =  1.00D-06  THRMLTP =  0.00D+00
 THRCPQCI=  1.00D-10  KEXTA   =  0.00D+00  THRCOARS=  0.00D+00  SYMTOL  =  1.00D-06  GRADTOL =  1.00D-06  THROVL  =  1.00D-08
 THRORTH =  1.00D-08  GRID    =  1.00D-06  GRIDMAX =  1.00D-03  DTMAX   =  0.00D+00  THROCCDE=  1.00D-01  THROCCDE=  1.00D-01



Geometry recognized as XYZ


 Variable memory set to  512000000 words,  buffer space   230000 words

 SETTING BASIS          =    USERDEF

 DO I                   =         1.00000000   

 Running procedure=IS2D5


 Recomputing integrals since basis changed


 Using spherical harmonics


1PROGRAM * SEWARD (Integral evaluation for generally contracted gaussian basis sets)     Author: Roland Lindh, 1990

 Geometry written to block  1 of record 700

 Orientation using atomic masses  
 Molecule type: Atom
 Symmetry elements: X,Y,Z
 Rotational constants:       0.0000000      0.0000000      0.0000000 GHz  (calculated with average atomic masses)

 Point group  D2h 



 ATOMIC COORDINATES

 NR  ATOM    CHARGE       X              Y              Z

   1  MN     15.00    0.000000000    0.000000000    0.000000000

 NUCLEAR CHARGE:                   15
 NUMBER OF PRIMITIVE AOS:         231
 NUMBER OF SYMMETRY AOS:          190
 NUMBER OF CONTRACTIONS:          190   (  54Ag  +  27B3u +  27B2u +  17B1g +  27B1u +  17B2g +  17B3g +   4Au  )
 NUMBER OF CORE ORBITALS:           4   (   1Ag  +   1B3u +   1B2u +   0B1g +   1B1u +   0B2g +   0B3g +   0Au  )
 NUMBER OF VALENCE ORBITALS:        6   (   3Ag  +   0B3u +   0B2u +   1B1g +   0B1u +   1B2g +   1B3g +   0Au  )


 NUCLEAR REPULSION ENERGY    0.00000000

 EXTRA SYMMETRY OF AOS IN SYMMETRY 1:   1 1 1 1 1 1 1 1 1 1   1 1 1 1 1 1 1 1 1 1   1 1 1 2 3 2 3 2 3 2   3 2 3 2 3 2 3 2 3 2
                                        3 2 3 2 3 4 5 6 4 5   6 4 5 6
 EXTRA SYMMETRY OF AOS IN SYMMETRY 2:   1 1 1 1 1 1 1 1 1 1   1 1 1 1 1 1 1 1 1 2   3 2 3 2 3 2 3
 EXTRA SYMMETRY OF AOS IN SYMMETRY 3:   1 1 1 1 1 1 1 1 1 1   1 1 1 1 1 1 1 1 1 2   3 2 3 2 3 2 3
 EXTRA SYMMETRY OF AOS IN SYMMETRY 4:   1 1 1 1 1 1 1 1 1 1   1 2 3 2 3 2 3
 EXTRA SYMMETRY OF AOS IN SYMMETRY 5:   1 1 1 1 1 1 1 1 1 1   1 1 1 1 1 1 1 1 1 2   3 2 3 2 3 2 3
 EXTRA SYMMETRY OF AOS IN SYMMETRY 6:   1 1 1 1 1 1 1 1 1 1   1 2 3 2 3 2 3
 EXTRA SYMMETRY OF AOS IN SYMMETRY 7:   1 1 1 1 1 1 1 1 1 1   1 2 3 2 3 2 3

 Eigenvalues of metric

         1 0.155E-05 0.155E-05 0.695E-05 0.818E-04 0.282E-03 0.282E-03 0.596E-03 0.167E-02
         2 0.177E-06 0.321E-05 0.122E-02 0.474E-02 0.116E-01 0.244E-01 0.435E-01 0.790E-01
         3 0.177E-06 0.321E-05 0.122E-02 0.474E-02 0.116E-01 0.244E-01 0.435E-01 0.790E-01
         4 0.155E-05 0.282E-03 0.546E-01 0.121E+00 0.254E+00 0.328E+00 0.328E+00 0.450E+00
         5 0.177E-06 0.321E-05 0.122E-02 0.474E-02 0.116E-01 0.244E-01 0.435E-01 0.790E-01
         6 0.155E-05 0.282E-03 0.546E-01 0.121E+00 0.254E+00 0.328E+00 0.328E+00 0.450E+00
         7 0.155E-05 0.282E-03 0.546E-01 0.121E+00 0.254E+00 0.328E+00 0.328E+00 0.450E+00
         8 0.211E+00 0.554E+00 0.124E+01 0.200E+01


 Contracted 2-electron integrals neglected if value below      1.0D-13
 AO integral compression algorithm  1   Integral accuracy      1.0D-13

     170.656 MB (compressed) written to integral file ( 54.5%)


 NUMBER OF SORTED TWO-ELECTRON INTEGRALS:   21725389.     BUFFER LENGTH:  32768
 NUMBER OF SEGMENTS:   2  SEGMENT LENGTH:   15999094      RECORD LENGTH: 524288

 Memory used in sort:      16.56 MW

 SORT1 READ    39142000. AND WROTE    14902824. INTEGRALS IN     44 RECORDS. CPU TIME:     0.69 SEC, REAL TIME:     0.83 SEC
 SORT2 READ    14902824. AND WROTE    21725389. INTEGRALS IN    651 RECORDS. CPU TIME:     0.42 SEC, REAL TIME:     0.53 SEC

 FILE SIZES:   FILE 1:   179.1 MBYTE,  FILE 4:   184.6 MBYTE,   TOTAL:    363.7 MBYTE

 OPERATOR DM      FOR CENTER  0  COORDINATES:    0.000000    0.000000    0.000000


 **********************************************************************************************************************************
 DATASETS  * FILE   NREC   LENGTH (MB)   RECORD NAMES
              1      20       94.94       500      610      700      900      950      970     1000      129      960     1100   
                                          VAR    BASINP    GEOM    SYMINP    ZMAT    AOBASIS   BASIS     P2S    ABASIS      S 
                                         1400     1410     1420     1200     1210     1080     1600     1650     1300     1700   
                                           T        V       ECP      H0       H01     AOSYM     SMH    MOLCAS    ERIS     OPER   

 PROGRAMS   *        TOTAL       INT
 CPU TIMES  *        10.50     10.22
 REAL TIME  *        11.79 SEC
 DISK USED  *       366.58 MB      
 **********************************************************************************************************************************

1PROGRAM * RHF-SCF (OPEN SHELL)       Authors: W. Meyer, H.-J. Werner


 NUMBER OF ELECTRONS:      10+    5-    SPACE SYMMETRY=1    SPIN SYMMETRY: Sextet  
 CONVERGENCE THRESHOLDS:    1.00E-05 (Density)    1.00E-07 (Energy)
 MAX. NUMBER OF ITERATIONS:       60
 INTERPOLATION TYPE:            DIIS
 INTERPOLATION STEPS:              2 (START)      1 (STEP)
 LEVEL SHIFTS:                 -0.30 (CLOSED)  0.00 (OPEN) 


 Singly occupied orbitals:      3.1       4.1       1.4       1.6       1.7
 
 Extra symmetries of mos in symmetry 1:   1   1   3   2
 Orbital guess generated from atomic densities. Full valence occupancy:    4   1   1   1   1   1   1   0


 Molecular orbital dump at record        4202.2

 ITERATION    DDIFF          GRAD             ENERGY        2-EL.EN.            DIPOLE MOMENTS         DIIS   ORB.
    1      0.000D+00      0.000D+00      -103.05287169    145.441995    0.00000    0.00000    0.00000    0    start
    2      0.000D+00      0.229D-01      -103.19666635    157.238405    0.00000    0.00000    0.00000    1    diag,B
    3      0.212D-01      0.193D-01      -103.24000526    154.368850    0.00000    0.00000    0.00000    2    diag,B
    4      0.619D-02      0.458D-02      -103.24324810    153.743810    0.00000    0.00000    0.00000    3    diag,B
    5      0.500D-02      0.648D-03      -103.24346301    153.651806    0.00000    0.00000    0.00000    4    diag,B
    6      0.169D-02      0.117D-03      -103.24348902    153.614205    0.00000    0.00000    0.00000    5    diag,B
    7      0.504D-03      0.413D-04      -103.24349323    153.595313    0.00000    0.00000    0.00000    6    fixocc
    8      0.275D-03      0.131D-04      -103.24349368    153.592152    0.00000    0.00000    0.00000    7    diag,B
    9      0.167D-03      0.351D-05      -103.24349371    153.591056    0.00000    0.00000    0.00000    8    diag,B
   10      0.175D-04      0.127D-05      -103.24349372    153.591047    0.00000    0.00000    0.00000    9    orth
   11      0.211D-04      0.263D-06      -103.24349372    153.590997    0.00000    0.00000    0.00000    9    diag,B
   12      0.426D-05      0.425D-07      -103.24349372    153.591007    0.00000    0.00000    0.00000    0    orth

 Final alpha occupancy:   4   1   1   1   1   1   1   0
 Final beta  occupancy:   2   1   1   0   1   0   0   0

 !RHF STATE 1.1 Energy               -103.243493717542
 Nuclear energy                         0.00000000
 One-electron energy                 -180.03899729
 Two-electron energy                   76.79550357
 Virial quotient                       -1.79687837
 !RHF STATE 1.1 Dipole moment           0.00000000     0.00000000     0.00000000
 Dipole moment /Debye                   0.00000000     0.00000000     0.00000000

 ELECTRON ORBITALS
 =================


   Orb  Occ    Energy  Couls-En    Coefficients

                                   1 1s      1 1s      1 1s      1 1s      1 1s      1 1s      1 1s      1 1s      1 1s      1 1s   
                                   1 1s      1 1s      1 1s      1 1s      1 1s      1 1s      1 1s      1 1s      1 1s      1 1s   
                                   1 1s      1 1s      1 1s      1 3d0     1 3d2+    1 3d0     1 3d2+    1 3d0     1 3d2+    1 3d0  
                                   1 3d2+    1 3d0     1 3d2+    1 3d0     1 3d2+    1 3d0     1 3d2+    1 3d0     1 3d2+    1 3d0  
                                   1 3d2+    1 3d0     1 3d2+    1 3d0     1 3d2+    1 5g0     1 5g4+    1 5g2+    1 5g0     1 5g4+ 
                                   1 5g2+    1 5g0     1 5g4+    1 5g2+ 

   1.1   2    -3.9198  -19.3098 -0.000000  0.000000 -0.000000  0.000003 -0.000012  0.000045 -0.000160  0.000520 -0.001578  0.004620
                                -0.013829  0.044037  0.020607 -0.545686 -0.035979  0.854363  0.401076  0.012657 -0.006356  0.002453
                                 0.216815 -0.092558 -0.000620 -0.000000 -0.000000  0.000000 -0.000000 -0.000000 -0.000000  0.000000
                                -0.000000 -0.000000  0.000000  0.000000 -0.000000 -0.000000 -0.000000  0.000000 -0.000000 -0.000000
                                 0.000000  0.000000 -0.000000 -0.000000  0.000000  0.000000  0.000000  0.000000 -0.000000  0.000000
                                 0.000000  0.000000 -0.000000 -0.000000

   2.1   2    -0.2508   -5.2937  0.000000 -0.000000  0.000000 -0.000001  0.000003 -0.000011  0.000039 -0.000126  0.000383 -0.001126
                                 0.003400 -0.011175 -0.003309  0.140047  0.007768 -0.264252 -0.250425  0.347968  0.556008  0.256124
                                -0.059955  0.020025 -0.000677  0.000000  0.000000 -0.000000  0.000000  0.000000  0.000000 -0.000000
                                 0.000000  0.000000  0.000000 -0.000000  0.000000  0.000000  0.000000  0.000000  0.000000  0.000000
                                 0.000000 -0.000000 -0.000000  0.000000  0.000000  0.000000 -0.000000 -0.000000  0.000000  0.000000
                                -0.000000  0.000000 -0.000000 -0.000000

   3.1   +    -0.6291  -11.8117  0.000000 -0.000000  0.000000 -0.000000  0.000000  0.000000 -0.000000  0.000000 -0.000000  0.000000
                                -0.000000  0.000000 -0.000000 -0.000000  0.000000 -0.000000 -0.000000 -0.000000 -0.000000 -0.000000
                                -0.000000  0.000000  0.000000  0.000139  0.000265  0.012435  0.023637  0.047863  0.090983  0.100840
                                 0.191686  0.248605  0.472571  0.173487  0.329780  0.093225  0.177210  0.012102  0.023004  0.016073
                                 0.030553 -0.076277 -0.144993 -0.000571 -0.001086 -0.000000 -0.000000  0.000000 -0.000000 -0.000000
                                -0.000000  0.000000 -0.000000  0.000000

   4.1   +    -0.6291  -11.8117 -0.000000  0.000000  0.000000 -0.000000  0.000000 -0.000000  0.000000 -0.000000  0.000000 -0.000000
                                 0.000000 -0.000000  0.000000 -0.000000 -0.000000  0.000000  0.000000  0.000000 -0.000000 -0.000000
                                 0.000000 -0.000000 -0.000000 -0.000265  0.000139 -0.023637  0.012435 -0.090983  0.047863 -0.191686
                                 0.100840 -0.472571  0.248605 -0.329780  0.173487 -0.177210  0.093225 -0.023004  0.012102 -0.030553
                                 0.016073  0.144993 -0.076277  0.001086 -0.000571  0.000000  0.000000  0.000000  0.000000 -0.000000
                                -0.000000 -0.000000 -0.000000  0.000000

   5.1   0     0.0266   -1.5628  0.000000 -0.000000  0.000000 -0.000000  0.000000 -0.000002  0.000006 -0.000018  0.000049 -0.000116
                                 0.000174 -0.000215  0.010748 -0.085230 -0.232479  0.525779  0.288432 -0.506213  1.000291 -2.536997
                                 0.194476 -0.541051  2.464896  0.000000 -0.000000 -0.000000 -0.000000  0.000000 -0.000000 -0.000000
                                -0.000000  0.000000  0.000000 -0.000000 -0.000000  0.000000  0.000000 -0.000000 -0.000000  0.000000
                                 0.000000 -0.000000 -0.000000  0.000000  0.000000 -0.000000 -0.000000  0.000000  0.000000  0.000000
                                -0.000000 -0.000000 -0.000000 -0.000000

   6.1   0     0.0897   -1.8407  0.000000 -0.000000  0.000000 -0.000000  0.000000 -0.000000  0.000000 -0.000000  0.000000 -0.000000
                                 0.000000 -0.000000  0.000000 -0.000000 -0.000000  0.000000  0.000000  0.000000  0.000000  0.000000
                                 0.000000 -0.000000 -0.000000  0.000008  0.000012 -0.000900 -0.001271 -0.001914 -0.002704 -0.049315
                                -0.069667  0.737225  1.041479 -0.034683 -0.048996  0.035927  0.050754 -0.107462 -0.151812  0.054916
                                 0.077580 -0.749095 -1.058247  0.631737  0.892456  0.000000  0.000000 -0.000000 -0.000000 -0.000000
                                -0.000000  0.000000  0.000000  0.000000

                                   1 2px     1 2px     1 2px     1 2px     1 2px     1 2px     1 2px     1 2px     1 2px     1 2px  
                                   1 2px     1 2px     1 2px     1 2px     1 2px     1 2px     1 2px     1 2px     1 2px     1 4f1+ 
                                   1 4f3+    1 4f1+    1 4f3+    1 4f1+    1 4f3+    1 4f1+    1 4f3+ 

   1.2   2    -2.4935  -16.3703  0.000000 -0.000002  0.000013 -0.000059  0.000230 -0.000848  0.003223  0.000236 -0.090015 -0.026608
                                 0.333959  0.350355  0.284967  0.041263 -0.003002  0.001766  0.055152  0.110226 -0.000514 -0.000000
                                -0.000000  0.000000  0.000000 -0.000000 -0.000000  0.000000  0.000000

   2.2   0     0.0185   -2.2249  0.000000 -0.000000  0.000001 -0.000004  0.000013 -0.000037  0.000072 -0.001152  0.013117  0.120528
                                -0.064657 -1.521448  0.014536 -0.003803  0.258001 -0.048761 -0.115293  1.471849  0.923280 -0.000000
                                -0.000000  0.000000 -0.000000  0.000000  0.000000  0.000000  0.000000

   3.2   0     0.0658   -2.5900 -0.000000  0.000002 -0.000009  0.000040 -0.000151  0.000516 -0.001731  0.004497 -0.008662 -0.441514
                                 0.079464  5.406367 -0.207546  0.242527 -0.124752  1.510433  0.405544 -5.454909 -1.278949  0.000000
                                -0.000000 -0.000000 -0.000000 -0.000000 -0.000000  0.000000  0.000000

                                   1 2py     1 2py     1 2py     1 2py     1 2py     1 2py     1 2py     1 2py     1 2py     1 2py  
                                   1 2py     1 2py     1 2py     1 2py     1 2py     1 2py     1 2py     1 2py     1 2py     1 4f1- 
                                   1 4f3-    1 4f1-    1 4f3-    1 4f1-    1 4f3-    1 4f1-    1 4f3- 

   1.3   2    -2.4935  -16.3703  0.000000 -0.000002  0.000013 -0.000059  0.000230 -0.000848  0.003223  0.000236 -0.090015 -0.026608
                                 0.333959  0.350355  0.284967  0.041263 -0.003002  0.001766  0.055152  0.110226 -0.000514 -0.000000
                                -0.000000  0.000000 -0.000000 -0.000000 -0.000000  0.000000  0.000000

   2.3   0     0.0185   -2.2249  0.000000 -0.000000  0.000001 -0.000004  0.000013 -0.000037  0.000072 -0.001152  0.013117  0.120528
                                -0.064657 -1.521448  0.014536 -0.003803  0.258001 -0.048761 -0.115293  1.471849  0.923280 -0.000000
                                -0.000000  0.000000 -0.000000  0.000000 -0.000000  0.000000  0.000000

   3.3   0     0.0658   -2.5900 -0.000000  0.000002 -0.000009  0.000040 -0.000151  0.000516 -0.001731  0.004497 -0.008662 -0.441514
                                 0.079464  5.406367 -0.207546  0.242527 -0.124752  1.510433  0.405544 -5.454909 -1.278949  0.000000
                                -0.000000 -0.000000 -0.000000 -0.000000 -0.000000  0.000000 -0.000000

                                   1 3d2-    1 3d2-    1 3d2-    1 3d2-    1 3d2-    1 3d2-    1 3d2-    1 3d2-    1 3d2-    1 3d2- 
                                   1 3d2-    1 5g2-    1 5g4-    1 5g2-    1 5g4-    1 5g2-    1 5g4- 

   1.4   +    -0.6291  -11.8117  0.000299  0.026708  0.102804  0.216593  0.533974  0.372630  0.200235  0.025994  0.034523 -0.163833
                                -0.001227  0.000000 -0.000000 -0.000000 -0.000000  0.000000 -0.000000

   2.4   0     0.0897   -1.8407  0.000015 -0.001558 -0.003313 -0.085355  1.276002 -0.060029  0.062183 -0.185997  0.095050 -1.296546
                                 1.093421 -0.000000  0.000000 -0.000000 -0.000000  0.000000  0.000000

   3.4   0     0.3118   -2.9766 -0.000173 -0.005104 -0.029371  0.217985 -4.814062  0.076707 -0.270527  1.389355 -0.353458  4.740431
                                -0.665657  0.000000 -0.000000  0.000000 -0.000000 -0.000000 -0.000000

                                   1 2pz     1 2pz     1 2pz     1 2pz     1 2pz     1 2pz     1 2pz     1 2pz     1 2pz     1 2pz  
                                   1 2pz     1 2pz     1 2pz     1 2pz     1 2pz     1 2pz     1 2pz     1 2pz     1 2pz     1 4f0  
                                   1 4f2+    1 4f0     1 4f2+    1 4f0     1 4f2+    1 4f0     1 4f2+ 

   1.5   2    -2.4935  -16.3703  0.000000 -0.000002  0.000013 -0.000059  0.000230 -0.000848  0.003223  0.000236 -0.090015 -0.026608
                                 0.333959  0.350355  0.284967  0.041263 -0.003002  0.001766  0.055152  0.110226 -0.000514 -0.000000
                                -0.000000  0.000000  0.000000 -0.000000  0.000000  0.000000 -0.000000

   2.5   0     0.0185   -2.2249  0.000000 -0.000000  0.000001 -0.000004  0.000013 -0.000037  0.000072 -0.001152  0.013117  0.120528
                                -0.064657 -1.521448  0.014536 -0.003803  0.258001 -0.048761 -0.115293  1.471849  0.923280 -0.000000
                                -0.000000  0.000000 -0.000000 -0.000000  0.000000  0.000000  0.000000

   3.5   0     0.0658   -2.5900 -0.000000  0.000002 -0.000009  0.000040 -0.000151  0.000516 -0.001731  0.004497 -0.008662 -0.441514
                                 0.079464  5.406367 -0.207546  0.242527 -0.124752  1.510433  0.405544 -5.454909 -1.278949  0.000000
                                -0.000000 -0.000000 -0.000000  0.000000 -0.000000 -0.000000 -0.000000

                                   1 3d1+    1 3d1+    1 3d1+    1 3d1+    1 3d1+    1 3d1+    1 3d1+    1 3d1+    1 3d1+    1 3d1+ 
                                   1 3d1+    1 5g1+    1 5g3+    1 5g1+    1 5g3+    1 5g1+    1 5g3+ 

   1.6   +    -0.6291  -11.8117  0.000299  0.026708  0.102804  0.216593  0.533974  0.372630  0.200235  0.025994  0.034523 -0.163833
                                -0.001227 -0.000000  0.000000 -0.000000  0.000000  0.000000 -0.000000

   2.6   0     0.0897   -1.8407  0.000015 -0.001558 -0.003313 -0.085355  1.276002 -0.060029  0.062183 -0.185997  0.095050 -1.296546
                                 1.093421  0.000000 -0.000000 -0.000000  0.000000  0.000000 -0.000000

   3.6   0     0.3118   -2.9766 -0.000173 -0.005104 -0.029371  0.217985 -4.814062  0.076707 -0.270527  1.389355 -0.353458  4.740431
                                -0.665657 -0.000000  0.000000  0.000000 -0.000000 -0.000000  0.000000

                                   1 3d1-    1 3d1-    1 3d1-    1 3d1-    1 3d1-    1 3d1-    1 3d1-    1 3d1-    1 3d1-    1 3d1- 
                                   1 3d1-    1 5g1-    1 5g3-    1 5g1-    1 5g3-    1 5g1-    1 5g3- 

   1.7   +    -0.6291  -11.8117  0.000299  0.026708  0.102804  0.216593  0.533974  0.372630  0.200235  0.025994  0.034523 -0.163833
                                -0.001227 -0.000000  0.000000 -0.000000 -0.000000  0.000000 -0.000000

   2.7   0     0.0897   -1.8407  0.000015 -0.001558 -0.003313 -0.085355  1.276002 -0.060029  0.062183 -0.185997  0.095050 -1.296546
                                 1.093421  0.000000  0.000000 -0.000000 -0.000000  0.000000  0.000000

   3.7   0     0.3118   -2.9766 -0.000173 -0.005104 -0.029371  0.217985 -4.814062  0.076707 -0.270527  1.389355 -0.353458  4.740431
                                -0.665657 -0.000000 -0.000000  0.000000  0.000000 -0.000000 -0.000000

                                   1 4f2-    1 4f2-    1 4f2-    1 4f2- 

   1.8   0     0.7894   -3.2277 -0.003950  0.044383 -0.091873  1.042218

   2.8   0     2.3396   -3.1264  0.048305 -0.019302  1.183208 -0.574844

 HOMO      4.1    -0.629132 =     -17.1196eV
 LUMO      2.2     0.018472 =       0.5026eV
 LUMO-HOMO         0.647604 =      17.6222eV


 **********************************************************************************************************************************
 DATASETS  * FILE   NREC   LENGTH (MB)   RECORD NAMES
              1      20       94.94       500      610      700      900      950      970     1000      129      960     1100   
                                          VAR    BASINP    GEOM    SYMINP    ZMAT    AOBASIS   BASIS     P2S    ABASIS      S 
                                         1400     1410     1420     1200     1210     1080     1600     1650     1300     1700   
                                           T        V       ECP      H0       H01     AOSYM     SMH    MOLCAS    ERIS     OPER   

              2       5        5.54       200      700     1000      520     4202   
                                        OPTIONS   GEOM     BASIS   MCVARS     RHF  

 PROGRAMS   *        TOTAL       RHF       INT
 CPU TIMES  *        11.38      0.88     10.22
 REAL TIME  *        12.87 SEC
 DISK USED  *       366.58 MB      
 **********************************************************************************************************************************

1PROGRAM * POP (Mulliken population analysis)

 
 Density matrix read from record         4202.2  Type=RHF/CHARGE (state 1.1)
 
 Population analysis by basis function type

 Unique atom        s        p        d        f        g    Total    Charge
   1  MN      4.00000  6.00000  5.00000  0.00000  0.00000 15.00000  + 0.00000


 **********************************************************************************************************************************
 DATASETS  * FILE   NREC   LENGTH (MB)   RECORD NAMES
              1      20       94.94       500      610      700      900      950      970     1000      129      960     1100   
                                          VAR    BASINP    GEOM    SYMINP    ZMAT    AOBASIS   BASIS     P2S    ABASIS      S 
                                         1400     1410     1420     1200     1210     1080     1600     1650     1300     1700   
                                           T        V       ECP      H0       H01     AOSYM     SMH    MOLCAS    ERIS     OPER   

              2       5        5.54       200      700     1000      520     4202   
                                        OPTIONS   GEOM     BASIS   MCVARS     RHF  

 PROGRAMS   *        TOTAL       POP       RHF       INT
 CPU TIMES  *        11.38      0.00      0.88     10.22
 REAL TIME  *        12.90 SEC
 DISK USED  *       366.58 MB      
 **********************************************************************************************************************************

1PROGRAM * MULTI (Direct Multiconfiguration SCF)       Authors: P.J. Knowles, H.-J. Werner (1984)     S.T. Elbert (1988)


 Number of closed-shell orbitals:   5 (   2   1   1   0   1   0   0   0 )
 Number of active  orbitals:        5 (   2   0   0   1   0   1   1   0 )
 Number of external orbitals:     180 (  50  26  26  16  26  16  16   4 )

 State symmetry 1

 Number of electrons:     5    Spin symmetry=Sextet    Space symmetry=1
 Number of states:        1
 Number of CSFs:          1   (1 determinants, 1 intermediate states)

 Molecular orbitals read from record     4202.2  Type=RHF/CANONICAL (state 1.1)
 *** IN SYMMETRY 1 ORBITAL  3 SYMMETRY CONTAMINATION OF 0.345D+00 HAS BEEN REMOVED
 *** IN SYMMETRY 1 ORBITAL  4 SYMMETRY CONTAMINATION OF 0.345D+00 HAS BEEN REMOVED

 EXTRA SYMMETRY OF MOS IN SYMMETRY 1:   1 1 3 2 1 3 2 1 3 2   1 2 3 1 4 6 5 2 3 1   2 3 4 6 5 1 2 3 5 6   4 2 3 1 2 3 1 2 3 1
                                        1 1 2 3 1 1 1 1 1 1   1 1 1 1
 EXTRA SYMMETRY OF MOS IN SYMMETRY 2:   1 1 1 1 1 2 3 1 3 2   1 2 3 1 3 2 1 1 1 1   1 1 1 1 1 1 1
 EXTRA SYMMETRY OF MOS IN SYMMETRY 3:   1 1 1 1 1 2 3 1 2 3   1 2 3 1 3 2 1 1 1 1   1 1 1 1 1 1 1
 EXTRA SYMMETRY OF MOS IN SYMMETRY 4:   1 1 1 1 2 3 1 1 2 3   1 3 2 1 1 1 1
 EXTRA SYMMETRY OF MOS IN SYMMETRY 5:   1 1 1 1 1 3 2 1 3 2   1 2 3 1 3 2 1 1 1 1   1 1 1 1 1 1 1
 EXTRA SYMMETRY OF MOS IN SYMMETRY 6:   1 1 1 1 3 2 1 1 2 3   1 3 2 1 1 1 1
 EXTRA SYMMETRY OF MOS IN SYMMETRY 7:   1 1 1 1 2 3 1 1 2 3   1 3 2 1 1 1 1

 Wavefunction dump at record             5202.2

 Convergence thresholds  0.10E-01 (gradient)  0.10E-05 (energy)  0.10E-02 (step length)

 Number of orbital rotations:      330   (     4 Core/Active    178 Core/Virtual   0 Active/Active    148 Active/Virtual)
 Total number of variables:        331


 ITER. MIC  NCI  NEG     ENERGY(VAR)     ENERGY(PROJ)   ENERGY CHANGE     GRAD(0)  GRAD(ORB)   GRAD(CI)     STEP       TIME

   1   23    4    0    -103.24349372    -103.24349372   -0.00000000    0.00000064 0.00000000 0.00000000  0.34D-06      0.38

 ** WVFN ****  CONVERGENCE REACHED, FINAL GRADIENT:  0.12D-10


 First order charge density matrix for state 1.1 saved on record  5202.2 (density set 1)

 Results for state 1.1
 =====================

 !MCSCF STATE 1.1 Energy             -103.243493717542
 Nuclear energy                         0.00000000
 Kinetic energy                        57.45713751
 One electron energy                 -180.03899602
 Two electron energy                   76.79550230
 Virial ratio                           2.79687848

 !MCSCF STATE 1.1 Dipole moment         0.00000000     0.00000000     0.00000000
 Dipole moment /Debye                   0.00000000     0.00000000     0.00000000


 NATURAL ORBITALS
 ================

   Orb     Occ        Energy       Coefficients

                                   1 1s      1 1s      1 1s      1 1s      1 1s      1 1s      1 1s      1 1s      1 1s      1 1s   
                                   1 1s      1 1s      1 1s      1 1s      1 1s      1 1s      1 1s      1 1s      1 1s      1 1s   
                                   1 1s      1 1s      1 1s      1 3d0     1 3d2+    1 3d0     1 3d2+    1 3d0     1 3d2+    1 3d0  
                                   1 3d2+    1 3d0     1 3d2+    1 3d0     1 3d2+    1 3d0     1 3d2+    1 3d0     1 3d2+    1 3d0  
                                   1 3d2+    1 3d0     1 3d2+    1 3d0     1 3d2+    1 5g0     1 5g4+    1 5g2+    1 5g0     1 5g4+ 
                                   1 5g2+    1 5g0     1 5g4+    1 5g2+ 

   1.1  2.00000    -3.919790    -0.000000  0.000000 -0.000000  0.000003 -0.000012  0.000045 -0.000160  0.000520 -0.001578  0.004620
                                -0.013829  0.044037  0.020607 -0.545686 -0.035979  0.854363  0.401076  0.012657 -0.006356  0.002453
                                 0.216815 -0.092558 -0.000620  0.000000  0.000000  0.000000  0.000000  0.000000  0.000000  0.000000
                                 0.000000  0.000000  0.000000  0.000000  0.000000  0.000000  0.000000  0.000000  0.000000  0.000000
                                 0.000000  0.000000  0.000000  0.000000  0.000000  0.000000  0.000000  0.000000  0.000000  0.000000
                                 0.000000  0.000000  0.000000  0.000000

   2.1  2.00000    -0.250803     0.000000 -0.000000  0.000000 -0.000001  0.000003 -0.000011  0.000039 -0.000126  0.000383 -0.001126
                                 0.003400 -0.011175 -0.003309  0.140047  0.007768 -0.264252 -0.250425  0.347968  0.556009  0.256122
                                -0.059955  0.020025 -0.000676  0.000000  0.000000  0.000000  0.000000  0.000000  0.000000  0.000000
                                 0.000000  0.000000  0.000000  0.000000  0.000000  0.000000  0.000000  0.000000  0.000000  0.000000
                                 0.000000  0.000000  0.000000  0.000000  0.000000  0.000000  0.000000  0.000000  0.000000  0.000000
                                 0.000000  0.000000  0.000000  0.000000

   3.1  1.00000    -0.133550     0.000000  0.000000  0.000000  0.000000  0.000000  0.000000  0.000000  0.000000  0.000000  0.000000
                                 0.000000  0.000000  0.000000  0.000000  0.000000  0.000000  0.000000  0.000000  0.000000  0.000000
                                 0.000000  0.000000  0.000000 -0.000299  0.000000 -0.026708  0.000000 -0.102804  0.000000 -0.216593
                                 0.000000 -0.533974  0.000000 -0.372630  0.000000 -0.200235  0.000000 -0.025994  0.000000 -0.034523
                                 0.000000  0.163833  0.000000  0.001227  0.000000  0.000000  0.000000  0.000000  0.000000  0.000000
                                 0.000000  0.000000  0.000000  0.000000

   4.1  1.00000    -0.133550     0.000000  0.000000  0.000000  0.000000  0.000000  0.000000  0.000000  0.000000  0.000000  0.000000
                                 0.000000  0.000000  0.000000  0.000000  0.000000  0.000000  0.000000  0.000000  0.000000  0.000000
                                 0.000000  0.000000  0.000000  0.000000  0.000299  0.000000  0.026708  0.000000  0.102804  0.000000
                                 0.216593  0.000000  0.533974  0.000000  0.372630  0.000000  0.200235  0.000000  0.025994  0.000000
                                 0.034523  0.000000 -0.163833  0.000000 -0.001227  0.000000  0.000000  0.000000  0.000000  0.000000
                                 0.000000  0.000000  0.000000  0.000000

                                   1 2px     1 2px     1 2px     1 2px     1 2px     1 2px     1 2px     1 2px     1 2px     1 2px  
                                   1 2px     1 2px     1 2px     1 2px     1 2px     1 2px     1 2px     1 2px     1 2px     1 4f1+ 
                                   1 4f3+    1 4f1+    1 4f3+    1 4f1+    1 4f3+    1 4f1+    1 4f3+ 

   1.2  2.00000    -2.493524     0.000000 -0.000002  0.000013 -0.000059  0.000230 -0.000848  0.003223  0.000236 -0.090015 -0.026608
                                 0.333959  0.350355  0.284967  0.041263 -0.003002  0.001766  0.055152  0.110225 -0.000514  0.000000
                                 0.000000  0.000000  0.000000  0.000000  0.000000  0.000000  0.000000

                                   1 2py     1 2py     1 2py     1 2py     1 2py     1 2py     1 2py     1 2py     1 2py     1 2py  
                                   1 2py     1 2py     1 2py     1 2py     1 2py     1 2py     1 2py     1 2py     1 2py     1 4f1- 
                                   1 4f3-    1 4f1-    1 4f3-    1 4f1-    1 4f3-    1 4f1-    1 4f3- 

   1.3  2.00000    -2.493524     0.000000 -0.000002  0.000013 -0.000059  0.000230 -0.000848  0.003223  0.000236 -0.090015 -0.026608
                                 0.333959  0.350355  0.284967  0.041263 -0.003002  0.001766  0.055152  0.110225 -0.000514  0.000000
                                 0.000000  0.000000  0.000000  0.000000  0.000000  0.000000  0.000000

                                   1 3d2-    1 3d2-    1 3d2-    1 3d2-    1 3d2-    1 3d2-    1 3d2-    1 3d2-    1 3d2-    1 3d2- 
                                   1 3d2-    1 5g2-    1 5g4-    1 5g2-    1 5g4-    1 5g2-    1 5g4- 

   1.4  1.00000    -0.133550     0.000299  0.026708  0.102804  0.216593  0.533974  0.372630  0.200235  0.025994  0.034523 -0.163833
                                -0.001227  0.000000  0.000000  0.000000  0.000000  0.000000  0.000000

                                   1 2pz     1 2pz     1 2pz     1 2pz     1 2pz     1 2pz     1 2pz     1 2pz     1 2pz     1 2pz  
                                   1 2pz     1 2pz     1 2pz     1 2pz     1 2pz     1 2pz     1 2pz     1 2pz     1 2pz     1 4f0  
                                   1 4f2+    1 4f0     1 4f2+    1 4f0     1 4f2+    1 4f0     1 4f2+ 

   1.5  2.00000    -2.493524     0.000000 -0.000002  0.000013 -0.000059  0.000230 -0.000848  0.003223  0.000236 -0.090015 -0.026608
                                 0.333959  0.350355  0.284967  0.041263 -0.003002  0.001766  0.055152  0.110225 -0.000514  0.000000
                                 0.000000  0.000000  0.000000  0.000000  0.000000  0.000000  0.000000

                                   1 3d1+    1 3d1+    1 3d1+    1 3d1+    1 3d1+    1 3d1+    1 3d1+    1 3d1+    1 3d1+    1 3d1+ 
                                   1 3d1+    1 5g1+    1 5g3+    1 5g1+    1 5g3+    1 5g1+    1 5g3+ 

   1.6  1.00000    -0.133550     0.000299  0.026708  0.102804  0.216593  0.533974  0.372630  0.200235  0.025994  0.034523 -0.163833
                                -0.001227  0.000000  0.000000  0.000000  0.000000  0.000000  0.000000

                                   1 3d1-    1 3d1-    1 3d1-    1 3d1-    1 3d1-    1 3d1-    1 3d1-    1 3d1-    1 3d1-    1 3d1- 
                                   1 3d1-    1 5g1-    1 5g3-    1 5g1-    1 5g3-    1 5g1-    1 5g3- 

   1.7  1.00000    -0.133550     0.000299  0.026708  0.102804  0.216593  0.533974  0.372630  0.200235  0.025994  0.034523 -0.163833
                                -0.001227  0.000000  0.000000  0.000000  0.000000  0.000000  0.000000
 

 EXTRA SYMMETRY OF MOS IN SYMMETRY 1:   1 1 2 3 1 3 2 1 2 3   1 3 2 1 6 4 5 2 3 1   2 3 4 6 5 1 2 3 4 5   6 2 3 1 2 3 1 2 3 1
                                        1 1 2 3 1 1 1 1 1 1   1 1 1 1
 EXTRA SYMMETRY OF MOS IN SYMMETRY 2:   1 1 1 1 2 3 1 1 2 3   1 3 2 1 2 3 1 1 1 1   1 1 1 1 1 1 1
 EXTRA SYMMETRY OF MOS IN SYMMETRY 3:   1 1 1 1 3 2 1 1 3 2   1 3 2 1 3 2 1 1 1 1   1 1 1 1 1 1 1
 EXTRA SYMMETRY OF MOS IN SYMMETRY 4:   1 1 1 1 3 2 1 1 3 2   1 3 2 1 1 1 1
 EXTRA SYMMETRY OF MOS IN SYMMETRY 5:   1 1 1 1 2 3 1 1 3 2   1 2 3 1 2 3 1 1 1 1   1 1 1 1 1 1 1
 EXTRA SYMMETRY OF MOS IN SYMMETRY 6:   1 1 1 1 2 3 1 1 2 3   1 2 3 1 1 1 1
 EXTRA SYMMETRY OF MOS IN SYMMETRY 7:   1 1 1 1 2 3 1 1 2 3   1 2 3 1 1 1 1

 Natural orbital dump at molpro section  5202.2    (Orbital set 2)


 CI vector
 =========

 aa a a a          1.0000000

 TOTAL ENERGIES                      -103.24349372



 **********************************************************************************************************************************
 DATASETS  * FILE   NREC   LENGTH (MB)   RECORD NAMES
              1      21       98.27       500      610      700      900      950      970     1000      129      960     1100   
                                          VAR    BASINP    GEOM    SYMINP    ZMAT    AOBASIS   BASIS     P2S    ABASIS      S 
                                         1400     1410     1420     1200     1210     1080     1600     1650     1300     1700   
                                           T        V       ECP      H0       H01     AOSYM     SMH    MOLCAS    ERIS     OPER   
                                         1380   
                                         JKOP   

              2       6        8.22       200      700     1000      520     4202     5202   
                                        OPTIONS   GEOM     BASIS   MCVARS     RHF     MCSCF   

 PROGRAMS   *        TOTAL     MULTI       POP       RHF       INT
 CPU TIMES  *        12.08      0.70      0.00      0.88     10.22
 REAL TIME  *        13.84 SEC
 DISK USED  *       366.58 MB      
 **********************************************************************************************************************************

1PROGRAM * RHF-SCF (OPEN SHELL)       Authors: W. Meyer, H.-J. Werner


 NUMBER OF ELECTRONS:      10+    5-    SPACE SYMMETRY=1    SPIN SYMMETRY: Sextet  
 CONVERGENCE THRESHOLDS:    1.00E-05 (Density)    1.00E-07 (Energy)
 MAX. NUMBER OF ITERATIONS:        0
 INTERPOLATION TYPE:            DIIS
 INTERPOLATION STEPS:              2 (START)      1 (STEP)
 LEVEL SHIFTS:                 -0.30 (CLOSED)  0.00 (OPEN) 


 Singly occupied orbitals:      3.1       4.1       1.4       1.6       1.7
 Molecular orbitals read from record     5202.2  Type=MCSCF/NATURAL (state 1.1)

 Molecular orbital dump at record        2101.2

 ITERATION    DDIFF          GRAD             ENERGY        2-EL.EN.            DIPOLE MOMENTS         DIIS   ORB.
    1      0.000D+00      0.000D+00      -103.24349372    153.591005    0.00000    0.00000    0.00000    0    start

 Final alpha occupancy:   4   1   1   1   1   1   1   0
 Final beta  occupancy:   2   1   1   0   1   0   0   0

 !RHF STATE 1.1 Energy               -103.243493717542
 Nuclear energy                         0.00000000
 One-electron energy                 -180.03899602
 Two-electron energy                   76.79550230
 Virial quotient                       -1.79687848
 !RHF STATE 1.1 Dipole moment           0.00000000     0.00000000     0.00000000
 Dipole moment /Debye                   0.00000000     0.00000000     0.00000000

 Orbital energies:

         1.1          2.1          3.1          4.1          5.1          6.1
     -3.919790    -0.250803    -0.133550    -0.133550     0.027456     0.090213

         1.2          2.2          3.2
     -2.493524     0.020165     0.070167

         1.3          2.3          3.3
     -2.493524     0.020165     0.070167

         1.4          2.4          3.4
     -0.133550     0.090213     0.321671

         1.5          2.5          3.5
     -2.493524     0.020165     0.070167

         1.6          2.6          3.6
     -0.133550     0.090213     0.321671

         1.7          2.7          3.7
     -0.133550     0.090213     0.321671

         1.8          2.8
      0.799315     2.405941

 HOMO      4.1    -0.133550 =      -3.6341eV
 LUMO      2.2     0.020165 =       0.5487eV
 LUMO-HOMO         0.153715 =       4.1828eV


 **********************************************************************************************************************************
 DATASETS  * FILE   NREC   LENGTH (MB)   RECORD NAMES
              1      21       98.27       500      610      700      900      950      970     1000      129      960     1100   
                                          VAR    BASINP    GEOM    SYMINP    ZMAT    AOBASIS   BASIS     P2S    ABASIS      S 
                                         1400     1410     1420     1200     1210     1080     1600     1650     1300     1700   
                                           T        V       ECP      H0       H01     AOSYM     SMH    MOLCAS    ERIS     OPER   
                                         1380   
                                         JKOP   

              2       7       10.94       200      700     1000      520     4202     5202     2101   
                                        OPTIONS   GEOM     BASIS   MCVARS     RHF     MCSCF     RHF  

 PROGRAMS   *        TOTAL       RHF     MULTI       POP       RHF       INT
 CPU TIMES  *        12.20      0.12      0.70      0.00      0.88     10.22
 REAL TIME  *        14.03 SEC
 DISK USED  *       366.58 MB      
 **********************************************************************************************************************************
 SETTING SCF(1)         =      -103.24349372  AU                              
 SETTING _CC_NORM_MAX   =         2.00000000                                  


1PROGRAM * CCSD (Restricted open-shell coupled cluster)     Authors: C. Hampel, H.-J. Werner, 1991, M. Deegan, P.J. Knowles, 1992


 Convergence thresholds:  THRVAR = 1.00D-08  THRDEN = 1.00D-06

 CCSD(T)     terms to be evaluated (factor= 1.000)


 Number of closed-shell orbitals:   5 (   2   1   1   0   1   0   0   0 )
 Number of active  orbitals:        5 (   2   0   0   1   0   1   1   0 )
 Number of external orbitals:     180 (  50  26  26  16  26  16  16   4 )

 Memory could be reduced to 15.27 Mwords without degradation in triples

 Number of N-1 electron functions:              15
 Number of N-2 electron functions:             105
 Number of singly external CSFs:               519
 Number of doubly external CSFs:            351791
 Total number of CSFs:                      352310

 Molecular orbitals read from record     2101.2  Type=RHF/CANONICAL (state 1.1)

 Integral transformation finished. Total CPU:   0.47 sec, npass=  1  Memory used:   2.63 MW

 Starting RMP2 calculation

 Wavefunction is spin-projected

 ITER.      SQ.NORM     CORR.ENERGY   TOTAL ENERGY   ENERGY CHANGE        DEN1      VAR(S)    VAR(P)  DIIS     TIME
   1      1.09678896    -0.56880790  -103.81230162    -0.56880790    -0.00152495  0.45D-05  0.98D-03  1  1     0.50
   2      1.09940583    -0.57044555  -103.81393927    -0.00163765    -0.00002446  0.15D-06  0.25D-04  2  2     0.52
   3      1.09985332    -0.57060847  -103.81410218    -0.00016291    -0.00000022  0.31D-08  0.21D-06  3  3     0.54
   4      1.09988792    -0.57061828  -103.81411200    -0.00000982    -0.00000000  0.49D-10  0.15D-08  4  4     0.57
   5      1.09988789    -0.57061810  -103.81411182     0.00000019    -0.00000000  0.29D-11  0.20D-10  5  5     0.59

 Norm of t1 vector:      0.03659535      S-energy:    -0.00223899      T1 diagnostic:  0.00022173
 Norm of t2 vector:      0.31392463      P-energy:    -0.56837911
                                         Alpha-Beta:  -0.37612868
                                         Alpha-Alpha: -0.14790063
                                         Beta-Beta:   -0.04434980

 Spin contamination <S**2-Sz**2-Sz>     0.00000000
  Reference energy                   -103.243493717542
  RHF-RMP2 correlation energy          -0.570618098198
 !RHF-RMP2 energy                    -103.814111815740
 (NB above energy spin projected)

 Starting RCCSD calculation

 ITER.      SQ.NORM     CORR.ENERGY   TOTAL ENERGY   ENERGY CHANGE        DEN1      VAR(S)    VAR(P)  DIIS     TIME
   1      1.10123551    -0.56075031  -103.80424403    -0.56075031    -0.00912355  0.29D-02  0.25D-02  1  1     1.48
   2      1.11576528    -0.56932176  -103.81281548    -0.00857145    -0.00121464  0.53D-03  0.61D-03  2  2     2.18
   3      1.12652303    -0.57200285  -103.81549657    -0.00268109    -0.00017722  0.12D-03  0.74D-04  3  3     2.88
   4      1.13295694    -0.57331608  -103.81680979    -0.00131323    -0.00000983  0.41D-05  0.44D-05  4  4     3.58
   5      1.13376676    -0.57339830  -103.81689201    -0.00008222    -0.00000126  0.61D-06  0.63D-06  5  5     4.29
   6      1.13407387    -0.57343875  -103.81693247    -0.00004046    -0.00000015  0.57D-07  0.86D-07  6  6     4.99
   7      1.13410716    -0.57343983  -103.81693355    -0.00000108    -0.00000001  0.57D-08  0.59D-08  6  2     5.69
   8      1.13410530    -0.57343873  -103.81693245     0.00000110    -0.00000000  0.58D-09  0.56D-09  6  1     6.41
   9      1.13410670    -0.57343909  -103.81693281    -0.00000036    -0.00000000  0.79D-10  0.80D-10  6  3     7.12

 Norm of t1 vector:      0.12313594      S-energy:    -0.00323195      T1 diagnostic:  0.01945512
                                                                       D1 diagnostic:  0.06714428
 Norm of t2 vector:      0.34488294      P-energy:    -0.57020714
                                         Alpha-Beta:  -0.39007114
                                         Alpha-Alpha: -0.13726724
                                         Beta-Beta:   -0.04286875

 Singles amplitudes (print threshold =  0.500E-01):

         I         SYM. A    A   T(IA) [Alpha-Alpha]

         2         1         6     -0.07405545
         2         1         9      0.05718193

 Doubles amplitudes (print threshold =  0.500E-01):

         I         J         SYM. A    SYM. B    A         B      T(IJ, AB) [Alpha-Beta]

         2         2         2         2         2         2     -0.05638565
         2         2         3         3         2         2     -0.05638565
         2         2         5         5         2         2     -0.05638565

 Spin contamination <S**2-Sz**2-Sz>     0.00000000

 Memory could be reduced to 16.37 Mwords without degradation in triples
 

  Correlated core orbitals:             1.1       1.2       1.3       1.5
  Orbital energies:                    -4.1375   -2.7578   -2.7578   -2.7578
 
  RCCSD core-core energy               -0.173887295004
  RCCSD core-valence energy            -0.266910883444
  RCCSD valence correlation energy     -0.132640911195
 

 RESULTS
 =======

  Reference energy                   -103.243493717542
  RCCSD singles energy                 -0.003231950342
  RCCSD pair energy                    -0.570207139301
  RCCSD correlation energy             -0.573439089643
  Triples (T) contribution             -0.017837819235
  Total correlation energy             -0.591276908879
 
  RHF-RCCSD energy                   -103.816932807185
  RHF-RCCSD[T] energy                -103.835306255498
  RHF-RCCSD-T energy                 -103.834647136263
 !RHF-RCCSD(T) energy                -103.834770626420

 Program statistics:

 Available memory in ccsd:               511999000
 Min. memory needed in ccsd:               1165918
 Max. memory used in ccsd:                 1589611
 Max. memory used in cckext:               1220104 ( 9 integral passes)
 Max. memory used in cckint:               2632501 ( 1 integral passes)



 **********************************************************************************************************************************
 DATASETS  * FILE   NREC   LENGTH (MB)   RECORD NAMES
              1      21       98.27       500      610      700      900      950      970     1000      129      960     1100   
                                          VAR    BASINP    GEOM    SYMINP    ZMAT    AOBASIS   BASIS     P2S    ABASIS      S 
                                         1400     1410     1420     1200     1210     1080     1600     1650     1300     1700   
                                           T        V       ECP      H0       H01     AOSYM     SMH    MOLCAS    ERIS     OPER   
                                         1380   
                                         JKOP   

              2       7       10.94       200      700     1000      520     4202     5202     2101   
                                        OPTIONS   GEOM     BASIS   MCVARS     RHF     MCSCF     RHF  

 PROGRAMS   *        TOTAL  RCCSD(T)       RHF     MULTI       POP       RHF       INT
 CPU TIMES  *        29.71     17.50      0.12      0.70      0.00      0.88     10.22
 REAL TIME  *        32.84 SEC
 DISK USED  *       366.58 MB      
 **********************************************************************************************************************************
 SETTING CCSD(1)        =      -103.83477063  AU                              

 DO I                   =         2.00000000   

 Running procedure=IS1D6

1PROGRAM * RHF-SCF (OPEN SHELL)       Authors: W. Meyer, H.-J. Werner


 NUMBER OF ELECTRONS:      10+    5-    SPACE SYMMETRY=1    SPIN SYMMETRY: Sextet  
 CONVERGENCE THRESHOLDS:    1.00E-05 (Density)    1.00E-07 (Energy)
 MAX. NUMBER OF ITERATIONS:       60
 INTERPOLATION TYPE:            DIIS
 INTERPOLATION STEPS:              2 (START)      1 (STEP)
 LEVEL SHIFTS:                 -0.30 (CLOSED)  0.00 (OPEN) 


 Singly occupied orbitals:      3.1       4.1       1.4       1.6       1.7
 
 Extra symmetries of mos in symmetry 1:   1   3   2   1
 Orbital guess generated from atomic densities. Full valence occupancy:    4   1   1   1   1   1   1   0


 Molecular orbital dump at record        4202.2

 ITERATION    DDIFF          GRAD             ENERGY        2-EL.EN.            DIPOLE MOMENTS         DIIS   ORB.
    1      0.000D+00      0.000D+00      -103.09607523    155.965838    0.00000    0.00000    0.00000    0    start
    2      0.000D+00      0.840D-02      -103.11216072    160.207434    0.00000    0.00000    0.00000    1    diag,B
    3      0.124D-01      0.793D-02      -103.11995143    158.672625    0.00000    0.00000    0.00000    2    diag,B
    4      0.229D-02      0.161D-02      -103.12095114    158.543493    0.00000    0.00000    0.00000    3    diag,B
    5      0.171D-02      0.428D-03      -103.12108695    158.483490    0.00000    0.00000    0.00000    4    diag,B
    6      0.692D-03      0.132D-03      -103.12110979    158.446518    0.00000    0.00000    0.00000    5    diag,B
    7      0.276D-03      0.319D-04      -103.12111143    158.444348    0.00000    0.00000    0.00000    6    fixocc
    8      0.590D-04      0.107D-04      -103.12111182    158.443749    0.00000    0.00000    0.00000    7    diag,B
    9      0.322D-04      0.500D-05      -103.12111192    158.444017    0.00000    0.00000    0.00000    8    diag,B
   10      0.935D-05      0.439D-05      -103.12111202    158.443869    0.00000    0.00000    0.00000    9    orth
   11      0.436D-05      0.439D-05      -103.12111193    158.443902    0.00000    0.00000    0.00000    9    diag,B
   12      0.398D-05      0.431D-05      -103.12111215    158.443890    0.00000    0.00000    0.00000    0    orth

 Final alpha occupancy:   4   1   1   1   1   1   1   0
 Final beta  occupancy:   2   1   1   0   1   0   0   0

 !RHF STATE 1.1 Energy               -103.121112149959
 Nuclear energy                         0.00000000
 One-electron energy                 -182.34305719
 Two-electron energy                   79.22194504
 Virial quotient                       -1.76193258
 !RHF STATE 1.1 Dipole moment           0.00000000     0.00000000     0.00000000
 Dipole moment /Debye                   0.00000000     0.00000000     0.00000000

 ELECTRON ORBITALS
 =================


   Orb  Occ    Energy  Couls-En    Coefficients

                                   1 1s      1 1s      1 1s      1 1s      1 1s      1 1s      1 1s      1 1s      1 1s      1 1s   
                                   1 1s      1 1s      1 1s      1 1s      1 1s      1 1s      1 1s      1 1s      1 1s      1 1s   
                                   1 1s      1 1s      1 1s      1 3d0     1 3d2+    1 3d0     1 3d2+    1 3d0     1 3d2+    1 3d0  
                                   1 3d2+    1 3d0     1 3d2+    1 3d0     1 3d2+    1 3d0     1 3d2+    1 3d0     1 3d2+    1 3d0  
                                   1 3d2+    1 3d0     1 3d2+    1 3d0     1 3d2+    1 5g0     1 5g4+    1 5g2+    1 5g0     1 5g4+ 
                                   1 5g2+    1 5g0     1 5g4+    1 5g2+ 

   1.1   2    -3.7308  -19.0925 -0.000000  0.000000 -0.000000  0.000003 -0.000011  0.000045 -0.000158  0.000513 -0.001558  0.004561
                                -0.013661  0.043501  0.021207 -0.544766 -0.049865  0.871122  0.424551  0.018323 -0.009145  0.004198
                                 0.226427 -0.130389 -0.001017 -0.000000  0.000001 -0.000011  0.000065 -0.000093  0.000235 -0.001718
                                 0.000088  0.016684  0.005751 -0.001537  0.000561 -0.001956  0.000157 -0.000442  0.000064  0.002294
                                 0.000697 -0.015740 -0.004576  0.000014 -0.000004  0.000034  0.000185  0.000033  0.000074  0.000413
                                 0.000074  0.000096  0.000606  0.000105

   2.1   2    -0.2949  -10.6774  0.000000 -0.000000  0.000000 -0.000000  0.000000 -0.000000  0.000000 -0.000002  0.000005 -0.000013
                                 0.000040 -0.000125 -0.000036  0.001361 -0.000583 -0.001020 -0.000532  0.002585 -0.000414 -0.000889
                                -0.000078 -0.001712 -0.000175  0.000035  0.000268  0.003141  0.023728  0.012108  0.091477  0.024805
                                 0.187360  0.070677  0.534688  0.045762  0.345622  0.037035  0.279376  0.015570  0.117304  0.004730
                                 0.035804 -0.027663 -0.209664  0.000307  0.002313  0.000090  0.000134  0.000340  0.000239  0.000354
                                 0.000904  0.000362  0.000538  0.001370

   3.1   +    -0.4390  -11.2182  0.000000 -0.000000  0.000000 -0.000000  0.000000 -0.000000  0.000001 -0.000002  0.000006 -0.000017
                                 0.000049 -0.000152  0.000036  0.001019 -0.003284  0.003547  0.001408  0.011136  0.001321  0.001410
                                 0.001867 -0.009282 -0.000358  0.000280 -0.000037  0.024895 -0.003300  0.095859 -0.012707  0.198941
                                -0.026358  0.527476 -0.070140  0.358771 -0.047500  0.249016 -0.032911  0.066611 -0.008801  0.035741
                                -0.004756 -0.182892  0.024466 -0.002816  0.000371  0.000850  0.000451  0.000025  0.002175  0.001185
                                 0.000053  0.002990  0.001030  0.000123

   4.1   +    -0.2319   -5.0797  0.000000 -0.000000  0.000000 -0.000001  0.000003 -0.000010  0.000035 -0.000114  0.000349 -0.001027
                                 0.003119 -0.010274 -0.004217  0.137815  0.031195 -0.305921 -0.259715  0.241943  0.583757  0.310226
                                -0.075162  0.092723  0.009323 -0.000006 -0.000001 -0.000584 -0.000068 -0.002225 -0.000256 -0.004715
                                -0.000558 -0.010365 -0.000802 -0.006100 -0.000413  0.005382  0.002022  0.010055  0.002481 -0.000938
                                -0.000119  0.001860 -0.000242  0.001445  0.000252  0.000011  0.000149  0.000023 -0.000024  0.000103
                                 0.000011 -0.000262 -0.001491 -0.000247

   5.1   0     0.0286   -1.5381  0.000000 -0.000000  0.000000 -0.000000  0.000001 -0.000002  0.000008 -0.000026  0.000074 -0.000186
                                 0.000363 -0.000796  0.011998 -0.089199 -0.262409  0.582898  0.319983 -0.488038  1.058625 -2.707250
                                 0.216580 -0.619526  2.536569  0.000001  0.000000  0.000113  0.000028  0.000444  0.000111  0.000577
                                 0.000126  0.007889  0.002257  0.000869  0.000211 -0.001542 -0.000337 -0.003426 -0.000825  0.000643
                                 0.000184 -0.006214 -0.001841  0.004687  0.001496 -0.000004 -0.000037 -0.000005  0.000004 -0.000023
                                -0.000001  0.000064  0.000382  0.000064

   6.1   0     0.0895   -1.8440 -0.000000  0.000000 -0.000000  0.000000 -0.000000  0.000000 -0.000001  0.000002 -0.000006  0.000018
                                -0.000053  0.000167 -0.000113 -0.000725  0.003716 -0.004924 -0.001628  0.004948 -0.030302  0.033337
                                -0.002281  0.009042 -0.017888  0.000010 -0.000001 -0.001969  0.000273 -0.004935  0.000689 -0.087330
                                 0.011960  1.243879 -0.169844 -0.065999  0.009060  0.050723 -0.006923 -0.195122  0.026668  0.092733
                                -0.012661 -1.270154  0.173487  1.088762 -0.148707 -0.000051 -0.000031 -0.000001 -0.000185 -0.000090
                                -0.000005  0.000018 -0.000006  0.000007

                                   1 2px     1 2px     1 2px     1 2px     1 2px     1 2px     1 2px     1 2px     1 2px     1 2px  
                                   1 2px     1 2px     1 2px     1 2px     1 2px     1 2px     1 2px     1 2px     1 2px     1 4f1+ 
                                   1 4f3+    1 4f1+    1 4f3+    1 4f1+    1 4f3+    1 4f1+    1 4f3+ 

   1.2   2    -2.3181  -16.1494  0.000000 -0.000002  0.000014 -0.000060  0.000232 -0.000853  0.003231  0.000101 -0.088510 -0.012520
                                 0.326249  0.169609  0.295892  0.049945 -0.003371  0.002087  0.041802  0.282084 -0.000621  0.000446
                                 0.001240  0.001551  0.002979  0.000627  0.003354 -0.000204  0.000920

   2.2   0     0.0202   -2.0351  0.000000 -0.000000  0.000001 -0.000006  0.000023 -0.000071  0.000191 -0.001353  0.012219  0.138584
                                -0.062560 -1.721046  0.026120 -0.034100  0.228605 -0.107571 -0.131318  1.682038  0.994379 -0.000067
                                 0.000024 -0.000108  0.000098  0.000061 -0.000048  0.002366  0.000521

   3.2   0     0.0726   -2.5443 -0.000000  0.000002 -0.000010  0.000042 -0.000157  0.000536 -0.001783  0.004838 -0.011740 -0.477412
                                 0.095845  5.875534 -0.218092  0.223285 -0.204263  1.628508  0.439611 -5.911990 -1.256302 -0.000115
                                 0.000042 -0.000198  0.000164  0.000197 -0.000100  0.004168  0.000799

                                   1 2py     1 2py     1 2py     1 2py     1 2py     1 2py     1 2py     1 2py     1 2py     1 2py  
                                   1 2py     1 2py     1 2py     1 2py     1 2py     1 2py     1 2py     1 2py     1 2py     1 4f1- 
                                   1 4f3-    1 4f1-    1 4f3-    1 4f1-    1 4f3-    1 4f1-    1 4f3- 

   1.3   2    -2.3161  -16.1446  0.000000 -0.000002  0.000014 -0.000060  0.000232 -0.000854  0.003235  0.000080 -0.088449 -0.011664
                                 0.325900  0.160126  0.296321  0.050732 -0.003230  0.002106  0.041137  0.290882 -0.000625  0.000232
                                -0.001024  0.001154 -0.002144 -0.000099 -0.003163 -0.000499 -0.001123

   2.3   0     0.0208   -2.0033  0.000000 -0.000000  0.000002 -0.000007  0.000024 -0.000077  0.000213 -0.001400  0.012212  0.143141
                                -0.062977 -1.776007  0.028604 -0.037355  0.226401 -0.126155 -0.135470  1.738111  1.010917 -0.000087
                                -0.000069 -0.000155 -0.000172  0.000071  0.000073  0.002715  0.000949

   3.3   0     0.0740   -2.5521 -0.000000  0.000002 -0.000010  0.000042 -0.000158  0.000540 -0.001798  0.004896 -0.012081 -0.483162
                                 0.097825  5.947280 -0.220014  0.223810 -0.214599  1.641509  0.444983 -5.982894 -1.246775 -0.000155
                                -0.000123 -0.000290 -0.000309  0.000246  0.000208  0.004972  0.001859

                                   1 3d2-    1 3d2-    1 3d2-    1 3d2-    1 3d2-    1 3d2-    1 3d2-    1 3d2-    1 3d2-    1 3d2- 
                                   1 3d2-    1 5g2-    1 5g4-    1 5g2-    1 5g4-    1 5g2-    1 5g4- 

   1.4   +    -0.4036  -11.1091  0.000280  0.024889  0.095865  0.197950  0.540417  0.359088  0.258186  0.077013  0.036684 -0.196621
                                -0.002536  0.000518  0.000276  0.001325  0.000706  0.001925  0.000939

   2.4   0     0.0906   -1.8401  0.000009 -0.002078 -0.005286 -0.090041  1.274596 -0.068595  0.050417 -0.205441  0.095051 -1.302331
                                 1.102819 -0.000033 -0.000018 -0.000119 -0.000061 -0.000006 -0.000007

   3.4   0     0.3300   -3.0539 -0.000198 -0.006167 -0.034535  0.239405 -5.370598  0.073741 -0.350839  1.419377 -0.394711  5.281885
                                -0.658810 -0.000117 -0.000064 -0.000491 -0.000252  0.000313  0.000138

                                   1 2pz     1 2pz     1 2pz     1 2pz     1 2pz     1 2pz     1 2pz     1 2pz     1 2pz     1 2pz  
                                   1 2pz     1 2pz     1 2pz     1 2pz     1 2pz     1 2pz     1 2pz     1 2pz     1 2pz     1 4f0  
                                   1 4f2+    1 4f0     1 4f2+    1 4f0     1 4f2+    1 4f0     1 4f2+ 

   1.5   2    -2.3230  -16.1623  0.000000 -0.000002  0.000014 -0.000060  0.000231 -0.000850  0.003221  0.000159 -0.088684 -0.014921
                                 0.327238  0.196464  0.294695  0.047759 -0.003743  0.002044  0.043679  0.257141 -0.000611  0.000813
                                 0.000302  0.002561  0.000825  0.001460  0.000691 -0.000076  0.000109

   2.5   0     0.0183   -2.1375  0.000000 -0.000000  0.000001 -0.000005  0.000017 -0.000052  0.000125 -0.001211  0.012269  0.124838
                                -0.061426 -1.555367  0.018500 -0.023845  0.236286 -0.051304 -0.118806  1.512806  0.942231 -0.000088
                                -0.000011 -0.000131 -0.000008  0.000109  0.000007  0.003404  0.000628

   3.5   0     0.0688   -2.5130 -0.000000  0.000002 -0.000009  0.000041 -0.000153  0.000523 -0.001743  0.004680 -0.010829 -0.461648
                                 0.090501  5.678480 -0.212711  0.222179 -0.175933  1.589328  0.424896 -5.717148 -1.285314 -0.000137
                                -0.000018 -0.000222 -0.000016  0.000284  0.000027  0.005421  0.000987

                                   1 3d1+    1 3d1+    1 3d1+    1 3d1+    1 3d1+    1 3d1+    1 3d1+    1 3d1+    1 3d1+    1 3d1+ 
                                   1 3d1+    1 5g1+    1 5g3+    1 5g1+    1 5g3+    1 5g1+    1 5g3+ 

   1.6   +    -0.4333  -11.2037  0.000282  0.025087  0.096605  0.200324  0.533761  0.361509  0.252122  0.068529  0.036181 -0.186625
                                -0.002813  0.000739 -0.000177  0.001895 -0.000491  0.002608 -0.000281

   2.6   0     0.0896   -1.8434  0.000010 -0.002004 -0.005039 -0.088440  1.258044 -0.066924  0.051144 -0.198061  0.093791 -1.284793
                                 1.099423 -0.000044  0.000013 -0.000162  0.000033  0.000009  0.000019

   3.6   0     0.3249   -3.0396 -0.000193 -0.006016 -0.033730  0.234428 -5.256002  0.072768 -0.338300  1.415626 -0.386321  5.169345
                                -0.663079 -0.000162  0.000049 -0.000676  0.000128  0.000475  0.000025

                                   1 3d1-    1 3d1-    1 3d1-    1 3d1-    1 3d1-    1 3d1-    1 3d1-    1 3d1-    1 3d1-    1 3d1- 
                                   1 3d1-    1 5g1-    1 5g3-    1 5g1-    1 5g3-    1 5g1-    1 5g3- 

   1.7   +    -0.4255  -11.1789  0.000281  0.025035  0.096409  0.199710  0.535285  0.360904  0.253747  0.070678  0.036295 -0.189032
                                -0.002762  0.000938  0.000429  0.002412  0.001121  0.003250  0.001239

   2.7   0     0.0899   -1.8424  0.000009 -0.002022 -0.005099 -0.088859  1.262562 -0.067351  0.050973 -0.200019  0.094135 -1.289554
                                 1.100331 -0.000058 -0.000028 -0.000206 -0.000090 -0.000000 -0.000014

   3.7   0     0.3263   -3.0431 -0.000194 -0.006054 -0.033937  0.235756 -5.286262  0.073042 -0.341584  1.416634 -0.388535  5.199082
                                -0.661941 -0.000210 -0.000103 -0.000856 -0.000366  0.000554  0.000159

                                   1 4f2-    1 4f2-    1 4f2-    1 4f2- 

   1.8   0     0.8111   -3.1810 -0.004701  0.045138 -0.107282  1.049574

   2.8   0     2.4446   -3.0127  0.048695 -0.031620  1.190483 -0.564329

 HOMO      4.1    -0.231931 =      -6.3112eV
 LUMO      2.5     0.018256 =       0.4968eV
 LUMO-HOMO         0.250187 =       6.8079eV


 **********************************************************************************************************************************
 DATASETS  * FILE   NREC   LENGTH (MB)   RECORD NAMES
              1      21       98.27       500      610      700      900      950      970     1000      129      960     1100   
                                          VAR    BASINP    GEOM    SYMINP    ZMAT    AOBASIS   BASIS     P2S    ABASIS      S 
                                         1400     1410     1420     1200     1210     1080     1600     1650     1300     1700   
                                           T        V       ECP      H0       H01     AOSYM     SMH    MOLCAS    ERIS     OPER   
                                         1380   
                                         JKOP   

              2       7       10.94       200      700     1000      520     4202     5202     2101   
                                        OPTIONS   GEOM     BASIS   MCVARS     RHF     MCSCF     RHF  

 PROGRAMS   *        TOTAL       RHF  RCCSD(T)       RHF     MULTI       POP       RHF       INT
 CPU TIMES  *        30.56      0.85     17.50      0.12      0.70      0.00      0.88     10.22
 REAL TIME  *        33.88 SEC
 DISK USED  *       366.58 MB      
 **********************************************************************************************************************************

1PROGRAM * POP (Mulliken population analysis)

 
 Density matrix read from record         4202.2  Type=RHF/CHARGE (state 1.1)
 
 Population analysis by basis function type

 Unique atom        s        p        d        f        g    Total    Charge
   1  MN      2.99965  5.99980  6.00025  0.00020  0.00011 15.00000  + 0.00000


 **********************************************************************************************************************************
 DATASETS  * FILE   NREC   LENGTH (MB)   RECORD NAMES
              1      21       98.27       500      610      700      900      950      970     1000      129      960     1100   
                                          VAR    BASINP    GEOM    SYMINP    ZMAT    AOBASIS   BASIS     P2S    ABASIS      S 
                                         1400     1410     1420     1200     1210     1080     1600     1650     1300     1700   
                                           T        V       ECP      H0       H01     AOSYM     SMH    MOLCAS    ERIS     OPER   
                                         1380   
                                         JKOP   

              2       7       10.94       200      700     1000      520     4202     5202     2101   
                                        OPTIONS   GEOM     BASIS   MCVARS     RHF     MCSCF     RHF  

 PROGRAMS   *        TOTAL       POP       RHF  RCCSD(T)       RHF     MULTI       POP       RHF       INT
 CPU TIMES  *        30.57      0.00      0.85     17.50      0.12      0.70      0.00      0.88     10.22
 REAL TIME  *        33.91 SEC
 DISK USED  *       366.58 MB      
 **********************************************************************************************************************************

1PROGRAM * MULTI (Direct Multiconfiguration SCF)       Authors: P.J. Knowles, H.-J. Werner (1984)     S.T. Elbert (1988)


 Number of closed-shell orbitals:   4 (   1   1   1   0   1   0   0   0 )
 Number of active  orbitals:        6 (   3   0   0   1   0   1   1   0 )
 Number of external orbitals:     180 (  50  26  26  16  26  16  16   4 )

 State symmetry 1

 Orbital occupancy restrictions for symmetry 1
  1      1       002000                          

 Number of electrons:     7    Spin symmetry=Sextet    Space symmetry=1
 Number of states:        2
 Number of CSFs:          2

 State symmetry 2

 Orbital occupancy restrictions for symmetry 4
  1      1       002000                          

 Number of electrons:     7    Spin symmetry=Sextet    Space symmetry=4
 Number of states:        1
 Number of CSFs:          1

 State symmetry 3

 Orbital occupancy restrictions for symmetry 6
  1      1       002000                          

 Number of electrons:     7    Spin symmetry=Sextet    Space symmetry=6
 Number of states:        1
 Number of CSFs:          1

 State symmetry 4

 Orbital occupancy restrictions for symmetry 7
  1      1       002000                          

 Number of electrons:     7    Spin symmetry=Sextet    Space symmetry=7
 Number of states:        1
 Number of CSFs:          1

 Iteration controls:
             1  2  3  4  5  6  7  8  9 10 11 12 13 14 15 16 17 18 19 20 21 22 23 24 25 26 27 28 29 30 31 32 33 34 35 36 37 38 39
 DIAGCI      T  T  T  T  T  T  T  T  T  T  T  T  T  T  T  T  T  T  T  T  T  T  T  T  T  T  T  T  T  T  T  T  T  T  T  T  T  T  T
 WERNER      T  T  T  T  T  T  T  T  T  T  T  T  T  T  T  T  T  T  T  T  T  T  T  T  T  T  T  T  T  T  T  T  T  T  T  T  T  T  T
 INTERNAL    F  T  T  T  T  T  T  T  T  T  T  T  T  T  T  T  T  T  T  T  T  T  T  T  T  T  T  T  T  T  T  T  T  T  T  T  T  T  T
 
 Maximum number of shells:             2
 Maximum number of spin couplings:     6

 Storage for configuration lists      93, coupling coefficients    299, address lists    409

 Molecular orbitals read from record     4202.2  Type=RHF/CANONICAL (state 1.1)
 *** IN SYMMETRY 1 ORBITAL  1 SYMMETRY CONTAMINATION OF 0.224D-01 HAS BEEN REMOVED
 *** IN SYMMETRY 1 ORBITAL  2 SYMMETRY CONTAMINATION OF 0.123D+00 HAS BEEN REMOVED
 *** IN SYMMETRY 1 ORBITAL  3 SYMMETRY CONTAMINATION OF 0.136D+00 HAS BEEN REMOVED
 *** IN SYMMETRY 1 ORBITAL  4 SYMMETRY CONTAMINATION OF 0.251D-01 HAS BEEN REMOVED

 EXTRA SYMMETRY OF MOS IN SYMMETRY 1:   1 3 2 1 1 2 3 1 2 3   1 2 3 1 4 6 5 2 3 1   2 3 4 6 5 1 2 3 4 6   5 1 3 1 2 3 1 2 3 1
                                        1 1 2 3 1 1 1 1 1 1   1 1 1 2
 *** IN SYMMETRY 2 ORBITAL  1 SYMMETRY CONTAMINATION OF 0.879D-02 HAS BEEN REMOVED
 EXTRA SYMMETRY OF MOS IN SYMMETRY 2:   1 1 1 1 2 3 1 1 1 3   1 2 3 1 2 3 1 1 1 1   1 1 1 1 1 1 2
 *** IN SYMMETRY 3 ORBITAL  1 SYMMETRY CONTAMINATION OF 0.735D-02 HAS BEEN REMOVED
 EXTRA SYMMETRY OF MOS IN SYMMETRY 3:   1 1 1 1 2 3 1 1 1 1   1 2 3 1 2 3 1 1 1 1   1 1 1 1 1 2 3
 *** IN SYMMETRY 4 ORBITAL  1 SYMMETRY CONTAMINATION OF 0.317D-02 HAS BEEN REMOVED
 EXTRA SYMMETRY OF MOS IN SYMMETRY 4:   1 1 1 1 2 3 1 1 2 3   1 2 3 1 1 1 1
 *** IN SYMMETRY 5 ORBITAL  1 SYMMETRY CONTAMINATION OF 0.531D-02 HAS BEEN REMOVED
 EXTRA SYMMETRY OF MOS IN SYMMETRY 5:   1 1 1 1 1 3 1 1 1 3   1 2 3 1 2 3 1 1 1 1   1 1 1 1 1 2 2
 *** IN SYMMETRY 6 ORBITAL  1 SYMMETRY CONTAMINATION OF 0.350D-02 HAS BEEN REMOVED
 EXTRA SYMMETRY OF MOS IN SYMMETRY 6:   1 1 1 1 2 3 1 1 2 3   1 2 3 1 1 1 1
 *** IN SYMMETRY 7 ORBITAL  1 SYMMETRY CONTAMINATION OF 0.528D-02 HAS BEEN REMOVED
 EXTRA SYMMETRY OF MOS IN SYMMETRY 7:   1 1 1 1 2 3 1 1 2 3   1 2 3 1 1 1 1

 Wavefunction dump at record             5202.2

 Convergence thresholds  0.10E-01 (gradient)  0.10E-05 (energy)  0.10E-02 (step length)

 Weight factors for state symmetry  1:    0.20000   0.20000
 Weight factors for state symmetry  2:    0.20000
 Weight factors for state symmetry  3:    0.20000
 Weight factors for state symmetry  4:    0.20000

 Eigenvalues of redundancy matrix
   1-  3   -0.000000    0.000000    1.000000

 Non-redundant active-active orbital rotations:
     1  2  3  4  5
  2   
  3     +
  4         
  5            
  6               

 Number of orbital rotations:      330   (     3 Core/Active    128 Core/Virtual   1 Active/Active    198 Active/Virtual)
 Total number of variables:        337


 ITER. MIC  NCI  NEG     ENERGY(VAR)     ENERGY(PROJ)   ENERGY CHANGE     GRAD(0)  GRAD(ORB)   GRAD(CI)     STEP       TIME

   1   35   28    0    -103.11309152    -103.11708908   -0.00399756    4.61743458 0.00000000 0.00000000  0.68D-01      0.26
   2   26   20    0    -103.11045035    -103.11611111   -0.00566076   24.43852190 0.00000001 0.00000000  0.16D-02      0.54
   3   37   20    0    -103.11611111    -103.11611111   -0.00000000    0.00000100 0.00000000 0.00000000  0.94D-06      0.87

 ** WVFN ****  CONVERGENCE REACHED, FINAL GRADIENT:  0.28D-07



 Results for state 1.1
 =====================

 !MCSCF STATE 1.1 Energy             -103.116111107318
 Nuclear energy                         0.00000000
 Kinetic energy                        58.52328658
 One electron energy                 -182.37425202
 Two electron energy                   79.25814091
 Virial ratio                           2.76196720

 !MCSCF STATE 1.1 Dipole moment         0.00000000     0.00000000     0.00000000
 Dipole moment /Debye                   0.00000000     0.00000000     0.00000000

 Results for state 2.1
 =====================

 !MCSCF STATE 2.1 Energy             -103.116111107318
 Nuclear energy                         0.00000000
 Kinetic energy                        58.52328658
 One electron energy                 -182.37425202
 Two electron energy                   79.25814091
 Virial ratio                           2.76196720

 !MCSCF STATE 2.1 Dipole moment         0.00000000     0.00000000     0.00000000
 Dipole moment /Debye                   0.00000000     0.00000000     0.00000000



 Results for state 1.4
 =====================

 !MCSCF STATE 1.4 Energy             -103.116111107318
 Nuclear energy                         0.00000000
 Kinetic energy                        58.52328658
 One electron energy                 -182.37425202
 Two electron energy                   79.25814091
 Virial ratio                           2.76196720

 !MCSCF STATE 1.4 Dipole moment         0.00000000     0.00000000     0.00000000
 Dipole moment /Debye                   0.00000000     0.00000000     0.00000000



 Results for state 1.6
 =====================

 !MCSCF STATE 1.6 Energy             -103.116111107318
 Nuclear energy                         0.00000000
 Kinetic energy                        58.52328658
 One electron energy                 -182.37425202
 Two electron energy                   79.25814091
 Virial ratio                           2.76196720

 !MCSCF STATE 1.6 Dipole moment         0.00000000     0.00000000     0.00000000
 Dipole moment /Debye                   0.00000000     0.00000000     0.00000000



 Results for state 1.7
 =====================

 !MCSCF STATE 1.7 Energy             -103.116111107318
 Nuclear energy                         0.00000000
 Kinetic energy                        58.52328658
 One electron energy                 -182.37425202
 Two electron energy                   79.25814091
 Virial ratio                           2.76196720

 !MCSCF STATE 1.7 Dipole moment         0.00000000     0.00000000     0.00000000
 Dipole moment /Debye                   0.00000000     0.00000000     0.00000000

 State-averaged charge density matrix saved on record  5202.2 (density set 1)


 NATURAL ORBITALS (state averaged)
 =================================

   Orb     Occ        Energy       Coefficients

                                   1 1s      1 1s      1 1s      1 1s      1 1s      1 1s      1 1s      1 1s      1 1s      1 1s   
                                   1 1s      1 1s      1 1s      1 1s      1 1s      1 1s      1 1s      1 1s      1 1s      1 1s   
                                   1 1s      1 1s      1 1s      1 3d0     1 3d2+    1 3d0     1 3d2+    1 3d0     1 3d2+    1 3d0  
                                   1 3d2+    1 3d0     1 3d2+    1 3d0     1 3d2+    1 3d0     1 3d2+    1 3d0     1 3d2+    1 3d0  
                                   1 3d2+    1 3d0     1 3d2+    1 3d0     1 3d2+    1 5g0     1 5g4+    1 5g2+    1 5g0     1 5g4+ 
                                   1 5g2+    1 5g0     1 5g4+    1 5g2+ 

   1.1  2.00000    -3.728764    -0.000000  0.000000 -0.000000  0.000003 -0.000011  0.000045 -0.000158  0.000513 -0.001558  0.004561
                                -0.013661  0.043502  0.021214 -0.544834 -0.049998  0.871545  0.424844  0.018370 -0.009374  0.004118
                                 0.226567 -0.130960 -0.001027  0.000000  0.000000  0.000000  0.000000  0.000000  0.000000  0.000000
                                 0.000000  0.000000  0.000000  0.000000  0.000000  0.000000  0.000000  0.000000  0.000000  0.000000
                                 0.000000  0.000000  0.000000  0.000000  0.000000  0.000000  0.000000  0.000000  0.000000  0.000000
                                 0.000000  0.000000  0.000000  0.000000

   2.1  1.20000    -0.045326     0.000000  0.000000  0.000000  0.000000  0.000000  0.000000  0.000000  0.000000  0.000000  0.000000
                                 0.000000  0.000000  0.000000  0.000000  0.000000  0.000000  0.000000  0.000000  0.000000  0.000000
                                 0.000000  0.000000  0.000000  0.000278  0.000000  0.024671  0.000000  0.095046  0.000000  0.196122
                                 0.000000  0.536878  0.000000  0.357101  0.000000  0.264618  0.000000  0.085299  0.000000  0.036245
                                 0.000000 -0.196880  0.000000 -0.002119  0.000000  0.000000  0.000000  0.000000  0.000000  0.000000
                                 0.000000  0.000000  0.000000  0.000000

   3.1  1.20000    -0.045326     0.000000  0.000000  0.000000  0.000000  0.000000  0.000000  0.000000  0.000000  0.000000  0.000000
                                 0.000000  0.000000  0.000000  0.000000  0.000000  0.000000  0.000000  0.000000  0.000000  0.000000
[...]
                                   1 2pz     1 2pz     1 2pz     1 2pz     1 2pz     1 2pz     1 2pz     1 2pz     1 2pz     1 4f0  
                                   1 4f2+    1 4f0     1 4f2+    1 4f0     1 4f2+    1 4f0     1 4f2+ 

   1.5  2.00000    -2.143125     0.000000 -0.000002  0.000014 -0.000060  0.000231 -0.000851  0.003228  0.000116 -0.088535 -0.013265
                                 0.326403  0.179600  0.295806  0.049410 -0.003249  0.002329  0.042408  0.272398 -0.000584  0.000000
                                 0.000000  0.000000  0.000000  0.000000  0.000000  0.000000  0.000000

                                   1 3d1+    1 3d1+    1 3d1+    1 3d1+    1 3d1+    1 3d1+    1 3d1+    1 3d1+    1 3d1+    1 3d1+ 
                                   1 3d1+    1 5g1+    1 5g3+    1 5g1+    1 5g3+    1 5g1+    1 5g3+ 

   1.6  1.20000     0.127660     0.000277  0.024705  0.095119  0.198089  0.510229  0.358960  0.260196  0.087036  0.034006 -0.169659
                                 0.002550  0.000000  0.000000  0.000000  0.000000  0.000000  0.000000

                                   1 3d1-    1 3d1-    1 3d1-    1 3d1-    1 3d1-    1 3d1-    1 3d1-    1 3d1-    1 3d1-    1 3d1- 
                                   1 3d1-    1 5g1-    1 5g3-    1 5g1-    1 5g3-    1 5g1-    1 5g3- 

   1.7  1.20000     0.127660     0.000277  0.024705  0.095119  0.198089  0.510229  0.358960  0.260196  0.087036  0.034006 -0.169659
                                 0.002550  0.000000  0.000000  0.000000  0.000000  0.000000  0.000000

 Total charge:  -1.000000000000
 

 EXTRA SYMMETRY OF MOS IN SYMMETRY 1:   1 1 2 3 1 3 2 1 2 3   1 2 3 1 6 5 4 3 2 1   2 3 6 4 5 1 2 3 4 5   6 2 3 1 2 3 1 2 3 1
                                        1 1 2 3 1 1 1 1 1 1   1 1 1 1
 EXTRA SYMMETRY OF MOS IN SYMMETRY 2:   1 1 1 1 2 3 1 1 3 2   1 3 2 1 2 3 1 1 1 1   1 1 1 1 1 1 1
 EXTRA SYMMETRY OF MOS IN SYMMETRY 3:   1 1 1 1 3 2 1 1 3 2   1 3 2 1 3 2 1 1 1 1   1 1 1 1 1 1 1
 EXTRA SYMMETRY OF MOS IN SYMMETRY 4:   1 1 1 1 2 3 1 1 3 2   1 3 2 1 1 1 1
 EXTRA SYMMETRY OF MOS IN SYMMETRY 5:   1 1 1 1 3 2 1 1 2 3   1 3 2 1 2 3 1 1 1 1   1 1 1 1 1 1 1
 EXTRA SYMMETRY OF MOS IN SYMMETRY 6:   1 1 1 1 2 3 1 1 3 2   1 3 2 1 1 1 1
 EXTRA SYMMETRY OF MOS IN SYMMETRY 7:   1 1 1 1 2 3 1 1 3 2   1 3 2 1 1 1 1

 Natural orbital dump (state averaged) at molpro section  5202.2    (Orbital set 2)


 CI vector for state symmetry 1
 ==============================

 a2 a a a          1.0000000   0.0000000
 2a a a a          0.0000000   1.0000000

 TOTAL ENERGIES                      -103.10027457  -103.10027457

 CI vector for state symmetry 2
 ==============================

 aa 2 a a          1.0000000

 TOTAL ENERGIES                      -103.10027457

 CI vector for state symmetry 3
 ==============================

 aa a 2 a          1.0000000

 TOTAL ENERGIES                      -103.10027457

 CI vector for state symmetry 4
 ==============================

 aa a a 2          1.0000000

 TOTAL ENERGIES                      -103.10027457



 **********************************************************************************************************************************
 DATASETS  * FILE   NREC   LENGTH (MB)   RECORD NAMES
              1      21       98.27       500      610      700      900      950      970     1000      129      960     1100   
                                          VAR    BASINP    GEOM    SYMINP    ZMAT    AOBASIS   BASIS     P2S    ABASIS      S 
                                         1400     1410     1420     1200     1210     1080     1600     1650     1300     1700   
                                           T        V       ECP      H0       H01     AOSYM     SMH    MOLCAS    ERIS     OPER   
                                         1380   
                                         JKOP   

              2      21       44.07       200      700     1000      520     4202     5202     2101     5202(1)  6202     2103   
                                        OPTIONS   GEOM     BASIS   MCVARS     RHF     MCSCF     RHF     MCSCF    MCSCF     RHF  
                                         5202(2)  2105     2107     2109     2115     2117     2119     2121     2123     2110   
                                         MCSCF     RHF      RHF      RHF      RHF      RHF      RHF      RHF      RHF      RHF  
                                         2111   
                                          RHF  

 PROGRAMS   *        TOTAL     MULTI       POP       RHF  RCCSD(T)       RHF  RCCSD(T)       RHF  RCCSD(T)       RHF     MULTI
 CPU TIMES  *       180.03      0.98      0.00      1.02      0.89      0.43      4.21      0.45      5.20      0.06      0.71
 REAL TIME  *       204.25 SEC
 DISK USED  *       368.84 MB      
 **********************************************************************************************************************************

1PROGRAM * RHF-SCF (OPEN SHELL)       Authors: W. Meyer, H.-J. Werner


 NUMBER OF ELECTRONS:      10+    6-    SPACE SYMMETRY=1    SPIN SYMMETRY: Quintet 
 CONVERGENCE THRESHOLDS:    1.00E-05 (Density)    1.00E-07 (Energy)
 MAX. NUMBER OF ITERATIONS:        0
 INTERPOLATION TYPE:            DIIS
 INTERPOLATION STEPS:              2 (START)      1 (STEP)
 LEVEL SHIFTS:                 -0.30 (CLOSED)  0.00 (OPEN) 


 Singly occupied orbitals:      4.1       1.4       1.6       1.7
 Molecular orbitals read from record     5202.2  Type=MCSCF/NATURAL  

 Molecular orbital dump at record        2113.2

 ITERATION    DDIFF          GRAD             ENERGY        2-EL.EN.            DIPOLE MOMENTS         DIIS   ORB.
    1      0.000D+00      0.000D+00      -103.10027457    163.767442    0.00000    0.00000    0.00000    0    start

 Final alpha occupancy:   4   1   1   1   1   1   1   0
 Final beta  occupancy:   3   1   1   0   1   0   0   0

 !RHF STATE 1.1 Energy               -103.100274566074
 Nuclear energy                         0.00000000
 One-electron energy                 -184.98399564
 Two-electron energy                   81.88372108
 Virial quotient                       -1.76051571
 !RHF STATE 1.1 Dipole moment           0.00000000     0.00000000     0.00000000
 Dipole moment /Debye                   0.00000000     0.00000000     0.00000000

 Orbital energies:

         1.1          2.1          3.1          4.1          5.1          6.1
     -3.554658    -0.017133     0.127660     0.127660     0.130901     0.206974

         1.2          2.2          3.2
     -2.143125     0.118134     0.214421

         1.3          2.3          3.3
     -2.143125     0.118134     0.214421

         1.4          2.4          3.4
      0.127660     0.206974     0.500437

         1.5          2.5          3.5
     -2.143125     0.118134     0.214421

         1.6          2.6          3.6
      0.127660     0.206974     0.500437

         1.7          2.7          3.7
      0.127660     0.206974     0.500437

         1.8          2.8
      1.000513     2.683536

 HOMO      4.1     0.127660 =       3.4738eV
 LUMO      2.2     0.118134 =       3.2146eV
 LUMO-HOMO        -0.009526 =      -0.2592eV


 **********************************************************************************************************************************
 DATASETS  * FILE   NREC   LENGTH (MB)   RECORD NAMES
              1      21       98.27       500      610      700      900      950      970     1000      129      960     1100   
                                          VAR    BASINP    GEOM    SYMINP    ZMAT    AOBASIS   BASIS     P2S    ABASIS      S 
                                         1400     1410     1420     1200     1210     1080     1600     1650     1300     1700   
                                           T        V       ECP      H0       H01     AOSYM     SMH    MOLCAS    ERIS     OPER   
                                         1380   
                                         JKOP   

              2      22       46.86       200      700     1000      520     4202     5202     2101     5202(1)  6202     2103   
                                        OPTIONS   GEOM     BASIS   MCVARS     RHF     MCSCF     RHF     MCSCF    MCSCF     RHF  
                                         5202(2)  2105     2107     2109     2115     2117     2119     2121     2123     2110   
                                         MCSCF     RHF      RHF      RHF      RHF      RHF      RHF      RHF      RHF      RHF  
                                         2111     2113   
                                          RHF      RHF  

 PROGRAMS   *        TOTAL       RHF     MULTI       POP       RHF  RCCSD(T)       RHF  RCCSD(T)       RHF  RCCSD(T)       RHF
 CPU TIMES  *       180.11      0.08      0.98      0.00      1.02      0.89      0.43      4.21      0.45      5.20      0.06
 REAL TIME  *       204.38 SEC
 DISK USED  *       368.84 MB      
 **********************************************************************************************************************************
 SETTING SCF(13)        =      -103.10027457  AU                              
 SETTING _CC_NORM_MAX   =         2.00000000                                  


1PROGRAM * CCSD (Restricted open-shell coupled cluster)     Authors: C. Hampel, H.-J. Werner, 1991, M. Deegan, P.J. Knowles, 1992


 Convergence thresholds:  THRVAR = 1.00D-08  THRDEN = 1.00D-06

 CCSD(T)     terms to be evaluated (factor= 1.000)


 Number of closed-shell orbitals:   6 (   3   1   1   0   1   0   0   0 )
 Number of active  orbitals:        4 (   1   0   0   1   0   1   1   0 )
 Number of external orbitals:     180 (  50  26  26  16  26  16  16   4 )

 Memory could be reduced to 15.36 Mwords without degradation in triples

 Number of N-1 electron functions:              16
 Number of N-2 electron functions:             120
 Number of singly external CSFs:               564
 Number of doubly external CSFs:            407634
 Total number of CSFs:                      408198

 Molecular orbitals read from record     2113.2  Type=RHF/CANONICAL (state 1.1)

 Integral transformation finished. Total CPU:   0.46 sec, npass=  1  Memory used:   2.63 MW

 Starting RMP2 calculation

 Wavefunction is spin-projected

 ITER.      SQ.NORM     CORR.ENERGY   TOTAL ENERGY   ENERGY CHANGE        DEN1      VAR(S)    VAR(P)  DIIS     TIME
   1      1.13431270    -0.65360850  -103.75388307    -0.65360850    -0.00240147  0.76D-04  0.21D-02  1  1     0.50
   2      1.14067002    -0.65623555  -103.75651012    -0.00262705    -0.00007518  0.30D-05  0.12D-03  2  2     0.53
   3      1.14245027    -0.65662887  -103.75690343    -0.00039331    -0.00000186  0.11D-06  0.33D-05  3  3     0.55
   4      1.14269594    -0.65666321  -103.75693778    -0.00003435    -0.00000005  0.90D-08  0.93D-07  4  4     0.58
   5      1.14271226    -0.65666398  -103.75693854    -0.00000077    -0.00000000  0.12D-08  0.31D-08  5  5     0.60

 Norm of t1 vector:      0.07097844      S-energy:    -0.00771951      T1 diagnostic:  0.00986634
 Norm of t2 vector:      0.37104491      P-energy:    -0.64894447
                                         Alpha-Beta:  -0.43654550
                                         Alpha-Alpha: -0.16142009
                                         Beta-Beta:   -0.05097889

 Spin contamination <S**2-Sz**2-Sz>     0.00000000
  Reference energy                   -103.100274566073
  RHF-RMP2 correlation energy          -0.656663976609
 !RHF-RMP2 energy                    -103.756938542682
 (NB above energy spin projected)

 Starting RCCSD calculation

 ITER.      SQ.NORM     CORR.ENERGY   TOTAL ENERGY   ENERGY CHANGE        DEN1      VAR(S)    VAR(P)  DIIS     TIME
   1      1.13743637    -0.62415437  -103.72442893    -0.62415437    -0.01821511  0.95D-02  0.49D-02  1  1     1.60
   2      1.16930298    -0.63914771  -103.73942228    -0.01499335    -0.00343051  0.28D-02  0.17D-02  2  2     2.49
   3      1.20632624    -0.64414041  -103.74441497    -0.00499269    -0.00119900  0.18D-02  0.34D-03  3  3     3.25
   4      1.24112614    -0.64804915  -103.74832371    -0.00390874    -0.00035710  0.51D-03  0.12D-03  4  4     4.01
   5      1.27659678    -0.65061317  -103.75088773    -0.00256402    -0.00009855  0.15D-03  0.42D-04  5  5     4.88
   6      1.28769801    -0.65105448  -103.75132904    -0.00044131    -0.00004509  0.56D-04  0.22D-04  6  6     5.65
   7      1.30125602    -0.65155282  -103.75182738    -0.00049834    -0.00001583  0.25D-04  0.45D-05  6  1     6.42
   8      1.30767299    -0.65166793  -103.75194249    -0.00011511    -0.00000406  0.47D-05  0.17D-05  6  3     7.18
   9      1.31084071    -0.65179005  -103.75206462    -0.00012212    -0.00000126  0.14D-05  0.85D-06  6  2     7.95
  10      1.31066864    -0.65178387  -103.75205844     0.00000618    -0.00000049  0.68D-06  0.29D-06  6  4     8.72
  11      1.31064538    -0.65178681  -103.75206138    -0.00000294    -0.00000024  0.37D-06  0.11D-06  6  5     9.49
  12      1.31043590    -0.65177860  -103.75205317     0.00000821    -0.00000012  0.20D-06  0.37D-07  6  3    10.28
  13      1.31007087    -0.65176577  -103.75204034     0.00001283    -0.00000008  0.12D-06  0.18D-07  6  6    11.08
  14      1.31003382    -0.65176374  -103.75203831     0.00000203    -0.00000006  0.91D-07  0.14D-07  6  1    11.93
  15      1.30991530    -0.65175842  -103.75203299     0.00000532    -0.00000005  0.75D-07  0.12D-07  6  2    12.78
  16      1.30993419    -0.65175583  -103.75203039     0.00000260    -0.00000003  0.58D-07  0.11D-07  6  4    13.55
  17      1.31010626    -0.65175893  -103.75203350    -0.00000311    -0.00000001  0.21D-07  0.40D-08  6  3    14.33
  18      1.31019304    -0.65176024  -103.75203481    -0.00000131    -0.00000001  0.77D-08  0.25D-08  6  4    15.10
  19      1.31027030    -0.65176272  -103.75203729    -0.00000248    -0.00000000  0.96D-09  0.63D-09  6  5    15.87
  20      1.31029250    -0.65176348  -103.75203805    -0.00000076    -0.00000000  0.18D-09  0.13D-09  6  1    16.78

 Norm of t1 vector:      0.35559279      S-energy:    -0.01228265      T1 diagnostic:  0.06001200
                                                                       D1 diagnostic:  0.18562309
 Norm of t2 vector:      0.42877298      P-energy:    -0.63948083
                                         Alpha-Beta:  -0.44824087
                                         Alpha-Alpha: -0.14252048
                                         Beta-Beta:   -0.04871948

 Singles amplitudes (print threshold =  0.500E-01):

         I         SYM. A    A   T(IA) [Alpha-Alpha]

         2         1         2     -0.18166684
         2         1         5     -0.12626338
         2         1         8      0.05695666
         3         1         4      0.07758666
         3         1         6      0.06749760
 
         I         SYM. A    A   T(IA) [Beta-Beta]

         2         1         2     -0.11570853
         2         1         5     -0.05803385
         3         1         4      0.14129303
         3         1         6      0.14032341
         3         1         9      0.05209481

 Doubles amplitudes (print threshold =  0.500E-01):

         I         J         SYM. A    SYM. B    A         B      T(IJ, AB) [Alpha-Beta]

         2         2         2         2         2         2     -0.08815433
         2         2         3         3         2         2     -0.08815433
         2         2         5         5         2         2     -0.08270099

 Spin contamination <S**2-Sz**2-Sz>     0.00000000

 Memory could be reduced to 16.27 Mwords without degradation in triples
 

  Correlated core orbitals:             1.1       1.2       1.3       1.5
  Orbital energies:                    -3.7116   -2.3581   -2.3581   -2.2897
 
  RCCSD core-core energy               -0.171459968509
  RCCSD core-valence energy            -0.277690914956
  RCCSD valence correlation energy     -0.202612596478
 

 RESULTS
 =======

  Reference energy                   -103.100274566073
  RCCSD singles energy                 -0.012282650617
  RCCSD pair energy                    -0.639480829327
  RCCSD correlation energy             -0.651763479944
  Triples (T) contribution             -0.029077593091
  Total correlation energy             -0.680841073035
 
  RHF-RCCSD energy                   -103.752038046017
  RHF-RCCSD[T] energy                -103.785063156502
  RHF-RCCSD-T energy                 -103.780699682733
 !RHF-RCCSD(T) energy                -103.781115639108

 Program statistics:

 Available memory in ccsd:               511999000
 Min. memory needed in ccsd:               1298638
 Max. memory used in ccsd:                 1789520
 Max. memory used in cckext:               1376750 (20 integral passes)
 Max. memory used in cckint:               2632391 ( 1 integral passes)



 **********************************************************************************************************************************
 DATASETS  * FILE   NREC   LENGTH (MB)   RECORD NAMES
              1      21       98.27       500      610      700      900      950      970     1000      129      960     1100   
                                          VAR    BASINP    GEOM    SYMINP    ZMAT    AOBASIS   BASIS     P2S    ABASIS      S 
                                         1400     1410     1420     1200     1210     1080     1600     1650     1300     1700   
                                           T        V       ECP      H0       H01     AOSYM     SMH    MOLCAS    ERIS     OPER   
                                         1380   
                                         JKOP   

              2      22       46.86       200      700     1000      520     4202     5202     2101     5202(1)  6202     2103   
                                        OPTIONS   GEOM     BASIS   MCVARS     RHF     MCSCF     RHF     MCSCF    MCSCF     RHF  
                                         5202(2)  2105     2107     2109     2115     2117     2119     2121     2123     2110   
                                         MCSCF     RHF      RHF      RHF      RHF      RHF      RHF      RHF      RHF      RHF  
                                         2111     2113   
                                          RHF      RHF  

 PROGRAMS   *        TOTAL  RCCSD(T)       RHF     MULTI       POP       RHF  RCCSD(T)       RHF  RCCSD(T)       RHF  RCCSD(T)
 CPU TIMES  *       212.11     32.00      0.08      0.98      0.00      1.02      0.89      0.43      4.21      0.45      5.20
 REAL TIME  *       239.40 SEC
 DISK USED  *       405.98 MB      
 **********************************************************************************************************************************
 SETTING CCSD(13)       =      -103.78111564  AU                              
 Output type csv         
                                                                                                                                                                                                                                                                

        SCF,CCSD
   -103.24349372,   -103.83477063
   -103.11611111,   -103.75073287
   -102.89795855,   -103.61304863
   -103.02559139,   -103.56353760
   -102.88917894,   -103.48891970
   -102.47827207,   -102.98650363
   -101.27881095,   -101.75179114
    -99.42743102,    -99.86629968
    -96.79388721,    -97.20940156
    -93.30137485,    -93.70415022
    -88.94320352,    -89.33059175
    -30.46191214,    -30.56206950
   -103.10027457,   -103.78111564
                                                  

        RCCSD(T)        RHF-SCF         MULTI           RHF-SCF         RCCSD(T)        RHF-SCF         RCCSD(T)        RHF-SCF 
   -103.78111564   -103.10027457   -103.10027457   -103.10649990    -30.56206950    -30.46191214    -89.33059175    -88.94320352
 **********************************************************************************************************************************
 Variable memory released
