 Entering Gaussian System, Link 0=g16
 Initial command:
 /home1/apps/gaussian/16rA.03/g16/l1.exe "/tmp/Gau-241015.inp" -scrdir="/tmp/"
 Entering Link 1 = /home1/apps/gaussian/16rA.03/g16/l1.exe PID=    241016.
  
 Copyright (c) 1988,1990,1992,1993,1995,1998,2003,2009,2016,
            Gaussian, Inc.  All Rights Reserved.
  
 This is part of the Gaussian(R) 16 program.  It is based on
 the Gaussian(R) 09 system (copyright 2009, Gaussian, Inc.),
 the Gaussian(R) 03 system (copyright 2003, Gaussian, Inc.),
 the Gaussian(R) 98 system (copyright 1998, Gaussian, Inc.),
 the Gaussian(R) 94 system (copyright 1995, Gaussian, Inc.),
 the Gaussian 92(TM) system (copyright 1992, Gaussian, Inc.),
 the Gaussian 90(TM) system (copyright 1990, Gaussian, Inc.),
 the Gaussian 88(TM) system (copyright 1988, Gaussian, Inc.),
 the Gaussian 86(TM) system (copyright 1986, Carnegie Mellon
 University), and the Gaussian 82(TM) system (copyright 1983,
 Carnegie Mellon University). Gaussian is a federally registered
 trademark of Gaussian, Inc.
  
 This software contains proprietary and confidential information,
 including trade secrets, belonging to Gaussian, Inc.
  
 This software is provided under written license and may be
 used, copied, transmitted, or stored only in accord with that
 written license.
  
 The following legend is applicable only to US Government
 contracts under FAR:
  
                    RESTRICTED RIGHTS LEGEND
  
 Use, reproduction and disclosure by the US Government is
 subject to restrictions as set forth in subparagraphs (a)
 and (c) of the Commercial Computer Software - Restricted
 Rights clause in FAR 52.227-19.
  
 Gaussian, Inc.
 340 Quinnipiac St., Bldg. 40, Wallingford CT 06492
  
  
 ---------------------------------------------------------------
 Warning -- This program may not be used in any manner that
 competes with the business of Gaussian, Inc. or will provide
 assistance to any competitor of Gaussian, Inc.  The licensee
 of this program is prohibited from giving any competitor of
 Gaussian, Inc. access to this program.  By using this program,
 the user acknowledges that Gaussian, Inc. is engaged in the
 business of creating and licensing software in the field of
 computational chemistry and represents and warrants to the
 licensee that it is not a competitor of Gaussian, Inc. and that
 it will not use this program in any manner prohibited above.
 ---------------------------------------------------------------
  

 Cite this work as:
 Gaussian 16, Revision A.03,
 M. J. Frisch, G. W. Trucks, H. B. Schlegel, G. E. Scuseria, 
 M. A. Robb, J. R. Cheeseman, G. Scalmani, V. Barone, 
 G. A. Petersson, H. Nakatsuji, X. Li, M. Caricato, A. V. Marenich, 
 J. Bloino, B. G. Janesko, R. Gomperts, B. Mennucci, H. P. Hratchian, 
 J. V. Ortiz, A. F. Izmaylov, J. L. Sonnenberg, D. Williams-Young, 
 F. Ding, F. Lipparini, F. Egidi, J. Goings, B. Peng, A. Petrone, 
 T. Henderson, D. Ranasinghe, V. G. Zakrzewski, J. Gao, N. Rega, 
 G. Zheng, W. Liang, M. Hada, M. Ehara, K. Toyota, R. Fukuda, 
 J. Hasegawa, M. Ishida, T. Nakajima, Y. Honda, O. Kitao, H. Nakai, 
 T. Vreven, K. Throssell, J. A. Montgomery, Jr., J. E. Peralta, 
 F. Ogliaro, M. J. Bearpark, J. J. Heyd, E. N. Brothers, K. N. Kudin, 
 V. N. Staroverov, T. A. Keith, R. Kobayashi, J. Normand, 
 K. Raghavachari, A. P. Rendell, J. C. Burant, S. S. Iyengar, 
 J. Tomasi, M. Cossi, J. M. Millam, M. Klene, C. Adamo, R. Cammi, 
 J. W. Ochterski, R. L. Martin, K. Morokuma, O. Farkas, 
 J. B. Foresman, and D. J. Fox, Gaussian, Inc., Wallingford CT, 2016.
 
 ******************************************
 Gaussian 16:  ES64L-G16RevA.03 25-Dec-2016
                 7-Mar-2018 
 ******************************************
 %MEM=160GB
 %CPU=0-31
 SetSPE:  set environment variable "MP_BIND" = "yes"
 SetSPE:  set environment variable "MP_BLIST" = "0,1,2,3,4,5,6,7,8,9,10,11,12,13,14,15,16,17,18,19,20,21,22,23,24,25,26,27,28,29,30,31"
 Will use up to   32 processors via shared memory.
 %RWF=/scratch/04843/aannabe/gaussian/
 %Int=/scratch/04843/aannabe/gaussian/
 %D2E=/scratch/04843/aannabe/gaussian/
 %NoSave
 %CHK=CrO
 ----------------------------------------------------------------------
 #P ROCCSD(T)=(maxcyc=150, Full, SaveAmplitudes, ReadAmplitudes)/Gen 5d
  7f SCF=(maxcycles=300) Integral(NoXCTest, DKHSO) MaxDisk=500GB Pop=Re
 gular Guess=Read IOp(5/15=2)
 ----------------------------------------------------------------------
 1/38=1,172=1/1;
 2/12=2,17=6,18=5,40=1/2;
 3/5=7,8=11,11=2,25=1,30=1,47=8,91=5,116=101/1,2,3;
 4/5=1/1;
 5/5=2,7=300,15=2,38=6/2;
 8/5=-1,6=4,9=120000,10=90,24=1/1,4;
 9/5=7,6=150,14=2,77=1/13;
 6//1;
 99/5=1,9=1/99;
 Leave Link    1 at Wed Mar  7 00:09:46 2018, MaxMem= 21474836480 cpu:               3.9 elap:               0.1
 (Enter /home1/apps/gaussian/16rA.03/g16/l101.exe)
 ---
 CrO
 ---
 Symbolic Z-matrix:
 Charge =  0 Multiplicity = 5
 Cr                    0.        0.        0. 
 O                     0.        0.        1.2 
 
 ITRead=  0  0
 MicOpt= -1 -1
 NAtoms=      2 NQM=        2 NQMF=       0 NMMI=      0 NMMIF=      0
                NMic=       0 NMicF=      0.
                    Isotopes and Nuclear Properties:
 (Nuclear quadrupole moments (NQMom) in fm**2, nuclear magnetic moments (NMagM)
  in nuclear magnetons)

  Atom         1           2
 IAtWgt=          52          16
 AtmWgt=  51.9405097  15.9949146
 NucSpn=           0           0
 AtZEff=  -0.0000000  -0.0000000
 NQMom=    0.0000000   0.0000000
 NMagM=    0.0000000   0.0000000
 AtZNuc=  24.0000000   8.0000000
 Leave Link  101 at Wed Mar  7 00:09:46 2018, MaxMem= 21474836480 cpu:               2.8 elap:               0.1
 (Enter /home1/apps/gaussian/16rA.03/g16/l202.exe)
                          Input orientation:                          
 ---------------------------------------------------------------------
 Center     Atomic      Atomic             Coordinates (Angstroms)
 Number     Number       Type             X           Y           Z
 ---------------------------------------------------------------------
      1         24           0        0.000000    0.000000    0.000000
      2          8           0        0.000000    0.000000    1.200000
 ---------------------------------------------------------------------
 Stoichiometry    CrO(5)
 Framework group  C*V[C*(OCr)]
 Deg. of freedom     1
 Full point group                 C*V     NOp   4
 Largest Abelian subgroup         C2V     NOp   4
 Largest concise Abelian subgroup C1      NOp   1
                         Standard orientation:                         
 ---------------------------------------------------------------------
 Center     Atomic      Atomic             Coordinates (Angstroms)
 Number     Number       Type             X           Y           Z
 ---------------------------------------------------------------------
      1         24           0        0.000000    0.000000    0.300000
      2          8           0        0.000000    0.000000   -0.900000
 ---------------------------------------------------------------------
 Rotational constants (GHZ):           0.0000000          28.6987424          28.6987424
 Leave Link  202 at Wed Mar  7 00:09:47 2018, MaxMem= 21474836480 cpu:               0.5 elap:               0.0
 (Enter /home1/apps/gaussian/16rA.03/g16/l301.exe)
 General basis read from cards:  (5D, 7F)
 Centers:       1
 S 1 1.00
     Exponent=  6.1771940000D+06 Coefficients=  1.0000000000D+00
 S 1 1.00
     Exponent=  9.2492950000D+05 Coefficients=  1.0000000000D+00
 S 1 1.00
     Exponent=  2.1048650000D+05 Coefficients=  1.0000000000D+00
 S 1 1.00
     Exponent=  5.9620050000D+04 Coefficients=  1.0000000000D+00
 S 1 1.00
     Exponent=  1.9450760000D+04 Coefficients=  1.0000000000D+00
 S 1 1.00
     Exponent=  7.0220560000D+03 Coefficients=  1.0000000000D+00
 S 1 1.00
     Exponent=  2.7387630000D+03 Coefficients=  1.0000000000D+00
 S 1 1.00
     Exponent=  1.1358140000D+03 Coefficients=  1.0000000000D+00
 S 1 1.00
     Exponent=  4.9509230000D+02 Coefficients=  1.0000000000D+00
 S 1 1.00
     Exponent=  2.2474870000D+02 Coefficients=  1.0000000000D+00
 S 1 1.00
     Exponent=  1.0538360000D+02 Coefficients=  1.0000000000D+00
 S 1 1.00
     Exponent=  5.0193590000D+01 Coefficients=  1.0000000000D+00
 S 1 1.00
     Exponent=  2.2249570000D+01 Coefficients=  1.0000000000D+00
 S 1 1.00
     Exponent=  1.0982650000D+01 Coefficients=  1.0000000000D+00
 S 1 1.00
     Exponent=  5.3836650000D+00 Coefficients=  1.0000000000D+00
 S 1 1.00
     Exponent=  2.3436850000D+00 Coefficients=  1.0000000000D+00
 S 1 1.00
     Exponent=  1.1052020000D+00 Coefficients=  1.0000000000D+00
 S 1 1.00
     Exponent=  4.8784800000D-01 Coefficients=  1.0000000000D+00
 S 1 1.00
     Exponent=  8.9599000000D-02 Coefficients=  1.0000000000D+00
 S 1 1.00
     Exponent=  3.3423000000D-02 Coefficients=  1.0000000000D+00
 S 1 1.00
     Exponent=  4.8281000000D+00 Coefficients=  1.0000000000D+00
 S 1 1.00
     Exponent=  1.1499000000D+00 Coefficients=  1.0000000000D+00
 S 1 1.00
     Exponent=  1.2470000000D-02 Coefficients=  1.0000000000D+00
 P 1 1.00
     Exponent=  1.4454200000D+04 Coefficients=  1.0000000000D+00
 P 1 1.00
     Exponent=  3.4216760000D+03 Coefficients=  1.0000000000D+00
 P 1 1.00
     Exponent=  1.1113870000D+03 Coefficients=  1.0000000000D+00
 P 1 1.00
     Exponent=  4.2519180000D+02 Coefficients=  1.0000000000D+00
 P 1 1.00
     Exponent=  1.8026230000D+02 Coefficients=  1.0000000000D+00
 P 1 1.00
     Exponent=  8.2061170000D+01 Coefficients=  1.0000000000D+00
 P 1 1.00
     Exponent=  3.9297260000D+01 Coefficients=  1.0000000000D+00
 P 1 1.00
     Exponent=  1.9419590000D+01 Coefficients=  1.0000000000D+00
 P 1 1.00
     Exponent=  9.8288990000D+00 Coefficients=  1.0000000000D+00
 P 1 1.00
     Exponent=  5.0168100000D+00 Coefficients=  1.0000000000D+00
 P 1 1.00
     Exponent=  2.4870910000D+00 Coefficients=  1.0000000000D+00
 P 1 1.00
     Exponent=  1.1987800000D+00 Coefficients=  1.0000000000D+00
 P 1 1.00
     Exponent=  5.5869500000D-01 Coefficients=  1.0000000000D+00
 P 1 1.00
     Exponent=  2.0936600000D-01 Coefficients=  1.0000000000D+00
 P 1 1.00
     Exponent=  8.4722000000D-02 Coefficients=  1.0000000000D+00
 P 1 1.00
     Exponent=  3.3278000000D-02 Coefficients=  1.0000000000D+00
 P 1 1.00
     Exponent=  5.2718000000D+00 Coefficients=  1.0000000000D+00
 P 1 1.00
     Exponent=  1.2083000000D+00 Coefficients=  1.0000000000D+00
 P 1 1.00
     Exponent=  1.3070000000D-02 Coefficients=  1.0000000000D+00
 D 1 1.00
     Exponent=  8.9474500000D+01 Coefficients=  1.0000000000D+00
 D 1 1.00
     Exponent=  2.6336800000D+01 Coefficients=  1.0000000000D+00
 D 1 1.00
     Exponent=  9.5342900000D+00 Coefficients=  1.0000000000D+00
 D 1 1.00
     Exponent=  3.8211800000D+00 Coefficients=  1.0000000000D+00
 D 1 1.00
     Exponent=  1.5716900000D+00 Coefficients=  1.0000000000D+00
 D 1 1.00
     Exponent=  6.2642200000D-01 Coefficients=  1.0000000000D+00
 D 1 1.00
     Exponent=  2.3305500000D-01 Coefficients=  1.0000000000D+00
 D 1 1.00
     Exponent=  7.6303000000D-02 Coefficients=  1.0000000000D+00
 D 1 1.00
     Exponent=  3.4093000000D+00 Coefficients=  1.0000000000D+00
 D 1 1.00
     Exponent=  1.5874000000D+00 Coefficients=  1.0000000000D+00
 D 1 1.00
     Exponent=  2.4980000000D-02 Coefficients=  1.0000000000D+00
 F 1 1.00
     Exponent=  4.3629000000D+00 Coefficients=  1.0000000000D+00
 F 1 1.00
     Exponent=  1.5864000000D+00 Coefficients=  1.0000000000D+00
 F 1 1.00
     Exponent=  5.2310000000D-01 Coefficients=  1.0000000000D+00
 F 1 1.00
     Exponent=  1.7249000000D-01 Coefficients=  1.0000000000D+00
 G 1 1.00
     Exponent=  4.0406000000D+00 Coefficients=  1.0000000000D+00
 G 1 1.00
     Exponent=  1.4199000000D+00 Coefficients=  1.0000000000D+00
 G 1 1.00
     Exponent=  4.9896000000D-01 Coefficients=  1.0000000000D+00
 ****
 Centers:       2
 S 1 1.00
     Exponent=  1.5330000000D+04 Coefficients=  1.0000000000D+00
 S 1 1.00
     Exponent=  2.2990000000D+03 Coefficients=  1.0000000000D+00
 S 1 1.00
     Exponent=  5.2240000000D+02 Coefficients=  1.0000000000D+00
 S 1 1.00
     Exponent=  1.4730000000D+02 Coefficients=  1.0000000000D+00
 S 1 1.00
     Exponent=  4.7550000000D+01 Coefficients=  1.0000000000D+00
 S 1 1.00
     Exponent=  1.6760000000D+01 Coefficients=  1.0000000000D+00
 S 1 1.00
     Exponent=  6.2070000000D+00 Coefficients=  1.0000000000D+00
 S 1 1.00
     Exponent=  6.8820000000D-01 Coefficients=  1.0000000000D+00
 S 1 1.00
     Exponent=  1.7520000000D+00 Coefficients=  1.0000000000D+00
 S 1 1.00
     Exponent=  2.3840000000D-01 Coefficients=  1.0000000000D+00
 S 1 1.00
     Exponent=  7.8450000000D+00 Coefficients=  1.0000000000D+00
 S 1 1.00
     Exponent=  2.1032000000D+01 Coefficients=  1.0000000000D+00
 S 1 1.00
     Exponent=  7.3760000000D-02 Coefficients=  1.0000000000D+00
 P 1 1.00
     Exponent=  3.4460000000D+01 Coefficients=  1.0000000000D+00
 P 1 1.00
     Exponent=  7.7490000000D+00 Coefficients=  1.0000000000D+00
 P 1 1.00
     Exponent=  2.2800000000D+00 Coefficients=  1.0000000000D+00
 P 1 1.00
     Exponent=  7.1560000000D-01 Coefficients=  1.0000000000D+00
 P 1 1.00
     Exponent=  2.1400000000D-01 Coefficients=  1.0000000000D+00
 P 1 1.00
     Exponent=  1.5159000000D+01 Coefficients=  1.0000000000D+00
 P 1 1.00
     Exponent=  5.7437000000D+01 Coefficients=  1.0000000000D+00
 P 1 1.00
     Exponent=  5.9740000000D-02 Coefficients=  1.0000000000D+00
 D 1 1.00
     Exponent=  2.3140000000D+00 Coefficients=  1.0000000000D+00
 D 1 1.00
     Exponent=  6.4500000000D-01 Coefficients=  1.0000000000D+00
 D 1 1.00
     Exponent=  1.5858000000D+01 Coefficients=  1.0000000000D+00
 D 1 1.00
     Exponent=  2.1400000000D-01 Coefficients=  1.0000000000D+00
 F 1 1.00
     Exponent=  1.4280000000D+00 Coefficients=  1.0000000000D+00
 F 1 1.00
     Exponent=  5.0000000000D-01 Coefficients=  1.0000000000D+00
 ****
 Ernie: Thresh=  0.10000D-02 Tol=  0.10000D-05 Strict=F.
 There are   144 symmetry adapted cartesian basis functions of A1  symmetry.
 There are    30 symmetry adapted cartesian basis functions of A2  symmetry.
 There are    69 symmetry adapted cartesian basis functions of B1  symmetry.
 There are    69 symmetry adapted cartesian basis functions of B2  symmetry.
 There are   114 symmetry adapted basis functions of A1  symmetry.
 There are    27 symmetry adapted basis functions of A2  symmetry.
 There are    60 symmetry adapted basis functions of B1  symmetry.
 There are    60 symmetry adapted basis functions of B2  symmetry.
   261 basis functions,   312 primitive gaussians,   312 cartesian basis functions
    18 alpha electrons       14 beta electrons
       nuclear repulsion energy        84.6683537472 Hartrees.
 IExCor=    0 DFT=F Ex=HF Corr=None ExCW=0 ScaHFX=  1.000000
 ScaDFX=  1.000000  1.000000  1.000000  1.000000 ScalE2=  1.000000  1.000000
 IRadAn=      5 IRanWt=     -1 IRanGd=            0 ICorTp=0 IEmpDi=  4
 NAtoms=    2 NActive=    2 NUniq=    2 SFac= 1.00D+00 NAtFMM=   60 NAOKFM=F Big=F
 Integral buffers will be    131072 words long.
 Raffenetti 2 integral format.
 Two-electron integral symmetry is turned on.
 FoFCou: FMM=F IPFlag=           8 FMFlag=           0 FMFlg1=           0
         NFxFlg=           0 DoJE=F BraDBF=T KetDBF=T FulRan=T
         wScrn=  0.000000 ICntrl=       600 IOpCl=  3 I1Cent=           6 NGrid=           0
         NMat0=    1 NMatS0=      2 NMatT0=    0 NMatD0=    1 NMtDS0=    0 NMtDT0=    0
 Symmetry not used in FoFCou.
 Finite nuclear repulsion energy        84.6683537472.
 Leave Link  301 at Wed Mar  7 00:09:47 2018, MaxMem= 21474836480 cpu:               4.7 elap:               0.2
 (Enter /home1/apps/gaussian/16rA.03/g16/l302.exe)
 Using DK4 one-electron Hamiltonian with SO, DoBoet=T.
 NPDir=0 NMtPBC=     1 NCelOv=     1 NCel=       1 NClECP=     1 NCelD=      1
         NCelK=      1 NCelE2=     1 NClLst=     1 CellRange=     0.0.
 One-electron integrals computed using PRISM.
 One-electron integral symmetry used in STVInt
 FoFCou: FMM=F IPFlag=           8 FMFlag=      100000 FMFlg1=           0
         NFxFlg=           0 DoJE=T BraDBF=F KetDBF=T FulRan=T
         wScrn=  0.000000 ICntrl=       500 IOpCl=  0 I1Cent=           4 NGrid=           0
         NMat0=    1 NMatS0=      1 NMatT0=    0 NMatD0=    1 NMtDS0=    0 NMtDT0=    0
 Symmetry not used in FoFCou.
 UnConB:  Uncontracting AO basis from    261 functions to    261 functions (excluding duplicates).
 RelInt: Using uncontracted basis, NUnBas=   261 NBsUse=   261 0.100E-13 EigKep=  3.06D-08 EigRej= -1.00D+00
 NBasis=   261 RedAO= T EigKep=  1.69D-06  NBF=   114    27    60    60
 NBsUse=   252 1.00D-06 EigRej=  4.85D-07 NBFU=   110    26    58    58
 Leave Link  302 at Wed Mar  7 00:09:53 2018, MaxMem= 21474836480 cpu:              49.8 elap:               1.9
 (Enter /home1/apps/gaussian/16rA.03/g16/l303.exe)
 DipDrv:  MaxL=1.
 Leave Link  303 at Wed Mar  7 00:09:53 2018, MaxMem= 21474836480 cpu:               1.2 elap:               0.1
 (Enter /home1/apps/gaussian/16rA.03/g16/l401.exe)
 Initial guess from the checkpoint file:  "CrO.chk"
 B after Tr=     0.000000    0.000000    0.000000
         Rot=    1.000000    0.000000    0.000000    0.000000 Ang=   0.00 deg.
 Guess basis will be translated and rotated to current coordinates.
 JPrj=2 DoOrth=T DoCkMO=T.
 Initial guess orbital symmetries:
       Occupied  (SG) (SG) (SG) (PI) (PI) (SG) (SG) (SG) (PI) (PI)
                 (SG) (SG) (?A) (?A) (?B) (?B) (?B) (?A)
       Virtual   (?B) (?A) (?A) (SG) (?B) (?A) (?A) (?B) (?B) (?A)
                 (?B) (?A) (SG) (?A) (?B) (?A) (?A) (?B) (?B) (?B)
                 (?A) (?A) (?B) (?A) (?A) (?B) (SG) (DLTA) (DLTA)
                 (PHI) (PHI) (?A) (SG) (?A) (?A) (?A) (?C) (?C)
                 (?C) (?C) (?A) (?A) (?C) (?C) (?A) (?A) (SG) (SG)
                 (?A) (?A) (SG) (DLTA) (DLTA) (?D) (?D) (?D) (?D)
                 (SG) (PHI) (PHI) (SG) (?E) (?E) (?A) (?A) (?E)
                 (?F) (?F) (?A) (?A) (DLTA) (DLTA) (PHI) (PHI)
                 (?G) (?A) (?A) (?G) (?G) (?G) (?A) (?A) (DLTA)
                 (DLTA) (SG) (SG) (?A) (?A) (?A) (?A) (SG) (PHI)
                 (PHI) (DLTA) (DLTA) (SG) (?A) (SG) (?A) (SG) (PI)
                 (PI) (?H) (?A) (?A) (?A) (?A) (?H) (?H) (?F) (?F)
                 (PHI) (PHI) (?I) (?I) (?I) (DLTA) (DLTA) (?A)
                 (?A) (?I) (?I) (?A) (?A) (SG) (?A) (?A) (SG) (SG)
                 (?A) (?A) (?A) (?A) (DLTA) (DLTA) (SG) (?A) (?A)
                 (SG) (PI) (PI) (SG) (?G) (?G) (?G) (?A) (?A) (?G)
                 (SG) (?D) (?D) (?J) (?J) (?J) (?J) (?D) (?D) (SG)
                 (PI) (PI) (SG) (DLTA) (DLTA) (PI) (PI) (SG) (SG)
                 (SG) (PI) (PI) (DLTA) (DLTA) (SG) (?A) (?A) (SG)
                 (PI) (PI) (SG) (DLTA) (DLTA) (PI) (PI) (SG) (SG)
                 (SG) (PI) (PI) (SG) (PI) (PI) (SG) (SG) (SG) (PI)
                 (PI) (SG) (DLTA) (DLTA) (PI) (PI) (SG) (PI) (PI)
                 (SG) (SG) (SG) (PI) (PI) (SG) (SG) (SG) (PI) (PI)
                 (SG) (SG) (PI) (PI) (SG) (SG) (SG) (PI) (PI) (SG)
                 (SG) (SG) (PI) (PI) (SG) (SG) (SG) (SG) (SG) (SG)
 Leave Link  401 at Wed Mar  7 00:09:54 2018, MaxMem= 21474836480 cpu:               5.4 elap:               0.2
 (Enter /home1/apps/gaussian/16rA.03/g16/l502.exe)
 Keep R1 and R2 ints in memory in symmetry-blocked form, NReq=734602573.
 FoFCou: FMM=F IPFlag=           8 FMFlag=           0 FMFlg1=           0
         NFxFlg=           0 DoJE=F BraDBF=F KetDBF=F FulRan=T
         wScrn=  0.000000 ICntrl=       600 IOpCl=  0 I1Cent=           0 NGrid=           0
         NMat0=    1 NMatS0=  34191 NMatT0=    0 NMatD0=    1 NMtDS0=    0 NMtDT0=    0
 Petite list used in FoFCou.
 Restricted open shell SCF:
 Using DIIS extrapolation, IDIIS=  1040.
 NGot= 21474836480 LenX= 21174565133 LenY= 21174467348
 Requested convergence on RMS density matrix=1.00D-08 within 300 cycles.
 Requested convergence on MAX density matrix=1.00D-06.
 Requested convergence on             energy=1.00D-06.
 No special actions if energy rises.

 Cycle   1  Pass 1  IDiag  1:
 E= -1124.04103724179    
 DIIS: error= 6.93D-02 at cycle   1 NSaved=   1.
 NSaved= 1 IEnMin= 1 EnMin= -1124.04103724179     IErMin= 1 ErrMin= 6.93D-02
 ErrMax= 6.93D-02  0.00D+00 EMaxC= 1.00D-01 BMatC= 3.37D-01 BMatP= 3.37D-01
 IDIUse=3 WtCom= 3.07D-01 WtEn= 6.93D-01
 Coeff-Com:  0.100D+01
 Coeff-En:   0.100D+01
 Coeff:      0.100D+01
 Fock symm off for IB=4 I1=   58 I=  252 J=  183 Cut=1.00D-07 Err=1.02D-07
 Fock matrix is not symmetric: symmetry in diagonalization turned off.
 Gap=    -0.162 Goal=   None    Shift=    0.000
 GapD=   -0.162 DampG=0.250 DampE=0.250 DampFc=0.1250 IDamp=-1.
 Damping current iteration by 1.25D-01
 RMSDP=2.02D-03 MaxDP=9.05D-02              OVMax= 1.00D+00

 Cycle   2  Pass 1  IDiag  1:
 E= -1124.05461317248     Delta-E=       -0.013575930692 Rises=F Damp=T
 DIIS: error= 6.17D-02 at cycle   2 NSaved=   2.
 NSaved= 2 IEnMin= 2 EnMin= -1124.05461317248     IErMin= 2 ErrMin= 6.17D-02
 ErrMax= 6.17D-02  0.00D+00 EMaxC= 1.00D-01 BMatC= 2.54D-01 BMatP= 3.37D-01
 IDIUse=3 WtCom= 3.83D-01 WtEn= 6.17D-01
 Coeff-Com: -0.224D+01 0.324D+01
 Coeff-En:   0.000D+00 0.100D+01
 Coeff:     -0.860D+00 0.186D+01
 Gap=     0.049 Goal=   None    Shift=    0.000
 RMSDP=1.99D-03 MaxDP=1.11D-01 DE=-1.36D-02 OVMax= 6.11D-01

 Cycle   3  Pass 1  IDiag  1:
 E= -1124.10640375896     Delta-E=       -0.051790586483 Rises=F Damp=F
 DIIS: error= 3.23D-02 at cycle   3 NSaved=   3.
 NSaved= 3 IEnMin= 3 EnMin= -1124.10640375896     IErMin= 3 ErrMin= 3.23D-02
 ErrMax= 3.23D-02  0.00D+00 EMaxC= 1.00D-01 BMatC= 3.79D-02 BMatP= 2.54D-01
 IDIUse=3 WtCom= 6.77D-01 WtEn= 3.23D-01
 Coeff-Com: -0.120D+01 0.140D+01 0.798D+00
 Coeff-En:   0.000D+00 0.266D+00 0.734D+00
 Coeff:     -0.812D+00 0.103D+01 0.777D+00
 Gap=     0.087 Goal=   None    Shift=    0.000
 RMSDP=1.73D-03 MaxDP=1.42D-01 DE=-5.18D-02 OVMax= 4.12D-01

 Cycle   4  Pass 1  IDiag  1:
 E= -1124.19725970120     Delta-E=       -0.090855942243 Rises=F Damp=F
 DIIS: error= 1.75D-02 at cycle   4 NSaved=   4.
 NSaved= 4 IEnMin= 4 EnMin= -1124.19725970120     IErMin= 4 ErrMin= 1.75D-02
 ErrMax= 1.75D-02  0.00D+00 EMaxC= 1.00D-01 BMatC= 2.31D-02 BMatP= 3.79D-02
 IDIUse=3 WtCom= 8.25D-01 WtEn= 1.75D-01
 Coeff-Com: -0.925D+00 0.103D+01 0.435D+00 0.458D+00
 Coeff-En:   0.000D+00 0.000D+00 0.126D+00 0.874D+00
 Coeff:     -0.763D+00 0.852D+00 0.381D+00 0.531D+00
 Gap=     0.065 Goal=   None    Shift=    0.000
 RMSDP=2.08D-03 MaxDP=1.33D-01 DE=-9.09D-02 OVMax= 2.77D-01

 Cycle   5  Pass 1  IDiag  1:
 Density matrix breaks symmetry, PCut= 1.00D-07
 Density matrix has no symmetry -- integrals replicated.
 E= -1124.20212873076     Delta-E=       -0.004869029558 Rises=F Damp=F
 DIIS: error= 1.34D-02 at cycle   5 NSaved=   5.
 NSaved= 5 IEnMin= 5 EnMin= -1124.20212873076     IErMin= 5 ErrMin= 1.34D-02
 ErrMax= 1.34D-02  0.00D+00 EMaxC= 1.00D-01 BMatC= 1.20D-02 BMatP= 2.31D-02
 IDIUse=3 WtCom= 8.66D-01 WtEn= 1.34D-01
 Coeff-Com: -0.661D+00 0.729D+00 0.303D-01 0.326D+00 0.576D+00
 Coeff-En:   0.000D+00 0.000D+00 0.000D+00 0.472D+00 0.528D+00
 Coeff:     -0.572D+00 0.631D+00 0.262D-01 0.345D+00 0.569D+00
 Gap=     0.069 Goal=   None    Shift=    0.000
 RMSDP=2.47D-03 MaxDP=1.83D-01 DE=-4.87D-03 OVMax= 2.84D-01

 Cycle   6  Pass 1  IDiag  1:
 Density matrix breaks symmetry, PCut= 1.00D-07
 Density matrix has no symmetry -- integrals replicated.
 E= -1124.21711182145     Delta-E=       -0.014983090688 Rises=F Damp=F
 DIIS: error= 9.53D-03 at cycle   6 NSaved=   6.
 NSaved= 6 IEnMin= 6 EnMin= -1124.21711182145     IErMin= 6 ErrMin= 9.53D-03
 ErrMax= 9.53D-03  0.00D+00 EMaxC= 1.00D-01 BMatC= 6.71D-03 BMatP= 1.20D-02
 IDIUse=3 WtCom= 9.05D-01 WtEn= 9.53D-02
 Coeff-Com: -0.438D+00 0.488D+00-0.150D+00 0.750D-01 0.503D+00 0.523D+00
 Coeff-En:   0.000D+00 0.000D+00 0.000D+00 0.000D+00 0.382D+00 0.618D+00
 Coeff:     -0.396D+00 0.441D+00-0.136D+00 0.678D-01 0.491D+00 0.532D+00
 Gap=     0.035 Goal=   None    Shift=    0.000
 RMSDP=2.00D-03 MaxDP=1.46D-01 DE=-1.50D-02 OVMax= 2.04D-01

 Cycle   7  Pass 1  IDiag  1:
 Density matrix breaks symmetry, PCut= 1.00D-07
 Density matrix has no symmetry -- integrals replicated.
 E= -1124.23125978499     Delta-E=       -0.014147963539 Rises=F Damp=F
 DIIS: error= 5.79D-03 at cycle   7 NSaved=   7.
 NSaved= 7 IEnMin= 7 EnMin= -1124.23125978499     IErMin= 7 ErrMin= 5.79D-03
 ErrMax= 5.79D-03  0.00D+00 EMaxC= 1.00D-01 BMatC= 2.63D-03 BMatP= 6.71D-03
 IDIUse=3 WtCom= 9.42D-01 WtEn= 5.79D-02
 Coeff-Com: -0.306D+00 0.344D+00-0.113D+00-0.573D-01 0.226D+00 0.425D+00
 Coeff-Com:  0.481D+00
 Coeff-En:   0.000D+00 0.000D+00 0.000D+00 0.000D+00 0.000D+00 0.275D+00
 Coeff-En:   0.725D+00
 Coeff:     -0.288D+00 0.324D+00-0.106D+00-0.540D-01 0.213D+00 0.416D+00
 Coeff:      0.495D+00
 Gap=     0.027 Goal=   None    Shift=    0.000
 RMSDP=1.24D-03 MaxDP=1.06D-01 DE=-1.41D-02 OVMax= 2.00D-01

 Cycle   8  Pass 1  IDiag  1:
 Density matrix breaks symmetry, PCut= 1.00D-07
 Density matrix has no symmetry -- integrals replicated.
 E= -1124.22696312907     Delta-E=        0.004296655917 Rises=F Damp=F
 DIIS: error= 8.02D-03 at cycle   8 NSaved=   8.
 NSaved= 8 IEnMin= 7 EnMin= -1124.23125978499     IErMin= 7 ErrMin= 5.79D-03
 ErrMax= 8.02D-03  0.00D+00 EMaxC= 1.00D-01 BMatC= 3.75D-03 BMatP= 2.63D-03
 IDIUse=3 WtCom= 9.42D-01 WtEn= 5.79D-02
 EnCoef did     5 forward-backward iterations
 Coeff-Com: -0.273D+00 0.308D+00-0.870D-01-0.680D-01 0.585D-01 0.269D+00
 Coeff-Com:  0.490D+00 0.302D+00
 Coeff-En:   0.000D+00 0.000D+00 0.000D+00 0.000D+00 0.000D+00 0.753D-01
 Coeff-En:   0.562D+00 0.363D+00
 Coeff:     -0.257D+00 0.290D+00-0.819D-01-0.640D-01 0.551D-01 0.258D+00
 Coeff:      0.494D+00 0.306D+00
 Gap=     0.028 Goal=   None    Shift=    0.000
 RMSDP=9.82D-04 MaxDP=9.85D-02 DE= 4.30D-03 OVMax= 1.99D-01

 Cycle   9  Pass 1  IDiag  1:
 E= -1124.23755400212     Delta-E=       -0.010590873045 Rises=F Damp=F
 DIIS: error= 3.90D-03 at cycle   9 NSaved=   9.
 NSaved= 9 IEnMin= 9 EnMin= -1124.23755400212     IErMin= 9 ErrMin= 3.90D-03
 ErrMax= 3.90D-03  0.00D+00 EMaxC= 1.00D-01 BMatC= 8.58D-04 BMatP= 2.63D-03
 IDIUse=3 WtCom= 9.61D-01 WtEn= 3.90D-02
 Coeff-Com: -0.228D+00 0.256D+00-0.479D-01-0.466D-01 0.139D-02 0.105D+00
 Coeff-Com:  0.277D+00 0.286D+00 0.397D+00
 Coeff-En:   0.000D+00 0.000D+00 0.000D+00 0.000D+00 0.000D+00 0.000D+00
 Coeff-En:   0.000D+00 0.238D+00 0.762D+00
 Coeff:     -0.219D+00 0.246D+00-0.460D-01-0.448D-01 0.134D-02 0.101D+00
 Coeff:      0.266D+00 0.284D+00 0.411D+00
 Gap=     0.030 Goal=   None    Shift=    0.000
 RMSDP=2.75D-04 MaxDP=2.45D-02 DE=-1.06D-02 OVMax= 5.22D-02

 Cycle  10  Pass 1  IDiag  1:
 Density matrix breaks symmetry, PCut= 1.00D-07
 Density matrix has no symmetry -- integrals replicated.
 E= -1124.23823352807     Delta-E=       -0.000679525958 Rises=F Damp=F
 DIIS: error= 4.35D-03 at cycle  10 NSaved=  10.
 NSaved=10 IEnMin=10 EnMin= -1124.23823352807     IErMin= 9 ErrMin= 3.90D-03
 ErrMax= 4.35D-03  0.00D+00 EMaxC= 1.00D-01 BMatC= 6.37D-04 BMatP= 8.58D-04
 IDIUse=3 WtCom= 9.61D-01 WtEn= 3.90D-02
 EnCoef did     2 forward-backward iterations
 Coeff-Com: -0.135D+00 0.153D+00-0.405D-03 0.230D-01 0.248D-01-0.112D+00
 Coeff-Com: -0.397D+00-0.221D+00 0.910D-01 0.157D+01
 Coeff-En:   0.000D+00 0.000D+00 0.000D+00 0.000D+00 0.000D+00 0.000D+00
 Coeff-En:   0.000D+00 0.230D+00 0.739D+00 0.311D-01
 Coeff:     -0.130D+00 0.147D+00-0.389D-03 0.221D-01 0.238D-01-0.108D+00
 Coeff:     -0.382D+00-0.203D+00 0.116D+00 0.151D+01
 Gap=     0.025 Goal=   None    Shift=    0.000
 RMSDP=4.10D-04 MaxDP=3.54D-02 DE=-6.80D-04 OVMax= 5.19D-02

 Cycle  11  Pass 1  IDiag  1:
 Density matrix breaks symmetry, PCut= 1.00D-07
 Density matrix has no symmetry -- integrals replicated.
 E= -1124.24021867862     Delta-E=       -0.001985150551 Rises=F Damp=F
 DIIS: error= 2.62D-03 at cycle  11 NSaved=  11.
 NSaved=11 IEnMin=11 EnMin= -1124.24021867862     IErMin=11 ErrMin= 2.62D-03
 ErrMax= 2.62D-03  0.00D+00 EMaxC= 1.00D-01 BMatC= 3.66D-04 BMatP= 6.37D-04
 IDIUse=3 WtCom= 9.74D-01 WtEn= 2.62D-02
 Coeff-Com: -0.113D+00 0.128D+00 0.179D-02 0.357D-01 0.258D-01-0.993D-01
 Coeff-Com: -0.391D+00-0.244D+00-0.828D-01 0.135D+01 0.384D+00
 Coeff-En:   0.000D+00 0.000D+00 0.000D+00 0.000D+00 0.000D+00 0.000D+00
 Coeff-En:   0.000D+00 0.487D-01 0.000D+00 0.000D+00 0.951D+00
 Coeff:     -0.110D+00 0.125D+00 0.175D-02 0.348D-01 0.251D-01-0.967D-01
 Coeff:     -0.380D+00-0.237D+00-0.807D-01 0.132D+01 0.399D+00
 Gap=     0.026 Goal=   None    Shift=    0.000
 RMSDP=6.78D-04 MaxDP=6.90D-02 DE=-1.99D-03 OVMax= 4.64D-02

 Cycle  12  Pass 1  IDiag  1:
 Density matrix breaks symmetry, PCut= 1.00D-07
 Density matrix has no symmetry -- integrals replicated.
 E= -1124.24064556078     Delta-E=       -0.000426882154 Rises=F Damp=F
 DIIS: error= 2.39D-03 at cycle  12 NSaved=  12.
 NSaved=12 IEnMin=12 EnMin= -1124.24064556078     IErMin=12 ErrMin= 2.39D-03
 ErrMax= 2.39D-03  0.00D+00 EMaxC= 1.00D-01 BMatC= 2.78D-04 BMatP= 3.66D-04
 IDIUse=3 WtCom= 9.76D-01 WtEn= 2.39D-02
 Coeff-Com: -0.968D-01 0.110D+00-0.805D-02 0.378D-01 0.191D-01-0.229D-01
 Coeff-Com: -0.188D+00-0.140D+00-0.257D+00 0.528D+00 0.485D+00 0.532D+00
 Coeff-En:   0.000D+00 0.000D+00 0.000D+00 0.000D+00 0.000D+00 0.000D+00
 Coeff-En:   0.000D+00 0.000D+00 0.000D+00 0.000D+00 0.354D+00 0.646D+00
 Coeff:     -0.945D-01 0.107D+00-0.786D-02 0.369D-01 0.187D-01-0.223D-01
 Coeff:     -0.183D+00-0.137D+00-0.251D+00 0.516D+00 0.482D+00 0.535D+00
 Gap=     0.027 Goal=   None    Shift=    0.000
 RMSDP=4.13D-04 MaxDP=3.95D-02 DE=-4.27D-04 OVMax= 2.75D-02

 Cycle  13  Pass 1  IDiag  1:
 Density matrix breaks symmetry, PCut= 1.00D-07
 Density matrix has no symmetry -- integrals replicated.
 E= -1124.24123850966     Delta-E=       -0.000592948883 Rises=F Damp=F
 DIIS: error= 1.97D-03 at cycle  13 NSaved=  13.
 NSaved=13 IEnMin=13 EnMin= -1124.24123850966     IErMin=13 ErrMin= 1.97D-03
 ErrMax= 1.97D-03  0.00D+00 EMaxC= 1.00D-01 BMatC= 1.45D-04 BMatP= 2.78D-04
 IDIUse=3 WtCom= 9.80D-01 WtEn= 1.97D-02
 Coeff-Com: -0.845D-01 0.954D-01-0.121D-01 0.302D-01 0.995D-02 0.120D-01
 Coeff-Com: -0.513D-01-0.369D-01-0.231D+00 0.194D-01 0.209D+00 0.414D+00
 Coeff-Com:  0.626D+00
 Coeff-En:   0.000D+00 0.000D+00 0.000D+00 0.000D+00 0.000D+00 0.000D+00
 Coeff-En:   0.000D+00 0.000D+00 0.000D+00 0.000D+00 0.000D+00 0.000D+00
 Coeff-En:   0.100D+01
 Coeff:     -0.828D-01 0.935D-01-0.119D-01 0.296D-01 0.975D-02 0.118D-01
 Coeff:     -0.503D-01-0.362D-01-0.226D+00 0.190D-01 0.205D+00 0.406D+00
 Coeff:      0.633D+00
 Gap=     0.029 Goal=   None    Shift=    0.000
 RMSDP=7.45D-05 MaxDP=7.07D-03 DE=-5.93D-04 OVMax= 1.37D-02

 Cycle  14  Pass 1  IDiag  1:
 Density matrix breaks symmetry, PCut= 1.00D-07
 Density matrix has no symmetry -- integrals replicated.
 E= -1124.24153514943     Delta-E=       -0.000296639766 Rises=F Damp=F
 DIIS: error= 1.74D-03 at cycle  14 NSaved=  14.
 NSaved=14 IEnMin=14 EnMin= -1124.24153514943     IErMin=14 ErrMin= 1.74D-03
 ErrMax= 1.74D-03  0.00D+00 EMaxC= 1.00D-01 BMatC= 9.78D-05 BMatP= 1.45D-04
 IDIUse=3 WtCom= 9.83D-01 WtEn= 1.74D-02
 Coeff-Com: -0.612D-01 0.690D-01-0.111D-01 0.104D-01 0.680D-02 0.153D-01
 Coeff-Com:  0.362D-01 0.473D-01-0.528D-01-0.265D+00-0.248D+00-0.134D+00
 Coeff-Com:  0.566D+00 0.102D+01
 Coeff-En:   0.000D+00 0.000D+00 0.000D+00 0.000D+00 0.000D+00 0.000D+00
 Coeff-En:   0.000D+00 0.000D+00 0.000D+00 0.000D+00 0.000D+00 0.000D+00
 Coeff-En:   0.000D+00 0.100D+01
 Coeff:     -0.601D-01 0.678D-01-0.109D-01 0.102D-01 0.668D-02 0.150D-01
 Coeff:      0.355D-01 0.465D-01-0.518D-01-0.260D+00-0.244D+00-0.132D+00
 Coeff:      0.556D+00 0.102D+01
 Gap=     0.031 Goal=   None    Shift=    0.000
 RMSDP=9.93D-05 MaxDP=1.13D-02 DE=-2.97D-04 OVMax= 2.03D-02

 Cycle  15  Pass 1  IDiag  1:
 Density matrix breaks symmetry, PCut= 1.00D-07
 Density matrix has no symmetry -- integrals replicated.
 E= -1124.24187397990     Delta-E=       -0.000338830473 Rises=F Damp=F
 DIIS: error= 1.29D-03 at cycle  15 NSaved=  15.
 NSaved=15 IEnMin=15 EnMin= -1124.24187397990     IErMin=15 ErrMin= 1.29D-03
 ErrMax= 1.29D-03  0.00D+00 EMaxC= 1.00D-01 BMatC= 5.59D-05 BMatP= 9.78D-05
 IDIUse=3 WtCom= 9.87D-01 WtEn= 1.29D-02
 Coeff-Com: -0.492D-01 0.561D-01-0.100D-01 0.911D-03 0.154D-01 0.472D-02
 Coeff-Com: -0.307D-02 0.123D-02 0.944D-02-0.435D-01-0.185D+00-0.217D+00
 Coeff-Com:  0.467D-01 0.543D+00 0.830D+00
 Coeff-En:   0.000D+00 0.000D+00 0.000D+00 0.000D+00 0.000D+00 0.000D+00
 Coeff-En:   0.000D+00 0.000D+00 0.000D+00 0.000D+00 0.000D+00 0.000D+00
 Coeff-En:   0.000D+00 0.000D+00 0.100D+01
 Coeff:     -0.486D-01 0.553D-01-0.989D-02 0.899D-03 0.152D-01 0.466D-02
 Coeff:     -0.303D-02 0.121D-02 0.932D-02-0.429D-01-0.183D+00-0.214D+00
 Coeff:      0.461D-01 0.536D+00 0.832D+00
 Gap=     0.031 Goal=   None    Shift=    0.000
 RMSDP=8.53D-05 MaxDP=6.89D-03 DE=-3.39D-04 OVMax= 1.23D-02

 Cycle  16  Pass 1  IDiag  1:
 Density matrix breaks symmetry, PCut= 1.00D-07
 Density matrix has no symmetry -- integrals replicated.
 E= -1124.24202709702     Delta-E=       -0.000153117120 Rises=F Damp=F
 DIIS: error= 9.76D-04 at cycle  16 NSaved=  16.
 NSaved=16 IEnMin=16 EnMin= -1124.24202709702     IErMin=16 ErrMin= 9.76D-04
 ErrMax= 9.76D-04  0.00D+00 EMaxC= 1.00D-01 BMatC= 3.15D-05 BMatP= 5.59D-05
 IDIUse=3 WtCom= 9.90D-01 WtEn= 9.76D-03
 Coeff-Com: -0.331D-01 0.378D-01-0.357D-02 0.368D-02 0.702D-02-0.114D-01
 Coeff-Com: -0.355D-01-0.185D-01 0.180D-01 0.804D-01 0.264D-01-0.373D-01
 Coeff-Com: -0.268D+00-0.284D+00 0.523D+00 0.995D+00
 Coeff-En:   0.000D+00 0.000D+00 0.000D+00 0.000D+00 0.000D+00 0.000D+00
 Coeff-En:   0.000D+00 0.000D+00 0.000D+00 0.000D+00 0.000D+00 0.000D+00
 Coeff-En:   0.000D+00 0.000D+00 0.000D+00 0.100D+01
 Coeff:     -0.328D-01 0.374D-01-0.354D-02 0.365D-02 0.695D-02-0.113D-01
 Coeff:     -0.352D-01-0.183D-01 0.178D-01 0.796D-01 0.261D-01-0.369D-01
 Coeff:     -0.265D+00-0.282D+00 0.518D+00 0.995D+00
 Gap=     0.032 Goal=   None    Shift=    0.000
 RMSDP=1.05D-04 MaxDP=1.10D-02 DE=-1.53D-04 OVMax= 1.24D-02

 Cycle  17  Pass 1  IDiag  1:
 Density matrix breaks symmetry, PCut= 1.00D-07
 Density matrix has no symmetry -- integrals replicated.
 E= -1124.24214154617     Delta-E=       -0.000114449146 Rises=F Damp=F
 DIIS: error= 6.94D-04 at cycle  17 NSaved=  17.
 NSaved=17 IEnMin=17 EnMin= -1124.24214154617     IErMin=17 ErrMin= 6.94D-04
 ErrMax= 6.94D-04  0.00D+00 EMaxC= 1.00D-01 BMatC= 1.74D-05 BMatP= 3.15D-05
 IDIUse=3 WtCom= 9.93D-01 WtEn= 6.94D-03
 Coeff-Com: -0.236D-01 0.269D-01-0.182D-02 0.405D-02 0.595D-03-0.894D-02
 Coeff-Com: -0.251D-01-0.101D-01 0.129D-01 0.540D-01 0.910D-01 0.563D-01
 Coeff-Com: -0.213D+00-0.440D+00 0.208D-01 0.701D+00 0.755D+00
 Coeff-En:   0.000D+00 0.000D+00 0.000D+00 0.000D+00 0.000D+00 0.000D+00
 Coeff-En:   0.000D+00 0.000D+00 0.000D+00 0.000D+00 0.000D+00 0.000D+00
 Coeff-En:   0.000D+00 0.000D+00 0.000D+00 0.000D+00 0.100D+01
 Coeff:     -0.235D-01 0.267D-01-0.180D-02 0.402D-02 0.591D-03-0.888D-02
 Coeff:     -0.249D-01-0.999D-02 0.128D-01 0.536D-01 0.903D-01 0.559D-01
 Coeff:     -0.211D+00-0.437D+00 0.207D-01 0.696D+00 0.756D+00
 Gap=     0.033 Goal=   None    Shift=    0.000
 RMSDP=1.47D-04 MaxDP=9.13D-03 DE=-1.14D-04 OVMax= 1.26D-02

 Cycle  18  Pass 1  IDiag  1:
 Density matrix breaks symmetry, PCut= 1.00D-07
 Density matrix has no symmetry -- integrals replicated.
 E= -1124.24219284130     Delta-E=       -0.000051295137 Rises=F Damp=F
 DIIS: error= 5.08D-04 at cycle  18 NSaved=  18.
 NSaved=18 IEnMin=18 EnMin= -1124.24219284130     IErMin=18 ErrMin= 5.08D-04
 ErrMax= 5.08D-04  0.00D+00 EMaxC= 1.00D-01 BMatC= 1.20D-05 BMatP= 1.74D-05
 IDIUse=3 WtCom= 9.95D-01 WtEn= 5.08D-03
 Coeff-Com: -0.188D-01 0.214D-01-0.166D-02 0.312D-02-0.784D-03-0.549D-02
 Coeff-Com: -0.156D-01-0.542D-02 0.101D-01 0.282D-01 0.855D-01 0.686D-01
 Coeff-Com: -0.141D+00-0.375D+00-0.158D+00 0.401D+00 0.797D+00 0.306D+00
 Coeff-En:   0.000D+00 0.000D+00 0.000D+00 0.000D+00 0.000D+00 0.000D+00
 Coeff-En:   0.000D+00 0.000D+00 0.000D+00 0.000D+00 0.000D+00 0.000D+00
 Coeff-En:   0.000D+00 0.000D+00 0.000D+00 0.000D+00 0.000D+00 0.100D+01
 Coeff:     -0.187D-01 0.213D-01-0.165D-02 0.311D-02-0.780D-03-0.547D-02
 Coeff:     -0.155D-01-0.539D-02 0.101D-01 0.280D-01 0.851D-01 0.682D-01
 Coeff:     -0.141D+00-0.373D+00-0.157D+00 0.399D+00 0.793D+00 0.309D+00
 Gap=     0.033 Goal=   None    Shift=    0.000
 RMSDP=1.65D-04 MaxDP=1.18D-02 DE=-5.13D-05 OVMax= 1.21D-02

 Cycle  19  Pass 1  IDiag  1:
 Density matrix breaks symmetry, PCut= 1.00D-07
 Density matrix has no symmetry -- integrals replicated.
 E= -1124.24222316309     Delta-E=       -0.000030321785 Rises=F Damp=F
 DIIS: error= 4.01D-04 at cycle  19 NSaved=  19.
 NSaved=19 IEnMin=19 EnMin= -1124.24222316309     IErMin=19 ErrMin= 4.01D-04
 ErrMax= 4.01D-04  0.00D+00 EMaxC= 1.00D-01 BMatC= 6.97D-06 BMatP= 1.20D-05
 IDIUse=3 WtCom= 9.96D-01 WtEn= 4.01D-03
 Coeff-Com: -0.907D-02 0.104D-01-0.197D-02-0.672D-04 0.276D-03 0.155D-02
 Coeff-Com:  0.216D-02-0.370D-03 0.623D-02-0.195D-01 0.194D-01 0.292D-01
 Coeff-Com:  0.178D-01-0.621D-01-0.268D+00-0.218D+00 0.300D+00 0.517D+00
 Coeff-Com:  0.675D+00
 Coeff-En:   0.000D+00 0.000D+00 0.000D+00 0.000D+00 0.000D+00 0.000D+00
 Coeff-En:   0.000D+00 0.000D+00 0.000D+00 0.000D+00 0.000D+00 0.000D+00
 Coeff-En:   0.000D+00 0.000D+00 0.000D+00 0.000D+00 0.000D+00 0.198D+00
 Coeff-En:   0.802D+00
 Coeff:     -0.904D-02 0.104D-01-0.196D-02-0.669D-04 0.275D-03 0.155D-02
 Coeff:      0.215D-02-0.369D-03 0.621D-02-0.194D-01 0.193D-01 0.291D-01
 Coeff:      0.177D-01-0.619D-01-0.267D+00-0.217D+00 0.299D+00 0.516D+00
 Coeff:      0.676D+00
 Gap=     0.033 Goal=   None    Shift=    0.000
 RMSDP=8.48D-05 MaxDP=5.06D-03 DE=-3.03D-05 OVMax= 1.04D-02

 Cycle  20  Pass 1  IDiag  1:
 Density matrix breaks symmetry, PCut= 1.00D-07
 Density matrix has no symmetry -- integrals replicated.
 E= -1124.24225826509     Delta-E=       -0.000035102003 Rises=F Damp=F
 DIIS: error= 1.88D-04 at cycle  20 NSaved=  20.
 NSaved=20 IEnMin=20 EnMin= -1124.24225826509     IErMin=20 ErrMin= 1.88D-04
 ErrMax= 1.88D-04  0.00D+00 EMaxC= 1.00D-01 BMatC= 1.49D-06 BMatP= 6.97D-06
 IDIUse=3 WtCom= 9.98D-01 WtEn= 1.88D-03
 Coeff-Com: -0.375D-02 0.435D-02-0.109D-02-0.581D-03 0.155D-02 0.283D-03
 Coeff-Com:  0.652D-03-0.207D-02 0.482D-02-0.150D-01-0.110D-01-0.629D-02
 Coeff-Com:  0.348D-01 0.507D-01-0.114D+00-0.230D+00-0.628D-01 0.243D+00
 Coeff-Com:  0.460D+00 0.645D+00
 Coeff-En:   0.000D+00 0.000D+00 0.000D+00 0.000D+00 0.000D+00 0.000D+00
 Coeff-En:   0.000D+00 0.000D+00 0.000D+00 0.000D+00 0.000D+00 0.000D+00
 Coeff-En:   0.000D+00 0.000D+00 0.000D+00 0.000D+00 0.000D+00 0.000D+00
 Coeff-En:   0.000D+00 0.100D+01
 Coeff:     -0.374D-02 0.434D-02-0.109D-02-0.580D-03 0.155D-02 0.282D-03
 Coeff:      0.650D-03-0.206D-02 0.481D-02-0.150D-01-0.110D-01-0.628D-02
 Coeff:      0.347D-01 0.506D-01-0.113D+00-0.229D+00-0.627D-01 0.243D+00
 Coeff:      0.459D+00 0.646D+00
 Gap=     0.034 Goal=   None    Shift=    0.000
 RMSDP=1.59D-05 MaxDP=9.11D-04 DE=-3.51D-05 OVMax= 4.86D-03

 Cycle  21  Pass 1  IDiag  1:
 Density matrix breaks symmetry, PCut= 1.00D-07
 Density matrix has no symmetry -- integrals replicated.
 E= -1124.24226512480     Delta-E=       -0.000006859708 Rises=F Damp=F
 DIIS: error= 9.88D-05 at cycle  21 NSaved=  20.
 NSaved=20 IEnMin=20 EnMin= -1124.24226512480     IErMin=20 ErrMin= 9.88D-05
 ErrMax= 9.88D-05  0.00D+00 EMaxC= 1.00D-01 BMatC= 5.86D-07 BMatP= 1.49D-06
 IDIUse=1 WtCom= 1.00D+00 WtEn= 0.00D+00
 Coeff-Com:  0.680D-04-0.327D-03-0.560D-03 0.132D-02-0.109D-02-0.130D-02
 Coeff-Com: -0.277D-02 0.452D-02-0.632D-02-0.174D-01-0.190D-01 0.210D-01
 Coeff-Com:  0.658D-01-0.499D-02-0.129D+00-0.195D+00 0.256D-01 0.176D+00
 Coeff-Com:  0.623D+00 0.459D+00
 Coeff:      0.680D-04-0.327D-03-0.560D-03 0.132D-02-0.109D-02-0.130D-02
 Coeff:     -0.277D-02 0.452D-02-0.632D-02-0.174D-01-0.190D-01 0.210D-01
 Coeff:      0.658D-01-0.499D-02-0.129D+00-0.195D+00 0.256D-01 0.176D+00
 Coeff:      0.623D+00 0.459D+00
 Gap=     0.034 Goal=   None    Shift=    0.000
 RMSDP=2.57D-05 MaxDP=1.49D-03 DE=-6.86D-06 OVMax= 5.16D-03

 Cycle  22  Pass 1  IDiag  1:
 Density matrix breaks symmetry, PCut= 1.00D-07
 Density matrix has no symmetry -- integrals replicated.
 E= -1124.24226681592     Delta-E=       -0.000001691119 Rises=F Damp=F
 DIIS: error= 7.73D-05 at cycle  22 NSaved=  20.
 NSaved=20 IEnMin=20 EnMin= -1124.24226681592     IErMin=20 ErrMin= 7.73D-05
 ErrMax= 7.73D-05  0.00D+00 EMaxC= 1.00D-01 BMatC= 4.22D-07 BMatP= 5.86D-07
 IDIUse=1 WtCom= 1.00D+00 WtEn= 0.00D+00
 Coeff-Com: -0.521D-04-0.123D-04 0.122D-02-0.134D-02-0.228D-02-0.242D-02
 Coeff-Com:  0.317D-02 0.827D-03-0.146D-01-0.199D-01 0.307D-02 0.483D-01
 Coeff-Com:  0.689D-01-0.121D-01-0.196D+00-0.102D+00-0.397D-01 0.402D+00
 Coeff-Com:  0.560D+00 0.303D+00
 Coeff:     -0.521D-04-0.123D-04 0.122D-02-0.134D-02-0.228D-02-0.242D-02
 Coeff:      0.317D-02 0.827D-03-0.146D-01-0.199D-01 0.307D-02 0.483D-01
 Coeff:      0.689D-01-0.121D-01-0.196D+00-0.102D+00-0.397D-01 0.402D+00
 Coeff:      0.560D+00 0.303D+00
 Gap=     0.034 Goal=   None    Shift=    0.000
 RMSDP=1.67D-05 MaxDP=9.78D-04 DE=-1.69D-06 OVMax= 2.70D-03

 Cycle  23  Pass 1  IDiag  1:
 Density matrix breaks symmetry, PCut= 1.00D-07
 Density matrix has no symmetry -- integrals replicated.
 E= -1124.24226833017     Delta-E=       -0.000001514251 Rises=F Damp=F
 DIIS: error= 1.51D-05 at cycle  23 NSaved=  20.
 NSaved=20 IEnMin=20 EnMin= -1124.24226833017     IErMin=20 ErrMin= 1.51D-05
 ErrMax= 1.51D-05  0.00D+00 EMaxC= 1.00D-01 BMatC= 2.48D-08 BMatP= 4.22D-07
 IDIUse=1 WtCom= 1.00D+00 WtEn= 0.00D+00
 Coeff-Com:  0.351D-03 0.408D-03-0.664D-03-0.137D-02-0.118D-02 0.162D-02
 Coeff-Com:  0.362D-02-0.508D-02-0.875D-02-0.764D-02 0.119D-01 0.604D-01
 Coeff-Com:  0.367D-01-0.788D-01-0.830D-01-0.904D-01 0.511D-01 0.209D+00
 Coeff-Com:  0.196D+00 0.706D+00
 Coeff:      0.351D-03 0.408D-03-0.664D-03-0.137D-02-0.118D-02 0.162D-02
 Coeff:      0.362D-02-0.508D-02-0.875D-02-0.764D-02 0.119D-01 0.604D-01
 Coeff:      0.367D-01-0.788D-01-0.830D-01-0.904D-01 0.511D-01 0.209D+00
 Coeff:      0.196D+00 0.706D+00
 Gap=     0.034 Goal=   None    Shift=    0.000
 RMSDP=6.56D-06 MaxDP=6.15D-04 DE=-1.51D-06 OVMax= 7.42D-04

 Cycle  24  Pass 1  IDiag  1:
 Density matrix breaks symmetry, PCut= 1.00D-07
 Density matrix has no symmetry -- integrals replicated.
 E= -1124.24226840036     Delta-E=       -0.000000070193 Rises=F Damp=F
 DIIS: error= 7.83D-06 at cycle  24 NSaved=  20.
 NSaved=20 IEnMin=20 EnMin= -1124.24226840036     IErMin=20 ErrMin= 7.83D-06
 ErrMax= 7.83D-06  0.00D+00 EMaxC= 1.00D-01 BMatC= 7.74D-09 BMatP= 2.48D-08
 IDIUse=1 WtCom= 1.00D+00 WtEn= 0.00D+00
 Coeff-Com: -0.925D-04-0.161D-03 0.323D-03 0.367D-04 0.190D-02 0.404D-03
 Coeff-Com: -0.401D-02-0.604D-02-0.489D-02 0.573D-02 0.254D-01 0.449D-02
 Coeff-Com: -0.208D-01-0.154D-01-0.152D-01 0.699D-03 0.373D-01 0.529D-01
 Coeff-Com:  0.375D+00 0.563D+00
 Coeff:     -0.925D-04-0.161D-03 0.323D-03 0.367D-04 0.190D-02 0.404D-03
 Coeff:     -0.401D-02-0.604D-02-0.489D-02 0.573D-02 0.254D-01 0.449D-02
 Coeff:     -0.208D-01-0.154D-01-0.152D-01 0.699D-03 0.373D-01 0.529D-01
 Coeff:      0.375D+00 0.563D+00
 Gap=     0.034 Goal=   None    Shift=    0.000
 RMSDP=3.35D-06 MaxDP=1.81D-04 DE=-7.02D-08 OVMax= 4.61D-04

 Cycle  25  Pass 1  IDiag  1:
 Density matrix breaks symmetry, PCut= 1.00D-07
 Density matrix has no symmetry -- integrals replicated.
 E= -1124.24226838996     Delta-E=        0.000000010402 Rises=F Damp=F
 DIIS: error= 9.54D-06 at cycle  25 NSaved=  20.
 NSaved=20 IEnMin=19 EnMin= -1124.24226840036     IErMin=19 ErrMin= 7.83D-06
 ErrMax= 9.54D-06  0.00D+00 EMaxC= 1.00D-01 BMatC= 7.39D-09 BMatP= 7.74D-09
 IDIUse=1 WtCom= 1.00D+00 WtEn= 0.00D+00
 Coeff-Com: -0.665D-04-0.615D-04-0.387D-03 0.755D-03 0.142D-02-0.172D-02
 Coeff-Com: -0.301D-02-0.326D-02 0.197D-02 0.109D-01-0.548D-02-0.389D-02
 Coeff-Com:  0.418D-02 0.752D-02-0.635D-02-0.123D-01-0.185D-02 0.152D+00
 Coeff-Com:  0.515D+00 0.345D+00
 Coeff:     -0.665D-04-0.615D-04-0.387D-03 0.755D-03 0.142D-02-0.172D-02
 Coeff:     -0.301D-02-0.326D-02 0.197D-02 0.109D-01-0.548D-02-0.389D-02
 Coeff:      0.418D-02 0.752D-02-0.635D-02-0.123D-01-0.185D-02 0.152D+00
 Coeff:      0.515D+00 0.345D+00
 Gap=     0.034 Goal=   None    Shift=    0.000
 RMSDP=3.52D-06 MaxDP=2.02D-04 DE= 1.04D-08 OVMax= 4.71D-04

 Cycle  26  Pass 1  IDiag  1:
 Density matrix breaks symmetry, PCut= 1.00D-07
 Density matrix has no symmetry -- integrals replicated.
 E= -1124.24226840591     Delta-E=       -0.000000015946 Rises=F Damp=F
 DIIS: error= 5.81D-06 at cycle  26 NSaved=  20.
 NSaved=20 IEnMin=20 EnMin= -1124.24226840591     IErMin=20 ErrMin= 5.81D-06
 ErrMax= 5.81D-06  0.00D+00 EMaxC= 1.00D-01 BMatC= 2.73D-09 BMatP= 7.39D-09
 IDIUse=1 WtCom= 1.00D+00 WtEn= 0.00D+00
 Coeff-Com: -0.267D-03-0.525D-03-0.412D-03 0.176D-02 0.613D-03 0.366D-03
 Coeff-Com: -0.118D-02-0.157D-02 0.426D-03-0.558D-02 0.554D-02 0.838D-02
 Coeff-Com:  0.951D-02-0.126D-01-0.270D-01-0.221D-01 0.428D-02 0.229D+00
 Coeff-Com:  0.362D+00 0.450D+00
 Coeff:     -0.267D-03-0.525D-03-0.412D-03 0.176D-02 0.613D-03 0.366D-03
 Coeff:     -0.118D-02-0.157D-02 0.426D-03-0.558D-02 0.554D-02 0.838D-02
 Coeff:      0.951D-02-0.126D-01-0.270D-01-0.221D-01 0.428D-02 0.229D+00
 Coeff:      0.362D+00 0.450D+00
 Gap=     0.034 Goal=   None    Shift=    0.000
 RMSDP=1.49D-06 MaxDP=8.16D-05 DE=-1.59D-08 OVMax= 2.14D-04

 Cycle  27  Pass 1  IDiag  1:
 Density matrix breaks symmetry, PCut= 1.00D-07
 Density matrix has no symmetry -- integrals replicated.
 E= -1124.24226841423     Delta-E=       -0.000000008328 Rises=F Damp=F
 DIIS: error= 1.35D-06 at cycle  27 NSaved=  20.
 NSaved=20 IEnMin=20 EnMin= -1124.24226841423     IErMin=20 ErrMin= 1.35D-06
 ErrMax= 1.35D-06  0.00D+00 EMaxC= 1.00D-01 BMatC= 3.84D-10 BMatP= 2.73D-09
 IDIUse=1 WtCom= 1.00D+00 WtEn= 0.00D+00
 Coeff-Com:  0.170D-04-0.192D-03 0.501D-04-0.107D-03 0.584D-04 0.333D-03
 Coeff-Com:  0.275D-03-0.856D-03-0.317D-02 0.287D-02 0.420D-02 0.479D-02
 Coeff-Com: -0.497D-02-0.125D-01-0.122D-01-0.257D-01 0.395D-01 0.169D+00
 Coeff-Com:  0.300D+00 0.539D+00
 Coeff:      0.170D-04-0.192D-03 0.501D-04-0.107D-03 0.584D-04 0.333D-03
 Coeff:      0.275D-03-0.856D-03-0.317D-02 0.287D-02 0.420D-02 0.479D-02
 Coeff:     -0.497D-02-0.125D-01-0.122D-01-0.257D-01 0.395D-01 0.169D+00
 Coeff:      0.300D+00 0.539D+00
 Gap=     0.034 Goal=   None    Shift=    0.000
 RMSDP=6.00D-07 MaxDP=4.76D-05 DE=-8.33D-09 OVMax= 4.80D-05

 Cycle  28  Pass 1  IDiag  1:
 Density matrix breaks symmetry, PCut= 1.00D-07
 Density matrix has no symmetry -- integrals replicated.
 E= -1124.24226841440     Delta-E=       -0.000000000170 Rises=F Damp=F
 DIIS: error= 1.97D-06 at cycle  28 NSaved=  20.
 NSaved=20 IEnMin=20 EnMin= -1124.24226841440     IErMin=19 ErrMin= 1.35D-06
 ErrMax= 1.97D-06  0.00D+00 EMaxC= 1.00D-01 BMatC= 3.10D-10 BMatP= 3.84D-10
 IDIUse=1 WtCom= 1.00D+00 WtEn= 0.00D+00
 Coeff-Com: -0.235D-03 0.931D-04 0.262D-03 0.433D-03 0.290D-03-0.485D-03
 Coeff-Com: -0.197D-02-0.257D-02 0.266D-02 0.397D-02 0.474D-02-0.220D-02
 Coeff-Com: -0.908D-02-0.937D-02-0.311D-01-0.586D-02 0.795D-01 0.171D+00
 Coeff-Com:  0.473D+00 0.327D+00
 Coeff:     -0.235D-03 0.931D-04 0.262D-03 0.433D-03 0.290D-03-0.485D-03
 Coeff:     -0.197D-02-0.257D-02 0.266D-02 0.397D-02 0.474D-02-0.220D-02
 Coeff:     -0.908D-02-0.937D-02-0.311D-01-0.586D-02 0.795D-01 0.171D+00
 Coeff:      0.473D+00 0.327D+00
 Gap=     0.034 Goal=   None    Shift=    0.000
 RMSDP=3.15D-07 MaxDP=2.16D-05 DE=-1.70D-10 OVMax= 3.76D-05

 Cycle  29  Pass 1  IDiag  1:
 Density matrix breaks symmetry, PCut= 1.00D-07
 Density matrix has no symmetry -- integrals replicated.
 E= -1124.24226841503     Delta-E=       -0.000000000624 Rises=F Damp=F
 DIIS: error= 5.49D-07 at cycle  29 NSaved=  20.
 NSaved=20 IEnMin=20 EnMin= -1124.24226841503     IErMin=20 ErrMin= 5.49D-07
 ErrMax= 5.49D-07  0.00D+00 EMaxC= 1.00D-01 BMatC= 4.44D-11 BMatP= 3.10D-10
 IDIUse=1 WtCom= 1.00D+00 WtEn= 0.00D+00
 Coeff-Com:  0.137D-03 0.205D-03 0.210D-03-0.137D-03-0.695D-03-0.991D-03
 Coeff-Com: -0.129D-03 0.118D-02 0.940D-03 0.834D-03-0.111D-02-0.228D-02
 Coeff-Com: -0.175D-02-0.643D-02-0.139D-01-0.145D-01-0.491D-02 0.158D+00
 Coeff-Com:  0.246D+00 0.639D+00
 Coeff:      0.137D-03 0.205D-03 0.210D-03-0.137D-03-0.695D-03-0.991D-03
 Coeff:     -0.129D-03 0.118D-02 0.940D-03 0.834D-03-0.111D-02-0.228D-02
 Coeff:     -0.175D-02-0.643D-02-0.139D-01-0.145D-01-0.491D-02 0.158D+00
 Coeff:      0.246D+00 0.639D+00
 Gap=     0.034 Goal=   None    Shift=    0.000
 RMSDP=2.30D-07 MaxDP=1.94D-05 DE=-6.24D-10 OVMax= 1.47D-05

 Cycle  30  Pass 1  IDiag  1:
 Density matrix breaks symmetry, PCut= 1.00D-07
 Density matrix has no symmetry -- integrals replicated.
 E= -1124.24226841507     Delta-E=       -0.000000000048 Rises=F Damp=F
 DIIS: error= 4.88D-07 at cycle  30 NSaved=  20.
 NSaved=20 IEnMin=20 EnMin= -1124.24226841507     IErMin=20 ErrMin= 4.88D-07
 ErrMax= 4.88D-07  0.00D+00 EMaxC= 1.00D-01 BMatC= 2.47D-11 BMatP= 4.44D-11
 IDIUse=1 WtCom= 1.00D+00 WtEn= 0.00D+00
 Coeff-Com:  0.651D-04 0.911D-04 0.850D-04-0.819D-04-0.364D-03 0.393D-03
 Coeff-Com: -0.383D-03-0.594D-03-0.649D-03 0.129D-02 0.187D-02 0.991D-03
 Coeff-Com: -0.579D-02-0.265D-01-0.310D-01-0.294D-01 0.861D-01 0.134D+00
 Coeff-Com:  0.442D+00 0.428D+00
 Coeff:      0.651D-04 0.911D-04 0.850D-04-0.819D-04-0.364D-03 0.393D-03
 Coeff:     -0.383D-03-0.594D-03-0.649D-03 0.129D-02 0.187D-02 0.991D-03
 Coeff:     -0.579D-02-0.265D-01-0.310D-01-0.294D-01 0.861D-01 0.134D+00
 Coeff:      0.442D+00 0.428D+00
 Gap=     0.034 Goal=   None    Shift=    0.000
 RMSDP=1.36D-07 MaxDP=8.65D-06 DE=-4.77D-11 OVMax= 1.19D-05

 Cycle  31  Pass 1  IDiag  1:
 Density matrix breaks symmetry, PCut= 1.00D-07
 Density matrix has no symmetry -- integrals replicated.
 E= -1124.24226841513     Delta-E=       -0.000000000057 Rises=F Damp=F
 DIIS: error= 2.08D-07 at cycle  31 NSaved=  20.
 NSaved=20 IEnMin=20 EnMin= -1124.24226841513     IErMin=20 ErrMin= 2.08D-07
 ErrMax= 2.08D-07  0.00D+00 EMaxC= 1.00D-01 BMatC= 4.31D-12 BMatP= 2.47D-11
 IDIUse=1 WtCom= 1.00D+00 WtEn= 0.00D+00
 Coeff-Com:  0.169D-04 0.807D-04 0.437D-04-0.906D-04 0.383D-03-0.296D-03
 Coeff-Com: -0.589D-03-0.730D-03 0.658D-03 0.135D-02 0.991D-03-0.223D-02
 Coeff-Com: -0.160D-01-0.211D-01-0.236D-01 0.300D-01 0.474D-01 0.212D+00
 Coeff-Com:  0.314D+00 0.458D+00
 Coeff:      0.169D-04 0.807D-04 0.437D-04-0.906D-04 0.383D-03-0.296D-03
 Coeff:     -0.589D-03-0.730D-03 0.658D-03 0.135D-02 0.991D-03-0.223D-02
 Coeff:     -0.160D-01-0.211D-01-0.236D-01 0.300D-01 0.474D-01 0.212D+00
 Coeff:      0.314D+00 0.458D+00
 Gap=     0.034 Goal=   None    Shift=    0.000
 RMSDP=3.54D-08 MaxDP=2.73D-06 DE=-5.66D-11 OVMax= 5.63D-06

 Cycle  32  Pass 1  IDiag  1:
 Density matrix breaks symmetry, PCut= 1.00D-07
 Density matrix has no symmetry -- integrals replicated.
 E= -1124.24226841514     Delta-E=       -0.000000000004 Rises=F Damp=F
 DIIS: error= 1.66D-07 at cycle  32 NSaved=  20.
 NSaved=20 IEnMin=20 EnMin= -1124.24226841514     IErMin=20 ErrMin= 1.66D-07
 ErrMax= 1.66D-07  0.00D+00 EMaxC= 1.00D-01 BMatC= 2.97D-12 BMatP= 4.31D-12
 IDIUse=1 WtCom= 1.00D+00 WtEn= 0.00D+00
 Coeff-Com: -0.169D-04-0.458D-04 0.354D-04 0.261D-03-0.995D-04-0.263D-03
 Coeff-Com: -0.315D-03 0.465D-03 0.884D-03 0.802D-03 0.105D-02-0.394D-02
 Coeff-Com: -0.978D-02-0.160D-01-0.229D-01-0.135D-01 0.386D-01 0.119D+00
 Coeff-Com:  0.413D+00 0.493D+00
 Coeff:     -0.169D-04-0.458D-04 0.354D-04 0.261D-03-0.995D-04-0.263D-03
 Coeff:     -0.315D-03 0.465D-03 0.884D-03 0.802D-03 0.105D-02-0.394D-02
 Coeff:     -0.978D-02-0.160D-01-0.229D-01-0.135D-01 0.386D-01 0.119D+00
 Coeff:      0.413D+00 0.493D+00
 Gap=     0.034 Goal=   None    Shift=    0.000
 RMSDP=2.81D-08 MaxDP=1.66D-06 DE=-4.09D-12 OVMax= 4.81D-06

 Cycle  33  Pass 1  IDiag  1:
 Density matrix breaks symmetry, PCut= 1.00D-07
 Density matrix has no symmetry -- integrals replicated.
 E= -1124.24226841514     Delta-E=       -0.000000000005 Rises=F Damp=F
 DIIS: error= 6.10D-08 at cycle  33 NSaved=  20.
 NSaved=20 IEnMin=20 EnMin= -1124.24226841514     IErMin=20 ErrMin= 6.10D-08
 ErrMax= 6.10D-08  0.00D+00 EMaxC= 1.00D-01 BMatC= 5.76D-13 BMatP= 2.97D-12
 IDIUse=1 WtCom= 1.00D+00 WtEn= 0.00D+00
 Coeff-Com: -0.219D-04 0.258D-04 0.833D-04-0.879D-04-0.125D-03-0.122D-03
 Coeff-Com:  0.324D-03 0.554D-03 0.517D-03 0.131D-02-0.617D-03-0.449D-02
 Coeff-Com: -0.892D-02-0.219D-01-0.133D-01 0.870D-02 0.420D-01 0.229D+00
 Coeff-Com:  0.365D+00 0.403D+00
 Coeff:     -0.219D-04 0.258D-04 0.833D-04-0.879D-04-0.125D-03-0.122D-03
 Coeff:      0.324D-03 0.554D-03 0.517D-03 0.131D-02-0.617D-03-0.449D-02
 Coeff:     -0.892D-02-0.219D-01-0.133D-01 0.870D-02 0.420D-01 0.229D+00
 Coeff:      0.365D+00 0.403D+00
 Gap=     0.034 Goal=   None    Shift=    0.000
 RMSDP=1.50D-08 MaxDP=1.02D-06 DE=-5.23D-12 OVMax= 1.78D-06

 Cycle  34  Pass 1  IDiag  1:
 Density matrix breaks symmetry, PCut= 1.00D-07
 Density matrix has no symmetry -- integrals replicated.
 E= -1124.24226841514     Delta-E=       -0.000000000004 Rises=F Damp=F
 DIIS: error= 5.70D-08 at cycle  34 NSaved=  20.
 NSaved=20 IEnMin=20 EnMin= -1124.24226841514     IErMin=20 ErrMin= 5.70D-08
 ErrMax= 5.70D-08  0.00D+00 EMaxC= 1.00D-01 BMatC= 2.62D-13 BMatP= 5.76D-13
 IDIUse=1 WtCom= 1.00D+00 WtEn= 0.00D+00
 Coeff-Com:  0.477D-04 0.279D-04 0.190D-04-0.456D-04-0.907D-04-0.166D-03
 Coeff-Com: -0.523D-04 0.115D-03 0.113D-02 0.170D-02 0.314D-03-0.146D-02
 Coeff-Com: -0.122D-01-0.102D-01-0.187D-01-0.152D-01 0.617D-01 0.150D+00
 Coeff-Com:  0.334D+00 0.509D+00
 Coeff:      0.477D-04 0.279D-04 0.190D-04-0.456D-04-0.907D-04-0.166D-03
 Coeff:     -0.523D-04 0.115D-03 0.113D-02 0.170D-02 0.314D-03-0.146D-02
 Coeff:     -0.122D-01-0.102D-01-0.187D-01-0.152D-01 0.617D-01 0.150D+00
 Coeff:      0.334D+00 0.509D+00
 Gap=     0.034 Goal=   None    Shift=    0.000
 RMSDP=8.68D-09 MaxDP=5.99D-07 DE=-3.64D-12 OVMax= 1.30D-06

 Density matrix breaks symmetry, PCut= 1.00D-07
 Density matrix has no symmetry -- integrals replicated.
 SCF Done:  E(ROHF) =  -1124.24226842     A.U. after   34 cycles
            NFock= 34  Conv=0.87D-08     -V/T= 1.9651
 <Sx>= 0.0000 <Sy>= 0.0000 <Sz>= 2.0000 <S**2>= 6.0000 S= 2.0000
 <L.S>=  0.00000000000    
 KE= 1.164926785079D+03 PE=-2.880014878976D+03 EE= 5.061774717355D+02
 Annihilation of the first spin contaminant:
 S**2 before annihilation     6.0000,   after     6.0000
 Leave Link  502 at Wed Mar  7 00:10:15 2018, MaxMem= 21474836480 cpu:             213.9 elap:              20.3
 (Enter /home1/apps/gaussian/16rA.03/g16/l801.exe)
 Windowed orbitals will be sorted by symmetry type.
 An orbital has undefined symmetry, so N**3 symmetry is turned off.
 Density matrix breaks symmetry, PCut= 1.00D-07
 Density matrix has no symmetry -- integrals replicated.
 GenMOA:  NOpAll=  4 NOp2=4 NOpUse=  1 JSym2X=2
 FoFJK:  IHMeth= 1 ICntrl=       0 DoSepK=F KAlg= 0 I1Cent=           0 FoldK=F
 IRaf=         0 NMat=       1 IRICut=       1 DoRegI=T DoRafI=F ISym2E= 2 IDoP0=0 IntGTp=1.
 FoFCou: FMM=F IPFlag=           8 FMFlag=      100000 FMFlg1=           0
         NFxFlg=           0 DoJE=F BraDBF=F KetDBF=F FulRan=T
         wScrn=  0.000000 ICntrl=         0 IOpCl=  1 I1Cent=           0 NGrid=           0
         NMat0=    1 NMatS0=      1 NMatT0=    0 NMatD0=    1 NMtDS0=    0 NMtDT0=    0
 Integrals replicated using symmetry in FoFCou.
 <Sx>= 0.0000 <Sy>= 0.0000 <Sz>= 2.0000 <S**2>= 6.0000 S= 2.0000
 Range of M.O.s used for correlation:     1   252
 NBasis=   261 NAE=    18 NBE=    14 NFC=     0 NFV=     0
 NROrb=    252 NOA=    18 NOB=    14 NVA=   234 NVB=   238

 **** Warning!!: The largest alpha MO coefficient is  0.30447718D+03


 **** Warning!!: The largest beta MO coefficient is  0.30445562D+03

 Singles contribution to E2=   -0.5155613308D-02
 Leave Link  801 at Wed Mar  7 00:10:18 2018, MaxMem= 21474836480 cpu:              79.5 elap:               2.5
 (Enter /home1/apps/gaussian/16rA.03/g16/l804.exe)
 Open-shell transformation, MDV= 21474836480 ITran=4 ISComp=1.
 Unit  1 TFree=       2056758 TCopy=        905096.
 Semi-Direct transformation.
 ModeAB=           4 MOrb=            18 LenV=   21472859489
 LASXX=    137391426 LTotXX=   137391426 LenRXX=   277112700
 LTotAB=   139721274 MaxLAS=   220971240 LenRXY=           0
 NonZer=   414504126 LenScr=   624194560 LnRSAI=   220971240
 LnScr1=   332756992 LExtra=    22525496 Total=   1477560988
 MaxDsk= 67108864000 SrtSym=           T ITran=            4
 DoSDTr:  NPSUse= 32
 JobTyp=1 Pass  1:  I=   1 to  18.
 (rs|ai) integrals will be sorted in core.
 Complete sort for first half transformation.
 First half transformation complete.
 Begin second half transformation for I=  10.
 Complete sort for second half transformation.
 Second half transformation complete.
 ModeAB=           4 MOrb=            14 LenV=   21472859489
 LASXX=    107948491 LTotXX=   107948491 LenRXX=   202448806
 LTotAB=    94500315 MaxLAS=   171866520 LenRXY=           0
 NonZer=   310397297 LenScr=   467422208 LnRSAI=   171866520
 LnScr1=   258810880 LExtra=   299638196 Total=   1400186610
 MaxDsk= 67108864000 SrtSym=           T ITran=            4
 DoSDTr:  NPSUse= 32
 JobTyp=2 Pass  1:  I=   1 to  14.
 (rs|ai) integrals will be sorted in core.
 Complete sort for first half transformation.
 First half transformation complete.
 Begin second half transformation for I=  10.
 Complete sort for second half transformation.
 Second half transformation complete.
 SymMOI:  orbitals are not symmetric.
 Spin components of T(2) and E(2):
     alpha-alpha T2 =       0.4387579859D-01 E2=     -0.2472698873D+00
     alpha-beta  T2 =       0.1131959102D+00 E2=     -0.9126732974D+00
     beta-beta   T2 =       0.2140837027D-01 E2=     -0.1569984776D+00
 ANorm=    0.1087051368D+01
 E2 =    -0.1322097276D+01 EUMP2 =    -0.11255643656908D+04
 (S**2,0)=  0.60000D+01           (S**2,1)=  0.60000D+01
 E(PUHF)=      -0.11242422684D+04        E(PMP2)=      -0.11255643657D+04
 Leave Link  804 at Wed Mar  7 00:11:28 2018, MaxMem= 21474836480 cpu:            2199.6 elap:              69.1
 (Enter /home1/apps/gaussian/16rA.03/g16/l913.exe)
 CIDS:  MDV= 21474836480.
 IFCWin=0 IBDFC=1 NFBD=     0     0 NFCmp=     0     0 NFFFC=     0     0
 Using original routines for 1st iteration.
 Using DD4UQ or CC4UQ for 2nd and later iterations.
 Keep R2 and R3 ints in memory in symmetry-blocked form, NReq=734628387.
 FoFCou: FMM=F IPFlag=           8 FMFlag=           0 FMFlg1=           0
         NFxFlg=           0 DoJE=F BraDBF=F KetDBF=F FulRan=T
         wScrn=  0.000000 ICntrl=       600 IOpCl=  0 I1Cent=           0 NGrid=           0
         NMat0=    1 NMatS0=  34191 NMatT0=    0 NMatD0=    1 NMtDS0=    0 NMtDT0=    0
 Petite list used in FoFCou.
 CIDS: In Core Option IDoMem=           1.
 CCSD(T)
 =======
 Iterations= 150 Convergence= 0.100D-06
 Produce multiple copies of IABC intergrals
 Iteration Nr.   1
 **********************
 DD1Dir will call FoFMem   1 times, MxPair=       748
 NAB=   252 NAA=   153 NBB=    91.
 DD1Dir will call FoFMem   1 times, MxPair=       748
 NAB=   252 NAA=   153 NBB=    91.
 MP4(R+Q)= -0.62381403D-01
 Maximum subspace dimension=  5
 A-vector RMS=  2.2632600D-04 Max=  3.0241600D-03 conv= 1.00D-05.
 RLE energy=       -1.3072057785
 E3=        0.77039055D-01        EROMP3=      -0.11254873266D+04
 E4(SDQ)=  -0.47415461D-01        ROMP4(SDQ)=  -0.11255347421D+04
 VARIATIONAL ENERGIES WITH THE FIRST-ORDER WAVEFUNCTION:
 DE(Corr)=  -1.3070339     E(Corr)=     -1125.5493023    
 NORM(A)=   0.10827142D+01
 Iteration Nr.   2
 **********************
 DD1Dir will call FoFMem   1 times, MxPair=       748
 NAB=   252 NAA=   153 NBB=    91.
 A-vector RMS=  3.2033539D-03 Max=  4.9266131D-02 conv= 1.00D-05.
 RLE energy=       -1.2857172643
 DE(Corr)=  -1.2286221     E(CORR)=     -1125.4708905     Delta= 7.84D-02
 NORM(A)=   0.10778360D+01
 Iteration Nr.   3
 **********************
 DD1Dir will call FoFMem   1 times, MxPair=       748
 NAB=   252 NAA=   153 NBB=    91.
 A-vector RMS=  2.1021078D-03 Max=  3.2297376D-02 conv= 1.00D-05.
 RLE energy=       -1.2831646299
 DE(Corr)=  -1.2433040     E(CORR)=     -1125.4855724     Delta=-1.47D-02
 NORM(A)=   0.10799828D+01
 Iteration Nr.   4
 **********************
 DD1Dir will call FoFMem   1 times, MxPair=       748
 NAB=   252 NAA=   153 NBB=    91.
 A-vector RMS=  1.6648888D-03 Max=  2.6697549D-02 conv= 1.00D-05.
 RLE energy=       -1.2695233682
 DE(Corr)=  -1.2529674     E(CORR)=     -1125.4952359     Delta=-9.66D-03
 NORM(A)=   0.10912411D+01
 Iteration Nr.   5
 **********************
 DD1Dir will call FoFMem   1 times, MxPair=       748
 NAB=   252 NAA=   153 NBB=    91.
 A-vector RMS=  4.1343661D-04 Max=  5.5761582D-03 conv= 1.00D-05.
 RLE energy=       -1.2712469560
 DE(Corr)=  -1.2775751     E(CORR)=     -1125.5198435     Delta=-2.46D-02
 NORM(A)=   0.10991419D+01
 Iteration Nr.   6
 **********************
 DD1Dir will call FoFMem   1 times, MxPair=       748
 NAB=   252 NAA=   153 NBB=    91.
 A-vector RMS=  3.3202654D-04 Max=  4.2813226D-03 conv= 1.00D-05.
 RLE energy=       -1.2749563659
 DE(Corr)=  -1.2802212     E(CORR)=     -1125.5224896     Delta=-2.65D-03
 NORM(A)=   0.10969451D+01
 Iteration Nr.   7
 **********************
 DD1Dir will call FoFMem   1 times, MxPair=       748
 NAB=   252 NAA=   153 NBB=    91.
 A-vector RMS=  6.5743992D-05 Max=  2.0386160D-03 conv= 1.00D-05.
 RLE energy=       -1.2745650969
 DE(Corr)=  -1.2745490     E(CORR)=     -1125.5168174     Delta= 5.67D-03
 NORM(A)=   0.10972795D+01
 Iteration Nr.   8
 **********************
 DD1Dir will call FoFMem   1 times, MxPair=       748
 NAB=   252 NAA=   153 NBB=    91.
 A-vector RMS=  3.7701067D-05 Max=  7.9952352D-04 conv= 1.00D-05.
 RLE energy=       -1.2746536265
 DE(Corr)=  -1.2747730     E(CORR)=     -1125.5170414     Delta=-2.24D-04
 NORM(A)=   0.10976011D+01
 Iteration Nr.   9
 **********************
 DD1Dir will call FoFMem   1 times, MxPair=       748
 NAB=   252 NAA=   153 NBB=    91.
 A-vector RMS=  1.8469627D-05 Max=  6.9688014D-04 conv= 1.00D-05.
 RLE energy=       -1.2747133328
 DE(Corr)=  -1.2746519     E(CORR)=     -1125.5169203     Delta= 1.21D-04
 NORM(A)=   0.10978216D+01
 Iteration Nr.  10
 **********************
 DD1Dir will call FoFMem   1 times, MxPair=       748
 NAB=   252 NAA=   153 NBB=    91.
 A-vector RMS=  7.4347826D-06 Max=  1.3808788D-04 conv= 1.00D-05.
 RLE energy=       -1.2746958854
 DE(Corr)=  -1.2746794     E(CORR)=     -1125.5169478     Delta=-2.75D-05
 NORM(A)=   0.10978604D+01
 Iteration Nr.  11
 **********************
 DD1Dir will call FoFMem   1 times, MxPair=       748
 NAB=   252 NAA=   153 NBB=    91.
 A-vector RMS=  3.5534681D-06 Max=  8.6374082D-05 conv= 1.00D-05.
 RLE energy=       -1.2746962950
 DE(Corr)=  -1.2746957     E(CORR)=     -1125.5169642     Delta=-1.64D-05
 NORM(A)=   0.10978680D+01
 Iteration Nr.  12
 **********************
 DD1Dir will call FoFMem   1 times, MxPair=       748
 NAB=   252 NAA=   153 NBB=    91.
 A-vector RMS=  1.3026042D-06 Max=  1.9242725D-05 conv= 1.00D-05.
 RLE energy=       -1.2746949267
 DE(Corr)=  -1.2746940     E(CORR)=     -1125.5169624     Delta= 1.75D-06
 NORM(A)=   0.10978662D+01
 Iteration Nr.  13
 **********************
 DD1Dir will call FoFMem   1 times, MxPair=       748
 NAB=   252 NAA=   153 NBB=    91.
 A-vector RMS=  6.6365930D-07 Max=  1.1920248D-05 conv= 1.00D-05.
 RLE energy=       -1.2746909256
 DE(Corr)=  -1.2746923     E(CORR)=     -1125.5169607     Delta= 1.70D-06
 NORM(A)=   0.10978639D+01
 Iteration Nr.  14
 **********************
 DD1Dir will call FoFMem   1 times, MxPair=       748
 NAB=   252 NAA=   153 NBB=    91.
 A-vector RMS=  3.0501086D-07 Max=  7.1668898D-06 conv= 1.00D-05.
 RLE energy=       -1.2746916480
 DE(Corr)=  -1.2746922     E(CORR)=     -1125.5169606     Delta= 7.39D-08
 NORM(A)=   0.10978640D+01
 CI/CC converged in   14 iterations to DelEn= 7.39D-08 Conv= 1.00D-07 ErrA1= 3.05D-07 Conv= 1.00D-05
 Wavefunction amplitudes converged. E(Corr)=     -1125.5169606    
 Largest amplitude= 7.91D-02
 Time for triples=    48251.02 seconds.
 T4(CCSD)= -0.46028651D-01
 T5(CCSD)=  0.55685117D-02
 CCSD(T)= -0.11255574208D+04
 Discarding MO integrals.
 Leave Link  913 at Wed Mar  7 00:45:55 2018, MaxMem= 21474836480 cpu:           65458.5 elap:            2064.0
 (Enter /home1/apps/gaussian/16rA.03/g16/l601.exe)
 Copying SCF densities to generalized density rwf, IOpCl= 0 IROHF=1.
 SCF density gives NOpUse=  1 NOpAll=  4.
 Marking SCF density as not fully symmetric.

 **********************************************************************

            Population analysis using the SCF density.

 **********************************************************************

 Orbital symmetries:
       Occupied  (SG) (SG) (SG) (PI) (PI) (SG) (SG) (SG) (PI) (PI)
                 (SG) (PI) (PI) (SG) (?A) (?A) (?A) (?B)
       Virtual   (?B) (SG) (SG) (?B) (?B) (?C) (?B) (?B) (?C) (?C)
                 (SG) (?B) (?C) (?B) (SG) (?B) (?B) (SG) (?B) (?C)
                 (?C) (PI) (PI) (?C) (?B) (?C) (?C) (?C) (?C) (PHI)
                 (PHI) (?B) (?B) (?C) (?B) (?B) (?C) (?C) (?C)
                 (PI) (PI) (?C) (?D) (?D) (PI) (PI) (?D) (SG) (PI)
                 (PI) (SG) (DLTA) (DLTA) (PHI) (PHI) (?E) (?E)
                 (?E) (?E) (?F) (?F) (?F) (SG) (?G) (?G) (PI) (PI)
                 (?H) (PI) (PI) (?H) (?H) (PHI) (PHI) (?C) (?C)
                 (?C) (?C) (PI) (PI) (PI) (PI) (SG) (PI) (PI) (DLTA)
                 (DLTA) (SG) (SG) (PI) (PI) (?E) (?E) (DLTA) (DLTA)
                 (?E) (?E) (SG) (?I) (?I) (?I) (?E) (?E) (?E) (?E)
                 (SG) (PI) (PI) (SG) (?G) (?G) (PHI) (PHI) (?J)
                 (?J) (?J) (?J) (?J) (?K) (?K) (?K) (PI) (PI) (PI)
                 (PI) (PI) (PI) (SG) (SG) (PHI) (PHI) (DLTA) (DLTA)
                 (PI) (PI) (PI) (PI) (SG) (SG) (PI) (PI) (SG) (DLTA)
                 (DLTA) (SG) (PI) (PI) (SG) (?G) (?G) (PHI) (PHI)
                 (?L) (?L) (?L) (PI) (PI) (SG) (PI) (PI) (SG) (DLTA)
                 (DLTA) (PI) (PI) (SG) (SG) (SG) (PI) (PI) (DLTA)
                 (DLTA) (PI) (PI) (SG) (SG) (PI) (PI) (SG) (DLTA)
                 (DLTA) (PI) (PI) (SG) (SG) (SG) (PI) (PI) (SG)
                 (PI) (PI) (SG) (SG) (SG) (PI) (PI) (SG) (DLTA)
                 (DLTA) (PI) (PI) (SG) (PI) (PI) (SG) (SG) (SG)
                 (PI) (PI) (SG) (SG) (SG) (PI) (PI) (SG) (SG) (PI)
                 (PI) (SG) (SG) (SG) (PI) (PI) (SG) (SG) (SG) (PI)
                 (PI) (SG) (SG) (SG) (SG) (SG) (SG)
 Unable to determine electronic state:  an orbital has unidentified symmetry.
 Alpha  occ. eigenvalues -- -222.21314 -26.80227 -22.43656 -22.43514 -22.43068
 Alpha  occ. eigenvalues --  -20.63976  -3.68307  -2.47739  -2.42179  -2.38928
 Alpha  occ. eigenvalues --   -1.25222  -0.74841  -0.69000  -0.65543  -0.50341
 Alpha  occ. eigenvalues --   -0.50249  -0.29887  -0.26485
 Alpha virt. eigenvalues --    0.01455   0.02445   0.02810   0.02814   0.05426
 Alpha virt. eigenvalues --    0.07019   0.07669   0.07740   0.07792   0.07795
 Alpha virt. eigenvalues --    0.09724   0.09960   0.12224   0.17912   0.20671
 Alpha virt. eigenvalues --    0.23461   0.23536   0.25161   0.25229   0.26976
 Alpha virt. eigenvalues --    0.26983   0.30945   0.31257   0.32123   0.32340
 Alpha virt. eigenvalues --    0.35469   0.60434   0.61725   0.61772   0.63270
 Alpha virt. eigenvalues --    0.63272   0.68345   0.68645   0.70062   0.75660
 Alpha virt. eigenvalues --    0.76451   0.76608   0.82732   0.82755   0.87028
 Alpha virt. eigenvalues --    0.87033   0.89304   0.97498   0.97499   1.01263
 Alpha virt. eigenvalues --    1.01758   1.13138   1.30937   1.38879   1.40250
 Alpha virt. eigenvalues --    1.43327   1.79242   1.79251   1.89139   1.89139
 Alpha virt. eigenvalues --    1.99992   2.01033   2.04755   2.04759   2.17666
 Alpha virt. eigenvalues --    2.23661   2.23664   2.29522   2.30340   2.30340
 Alpha virt. eigenvalues --    2.31826   2.33114   2.38219   2.39470   2.39609
 Alpha virt. eigenvalues --    2.49442   2.49454   2.62844   2.62844   2.73485
 Alpha virt. eigenvalues --    2.75315   2.75629   2.87304   2.90400   2.92384
 Alpha virt. eigenvalues --    3.04877   3.05381   3.07171   3.24533   3.24843
 Alpha virt. eigenvalues --    3.36430   3.36438   4.04758   4.63613   5.13041
 Alpha virt. eigenvalues --    5.13148   5.34902   5.34906   5.41519   5.41521
 Alpha virt. eigenvalues --    5.43643   5.44546   5.52855   6.21645   6.21765
 Alpha virt. eigenvalues --    6.23248   6.35971   6.35972   6.38426   6.39213
 Alpha virt. eigenvalues --    6.59150   6.68652   6.69575   6.82678   6.85202
 Alpha virt. eigenvalues --    6.85202   6.98088   6.98088   7.13901   7.13928
 Alpha virt. eigenvalues --    7.16233   7.38934   7.39014   7.50322   7.56003
 Alpha virt. eigenvalues --    7.56015   7.57005   7.57306   7.86105   7.86475
 Alpha virt. eigenvalues --    8.48736   8.49031   8.99137  10.13214  14.71954
 Alpha virt. eigenvalues --   14.71954  14.82271  14.82276  15.06625  15.06901
 Alpha virt. eigenvalues --   15.15494  15.15606  15.23647  15.62115  15.63012
 Alpha virt. eigenvalues --   15.65034  15.99018  16.54677  16.54695  16.69897
 Alpha virt. eigenvalues --   16.91508  16.92269  17.21285  18.85062  18.85062
 Alpha virt. eigenvalues --   18.86425  18.86425  18.96545  18.96563  19.22053
 Alpha virt. eigenvalues --   19.22060  19.22992  19.67201  32.52913  32.55208
 Alpha virt. eigenvalues --   32.63063  34.23864  34.23869  34.44734  34.46333
 Alpha virt. eigenvalues --   35.26944  39.46141  40.97246  43.83498  43.83831
 Alpha virt. eigenvalues --   43.86210  43.86210  44.44844  44.45256  44.67709
 Alpha virt. eigenvalues --   45.62475  63.61507  63.63754  63.84770  81.40199
 Alpha virt. eigenvalues --   81.40202  81.57491  81.58844  82.11916  88.06797
 Alpha virt. eigenvalues --   88.74152 113.89262 113.89699 114.73204 127.09296
 Alpha virt. eigenvalues --  127.11091 127.30149 181.13820 211.22164 262.03154
 Alpha virt. eigenvalues --  262.03446 262.74434 264.69033 264.69035 264.81699
 Alpha virt. eigenvalues --  264.82325 265.09648 269.32836 269.34003 269.63667
 Alpha virt. eigenvalues --  415.09791 520.10650 601.72588 601.73253 601.88475
 Alpha virt. eigenvalues -- 1220.580161251.648521406.349111406.352501406.48505
 Alpha virt. eigenvalues -- 2915.354353435.069963435.071483435.175214467.00079
 Alpha virt. eigenvalues -- 6547.431268803.635288803.635848803.70284**********
 Alpha virt. eigenvalues -- **************************************************
 Alpha virt. eigenvalues -- ****************************************
     Molecular Orbital Coefficients:
                          10        11        12        13        14
                           O         O         O         O         O
     Eigenvalues --    -2.38928  -1.25222  -0.74841  -0.69000  -0.65543
   1 1   Cr 1S          0.00000  -0.00000   0.00000  -0.00000  -0.00000
   2        2S          0.00000  -0.00000   0.00000  -0.00000  -0.00000
   3        3S          0.00000  -0.00001   0.00000  -0.00000  -0.00001
   4        4S          0.00000  -0.00003   0.00000  -0.00000  -0.00002
   5        5S          0.00000  -0.00008   0.00000  -0.00000  -0.00006
   6        6S          0.00000  -0.00022   0.00000  -0.00000  -0.00014
   7        7S          0.00000  -0.00057   0.00000  -0.00000  -0.00038
   8        8S          0.00000  -0.00144   0.00000  -0.00000  -0.00095
   9        9S          0.00000  -0.00340   0.00000  -0.00000  -0.00228
  10       10S          0.00000  -0.00692   0.00000  -0.00000  -0.00454
  11       11S          0.00000  -0.01151   0.00000  -0.00000  -0.00785
  12       12S          0.00000  -0.00972   0.00000  -0.00000  -0.00609
  13       13S         -0.00000   0.01280  -0.00000   0.00000   0.00723
  14       14S         -0.00000   0.06190  -0.00000   0.00000   0.04763
  15       15S         -0.00000   0.06817  -0.00000  -0.00000  -0.03994
  16       16S         -0.00000  -0.05912   0.00000  -0.00000  -0.08150
  17       17S          0.00000  -0.09147   0.00000   0.00000  -0.01120
  18       18S         -0.00000  -0.10326   0.00000  -0.00000  -0.13046
  19       19S          0.00000  -0.01342  -0.00000  -0.00000   0.03941
  20       20S         -0.00000  -0.00311  -0.00000  -0.00000   0.01037
  21       21S          0.00000  -0.00064   0.00000   0.00000   0.09959
  22       22S          0.00000  -0.06529  -0.00000  -0.00000  -0.05840
  23       23S          0.00000   0.00014   0.00000   0.00000   0.00056
  24       24PX        -0.00004  -0.00000   0.00001  -0.00000  -0.00000
  25       24PY        -0.00000  -0.00000   0.00000   0.00001  -0.00000
  26       24PZ         0.00000  -0.00002   0.00000  -0.00000  -0.00001
  27       25PX        -0.00020  -0.00000   0.00003  -0.00000   0.00000
  28       25PY        -0.00000  -0.00000   0.00000   0.00003  -0.00000
  29       25PZ         0.00000  -0.00008   0.00000  -0.00000  -0.00004
  30       26PX        -0.00093  -0.00000   0.00016  -0.00000  -0.00000
  31       26PY        -0.00000  -0.00000   0.00000   0.00016  -0.00000
  32       26PZ         0.00000  -0.00036   0.00000  -0.00000  -0.00019
  33       27PX        -0.00376  -0.00000   0.00064  -0.00000   0.00000
  34       27PY        -0.00000  -0.00000   0.00000   0.00063  -0.00000
  35       27PZ         0.00000  -0.00144   0.00000  -0.00000  -0.00075
  36       28PX        -0.01288  -0.00000   0.00221  -0.00000   0.00000
  37       28PY        -0.00000  -0.00000   0.00000   0.00217  -0.00000
  38       28PZ         0.00000  -0.00494   0.00000  -0.00000  -0.00259
  39       29PX        -0.03665  -0.00000   0.00629  -0.00000   0.00000
  40       29PY        -0.00000  -0.00000   0.00000   0.00618  -0.00000
  41       29PZ         0.00000  -0.01407   0.00000  -0.00000  -0.00735
  42       30PX        -0.08154  -0.00000   0.01410  -0.00000   0.00000
  43       30PY        -0.00000  -0.00000   0.00000   0.01384  -0.00000
  44       30PZ         0.00000  -0.03138   0.00000  -0.00000  -0.01653
  45       31PX        -0.13439  -0.00000   0.02312  -0.00000   0.00000
  46       31PY        -0.00000  -0.00000   0.00000   0.02274  -0.00000
  47       31PZ         0.00000  -0.05177   0.00000  -0.00000  -0.02692
  48       32PX        -0.13432  -0.00000   0.02394  -0.00000   0.00000
  49       32PY        -0.00000  -0.00000   0.00000   0.02341  -0.00000
  50       32PZ         0.00000  -0.05232   0.00000  -0.00000  -0.02929
  51       33PX         0.07882   0.00000   0.00359   0.00000  -0.00000
  52       33PY         0.00000   0.00000  -0.00000   0.00073   0.00000
  53       33PZ        -0.00000   0.02206  -0.00000  -0.00000  -0.06204
  54       34PX         0.32847   0.00000  -0.06667   0.00000  -0.00000
  55       34PY         0.00000   0.00000  -0.00000  -0.06573   0.00000
  56       34PZ        -0.00000   0.14111  -0.00000   0.00000   0.09965
  57       35PX         0.24217   0.00000  -0.04300   0.00000  -0.00000
  58       35PY         0.00000   0.00000  -0.00000  -0.04335   0.00000
  59       35PZ        -0.00000   0.09789  -0.00000   0.00000   0.02841
  60       36PX         0.26622   0.00000  -0.05530   0.00000   0.00000
  61       36PY         0.00000   0.00000  -0.00000  -0.04958   0.00000
  62       36PZ        -0.00000   0.12565  -0.00000   0.00000   0.11285
  63       37PX         0.02871  -0.00000  -0.03248   0.00000  -0.00000
  64       37PY         0.00000   0.00000  -0.00000  -0.03060   0.00000
  65       37PZ        -0.00000   0.01948   0.00000  -0.00000  -0.00888
  66       38PX        -0.00321  -0.00000   0.00917   0.00000  -0.00000
  67       38PY        -0.00000   0.00000   0.00000  -0.00911   0.00000
  68       38PZ         0.00000  -0.00004   0.00000  -0.00000  -0.01051
  69       39PX         0.00195  -0.00000   0.00459  -0.00000  -0.00000
  70       39PY         0.00000   0.00000   0.00000   0.00023  -0.00000
  71       39PZ        -0.00000   0.00087   0.00000   0.00000  -0.00218
  72       40PX        -0.04187  -0.00000  -0.01095   0.00000   0.00000
  73       40PY        -0.00000  -0.00000   0.00000  -0.00812  -0.00000
  74       40PZ         0.00000  -0.00584   0.00000   0.00000   0.06594
  75       41PX         0.22540   0.00000  -0.04683   0.00000   0.00000
  76       41PY         0.00000   0.00000  -0.00000  -0.04612   0.00000
  77       41PZ        -0.00000   0.09554  -0.00000   0.00000   0.04891
  78       42PX        -0.00050  -0.00000  -0.00085   0.00000   0.00000
  79       42PY         0.00000  -0.00000   0.00000  -0.00111  -0.00000
  80       42PZ         0.00000  -0.00038  -0.00000   0.00000  -0.00019
  81       43D 0       -0.00000   0.00085  -0.00000   0.00000   0.00221
  82       43D+1       -0.00010   0.00000  -0.00114   0.00000  -0.00000
  83       43D-1       -0.00000  -0.00000  -0.00000  -0.00119   0.00000
  84       43D+2        0.00000   0.00002   0.00000  -0.00000   0.00007
  85       43D-2        0.00000   0.00000   0.00000  -0.00000   0.00000
  86       44D 0       -0.00000   0.00604  -0.00000   0.00000   0.01585
  87       44D+1       -0.00075   0.00000  -0.00808   0.00000  -0.00000
  88       44D-1       -0.00000  -0.00000  -0.00000  -0.00848   0.00000
  89       44D+2        0.00000   0.00015   0.00000  -0.00000   0.00052
  90       44D-2        0.00000   0.00000   0.00000  -0.00000   0.00000
  91       45D 0       -0.00000   0.02271  -0.00000   0.00000   0.05872
  92       45D+1       -0.00226   0.00000  -0.03012   0.00000  -0.00000
  93       45D-1       -0.00000  -0.00000  -0.00000  -0.03157   0.00000
  94       45D+2        0.00000   0.00056   0.00000  -0.00000   0.00195
  95       45D-2        0.00000   0.00000   0.00000  -0.00000   0.00000
  96       46D 0       -0.00000   0.05939  -0.00000   0.00000   0.17544
  97       46D+1       -0.01597   0.00000  -0.08104   0.00000  -0.00000
  98       46D-1       -0.00000  -0.00000  -0.00000  -0.08526   0.00000
  99       46D+2        0.00000   0.00128   0.00000  -0.00000   0.00471
 100       46D-2        0.00000   0.00000   0.00000   0.00000   0.00000
 101       47D 0       -0.00000   0.04875  -0.00000   0.00000   0.11418
 102       47D+1       -0.00805   0.00000  -0.06192   0.00000  -0.00000
 103       47D-1       -0.00000  -0.00000  -0.00000  -0.06562   0.00000
 104       47D+2        0.00000   0.00116   0.00000  -0.00000   0.00385
 105       47D-2        0.00000   0.00000   0.00000  -0.00000   0.00000
 106       48D 0       -0.00000   0.08317  -0.00000   0.00000   0.20795
 107       48D+1       -0.00235   0.00000  -0.12741   0.00000  -0.00000
 108       48D-1       -0.00000  -0.00000  -0.00000  -0.13951   0.00000
 109       48D+2        0.00000   0.00180   0.00000  -0.00000   0.00710
 110       48D-2       -0.00000   0.00000   0.00000  -0.00000   0.00000
 111       49D 0        0.00000   0.03270  -0.00000   0.00000   0.13367
 112       49D+1        0.00966   0.00000  -0.03367   0.00000  -0.00000
 113       49D-1        0.00000  -0.00000  -0.00000  -0.04711   0.00000
 114       49D+2        0.00000   0.00135   0.00000  -0.00000   0.00279
 115       49D-2       -0.00000   0.00000   0.00000  -0.00000  -0.00000
 116       50D 0        0.00000  -0.00129  -0.00000  -0.00000   0.01601
 117       50D+1        0.00227   0.00000   0.01388  -0.00000   0.00000
 118       50D-1        0.00000  -0.00000   0.00000   0.00813  -0.00000
 119       50D+2        0.00000   0.00070   0.00000   0.00000  -0.00038
 120       50D-2       -0.00000   0.00000   0.00000  -0.00000  -0.00000
 121       51D 0       -0.00000  -0.00621   0.00000  -0.00000  -0.03987
 122       51D+1        0.00969   0.00000   0.00955  -0.00000   0.00000
 123       51D-1        0.00000   0.00000   0.00000   0.01027   0.00000
 124       51D+2        0.00000   0.00022   0.00000   0.00000   0.00015
 125       51D-2        0.00000   0.00000   0.00000  -0.00000   0.00000
 126       52D 0       -0.00000   0.03804  -0.00000   0.00000   0.12592
[...]
  45       31PX         0.67778   0.33911   0.33866   0.00045
  46       31PY         0.67711   0.33856   0.33856   0.00000
  47       31PZ         0.67665   0.33835   0.33830   0.00005
  48       32PX         0.57511   0.28738   0.28773  -0.00035
  49       32PY         0.57568   0.28784   0.28784   0.00000
  50       32PZ         0.57603   0.28799   0.28804  -0.00004
  51       33PX         0.29175   0.14832   0.14342   0.00490
  52       33PY         0.28699   0.14350   0.14350   0.00000
  53       33PZ         0.31059   0.15534   0.15525   0.00009
  54       34PX         0.54943   0.27733   0.27210   0.00523
  55       34PY         0.54412   0.27206   0.27206   0.00000
  56       34PZ         0.52650   0.26360   0.26290   0.00071
  57       35PX         0.47436   0.23819   0.23617   0.00202
  58       35PY         0.47294   0.23647   0.23647  -0.00000
  59       35PZ         0.48458   0.24241   0.24217   0.00024
  60       36PX         0.43978   0.21674   0.22303  -0.00629
  61       36PY         0.44866   0.22433   0.22433  -0.00000
  62       36PZ         0.37120   0.18490   0.18630  -0.00140
  63       37PX         0.08823   0.08174   0.00649   0.07524
  64       37PY         0.01244   0.00622   0.00622   0.00000
  65       37PZ         0.05116   0.03954   0.01162   0.02792
  66       38PX         0.14003   0.13838   0.00164   0.13674
  67       38PY        -0.00705  -0.00353  -0.00353   0.00000
  68       38PZ         0.05563   0.06241  -0.00678   0.06919
  69       39PX         0.01548   0.01455   0.00094   0.01361
  70       39PY         0.00037   0.00018   0.00018  -0.00000
  71       39PZ         0.02134   0.02189  -0.00055   0.02244
  72       40PX        -0.03435  -0.01914  -0.01521  -0.00393
  73       40PY        -0.03062  -0.01531  -0.01531  -0.00000
  74       40PZ        -0.05041  -0.02522  -0.02519  -0.00002
  75       41PX         0.42644   0.21389   0.21256   0.00133
  76       41PY         0.42566   0.21283   0.21283   0.00000
  77       41PZ         0.42032   0.21026   0.21006   0.00020
  78       42PX         0.00049   0.00057  -0.00008   0.00065
  79       42PY        -0.00016  -0.00008  -0.00008   0.00000
  80       42PZ        -0.00100  -0.00100   0.00000  -0.00101
  81       43D 0        0.00015   0.00008   0.00007   0.00000
  82       43D+1        0.00015   0.00013   0.00002   0.00012
  83       43D-1        0.00004   0.00002   0.00002   0.00000
  84       43D+2        0.00017   0.00017   0.00000   0.00017
  85       43D-2        0.00017   0.00017   0.00000   0.00017
  86       44D 0        0.00411   0.00210   0.00200   0.00010
  87       44D+1        0.00412   0.00366   0.00046   0.00320
  88       44D-1        0.00101   0.00051   0.00051   0.00000
  89       44D+2        0.00467   0.00466   0.00000   0.00466
  90       44D-2        0.00467   0.00467   0.00000   0.00467
  91       45D 0        0.03616   0.01852   0.01764   0.00087
  92       45D+1        0.03603   0.03193   0.00410   0.02783
  93       45D-1        0.00903   0.00452   0.00452   0.00000
  94       45D+2        0.04114   0.04112   0.00002   0.04110
  95       45D-2        0.04120   0.04120   0.00000   0.04120
  96       46D 0        0.18677   0.09534   0.09143   0.00391
  97       46D+1        0.16460   0.14468   0.01992   0.12475
  98       46D-1        0.04404   0.02202   0.02202   0.00000
  99       46D+2        0.17103   0.17094   0.00008   0.17086
 100       46D-2        0.17129   0.17129   0.00000   0.17129
 101       47D 0        0.17624   0.08974   0.08649   0.00325
 102       47D+1        0.16041   0.13698   0.02342   0.11356
 103       47D-1        0.05236   0.02618   0.02618   0.00000
 104       47D+2        0.16867   0.16859   0.00009   0.16850
 105       47D-2        0.16892   0.16892   0.00000   0.16892
 106       48D 0        0.34584   0.17808   0.16776   0.01032
 107       48D+1        0.32401   0.25342   0.07059   0.18283
 108       48D-1        0.16174   0.08087   0.08087   0.00000
 109       48D+2        0.31803   0.31789   0.00014   0.31776
 110       48D-2        0.31851   0.31851   0.00000   0.31851
 111       49D 0        0.09637   0.05681   0.03956   0.01725
 112       49D+1        0.10750   0.08779   0.01971   0.06808
 113       49D-1        0.05702   0.02851   0.02851   0.00000
 114       49D+2        0.13597   0.13594   0.00004   0.13590
 115       49D-2        0.13610   0.13610   0.00000   0.13610
 116       50D 0        0.00432   0.00645  -0.00213   0.00857
 117       50D+1       -0.00072   0.00363  -0.00435   0.00798
 118       50D-1       -0.00518  -0.00259  -0.00259   0.00000
 119       50D+2        0.01180   0.01180   0.00000   0.01180
 120       50D-2        0.01152   0.01152   0.00000   0.01152
 121       51D 0       -0.04342  -0.02190  -0.02152  -0.00038
 122       51D+1       -0.02080  -0.01812  -0.00268  -0.01544
 123       51D-1       -0.00592  -0.00296  -0.00296  -0.00000
 124       51D+2       -0.00700  -0.00700   0.00000  -0.00700
 125       51D-2       -0.00703  -0.00703   0.00000  -0.00703
 126       52D 0        0.19153   0.09784   0.09369   0.00415
 127       52D+1        0.14483   0.12394   0.02089   0.10304
 128       52D-1        0.04653   0.02326   0.02326   0.00000
 129       52D+2        0.15014   0.15006   0.00008   0.14999
 130       52D-2        0.15035   0.15035   0.00000   0.15035
 131       53D 0        0.00027   0.00018   0.00009   0.00010
 132       53D+1        0.00033   0.00023   0.00009   0.00014
 133       53D-1        0.00035   0.00017   0.00017   0.00000
 134       53D+2       -0.00019  -0.00019  -0.00000  -0.00019
 135       53D-2       -0.00021  -0.00021  -0.00000  -0.00021
 136       54F 0        0.00030   0.00015   0.00015   0.00000
 137       54F+1        0.00011   0.00006   0.00006  -0.00000
 138       54F-1        0.00013   0.00006   0.00006  -0.00000
 139       54F+2        0.00001   0.00001   0.00000   0.00001
 140       54F-2        0.00001   0.00001   0.00000   0.00001
 141       54F+3        0.00000   0.00000   0.00000   0.00000
 142       54F-3        0.00000   0.00000   0.00000   0.00000
 143       55F 0        0.00727   0.00364   0.00363   0.00001
 144       55F+1        0.00359   0.00174   0.00185  -0.00011
 145       55F-1        0.00408   0.00204   0.00204  -0.00000
 146       55F+2        0.00008   0.00008   0.00000   0.00008
 147       55F-2        0.00006   0.00006   0.00000   0.00006
 148       55F+3        0.00001   0.00000   0.00000   0.00000
 149       55F-3        0.00001   0.00000   0.00000   0.00000
 150       56F 0        0.00725   0.00361   0.00364  -0.00003
 151       56F+1        0.01570   0.00888   0.00683   0.00205
 152       56F-1        0.01557   0.00778   0.00778   0.00000
 153       56F+2        0.00010   0.00010   0.00000   0.00010
 154       56F-2        0.00004   0.00004   0.00000   0.00004
 155       56F+3        0.00000   0.00000   0.00000   0.00000
 156       56F-3        0.00000   0.00000   0.00000   0.00000
 157       57F 0       -0.00504  -0.00279  -0.00225  -0.00054
 158       57F+1       -0.00173   0.00011  -0.00184   0.00195
 159       57F-1       -0.00306  -0.00153  -0.00153   0.00000
 160       57F+2        0.00006   0.00006   0.00000   0.00006
 161       57F-2       -0.00002  -0.00002   0.00000  -0.00002
 162       57F+3        0.00000   0.00000   0.00000   0.00000
 163       57F-3        0.00000   0.00000   0.00000   0.00000
 164       58G 0        0.00006   0.00003   0.00003   0.00000
 165       58G+1        0.00002   0.00001   0.00001  -0.00000
 166       58G-1        0.00002   0.00001   0.00001  -0.00000
 167       58G+2        0.00000   0.00000   0.00000   0.00000
 168       58G-2        0.00000   0.00000   0.00000   0.00000
 169       58G+3        0.00000   0.00000   0.00000   0.00000
 170       58G-3        0.00000   0.00000   0.00000   0.00000
 171       58G+4        0.00000   0.00000   0.00000   0.00000
 172       58G-4        0.00000   0.00000   0.00000   0.00000
 173       59G 0        0.00178   0.00089   0.00089   0.00001
 174       59G+1        0.00144   0.00070   0.00074  -0.00005
 175       59G-1        0.00151   0.00075   0.00075  -0.00000
 176       59G+2        0.00001   0.00001   0.00000   0.00001
 177       59G-2        0.00001   0.00001   0.00000   0.00001
 178       59G+3        0.00000   0.00000   0.00000   0.00000
 179       59G-3        0.00000   0.00000   0.00000   0.00000
 180       59G+4        0.00000   0.00000   0.00000   0.00000
 181       59G-4        0.00000   0.00000   0.00000   0.00000
 182       60G 0        0.00059   0.00032   0.00027   0.00005
 183       60G+1        0.00111   0.00090   0.00021   0.00069
 184       60G-1        0.00022   0.00011   0.00011   0.00000
 185       60G+2        0.00000   0.00000   0.00000   0.00000
 186       60G-2       -0.00000  -0.00000   0.00000  -0.00000
 187       60G+3        0.00000   0.00000   0.00000   0.00000
 188       60G-3        0.00000   0.00000   0.00000   0.00000
 189       60G+4        0.00000   0.00000   0.00000   0.00000
 190       60G-4        0.00000   0.00000   0.00000   0.00000
 191 2   O  1S          0.00005   0.00003   0.00003   0.00000
 192        2S          0.00109   0.00054   0.00054   0.00000
 193        3S          0.01320   0.00660   0.00660   0.00000
 194        4S          0.09660   0.04830   0.04829   0.00001
 195        5S          0.40555   0.20280   0.20275   0.00005
 196        6S          0.79959   0.39983   0.39976   0.00007
 197        7S          0.49212   0.24596   0.24616  -0.00020
 198        8S          1.03084   0.51615   0.51469   0.00146
 199        9S          0.26026   0.13046   0.12980   0.00066
 200       10S          0.72639   0.36344   0.36295   0.00050
 201       11S          0.08240   0.04121   0.04119   0.00002
 202       12S          0.04674   0.02337   0.02338  -0.00001
 203       13S          0.10190   0.06680   0.03510   0.03170
 204       14PX         0.00187   0.00098   0.00089   0.00009
 205       14PY         0.00173   0.00087   0.00087   0.00000
 206       14PZ         0.00153   0.00077   0.00075   0.00002
 207       15PX         0.06380   0.03330   0.03050   0.00280
 208       15PY         0.05928   0.02964   0.02964   0.00000
 209       15PZ         0.05585   0.02831   0.02754   0.00077
 210       16PX         0.39005   0.20245   0.18760   0.01485
 211       16PY         0.36550   0.18275   0.18275   0.00000
 212       16PZ         0.36667   0.18544   0.18123   0.00420
 213       17PX         0.79303   0.40872   0.38431   0.02441
 214       17PY         0.75553   0.37777   0.37777   0.00000
 215       17PZ         0.59768   0.30415   0.29353   0.01062
 216       18PX         0.50052   0.27823   0.22229   0.05594
 217       18PY         0.42268   0.21134   0.21134   0.00000
 218       18PZ         0.17499   0.10870   0.06629   0.04241
 219       19PX         0.00395   0.00205   0.00191   0.00014
 220       19PY         0.00370   0.00185   0.00185   0.00000
 221       19PZ         0.00441   0.00222   0.00218   0.00004
 222       20PX         0.00054   0.00028   0.00026   0.00002
 223       20PY         0.00051   0.00025   0.00025   0.00000
 224       20PZ         0.00053   0.00027   0.00026   0.00001
 225       21PX         0.06362   0.05292   0.01070   0.04222
 226       21PY         0.01295   0.00647   0.00647   0.00000
 227       21PZ         0.03117   0.02974   0.00143   0.02831
 228       22D 0        0.00559   0.00288   0.00271   0.00017
 229       22D+1        0.00302   0.00199   0.00103   0.00095
 230       22D-1        0.00249   0.00125   0.00125   0.00000
 231       22D+2        0.00020   0.00020   0.00000   0.00020
 232       22D-2        0.00020   0.00020   0.00000   0.00020
 233       23D 0        0.01225   0.00655   0.00570   0.00085
 234       23D+1        0.01952   0.01282   0.00671   0.00611
 235       23D-1        0.01658   0.00829   0.00829   0.00000
 236       23D+2        0.00243   0.00243   0.00000   0.00243
 237       23D-2        0.00243   0.00243   0.00000   0.00243
 238       24D 0        0.00002   0.00001   0.00001   0.00000
 239       24D+1        0.00001   0.00001   0.00000   0.00000
 240       24D-1        0.00001   0.00000   0.00000   0.00000
 241       24D+2        0.00000   0.00000   0.00000   0.00000
 242       24D-2        0.00000   0.00000   0.00000   0.00000
 243       25D 0       -0.00495  -0.00263  -0.00232  -0.00031
 244       25D+1        0.00211   0.00106   0.00105   0.00001
 245       25D-1        0.00291   0.00145   0.00145   0.00000
 246       25D+2        0.00090   0.00090   0.00000   0.00090
 247       25D-2        0.00086   0.00086   0.00000   0.00086
 248       26F 0        0.00250   0.00130   0.00120   0.00010
 249       26F+1        0.00258   0.00174   0.00084   0.00090
 250       26F-1        0.00181   0.00090   0.00090   0.00000
 251       26F+2        0.00037   0.00037  -0.00000   0.00037
 252       26F-2        0.00037   0.00037   0.00000   0.00037
 253       26F+3        0.00000   0.00000   0.00000  -0.00000
 254       26F-3        0.00000   0.00000   0.00000  -0.00000
 255       27F 0        0.00039   0.00025   0.00015   0.00010
 256       27F+1        0.00149   0.00107   0.00042   0.00065
 257       27F-1        0.00102   0.00051   0.00051   0.00000
 258       27F+2        0.00055   0.00055   0.00000   0.00055
 259       27F-2        0.00054   0.00054   0.00000   0.00054
 260       27F+3        0.00000   0.00000   0.00000  -0.00000
 261       27F-3        0.00000   0.00000   0.00000  -0.00000
          Condensed to atoms (all electrons):
               1          2
     1  Cr  23.133815   0.059169
     2  O    0.059169   8.747848
          Atomic-Atomic Spin Densities.
               1          2
     1  Cr   3.663376   0.057136
     2  O    0.057136   0.222353
 Mulliken charges and spin densities:
               1          2
     1  Cr   0.807017   3.720511
     2  O   -0.807017   0.279489
 Sum of Mulliken charges =  -0.00000   4.00000
 Mulliken charges and spin densities with hydrogens summed into heavy atoms:
               1          2
     1  Cr   0.807017   3.720511
     2  O   -0.807017   0.279489
 Electronic spatial extent (au):  <R**2>=             80.5201
 Charge=             -0.0000 electrons
 Dipole moment (field-independent basis, Debye):
    X=              0.0000    Y=              0.0000    Z=              0.2493  Tot=              0.2493
 Quadrupole moment (field-independent basis, Debye-Ang):
   XX=            -23.2716   YY=            -20.3119   ZZ=            -23.2191
   XY=             -0.0000   XZ=             -0.0000   YZ=              0.0000
 Traceless Quadrupole moment (field-independent basis, Debye-Ang):
   XX=             -1.0041   YY=              1.9556   ZZ=             -0.9516
   XY=             -0.0000   XZ=             -0.0000   YZ=              0.0000
 Octapole moment (field-independent basis, Debye-Ang**2):
  XXX=              0.0000  YYY=              0.0000  ZZZ=             -5.8141  XYY=              0.0000
  XXY=              0.0000  XXZ=             -3.6115  XZZ=              0.0000  YZZ=              0.0000
  YYZ=             -2.1540  XYZ=             -0.0000
 Hexadecapole moment (field-independent basis, Debye-Ang**3):
 XXXX=            -45.9456 YYYY=            -32.8498 ZZZZ=            -76.7218 XXXY=             -0.0000
 XXXZ=              0.0000 YYYX=             -0.0000 YYYZ=              0.0000 ZZZX=              0.0000
 ZZZY=              0.0000 XXYY=            -13.1231 XXZZ=            -22.0798 YYZZ=            -18.1867
 XXYZ=              0.0000 YYXZ=              0.0000 ZZXY=             -0.0000
 N-N= 8.466835374720D+01 E-N=-2.880014874263D+03  KE= 1.164926785079D+03
 Orbital energies and kinetic energies (alpha):
                                 1                 2
  10         O                -2.389279          8.792480
  11         O                -1.252220          4.773983
  12         O                -0.748405          2.826848
  13         O                -0.689996          2.849902
  14         O                -0.655434          4.265502
  15         O                -0.503411          1.313499
  16         O                -0.502489          5.291408
  17         O                -0.298873          4.950337
  18         O                -0.264847          4.090430
  19         V                 0.014553          0.096689
  20         V                 0.024447          0.048495
  21         V                 0.028100          0.069673
  22         V                 0.028137          0.086471
  23         V                 0.054262          0.351262
 Total kinetic energy from orbitals= 1.180572459457D+03
 FoFCou: FMM=F IPFlag=           8 FMFlag=           0 FMFlg1=           0
         NFxFlg=           0 DoJE=F BraDBF=T KetDBF=F FulRan=T
         wScrn=  0.000000 ICntrl=   2000500 IOpCl=  0 I1Cent=           5 NGrid=           0
         NMat0=    1 NMatS0=      1 NMatT0=    0 NMatD0=    1 NMtDS0=    0 NMtDT0=    0
 Symmetry not used in FoFCou.
                          Isotropic Fermi Contact Couplings
        Atom                 a.u.       MegaHertz       Gauss      10(-4) cm-1
     1  Cr(53)             4.88076    -308.90707    -110.22572    -103.04031
     2  O(17)              0.04233      -6.41487      -2.28899      -2.13977
 --------------------------------------------------------
       Center         ----  Spin Dipole Couplings  ----
                      3XX-RR        3YY-RR        3ZZ-RR
 --------------------------------------------------------
     1   Atom        3.167514      0.124877     -3.292391
     2   Atom        0.090278     -0.321376      0.231098
 --------------------------------------------------------
                        XY            XZ            YZ
 --------------------------------------------------------
     1   Atom        0.000001     -0.000000      0.000000
     2   Atom        0.000000     -0.000000      0.000000
 --------------------------------------------------------


 ---------------------------------------------------------------------------------
              Anisotropic Spin Dipole Couplings in Principal Axis System
 ---------------------------------------------------------------------------------

       Atom             a.u.   MegaHertz   Gauss  10(-4) cm-1        Axes

              Baa    -3.2924    99.493    35.502    33.187  0.0000 -0.0000  1.0000
     1 Cr(53) Bbb     0.1249    -3.774    -1.347    -1.259 -0.0000  1.0000  0.0000
              Bcc     3.1675   -95.719   -34.155   -31.929  1.0000  0.0000 -0.0000
 
              Baa    -0.3214    23.255     8.298     7.757 -0.0000  1.0000 -0.0000
     2 O(17)  Bbb     0.0903    -6.532    -2.331    -2.179  1.0000  0.0000  0.0000
              Bcc     0.2311   -16.722    -5.967    -5.578 -0.0000  0.0000  1.0000
 

 ---------------------------------------------------------------------------------

 No NMR shielding tensors so no spin-rotation constants.
 Leave Link  601 at Wed Mar  7 00:45:58 2018, MaxMem= 21474836480 cpu:              27.3 elap:               0.9
 (Enter /home1/apps/gaussian/16rA.03/g16/l9999.exe)

 Test job not archived.
 1\1\GINC-C501-071\SP\ROCCSD(T)-Full\Gen\Cr1O1(5)\AANNABE\07-Mar-2018\0
 \\#P ROCCSD(T)=(maxcyc=150, Full, SaveAmplitudes, ReadAmplitudes)/Gen 
 5d 7f SCF=(maxcycles=300) Integral(NoXCTest, DKHSO) MaxDisk=500GB Pop=
 Regular Guess=Read IOp(5/15=2)\\CrO\\0,5\Cr,0,0.,0.,0.\O,0,0.,0.,1.2\\
 Version=ES64L-G16RevA.03\HF=-1124.2422684\MP2=-1125.5643657\MP3=-1125.
 4873266\PUHF=-1124.2422684\PMP2-0=-1125.5643657\MP4SDQ=-1125.5347421\C
 CSD=-1125.5169606\CCSD(T)=-1125.5574208\RMSD=8.675e-09\PG=C*V [C*(O1Cr
 1)]\\@


 Experience is what you get when you don't get what you want.
 -- Dan Stanford
 Job cpu time:       0 days 18 hours 54 minutes 17.3 seconds.
 Elapsed time:       0 days  0 hours 35 minutes 59.9 seconds.
 File lengths (MBytes):  RWF=  79030 Int=      0 D2E=      0 Chk=    166 Scr=      1
 Normal termination of Gaussian 16 at Wed Mar  7 00:45:58 2018.
