 Entering Gaussian System, Link 0=g16
 Initial command:
 /home1/apps/gaussian/16rA.03/g16/l1.exe "/tmp/Gau-245006.inp" -scrdir="/tmp/"
 Entering Link 1 = /home1/apps/gaussian/16rA.03/g16/l1.exe PID=    245007.
  
 Copyright (c) 1988,1990,1992,1993,1995,1998,2003,2009,2016,
            Gaussian, Inc.  All Rights Reserved.
  
 This is part of the Gaussian(R) 16 program.  It is based on
 the Gaussian(R) 09 system (copyright 2009, Gaussian, Inc.),
 the Gaussian(R) 03 system (copyright 2003, Gaussian, Inc.),
 the Gaussian(R) 98 system (copyright 1998, Gaussian, Inc.),
 the Gaussian(R) 94 system (copyright 1995, Gaussian, Inc.),
 the Gaussian 92(TM) system (copyright 1992, Gaussian, Inc.),
 the Gaussian 90(TM) system (copyright 1990, Gaussian, Inc.),
 the Gaussian 88(TM) system (copyright 1988, Gaussian, Inc.),
 the Gaussian 86(TM) system (copyright 1986, Carnegie Mellon
 University), and the Gaussian 82(TM) system (copyright 1983,
 Carnegie Mellon University). Gaussian is a federally registered
 trademark of Gaussian, Inc.
  
 This software contains proprietary and confidential information,
 including trade secrets, belonging to Gaussian, Inc.
  
 This software is provided under written license and may be
 used, copied, transmitted, or stored only in accord with that
 written license.
  
 The following legend is applicable only to US Government
 contracts under FAR:
  
                    RESTRICTED RIGHTS LEGEND
  
 Use, reproduction and disclosure by the US Government is
 subject to restrictions as set forth in subparagraphs (a)
 and (c) of the Commercial Computer Software - Restricted
 Rights clause in FAR 52.227-19.
  
 Gaussian, Inc.
 340 Quinnipiac St., Bldg. 40, Wallingford CT 06492
  
  
 ---------------------------------------------------------------
 Warning -- This program may not be used in any manner that
 competes with the business of Gaussian, Inc. or will provide
 assistance to any competitor of Gaussian, Inc.  The licensee
 of this program is prohibited from giving any competitor of
 Gaussian, Inc. access to this program.  By using this program,
 the user acknowledges that Gaussian, Inc. is engaged in the
 business of creating and licensing software in the field of
 computational chemistry and represents and warrants to the
 licensee that it is not a competitor of Gaussian, Inc. and that
 it will not use this program in any manner prohibited above.
 ---------------------------------------------------------------
  

 Cite this work as:
 Gaussian 16, Revision A.03,
 M. J. Frisch, G. W. Trucks, H. B. Schlegel, G. E. Scuseria, 
 M. A. Robb, J. R. Cheeseman, G. Scalmani, V. Barone, 
 G. A. Petersson, H. Nakatsuji, X. Li, M. Caricato, A. V. Marenich, 
 J. Bloino, B. G. Janesko, R. Gomperts, B. Mennucci, H. P. Hratchian, 
 J. V. Ortiz, A. F. Izmaylov, J. L. Sonnenberg, D. Williams-Young, 
 F. Ding, F. Lipparini, F. Egidi, J. Goings, B. Peng, A. Petrone, 
 T. Henderson, D. Ranasinghe, V. G. Zakrzewski, J. Gao, N. Rega, 
 G. Zheng, W. Liang, M. Hada, M. Ehara, K. Toyota, R. Fukuda, 
 J. Hasegawa, M. Ishida, T. Nakajima, Y. Honda, O. Kitao, H. Nakai, 
 T. Vreven, K. Throssell, J. A. Montgomery, Jr., J. E. Peralta, 
 F. Ogliaro, M. J. Bearpark, J. J. Heyd, E. N. Brothers, K. N. Kudin, 
 V. N. Staroverov, T. A. Keith, R. Kobayashi, J. Normand, 
 K. Raghavachari, A. P. Rendell, J. C. Burant, S. S. Iyengar, 
 J. Tomasi, M. Cossi, J. M. Millam, M. Klene, C. Adamo, R. Cammi, 
 J. W. Ochterski, R. L. Martin, K. Morokuma, O. Farkas, 
 J. B. Foresman, and D. J. Fox, Gaussian, Inc., Wallingford CT, 2016.
 
 ******************************************
 Gaussian 16:  ES64L-G16RevA.03 25-Dec-2016
                29-Jan-2018 
 ******************************************
 %mem=80GB
 %nproc=16
 Will use up to   16 processors via shared memory.
 %chk=H
 ----------------------------------------------------------------------
 #P ROHF/Gen 5d 7f SCF=(maxcycles=500) Integral(Grid=525302) MaxDisk=50
 00GB Pop=Full Pseudo=Read
 ----------------------------------------------------------------------
 1/38=1,172=1/1;
 2/12=2,17=6,18=5,40=1/2;
 3/5=7,8=11,11=2,16=1,17=8,25=1,30=1,75=525302,116=101/1,2,3;
 4//1;
 5/5=2,7=500,38=5/2;
 6/7=3,28=1/1;
 99/5=1,9=1/99;
 Leave Link    1 at Mon Jan 29 13:08:31 2018, MaxMem= 10737418240 cpu:               3.7 elap:               0.2
 (Enter /home1/apps/gaussian/16rA.03/g16/l101.exe)
 -
 H
 -
 Symbolic Z-matrix:
 Charge =  0 Multiplicity = 2
 H                     0.        0.        0. 
 
 ITRead=  0
 MicOpt= -1
 NAtoms=      1 NQM=        1 NQMF=       0 NMMI=      0 NMMIF=      0
                NMic=       0 NMicF=      0.
                    Isotopes and Nuclear Properties:
 (Nuclear quadrupole moments (NQMom) in fm**2, nuclear magnetic moments (NMagM)
  in nuclear magnetons)

  Atom         1
 IAtWgt=           1
 AtmWgt=   1.0078250
 NucSpn=           1
 AtZEff=  -0.0000000
 NQMom=    0.0000000
 NMagM=    2.7928460
 AtZNuc=   1.0000000
 Leave Link  101 at Mon Jan 29 13:08:32 2018, MaxMem= 10737418240 cpu:               1.3 elap:               0.1
 (Enter /home1/apps/gaussian/16rA.03/g16/l202.exe)
                          Input orientation:                          
 ---------------------------------------------------------------------
 Center     Atomic      Atomic             Coordinates (Angstroms)
 Number     Number       Type             X           Y           Z
 ---------------------------------------------------------------------
      1          1           0        0.000000    0.000000    0.000000
 ---------------------------------------------------------------------
 Stoichiometry    H(2)
 Framework group  OH[O(H)]
 Deg. of freedom     0
 Full point group                 OH      NOp  48
 Largest Abelian subgroup         D2H     NOp   8
 Largest concise Abelian subgroup C1      NOp   1
                         Standard orientation:                         
 ---------------------------------------------------------------------
 Center     Atomic      Atomic             Coordinates (Angstroms)
 Number     Number       Type             X           Y           Z
 ---------------------------------------------------------------------
      1          1           0        0.000000    0.000000    0.000000
 ---------------------------------------------------------------------
 Leave Link  202 at Mon Jan 29 13:08:33 2018, MaxMem= 10737418240 cpu:               0.5 elap:               0.1
 (Enter /home1/apps/gaussian/16rA.03/g16/l301.exe)
 General basis read from cards:  (5D, 7F)
 Centers:       1
 S 1 1.00
     Exponent=  4.0200000000D+02 Coefficients=  1.0000000000D+00
 S 1 1.00
     Exponent=  6.0240000000D+01 Coefficients=  1.0000000000D+00
 S 1 1.00
     Exponent=  1.3730000000D+01 Coefficients=  1.0000000000D+00
 S 1 1.00
     Exponent=  3.9050000000D+00 Coefficients=  1.0000000000D+00
 S 1 1.00
     Exponent=  1.2830000000D+00 Coefficients=  1.0000000000D+00
 S 1 1.00
     Exponent=  4.6550000000D-01 Coefficients=  1.0000000000D+00
 S 1 1.00
     Exponent=  1.8110000000D-01 Coefficients=  1.0000000000D+00
 S 1 1.00
     Exponent=  7.2790000000D-02 Coefficients=  1.0000000000D+00
 S 1 1.00
     Exponent=  2.0700000000D-02 Coefficients=  1.0000000000D+00
 P 1 1.00
     Exponent=  4.5160000000D+00 Coefficients=  1.0000000000D+00
 P 1 1.00
     Exponent=  1.7120000000D+00 Coefficients=  1.0000000000D+00
 P 1 1.00
     Exponent=  6.4900000000D-01 Coefficients=  1.0000000000D+00
 P 1 1.00
     Exponent=  2.4600000000D-01 Coefficients=  1.0000000000D+00
 P 1 1.00
     Exponent=  7.4400000000D-02 Coefficients=  1.0000000000D+00
 D 1 1.00
     Exponent=  2.9500000000D+00 Coefficients=  1.0000000000D+00
 D 1 1.00
     Exponent=  1.2060000000D+00 Coefficients=  1.0000000000D+00
 D 1 1.00
     Exponent=  4.9300000000D-01 Coefficients=  1.0000000000D+00
 D 1 1.00
     Exponent=  1.5600000000D-01 Coefficients=  1.0000000000D+00
 F 1 1.00
     Exponent=  2.5060000000D+00 Coefficients=  1.0000000000D+00
 F 1 1.00
     Exponent=  8.7500000000D-01 Coefficients=  1.0000000000D+00
 F 1 1.00
     Exponent=  2.7400000000D-01 Coefficients=  1.0000000000D+00
 G 1 1.00
     Exponent=  2.3580000000D+00 Coefficients=  1.0000000000D+00
 G 1 1.00
     Exponent=  5.4300000000D-01 Coefficients=  1.0000000000D+00
 ****
 ======================================================================================================
                                       Pseudopotential Parameters
 ======================================================================================================
  Center     Atomic      Valence      Angular      Power
  Number     Number     Electrons     Momentum     of R      Exponent        Coefficient   SO-Coeffient
 ======================================================================================================
    1          1            1
                                      P and up 
                                                     2       21.7769666      -10.85192405    0.00000000
                                                     1       21.2435951        1.00000000    0.00000000
                                                     3       21.2435951       21.24359508    0.00000000
                                      S - P
                                                     2        1.0000000        0.00000000    0.00000000
 ======================================================================================================
 Ernie: Thresh=  0.10000D-02 Tol=  0.10000D-05 Strict=F.
 There are    33 symmetry adapted cartesian basis functions of AG  symmetry.
 There are    10 symmetry adapted cartesian basis functions of B1G symmetry.
 There are    10 symmetry adapted cartesian basis functions of B2G symmetry.
 There are    10 symmetry adapted cartesian basis functions of B3G symmetry.
 There are     3 symmetry adapted cartesian basis functions of AU  symmetry.
 There are    14 symmetry adapted cartesian basis functions of B1U symmetry.
 There are    14 symmetry adapted cartesian basis functions of B2U symmetry.
 There are    14 symmetry adapted cartesian basis functions of B3U symmetry.
 There are    23 symmetry adapted basis functions of AG  symmetry.
 There are     8 symmetry adapted basis functions of B1G symmetry.
 There are     8 symmetry adapted basis functions of B2G symmetry.
 There are     8 symmetry adapted basis functions of B3G symmetry.
 There are     3 symmetry adapted basis functions of AU  symmetry.
 There are    11 symmetry adapted basis functions of B1U symmetry.
 There are    11 symmetry adapted basis functions of B2U symmetry.
 There are    11 symmetry adapted basis functions of B3U symmetry.
    83 basis functions,   108 primitive gaussians,   108 cartesian basis functions
     1 alpha electrons        0 beta electrons
       nuclear repulsion energy         0.0000000000 Hartrees.
 IExCor=    0 DFT=F Ex=HF Corr=None ExCW=0 ScaHFX=  1.000000
 ScaDFX=  1.000000  1.000000  1.000000  1.000000 ScalE2=  1.000000  1.000000
 IRadAn= 525302 IRanWt=     -1 IRanGd=            0 ICorTp=0 IEmpDi=  4
 NAtoms=    1 NActive=    1 NUniq=    1 SFac= 1.00D+00 NAtFMM=   60 NAOKFM=F Big=F
 Integral buffers will be    131072 words long.
 Raffenetti 2 integral format.
 Two-electron integral symmetry is turned on.
 Leave Link  301 at Mon Jan 29 13:08:33 2018, MaxMem= 10737418240 cpu:               2.0 elap:               0.1
 (Enter /home1/apps/gaussian/16rA.03/g16/l302.exe)
 NPDir=0 NMtPBC=     1 NCelOv=     1 NCel=       1 NClECP=     1 NCelD=      1
         NCelK=      1 NCelE2=     1 NClLst=     1 CellRange=     0.0.
 One-electron integrals computed using PRISM.
 One-electron integral symmetry used in STVInt
  48 Symmetry operations used in ECPInt.
 ECPInt:  NShTT=     276 NPrTT=     276 LenC2=     277 LenP2D=     276.
 LDataN:  DoStor=T MaxTD1= 8 Len=  415
 NBasis=    83 RedAO= T EigKep=  8.61D-03  NBF=    23     8     8     8     3    11    11    11
 NBsUse=    83 1.00D-06 EigRej= -1.00D+00 NBFU=    23     8     8     8     3    11    11    11
 Leave Link  302 at Mon Jan 29 13:08:34 2018, MaxMem= 10737418240 cpu:              15.1 elap:               1.0
 (Enter /home1/apps/gaussian/16rA.03/g16/l303.exe)
 DipDrv:  MaxL=1.
 Leave Link  303 at Mon Jan 29 13:08:35 2018, MaxMem= 10737418240 cpu:               0.7 elap:               0.1
 (Enter /home1/apps/gaussian/16rA.03/g16/l401.exe)
 ExpMin= 2.07D-02 ExpMax= 4.02D+02 ExpMxC= 4.02D+02 IAcc=4 IRadAn=    525590 AccDes= 0.00D+00
 Harris functional with IExCor=  205 and IRadAn=  525590 diagonalized for initial guess.
 HarFok:  IExCor=  205 AccDes= 0.00D+00 IRadAn=    525590 IDoV= 1 UseB2=F ITyADJ=14
 ICtDFT=  3500011 ScaDFX=  1.000000  1.000000  1.000000  1.000000
 FoFCou: FMM=F IPFlag=           0 FMFlag=      100000 FMFlg1=           0
         NFxFlg=           0 DoJE=T BraDBF=F KetDBF=T FulRan=T
         wScrn=  0.000000 ICntrl=       500 IOpCl=  0 I1Cent=   200000004 NGrid=           0
         NMat0=    1 NMatS0=      1 NMatT0=    0 NMatD0=    1 NMtDS0=    0 NMtDT0=    0
 Petite list used in FoFCou.
 Harris En=-0.462775053226950    
 JPrj=0 DoOrth=F DoCkMO=F.
 Initial guess orbital symmetries:
       Occupied  (A1G)
       Virtual   (A1G) (T1U) (T1U) (T1U) (A1G) (T2G) (T2G) (T2G)
                 (EG) (EG) (T1U) (T1U) (T1U) (A1G) (T2U) (T2U)
                 (T2U) (A2U) (T1U) (T1U) (T1U) (T2G) (T2G) (T2G)
                 (EG) (EG) (T1U) (T1U) (T1U) (T1G) (T1G) (T1G)
                 (T2G) (T2G) (T2G) (EG) (EG) (A1G) (A1G) (T2U)
                 (T2U) (T2U) (A2U) (T1U) (T1U) (T1U) (T2G) (T2G)
                 (T2G) (EG) (EG) (T1U) (T1U) (T1U) (A1G) (T2U)
                 (T2U) (T2U) (A2U) (T1U) (T1U) (T1U) (T1G) (T1G)
                 (T1G) (T2G) (T2G) (T2G) (EG) (EG) (A1G) (T2G)
                 (T2G) (T2G) (EG) (EG) (T1U) (T1U) (T1U) (A1G)
                 (A1G) (A1G)
 The electronic state of the initial guess is 2-A1G.
 Leave Link  401 at Mon Jan 29 13:08:37 2018, MaxMem= 10737418240 cpu:              18.8 elap:               1.2
 (Enter /home1/apps/gaussian/16rA.03/g16/l502.exe)
 Keep R1 and R2 ints in memory in symmetry-blocked form, NReq=24145761.
 FoFCou: FMM=F IPFlag=           0 FMFlag=           0 FMFlg1=           0
         NFxFlg=           0 DoJE=F BraDBF=F KetDBF=F FulRan=T
         wScrn=  0.000000 ICntrl=       600 IOpCl=  0 I1Cent=           0 NGrid=           0
         NMat0=    1 NMatS0=   3486 NMatT0=    0 NMatD0=    1 NMtDS0=    0 NMtDT0=    0
 Petite list used in FoFCou.
 Restricted open shell SCF:
 Using DIIS extrapolation, IDIIS=  1040.
 NGot= 10737418240 LenX= 10735813708 LenY= 10735801603
 Requested convergence on RMS density matrix=1.00D-08 within 500 cycles.
 Requested convergence on MAX density matrix=1.00D-06.
 Requested convergence on             energy=1.00D-06.
 No special actions if energy rises.

 Cycle   1  Pass 1  IDiag  1:
 E=-0.495058260924773    
 DIIS: error= 1.62D-02 at cycle   1 NSaved=   1.
 NSaved= 1 IEnMin= 1 EnMin=-0.495058260924773     IErMin= 1 ErrMin= 1.62D-02
 ErrMax= 1.62D-02  0.00D+00 EMaxC= 1.00D-01 BMatC= 2.49D-03 BMatP= 2.49D-03
 IDIUse=3 WtCom= 8.38D-01 WtEn= 1.62D-01
 Coeff-Com:  0.100D+01
 Coeff-En:   0.100D+01
 Coeff:      0.100D+01
 Gap=     0.192 Goal=   None    Shift=    0.000
 GapD=    0.192 DampG=1.000 DampE=0.500 DampFc=0.5000 IDamp=-1.
 Damping current iteration by 5.00D-01
 RMSDP=1.08D-03 MaxDP=5.28D-02              OVMax= 1.34D-01

 Cycle   2  Pass 1  IDiag  1:
 E=-0.496050354526647     Delta-E=       -0.000992093602 Rises=F Damp=T
 DIIS: error= 8.18D-03 at cycle   2 NSaved=   2.
 NSaved= 2 IEnMin= 2 EnMin=-0.496050354526647     IErMin= 2 ErrMin= 8.18D-03
 ErrMax= 8.18D-03  0.00D+00 EMaxC= 1.00D-01 BMatC= 5.67D-04 BMatP= 2.49D-03
 IDIUse=3 WtCom= 9.18D-01 WtEn= 8.18D-02
 Coeff-Com:  0.119D+00 0.881D+00
 Coeff-En:   0.373D+00 0.627D+00
 Coeff:      0.140D+00 0.860D+00
 Gap=     0.174 Goal=   None    Shift=    0.000
 RMSDP=1.00D-03 MaxDP=5.10D-02 DE=-9.92D-04 OVMax= 1.27D-01

 Cycle   3  Pass 1  IDiag  1:
 E=-0.497168101918351     Delta-E=       -0.001117747392 Rises=F Damp=F
 DIIS: error= 8.72D-03 at cycle   3 NSaved=   3.
 NSaved= 3 IEnMin= 3 EnMin=-0.497168101918351     IErMin= 2 ErrMin= 8.18D-03
 ErrMax= 8.72D-03  0.00D+00 EMaxC= 1.00D-01 BMatC= 1.06D-03 BMatP= 5.67D-04
 IDIUse=3 WtCom= 9.67D-02 WtEn= 9.03D-01
 Coeff-Com: -0.329D+00 0.692D+00 0.637D+00
 Coeff-En:   0.000D+00 0.379D+00 0.621D+00
 Coeff:     -0.318D-01 0.409D+00 0.623D+00
 Gap=     0.178 Goal=   None    Shift=    0.000
 RMSDP=1.08D-03 MaxDP=5.68D-02 DE=-1.12D-03 OVMax= 9.47D-02

 Cycle   4  Pass 1  IDiag  1:
 E=-0.499797322006422     Delta-E=       -0.002629220088 Rises=F Damp=F
 DIIS: error= 2.78D-03 at cycle   4 NSaved=   4.
 NSaved= 4 IEnMin= 4 EnMin=-0.499797322006422     IErMin= 4 ErrMin= 2.78D-03
 ErrMax= 2.78D-03  0.00D+00 EMaxC= 1.00D-01 BMatC= 1.07D-04 BMatP= 5.67D-04
 IDIUse=3 WtCom= 9.72D-01 WtEn= 2.78D-02
 Coeff-Com: -0.265D+00 0.212D+00 0.398D+00 0.655D+00
 Coeff-En:   0.000D+00 0.000D+00 0.140D+00 0.860D+00
 Coeff:     -0.258D+00 0.206D+00 0.391D+00 0.661D+00
 Gap=     0.171 Goal=   None    Shift=    0.000
 RMSDP=4.62D-04 MaxDP=1.83D-02 DE=-2.63D-03 OVMax= 2.45D-02

 Cycle   5  Pass 1  IDiag  1:
 E=-0.499936365815524     Delta-E=       -0.000139043809 Rises=F Damp=F
 DIIS: error= 1.39D-03 at cycle   5 NSaved=   5.
 NSaved= 5 IEnMin= 5 EnMin=-0.499936365815524     IErMin= 5 ErrMin= 1.39D-03
 ErrMax= 1.39D-03  0.00D+00 EMaxC= 1.00D-01 BMatC= 2.25D-05 BMatP= 1.07D-04
 IDIUse=3 WtCom= 9.86D-01 WtEn= 1.39D-02
 Coeff-Com: -0.353D-01 0.647D-01-0.116D+00-0.109D+00 0.119D+01
 Coeff-En:   0.000D+00 0.000D+00 0.000D+00 0.249D+00 0.751D+00
 Coeff:     -0.349D-01 0.638D-01-0.114D+00-0.104D+00 0.119D+01
 Gap=     0.168 Goal=   None    Shift=    0.000
 RMSDP=7.75D-05 MaxDP=4.08D-03 DE=-1.39D-04 OVMax= 9.78D-03

 Cycle   6  Pass 1  IDiag  1:
 E=-0.499992410043018     Delta-E=       -0.000056044227 Rises=F Damp=F
 DIIS: error= 3.28D-04 at cycle   6 NSaved=   6.
 NSaved= 6 IEnMin= 6 EnMin=-0.499992410043018     IErMin= 6 ErrMin= 3.28D-04
 ErrMax= 3.28D-04  0.00D+00 EMaxC= 1.00D-01 BMatC= 1.21D-06 BMatP= 2.25D-05
 IDIUse=3 WtCom= 9.97D-01 WtEn= 3.28D-03
 Coeff-Com: -0.122D-01 0.150D-01 0.333D-01-0.402D-02-0.392D+00 0.136D+01
 Coeff-En:   0.000D+00 0.000D+00 0.000D+00 0.000D+00 0.000D+00 0.100D+01
 Coeff:     -0.121D-01 0.149D-01 0.332D-01-0.401D-02-0.391D+00 0.136D+01
 Gap=     0.169 Goal=   None    Shift=    0.000
 RMSDP=2.13D-05 MaxDP=1.42D-03 DE=-5.60D-05 OVMax= 1.82D-03

 Cycle   7  Pass 1  IDiag  1:
 E=-0.499995072130812     Delta-E=       -0.000002662088 Rises=F Damp=F
 DIIS: error= 1.07D-04 at cycle   7 NSaved=   7.
 NSaved= 7 IEnMin= 7 EnMin=-0.499995072130812     IErMin= 7 ErrMin= 1.07D-04
 ErrMax= 1.07D-04  0.00D+00 EMaxC= 1.00D-01 BMatC= 1.40D-07 BMatP= 1.21D-06
 IDIUse=3 WtCom= 9.99D-01 WtEn= 1.07D-03
 Coeff-Com: -0.491D-03 0.131D-02-0.533D-02 0.240D-02 0.107D-02-0.261D+00
 Coeff-Com:  0.126D+01
 Coeff-En:   0.000D+00 0.000D+00 0.000D+00 0.000D+00 0.000D+00 0.000D+00
 Coeff-En:   0.100D+01
 Coeff:     -0.490D-03 0.131D-02-0.533D-02 0.240D-02 0.107D-02-0.260D+00
 Coeff:      0.126D+01
 Gap=     0.168 Goal=   None    Shift=    0.000
 RMSDP=7.75D-06 MaxDP=3.79D-04 DE=-2.66D-06 OVMax= 9.56D-04

 Cycle   8  Pass 1  IDiag  1:
 E=-0.499995438512865     Delta-E=       -0.000000366382 Rises=F Damp=F
 DIIS: error= 4.38D-06 at cycle   8 NSaved=   8.
 NSaved= 8 IEnMin= 8 EnMin=-0.499995438512865     IErMin= 8 ErrMin= 4.38D-06
 ErrMax= 4.38D-06  0.00D+00 EMaxC= 1.00D-01 BMatC= 2.76D-10 BMatP= 1.40D-07
 IDIUse=1 WtCom= 1.00D+00 WtEn= 0.00D+00
 Coeff-Com: -0.257D-04 0.253D-04 0.118D-03-0.111D-03 0.841D-03-0.301D-01
 Coeff-Com:  0.357D-01 0.993D+00
 Coeff:     -0.257D-04 0.253D-04 0.118D-03-0.111D-03 0.841D-03-0.301D-01
 Coeff:      0.357D-01 0.993D+00
 Gap=     0.168 Goal=   None    Shift=    0.000
 RMSDP=6.26D-07 MaxDP=3.93D-05 DE=-3.66D-07 OVMax= 3.47D-05

 Cycle   9  Pass 1  IDiag  1:
 E=-0.499995439103953     Delta-E=       -0.000000000591 Rises=F Damp=F
 DIIS: error= 2.23D-07 at cycle   9 NSaved=   9.
 NSaved= 9 IEnMin= 9 EnMin=-0.499995439103953     IErMin= 9 ErrMin= 2.23D-07
 ErrMax= 2.23D-07  0.00D+00 EMaxC= 1.00D-01 BMatC= 6.59D-13 BMatP= 2.76D-10
 IDIUse=1 WtCom= 1.00D+00 WtEn= 0.00D+00
 Coeff-Com: -0.558D-06 0.478D-06-0.368D-06 0.252D-05-0.292D-04-0.136D-03
 Coeff-Com: -0.166D-02 0.120D-01 0.990D+00
 Coeff:     -0.558D-06 0.478D-06-0.368D-06 0.252D-05-0.292D-04-0.136D-03
 Coeff:     -0.166D-02 0.120D-01 0.990D+00
 Gap=     0.168 Goal=   None    Shift=    0.000
 RMSDP=1.76D-08 MaxDP=9.76D-07 DE=-5.91D-10 OVMax= 2.15D-06

 Cycle  10  Pass 1  IDiag  1:
 E=-0.499995439105704     Delta-E=       -0.000000000002 Rises=F Damp=F
 DIIS: error= 1.62D-09 at cycle  10 NSaved=  10.
 NSaved=10 IEnMin=10 EnMin=-0.499995439105704     IErMin=10 ErrMin= 1.62D-09
 ErrMax= 1.62D-09  0.00D+00 EMaxC= 1.00D-01 BMatC= 3.12D-17 BMatP= 6.59D-13
 IDIUse=1 WtCom= 1.00D+00 WtEn= 0.00D+00
 Coeff-Com:  0.132D-07-0.133D-07-0.426D-07-0.124D-06 0.124D-05-0.721D-05
 Coeff-Com:  0.789D-04-0.371D-03-0.341D-01 0.103D+01
 Coeff:      0.132D-07-0.133D-07-0.426D-07-0.124D-06 0.124D-05-0.721D-05
 Coeff:      0.789D-04-0.371D-03-0.341D-01 0.103D+01
 Gap=     0.168 Goal=   None    Shift=    0.000
 RMSDP=1.79D-10 MaxDP=1.15D-08 DE=-1.75D-12 OVMax= 1.37D-08

 SCF Done:  E(ROHF) = -0.499995439106     A.U. after   10 cycles
            NFock= 10  Conv=0.18D-09     -V/T= 2.0021
 <Sx>= 0.0000 <Sy>= 0.0000 <Sz>= 0.5000 <S**2>= 0.7500 S= 0.5000
 <L.S>=  0.00000000000    
 KE= 4.989344664112D-01 PE=-9.989299055169D-01 EE= 0.000000000000D+00
 Annihilation of the first spin contaminant:
 S**2 before annihilation     0.7500,   after     0.7500
 Leave Link  502 at Mon Jan 29 13:08:44 2018, MaxMem= 10737418240 cpu:             100.7 elap:               6.3
 (Enter /home1/apps/gaussian/16rA.03/g16/l601.exe)
 Copying SCF densities to generalized density rwf, IOpCl= 0 IROHF=1.

 **********************************************************************

            Population analysis using the SCF density.

 **********************************************************************

 Orbital symmetries:
       Occupied  (A1G)
       Virtual   (A1G) (T1U) (T1U) (T1U) (A1G) (EG) (EG) (T2G)
                 (T2G) (T2G) (T1U) (T1U) (T1U) (A1G) (?A) (?A)
                 (?A) (?A) (A2U) (?A) (?A) (EG) (T2G) (EG) (T2G)
                 (T2G) (T1U) (T1U) (T1U) (?B) (T2G) (T2G) (?B)
                 (?B) (?B) (?B) (?B) (T2G) (A1G) (?A) (?A) (?A)
                 (?A) (?A) (A2U) (?A) (EG) (EG) (T2G) (T2G) (T2G)
                 (T1U) (T1U) (T1U) (A1G) (?A) (?A) (?A) (?A) (A2U)
                 (?A) (?A) (T2G) (?B) (T2G) (?B) (?B) (?B) (?B)
                 (?B) (T2G) (EG) (T2G) (T2G) (T2G) (EG) (T1U) (T1U)
                 (T1U) (A1G) (A1G) (A1G)
 The electronic state is 2-A1G.
 Alpha  occ. eigenvalues --   -0.12501
 Alpha virt. eigenvalues --    0.04336   0.15624   0.15624   0.15624   0.27443
 Alpha virt. eigenvalues --    0.49946   0.49946   0.49946   0.49946   0.49946
 Alpha virt. eigenvalues --    0.64461   0.64461   0.64461   1.00540   1.17170
 Alpha virt. eigenvalues --    1.17170   1.17170   1.17170   1.17170   1.17170
 Alpha virt. eigenvalues --    1.17170   1.81413   1.81413   1.81413   1.81413
 Alpha virt. eigenvalues --    1.81413   2.03181   2.03181   2.03181   2.92919
 Alpha virt. eigenvalues --    2.92919   2.92919   2.92919   2.92919   2.92919
 Alpha virt. eigenvalues --    2.92919   2.92919   2.92919   3.09998   4.14813
 Alpha virt. eigenvalues --    4.14813   4.14813   4.14813   4.14813   4.14813
 Alpha virt. eigenvalues --    4.14813   5.13849   5.13849   5.13849   5.13849
 Alpha virt. eigenvalues --    5.13849   5.83248   5.83248   5.83248   9.63097
 Alpha virt. eigenvalues --   12.85819  12.85819  12.85819  12.85819  12.85819
 Alpha virt. eigenvalues --   12.85819  12.85819  13.12970  13.12970  13.12970
 Alpha virt. eigenvalues --   13.12970  13.12970  13.12970  13.12970  13.12970
 Alpha virt. eigenvalues --   13.12970  13.85772  13.85772  13.85772  13.85772
 Alpha virt. eigenvalues --   13.85772  16.68650  16.68650  16.68650  33.21389
 Alpha virt. eigenvalues --  138.85472 816.58981
     Molecular Orbital Coefficients:
                           1         2         3         4         5
                       (A1G)--O  (A1G)--V  (T1U)--V  (T1U)--V  (T1U)--V
     Eigenvalues --    -0.12501   0.04336   0.15624   0.15624   0.15624
   1 1   H  1S         -0.00003   0.00002   0.00000   0.00000   0.00000
   2        2S          0.00062  -0.00029   0.00000   0.00000   0.00000
   3        3S          0.01226  -0.00040   0.00000   0.00000   0.00000
   4        4S          0.04421  -0.01448   0.00000   0.00000   0.00000
   5        5S          0.14311   0.01286   0.00000   0.00000   0.00000
   6        6S          0.32978  -0.17633   0.00000   0.00000   0.00000
   7        7S          0.43813   0.28534   0.00000   0.00000   0.00000
   8        8S          0.17429  -0.99005   0.00000   0.00000   0.00000
   9        9S          0.00146   1.50640   0.00000   0.00000   0.00000
  10       10PX         0.00000   0.00000   0.00000   0.00000   0.00719
  11       10PY         0.00000   0.00000   0.00000   0.00719   0.00000
  12       10PZ         0.00000   0.00000   0.00719   0.00000   0.00000
  13       11PX         0.00000   0.00000   0.00000   0.00000  -0.02852
  14       11PY         0.00000   0.00000   0.00000  -0.02852   0.00000
  15       11PZ         0.00000   0.00000  -0.02852   0.00000   0.00000
  16       12PX         0.00000   0.00000   0.00000   0.00000   0.11314
  17       12PY         0.00000   0.00000   0.00000   0.11314   0.00000
  18       12PZ         0.00000   0.00000   0.11314   0.00000   0.00000
  19       13PX         0.00000   0.00000   0.00000   0.00000  -0.24440
  20       13PY         0.00000   0.00000   0.00000  -0.24440   0.00000
  21       13PZ         0.00000   0.00000  -0.24440   0.00000   0.00000
  22       14PX         0.00000   0.00000   0.00000   0.00000   1.12289
  23       14PY         0.00000   0.00000   0.00000   1.12289   0.00000
  24       14PZ         0.00000   0.00000   1.12289   0.00000   0.00000
  25       15D 0       -0.00000   0.00000   0.00000   0.00000   0.00000
  26       15D+1        0.00000   0.00000   0.00000   0.00000   0.00000
  27       15D-1        0.00000   0.00000   0.00000   0.00000   0.00000
  28       15D+2        0.00000   0.00000   0.00000   0.00000   0.00000
  29       15D-2        0.00000   0.00000   0.00000   0.00000   0.00000
  30       16D 0        0.00000  -0.00000   0.00000   0.00000   0.00000
  31       16D+1        0.00000   0.00000   0.00000   0.00000   0.00000
  32       16D-1        0.00000   0.00000   0.00000   0.00000   0.00000
  33       16D+2        0.00000  -0.00000   0.00000   0.00000   0.00000
  34       16D-2        0.00000   0.00000   0.00000   0.00000   0.00000
  35       17D 0       -0.00000   0.00000   0.00000   0.00000   0.00000
  36       17D+1        0.00000   0.00000   0.00000   0.00000   0.00000
  37       17D-1        0.00000   0.00000   0.00000   0.00000   0.00000
  38       17D+2       -0.00000   0.00000   0.00000   0.00000   0.00000
  39       17D-2        0.00000   0.00000   0.00000   0.00000   0.00000
  40       18D 0        0.00000   0.00000   0.00000   0.00000   0.00000
  41       18D+1        0.00000   0.00000   0.00000   0.00000   0.00000
  42       18D-1        0.00000   0.00000   0.00000   0.00000   0.00000
  43       18D+2        0.00000  -0.00000   0.00000   0.00000   0.00000
  44       18D-2        0.00000   0.00000   0.00000   0.00000   0.00000
  45       19F 0        0.00000   0.00000   0.00000   0.00000   0.00000
  46       19F+1        0.00000   0.00000   0.00000   0.00000   0.00000
  47       19F-1        0.00000   0.00000   0.00000   0.00000   0.00000
  48       19F+2        0.00000   0.00000  -0.00000   0.00000   0.00000
  49       19F-2        0.00000   0.00000   0.00000   0.00000   0.00000
  50       19F+3        0.00000   0.00000   0.00000   0.00000   0.00000
  51       19F-3        0.00000   0.00000   0.00000  -0.00000   0.00000
  52       20F 0        0.00000   0.00000  -0.00000   0.00000   0.00000
  53       20F+1        0.00000   0.00000   0.00000   0.00000  -0.00000
  54       20F-1        0.00000   0.00000   0.00000  -0.00000   0.00000
  55       20F+2        0.00000   0.00000  -0.00000   0.00000   0.00000
  56       20F-2        0.00000   0.00000   0.00000   0.00000   0.00000
  57       20F+3        0.00000   0.00000   0.00000   0.00000   0.00000
  58       20F-3        0.00000   0.00000   0.00000  -0.00000   0.00000
  59       21F 0        0.00000   0.00000  -0.00000   0.00000   0.00000
  60       21F+1        0.00000   0.00000   0.00000   0.00000   0.00000
  61       21F-1        0.00000   0.00000   0.00000   0.00000   0.00000
  62       21F+2        0.00000   0.00000   0.00000   0.00000   0.00000
  63       21F-2        0.00000   0.00000   0.00000   0.00000   0.00000
  64       21F+3        0.00000   0.00000   0.00000   0.00000  -0.00000
  65       21F-3        0.00000   0.00000   0.00000   0.00000   0.00000
  66       22G 0        0.00000   0.00000   0.00000   0.00000   0.00000
  67       22G+1        0.00000   0.00000   0.00000   0.00000   0.00000
  68       22G-1        0.00000   0.00000   0.00000   0.00000   0.00000
  69       22G+2       -0.00000  -0.00000   0.00000   0.00000   0.00000
  70       22G-2        0.00000   0.00000   0.00000   0.00000   0.00000
  71       22G+3        0.00000   0.00000   0.00000   0.00000   0.00000
  72       22G-3        0.00000   0.00000   0.00000   0.00000   0.00000
  73       22G+4       -0.00000   0.00000   0.00000   0.00000   0.00000
  74       22G-4        0.00000   0.00000   0.00000   0.00000   0.00000
  75       23G 0       -0.00000  -0.00000   0.00000   0.00000   0.00000
  76       23G+1        0.00000   0.00000   0.00000   0.00000   0.00000
  77       23G-1        0.00000   0.00000   0.00000   0.00000   0.00000
  78       23G+2        0.00000  -0.00000   0.00000   0.00000   0.00000
  79       23G-2        0.00000   0.00000   0.00000   0.00000   0.00000
  80       23G+3        0.00000   0.00000   0.00000   0.00000   0.00000
  81       23G-3        0.00000   0.00000   0.00000   0.00000   0.00000
  82       23G+4        0.00000  -0.00000   0.00000   0.00000   0.00000
  83       23G-4        0.00000   0.00000   0.00000   0.00000   0.00000
                           6         7         8         9        10
                       (A1G)--V   (EG)--V   (EG)--V  (T2G)--V  (T2G)--V
     Eigenvalues --     0.27443   0.49946   0.49946   0.49946   0.49946
   1 1   H  1S         -0.00006  -0.00000  -0.00000   0.00000   0.00000
   2        2S          0.00062   0.00000   0.00000   0.00000   0.00000
   3        3S         -0.01224  -0.00000  -0.00000   0.00000   0.00000
   4        4S          0.01540   0.00000  -0.00000   0.00000   0.00000
   5        5S         -0.22929  -0.00000   0.00000   0.00000   0.00000
   6        6S          0.45749   0.00000  -0.00000   0.00000   0.00000
   7        7S         -2.41211  -0.00000   0.00000   0.00000   0.00000
   8        8S          3.21897   0.00000  -0.00000   0.00000   0.00000
   9        9S         -1.10468   0.00000  -0.00000   0.00000   0.00000
  10       10PX         0.00000   0.00000   0.00000   0.00000   0.00000
  11       10PY         0.00000   0.00000   0.00000   0.00000   0.00000
  12       10PZ         0.00000   0.00000   0.00000   0.00000   0.00000
  13       11PX         0.00000   0.00000   0.00000   0.00000   0.00000
  14       11PY         0.00000   0.00000   0.00000   0.00000   0.00000
  15       11PZ         0.00000   0.00000   0.00000   0.00000   0.00000
  16       12PX         0.00000   0.00000   0.00000   0.00000   0.00000
  17       12PY         0.00000   0.00000   0.00000   0.00000   0.00000
  18       12PZ         0.00000   0.00000   0.00000   0.00000   0.00000
  19       13PX         0.00000   0.00000   0.00000   0.00000   0.00000
  20       13PY         0.00000   0.00000   0.00000   0.00000   0.00000
  21       13PZ         0.00000   0.00000   0.00000   0.00000   0.00000
  22       14PX         0.00000   0.00000   0.00000   0.00000   0.00000
  23       14PY         0.00000   0.00000   0.00000   0.00000   0.00000
  24       14PZ         0.00000   0.00000   0.00000   0.00000   0.00000
  25       15D 0        0.00000   0.00347  -0.01937   0.00000   0.00000
  26       15D+1        0.00000   0.00000   0.00000   0.00000   0.00000
  27       15D-1        0.00000   0.00000   0.00000   0.00000  -0.01968
  28       15D+2       -0.00000  -0.01937  -0.00347   0.00000   0.00000
  29       15D-2        0.00000   0.00000   0.00000  -0.01968   0.00000
  30       16D 0       -0.00000  -0.01558   0.08691   0.00000   0.00000
  31       16D+1        0.00000   0.00000   0.00000   0.00000   0.00000
  32       16D-1        0.00000   0.00000   0.00000   0.00000   0.08829
  33       16D+2        0.00000   0.08691   0.01558   0.00000   0.00000
  34       16D-2        0.00000   0.00000   0.00000   0.08829   0.00000
  35       17D 0       -0.00000   0.04273  -0.23828   0.00000   0.00000
  36       17D+1        0.00000   0.00000   0.00000   0.00000   0.00000
  37       17D-1        0.00000   0.00000   0.00000   0.00000  -0.24208
  38       17D+2       -0.00000  -0.23828  -0.04273   0.00000   0.00000
  39       17D-2        0.00000   0.00000   0.00000  -0.24208   0.00000
  40       18D 0       -0.00000  -0.19622   1.09426   0.00000   0.00000
  41       18D+1        0.00000   0.00000   0.00000   0.00000   0.00000
  42       18D-1        0.00000   0.00000   0.00000   0.00000   1.11172
  43       18D+2        0.00000   1.09426   0.19622   0.00000   0.00000
  44       18D-2        0.00000   0.00000   0.00000   1.11172   0.00000
  45       19F 0        0.00000   0.00000   0.00000   0.00000   0.00000
  46       19F+1        0.00000   0.00000   0.00000   0.00000   0.00000
  47       19F-1        0.00000   0.00000   0.00000   0.00000   0.00000
  48       19F+2        0.00000   0.00000   0.00000   0.00000   0.00000
  49       19F-2        0.00000   0.00000   0.00000   0.00000   0.00000
  50       19F+3        0.00000   0.00000   0.00000   0.00000   0.00000
  51       19F-3        0.00000   0.00000   0.00000   0.00000   0.00000
  52       20F 0        0.00000   0.00000   0.00000   0.00000   0.00000
  53       20F+1        0.00000   0.00000   0.00000   0.00000   0.00000
  54       20F-1        0.00000   0.00000   0.00000   0.00000   0.00000
  55       20F+2        0.00000   0.00000   0.00000   0.00000   0.00000
  56       20F-2        0.00000   0.00000   0.00000   0.00000   0.00000
  57       20F+3        0.00000   0.00000   0.00000   0.00000   0.00000
  58       20F-3        0.00000   0.00000   0.00000   0.00000   0.00000
  59       21F 0        0.00000   0.00000   0.00000   0.00000   0.00000
  60       21F+1        0.00000   0.00000   0.00000   0.00000   0.00000
  61       21F-1        0.00000   0.00000   0.00000   0.00000   0.00000
  62       21F+2        0.00000   0.00000   0.00000   0.00000   0.00000
  63       21F-2        0.00000   0.00000   0.00000   0.00000   0.00000
  64       21F+3        0.00000   0.00000   0.00000   0.00000   0.00000
  65       21F-3        0.00000   0.00000   0.00000   0.00000   0.00000
  66       22G 0       -0.00000  -0.00000   0.00000   0.00000   0.00000
  67       22G+1        0.00000   0.00000   0.00000   0.00000   0.00000
  68       22G-1        0.00000   0.00000   0.00000   0.00000  -0.00000
  69       22G+2        0.00000   0.00000  -0.00000   0.00000   0.00000
  70       22G-2        0.00000   0.00000   0.00000   0.00000   0.00000
  71       22G+3        0.00000   0.00000   0.00000   0.00000   0.00000
  72       22G-3        0.00000   0.00000   0.00000   0.00000  -0.00000
  73       22G+4        0.00000  -0.00000  -0.00000   0.00000   0.00000
  74       22G-4        0.00000   0.00000   0.00000   0.00000   0.00000
  75       23G 0       -0.00000  -0.00000  -0.00000   0.00000   0.00000
  76       23G+1        0.00000   0.00000   0.00000   0.00000   0.00000
  77       23G-1        0.00000   0.00000   0.00000   0.00000  -0.00000
  78       23G+2       -0.00000  -0.00000   0.00000   0.00000   0.00000
  79       23G-2        0.00000   0.00000   0.00000   0.00000   0.00000
  80       23G+3        0.00000   0.00000   0.00000   0.00000   0.00000
  81       23G-3        0.00000   0.00000   0.00000   0.00000   0.00000
  82       23G+4        0.00000   0.00000  -0.00000   0.00000   0.00000
  83       23G-4        0.00000   0.00000   0.00000  -0.00000   0.00000
                          11        12        13        14        15
                       (T2G)--V  (T1U)--V  (T1U)--V  (T1U)--V  (A1G)--V
     Eigenvalues --     0.49946   0.64461   0.64461   0.64461   1.00540
   1 1   H  1S          0.00000   0.00000   0.00000   0.00000   0.00027
   2        2S          0.00000   0.00000   0.00000   0.00000  -0.00357
   3        3S          0.00000   0.00000   0.00000   0.00000   0.00965
   4        4S          0.00000   0.00000   0.00000   0.00000  -0.16770
   5        5S          0.00000   0.00000   0.00000   0.00000   0.41617
   6        6S          0.00000   0.00000   0.00000   0.00000  -2.99405
   7        7S          0.00000   0.00000   0.00000   0.00000   4.54090
   8        8S          0.00000   0.00000   0.00000   0.00000  -2.55562
   9        9S          0.00000   0.00000   0.00000   0.00000   0.57621
  10       10PX         0.00000   0.00000  -0.02306   0.00000   0.00000
  11       10PY         0.00000   0.00000   0.00000  -0.02306   0.00000
  12       10PZ         0.00000  -0.02306   0.00000   0.00000   0.00000
  13       11PX         0.00000   0.00000   0.13407   0.00000   0.00000
  14       11PY         0.00000   0.00000   0.00000   0.13407   0.00000
  15       11PZ         0.00000   0.13407   0.00000   0.00000   0.00000
  16       12PX         0.00000   0.00000  -0.39975   0.00000   0.00000
  17       12PY         0.00000   0.00000   0.00000  -0.39975   0.00000
  18       12PZ         0.00000  -0.39975   0.00000   0.00000   0.00000
  19       13PX         0.00000   0.00000   1.62889   0.00000   0.00000
  20       13PY         0.00000   0.00000   0.00000   1.62889   0.00000
  21       13PZ         0.00000   1.62889   0.00000   0.00000   0.00000
  22       14PX         0.00000   0.00000  -0.84850   0.00000   0.00000
  23       14PY         0.00000   0.00000   0.00000  -0.84850   0.00000
  24       14PZ         0.00000  -0.84850   0.00000   0.00000   0.00000
  25       15D 0        0.00000   0.00000   0.00000   0.00000   0.00000
  26       15D+1       -0.01968   0.00000   0.00000   0.00000   0.00000
  27       15D-1        0.00000   0.00000   0.00000   0.00000   0.00000
  28       15D+2        0.00000   0.00000   0.00000   0.00000  -0.00000
  29       15D-2        0.00000   0.00000   0.00000   0.00000   0.00000
  30       16D 0        0.00000   0.00000   0.00000   0.00000  -0.00000
  31       16D+1        0.08829   0.00000   0.00000   0.00000   0.00000
  32       16D-1        0.00000   0.00000   0.00000   0.00000   0.00000
  33       16D+2        0.00000   0.00000   0.00000   0.00000  -0.00000
  34       16D-2        0.00000   0.00000   0.00000   0.00000   0.00000
  35       17D 0        0.00000   0.00000   0.00000   0.00000   0.00000
  36       17D+1       -0.24208   0.00000   0.00000   0.00000   0.00000
  37       17D-1        0.00000   0.00000   0.00000   0.00000   0.00000
  38       17D+2        0.00000   0.00000   0.00000   0.00000  -0.00000
  39       17D-2        0.00000   0.00000   0.00000   0.00000   0.00000
  40       18D 0        0.00000   0.00000   0.00000   0.00000  -0.00000
  41       18D+1        1.11172   0.00000   0.00000   0.00000   0.00000
  42       18D-1        0.00000   0.00000   0.00000   0.00000   0.00000
  43       18D+2        0.00000   0.00000   0.00000   0.00000   0.00000
  44       18D-2        0.00000   0.00000   0.00000   0.00000   0.00000
  45       19F 0        0.00000   0.00000   0.00000   0.00000   0.00000
  46       19F+1        0.00000   0.00000  -0.00000   0.00000   0.00000
  47       19F-1        0.00000   0.00000   0.00000  -0.00000   0.00000
  48       19F+2        0.00000  -0.00000   0.00000   0.00000   0.00000
  49       19F-2        0.00000   0.00000   0.00000   0.00000   0.00000
  50       19F+3        0.00000   0.00000  -0.00000   0.00000   0.00000
  51       19F-3        0.00000   0.00000   0.00000   0.00000   0.00000
  52       20F 0        0.00000  -0.00000   0.00000   0.00000   0.00000
  53       20F+1        0.00000   0.00000  -0.00000   0.00000   0.00000
  54       20F-1        0.00000   0.00000   0.00000   0.00000   0.00000
  55       20F+2        0.00000  -0.00000   0.00000   0.00000   0.00000
  56       20F-2        0.00000   0.00000   0.00000   0.00000   0.00000
  57       20F+3        0.00000   0.00000   0.00000   0.00000   0.00000
  58       20F-3        0.00000   0.00000   0.00000  -0.00000   0.00000
  59       21F 0        0.00000  -0.00000   0.00000   0.00000   0.00000
  60       21F+1        0.00000   0.00000   0.00000   0.00000   0.00000
  61       21F-1        0.00000   0.00000   0.00000  -0.00000   0.00000
  62       21F+2        0.00000   0.00000   0.00000   0.00000   0.00000
  63       21F-2        0.00000   0.00000   0.00000   0.00000   0.00000
  64       21F+3        0.00000   0.00000  -0.00000   0.00000   0.00000
  65       21F-3        0.00000   0.00000   0.00000   0.00000   0.00000
  66       22G 0        0.00000   0.00000   0.00000   0.00000   0.00000
  67       22G+1        0.00000   0.00000   0.00000   0.00000   0.00000
  68       22G-1        0.00000   0.00000   0.00000   0.00000   0.00000
  69       22G+2        0.00000   0.00000   0.00000   0.00000  -0.00000
  70       22G-2        0.00000   0.00000   0.00000   0.00000   0.00000
  71       22G+3       -0.00000   0.00000   0.00000   0.00000   0.00000
  72       22G-3        0.00000   0.00000   0.00000   0.00000   0.00000
  73       22G+4        0.00000   0.00000   0.00000   0.00000   0.00000
  74       22G-4        0.00000   0.00000   0.00000   0.00000   0.00000
  75       23G 0        0.00000   0.00000   0.00000   0.00000  -0.00000
  76       23G+1        0.00000   0.00000   0.00000   0.00000   0.00000
  77       23G-1        0.00000   0.00000   0.00000   0.00000   0.00000
  78       23G+2        0.00000   0.00000   0.00000   0.00000   0.00000
  79       23G-2        0.00000   0.00000   0.00000   0.00000   0.00000
  80       23G+3       -0.00000   0.00000   0.00000   0.00000   0.00000
  81       23G-3        0.00000   0.00000   0.00000   0.00000   0.00000
  82       23G+4        0.00000   0.00000   0.00000   0.00000  -0.00000
  83       23G-4        0.00000   0.00000   0.00000   0.00000   0.00000
                          16        17        18        19        20
                           V         V         V         V     (A2U)--V
     Eigenvalues --     1.17170   1.17170   1.17170   1.17170   1.17170
   1 1   H  1S          0.00000   0.00000   0.00000   0.00000   0.00000
   2        2S          0.00000   0.00000   0.00000   0.00000   0.00000
   3        3S          0.00000   0.00000   0.00000   0.00000   0.00000
   4        4S          0.00000   0.00000   0.00000   0.00000   0.00000
   5        5S          0.00000   0.00000   0.00000   0.00000   0.00000
   6        6S          0.00000   0.00000   0.00000   0.00000   0.00000
   7        7S          0.00000   0.00000   0.00000   0.00000   0.00000
   8        8S          0.00000   0.00000   0.00000   0.00000   0.00000
   9        9S          0.00000   0.00000   0.00000   0.00000   0.00000
  10       10PX         0.00000   0.00000  -0.00000   0.00000   0.00000
  11       10PY         0.00000   0.00000   0.00000   0.00000   0.00000
  12       10PZ         0.00000  -0.00000   0.00000   0.00000   0.00000
  13       11PX        -0.00000   0.00000   0.00000   0.00000   0.00000
  14       11PY         0.00000   0.00000   0.00000  -0.00000   0.00000
  15       11PZ         0.00000   0.00000   0.00000   0.00000   0.00000
  16       12PX         0.00000   0.00000  -0.00000   0.00000   0.00000
  17       12PY         0.00000   0.00000   0.00000   0.00000   0.00000
  18       12PZ         0.00000  -0.00000   0.00000   0.00000   0.00000
  19       13PX        -0.00000   0.00000   0.00000   0.00000   0.00000
  20       13PY         0.00000   0.00000   0.00000  -0.00000   0.00000
  21       13PZ         0.00000   0.00000   0.00000   0.00000   0.00000
  22       14PX         0.00000   0.00000  -0.00000   0.00000   0.00000
  23       14PY         0.00000   0.00000   0.00000   0.00000   0.00000
  24       14PZ         0.00000  -0.00000   0.00000   0.00000   0.00000
  25       15D 0        0.00000   0.00000   0.00000   0.00000   0.00000
  26       15D+1        0.00000   0.00000   0.00000   0.00000   0.00000
  27       15D-1        0.00000   0.00000   0.00000   0.00000   0.00000
  28       15D+2        0.00000   0.00000   0.00000   0.00000   0.00000
  29       15D-2        0.00000   0.00000   0.00000   0.00000   0.00000
  30       16D 0        0.00000   0.00000   0.00000   0.00000   0.00000
  31       16D+1        0.00000   0.00000   0.00000   0.00000   0.00000
  32       16D-1        0.00000   0.00000   0.00000   0.00000   0.00000
  33       16D+2        0.00000   0.00000   0.00000   0.00000   0.00000
  34       16D-2        0.00000   0.00000   0.00000   0.00000   0.00000
  35       17D 0        0.00000   0.00000   0.00000   0.00000   0.00000
  36       17D+1        0.00000   0.00000   0.00000   0.00000   0.00000
  37       17D-1        0.00000   0.00000   0.00000   0.00000   0.00000
  38       17D+2        0.00000   0.00000   0.00000   0.00000   0.00000
  39       17D-2        0.00000   0.00000   0.00000   0.00000   0.00000
  40       18D 0        0.00000   0.00000   0.00000   0.00000   0.00000
  41       18D+1        0.00000   0.00000   0.00000   0.00000   0.00000
  42       18D-1        0.00000   0.00000   0.00000   0.00000   0.00000
  43       18D+2        0.00000   0.00000   0.00000   0.00000   0.00000
  44       18D-2        0.00000   0.00000   0.00000   0.00000   0.00000
  45       19F 0        0.00000   0.02897   0.00000   0.00000   0.00000
  46       19F+1        0.02845   0.00000  -0.00581   0.00000   0.00000
  47       19F-1        0.00000   0.00000   0.00000   0.00699   0.00000
  48       19F+2        0.00000   0.00195   0.00000   0.00000   0.00000
  49       19F-2        0.00000   0.00000   0.00000   0.00000   0.02903
  50       19F+3        0.00581   0.00000   0.02845   0.00000   0.00000
  51       19F-3        0.00000   0.00000   0.00000   0.02818   0.00000
  52       20F 0        0.00000  -0.15100   0.00000   0.00000   0.00000
  53       20F+1       -0.14828   0.00000   0.03029   0.00000   0.00000
  54       20F-1        0.00000   0.00000   0.00000  -0.03643   0.00000
  55       20F+2        0.00000  -0.01017   0.00000   0.00000   0.00000
  56       20F-2        0.00000   0.00000   0.00000   0.00000  -0.15134
  57       20F+3       -0.03029   0.00000  -0.14828   0.00000   0.00000
  58       20F-3        0.00000   0.00000   0.00000  -0.14689   0.00000
  59       21F 0        0.00000   1.06152   0.00000   0.00000   0.00000
  60       21F+1        1.04241   0.00000  -0.21291   0.00000   0.00000
  61       21F-1        0.00000   0.00000   0.00000   0.25608   0.00000
  62       21F+2        0.00000   0.07151   0.00000   0.00000   0.00000
  63       21F-2        0.00000   0.00000   0.00000   0.00000   1.06393
  64       21F+3        0.21291   0.00000   1.04241   0.00000   0.00000
  65       21F-3        0.00000   0.00000   0.00000   1.03265   0.00000
  66       22G 0        0.00000   0.00000   0.00000   0.00000   0.00000
  67       22G+1        0.00000   0.00000   0.00000   0.00000   0.00000
  68       22G-1        0.00000   0.00000   0.00000   0.00000   0.00000
  69       22G+2        0.00000   0.00000   0.00000   0.00000   0.00000
  70       22G-2        0.00000   0.00000   0.00000   0.00000   0.00000
  71       22G+3        0.00000   0.00000   0.00000   0.00000   0.00000
  72       22G-3        0.00000   0.00000   0.00000   0.00000   0.00000
  73       22G+4        0.00000   0.00000   0.00000   0.00000   0.00000
  74       22G-4        0.00000   0.00000   0.00000   0.00000   0.00000
  75       23G 0        0.00000   0.00000   0.00000   0.00000   0.00000
  76       23G+1        0.00000   0.00000   0.00000   0.00000   0.00000
  77       23G-1        0.00000   0.00000   0.00000   0.00000   0.00000
  78       23G+2        0.00000   0.00000   0.00000   0.00000   0.00000
  79       23G-2        0.00000   0.00000   0.00000   0.00000   0.00000
  80       23G+3        0.00000   0.00000   0.00000   0.00000   0.00000
  81       23G-3        0.00000   0.00000   0.00000   0.00000   0.00000
  82       23G+4        0.00000   0.00000   0.00000   0.00000   0.00000
  83       23G-4        0.00000   0.00000   0.00000   0.00000   0.00000
                          21        22        23        24        25
                           V         V      (EG)--V  (T2G)--V   (EG)--V
     Eigenvalues --     1.17170   1.17170   1.81413   1.81413   1.81413
   1 1   H  1S          0.00000   0.00000  -0.00000   0.00000   0.00000
   2        2S          0.00000   0.00000   0.00000   0.00000  -0.00000
   3        3S          0.00000   0.00000  -0.00000   0.00000  -0.00000
   4        4S          0.00000   0.00000   0.00000   0.00000   0.00000
   5        5S          0.00000   0.00000   0.00000   0.00000  -0.00000
   6        6S          0.00000   0.00000   0.00000   0.00000   0.00000
   7        7S          0.00000   0.00000  -0.00000   0.00000   0.00000
   8        8S          0.00000   0.00000   0.00000   0.00000  -0.00000
   9        9S          0.00000   0.00000  -0.00000   0.00000   0.00000
  10       10PX         0.00000   0.00000   0.00000   0.00000   0.00000
  11       10PY         0.00000  -0.00000   0.00000   0.00000   0.00000
  12       10PZ         0.00000   0.00000   0.00000   0.00000   0.00000
  13       11PX         0.00000   0.00000   0.00000   0.00000   0.00000
  14       11PY         0.00000  -0.00000   0.00000   0.00000   0.00000
  15       11PZ        -0.00000   0.00000   0.00000   0.00000   0.00000
  16       12PX         0.00000   0.00000   0.00000   0.00000   0.00000
  17       12PY         0.00000   0.00000   0.00000   0.00000   0.00000
  18       12PZ         0.00000   0.00000   0.00000   0.00000   0.00000
  19       13PX         0.00000   0.00000   0.00000   0.00000   0.00000
  20       13PY         0.00000  -0.00000   0.00000   0.00000   0.00000
  21       13PZ        -0.00000   0.00000   0.00000   0.00000   0.00000
  22       14PX         0.00000   0.00000   0.00000   0.00000   0.00000
  23       14PY         0.00000  -0.00000   0.00000   0.00000   0.00000
  24       14PZ         0.00000   0.00000   0.00000   0.00000   0.00000
  25       15D 0        0.00000   0.00000   0.07075   0.00000  -0.04848
  26       15D+1        0.00000   0.00000   0.00000   0.00000   0.00000
  27       15D-1        0.00000   0.00000   0.00000   0.00000   0.00000
  28       15D+2        0.00000   0.00000   0.04848   0.00000   0.07075
  29       15D-2        0.00000   0.00000   0.00000   0.08576   0.00000
  30       16D 0        0.00000   0.00000  -0.32096   0.00000   0.21994
  31       16D+1        0.00000   0.00000   0.00000   0.00000   0.00000
  32       16D-1        0.00000   0.00000   0.00000   0.00000   0.00000
  33       16D+2        0.00000   0.00000  -0.21994   0.00000  -0.32096
  34       16D-2        0.00000   0.00000   0.00000  -0.38908   0.00000
  35       17D 0        0.00000   0.00000   1.23697   0.00000  -0.84764
  36       17D+1        0.00000   0.00000   0.00000   0.00000   0.00000
  37       17D-1        0.00000   0.00000   0.00000   0.00000   0.00000
  38       17D+2        0.00000   0.00000   0.84764   0.00000   1.23697
  39       17D-2        0.00000   0.00000   0.00000   1.49953   0.00000
  40       18D 0        0.00000   0.00000  -0.53104   0.00000   0.36390
  41       18D+1        0.00000   0.00000   0.00000   0.00000   0.00000
  42       18D-1        0.00000   0.00000   0.00000   0.00000   0.00000
  43       18D+2        0.00000   0.00000  -0.36390   0.00000  -0.53104
  44       18D-2        0.00000   0.00000   0.00000  -0.64376   0.00000
  45       19F 0       -0.00195   0.00000   0.00000   0.00000   0.00000
  46       19F+1        0.00000   0.00000   0.00000   0.00000   0.00000
  47       19F-1        0.00000   0.02818   0.00000   0.00000   0.00000
  48       19F+2        0.02897   0.00000   0.00000   0.00000   0.00000
  49       19F-2        0.00000   0.00000   0.00000   0.00000   0.00000
  50       19F+3        0.00000   0.00000   0.00000   0.00000   0.00000
  51       19F-3        0.00000  -0.00699   0.00000   0.00000   0.00000
  52       20F 0        0.01017   0.00000   0.00000   0.00000   0.00000
  53       20F+1        0.00000   0.00000   0.00000   0.00000   0.00000
  54       20F-1        0.00000  -0.14689   0.00000   0.00000   0.00000
  55       20F+2       -0.15100   0.00000   0.00000   0.00000   0.00000
  56       20F-2        0.00000   0.00000   0.00000   0.00000   0.00000
  57       20F+3        0.00000   0.00000   0.00000   0.00000   0.00000
  58       20F-3        0.00000   0.03643   0.00000   0.00000   0.00000
  59       21F 0       -0.07151   0.00000   0.00000   0.00000   0.00000
  60       21F+1        0.00000   0.00000   0.00000   0.00000   0.00000
  61       21F-1        0.00000   1.03265   0.00000   0.00000   0.00000
  62       21F+2        1.06152   0.00000   0.00000   0.00000   0.00000
  63       21F-2        0.00000   0.00000   0.00000   0.00000   0.00000
  64       21F+3        0.00000   0.00000   0.00000   0.00000   0.00000
  65       21F-3        0.00000  -0.25608   0.00000   0.00000   0.00000
  66       22G 0        0.00000   0.00000  -0.00000   0.00000  -0.00000
  67       22G+1        0.00000   0.00000   0.00000   0.00000   0.00000
  68       22G-1        0.00000   0.00000   0.00000   0.00000   0.00000
  69       22G+2        0.00000   0.00000   0.00000   0.00000   0.00000
  70       22G-2        0.00000   0.00000   0.00000  -0.00000   0.00000
  71       22G+3        0.00000   0.00000   0.00000   0.00000   0.00000
  72       22G-3        0.00000   0.00000   0.00000   0.00000   0.00000
  73       22G+4        0.00000   0.00000   0.00000   0.00000   0.00000
  74       22G-4        0.00000   0.00000   0.00000  -0.00000   0.00000
  75       23G 0        0.00000   0.00000   0.00000   0.00000  -0.00000
  76       23G+1        0.00000   0.00000   0.00000   0.00000   0.00000
  77       23G-1        0.00000   0.00000   0.00000   0.00000   0.00000
  78       23G+2        0.00000   0.00000  -0.00000   0.00000  -0.00000
  79       23G-2        0.00000   0.00000   0.00000   0.00000   0.00000
  80       23G+3        0.00000   0.00000   0.00000   0.00000   0.00000
  81       23G-3        0.00000   0.00000   0.00000   0.00000   0.00000
  82       23G+4        0.00000   0.00000  -0.00000   0.00000   0.00000
  83       23G-4        0.00000   0.00000   0.00000  -0.00000   0.00000
                          26        27        28        29        30
                       (T2G)--V  (T2G)--V  (T1U)--V  (T1U)--V  (T1U)--V
     Eigenvalues --     1.81413   1.81413   2.03181   2.03181   2.03181
   1 1   H  1S          0.00000   0.00000   0.00000   0.00000   0.00000
   2        2S          0.00000   0.00000   0.00000   0.00000   0.00000
   3        3S          0.00000   0.00000   0.00000   0.00000   0.00000
   4        4S          0.00000   0.00000   0.00000   0.00000   0.00000
   5        5S          0.00000   0.00000   0.00000   0.00000   0.00000
   6        6S          0.00000   0.00000   0.00000   0.00000   0.00000
   7        7S          0.00000   0.00000   0.00000   0.00000   0.00000
   8        8S          0.00000   0.00000   0.00000   0.00000   0.00000
   9        9S          0.00000   0.00000   0.00000   0.00000   0.00000
  10       10PX         0.00000   0.00000   0.00000   0.00000   0.09517
  11       10PY         0.00000   0.00000   0.09517   0.00000   0.00000
  12       10PZ         0.00000   0.00000   0.00000   0.09517   0.00000
  13       11PX         0.00000   0.00000   0.00000   0.00000  -0.41265
  14       11PY         0.00000   0.00000  -0.41265   0.00000   0.00000
  15       11PZ         0.00000   0.00000   0.00000  -0.41265   0.00000
  16       12PX         0.00000   0.00000   0.00000   0.00000   2.06137
  17       12PY         0.00000   0.00000   2.06137   0.00000   0.00000
  18       12PZ         0.00000   0.00000   0.00000   2.06137   0.00000
  19       13PX         0.00000   0.00000   0.00000   0.00000  -1.63143
  20       13PY         0.00000   0.00000  -1.63143   0.00000   0.00000
  21       13PZ         0.00000   0.00000   0.00000  -1.63143   0.00000
  22       14PX         0.00000   0.00000   0.00000   0.00000   0.48220
  23       14PY         0.00000   0.00000   0.48220   0.00000   0.00000
  24       14PZ         0.00000   0.00000   0.00000   0.48220   0.00000
  25       15D 0        0.00000   0.00000   0.00000   0.00000   0.00000
  26       15D+1        0.00000   0.08576   0.00000   0.00000   0.00000
  27       15D-1        0.08576   0.00000   0.00000   0.00000   0.00000
  28       15D+2        0.00000   0.00000   0.00000   0.00000   0.00000
  29       15D-2        0.00000   0.00000   0.00000   0.00000   0.00000
  30       16D 0        0.00000   0.00000   0.00000   0.00000   0.00000
  31       16D+1        0.00000  -0.38908   0.00000   0.00000   0.00000
  32       16D-1       -0.38908   0.00000   0.00000   0.00000   0.00000
  33       16D+2        0.00000   0.00000   0.00000   0.00000   0.00000
  34       16D-2        0.00000   0.00000   0.00000   0.00000   0.00000
  35       17D 0        0.00000   0.00000   0.00000   0.00000   0.00000
  36       17D+1        0.00000   1.49953   0.00000   0.00000   0.00000
  37       17D-1        1.49953   0.00000   0.00000   0.00000   0.00000
  38       17D+2        0.00000   0.00000   0.00000   0.00000   0.00000
  39       17D-2        0.00000   0.00000   0.00000   0.00000   0.00000
  40       18D 0        0.00000   0.00000   0.00000   0.00000   0.00000
  41       18D+1        0.00000  -0.64376   0.00000   0.00000   0.00000
  42       18D-1       -0.64376   0.00000   0.00000   0.00000   0.00000
  43       18D+2        0.00000   0.00000   0.00000   0.00000   0.00000
  44       18D-2        0.00000   0.00000   0.00000   0.00000   0.00000
  45       19F 0        0.00000   0.00000   0.00000  -0.00000   0.00000
  46       19F+1        0.00000   0.00000   0.00000   0.00000   0.00000
  47       19F-1        0.00000   0.00000   0.00000   0.00000   0.00000
  48       19F+2        0.00000   0.00000   0.00000   0.00000   0.00000
  49       19F-2        0.00000   0.00000   0.00000   0.00000   0.00000
  50       19F+3        0.00000   0.00000   0.00000   0.00000  -0.00000
  51       19F-3        0.00000   0.00000  -0.00000   0.00000   0.00000
  52       20F 0        0.00000   0.00000   0.00000   0.00000   0.00000
  53       20F+1        0.00000   0.00000   0.00000   0.00000  -0.00000
  54       20F-1        0.00000   0.00000  -0.00000   0.00000   0.00000
  55       20F+2        0.00000   0.00000   0.00000  -0.00000   0.00000
  56       20F-2        0.00000   0.00000   0.00000   0.00000   0.00000
  57       20F+3        0.00000   0.00000   0.00000   0.00000   0.00000
  58       20F-3        0.00000   0.00000  -0.00000   0.00000   0.00000
  59       21F 0        0.00000   0.00000   0.00000  -0.00000   0.00000
  60       21F+1        0.00000   0.00000   0.00000   0.00000  -0.00000
  61       21F-1        0.00000   0.00000  -0.00000   0.00000   0.00000
  62       21F+2        0.00000   0.00000   0.00000  -0.00000   0.00000
  63       21F-2        0.00000   0.00000   0.00000   0.00000   0.00000
  64       21F+3        0.00000   0.00000   0.00000   0.00000   0.00000
  65       21F-3        0.00000   0.00000   0.00000   0.00000   0.00000
  66       22G 0        0.00000   0.00000   0.00000   0.00000   0.00000
  67       22G+1        0.00000   0.00000   0.00000   0.00000   0.00000
  68       22G-1        0.00000   0.00000   0.00000   0.00000   0.00000
  69       22G+2        0.00000   0.00000   0.00000   0.00000   0.00000
  70       22G-2        0.00000   0.00000   0.00000   0.00000   0.00000
  71       22G+3        0.00000   0.00000   0.00000   0.00000   0.00000
  72       22G-3       -0.00000   0.00000   0.00000   0.00000   0.00000
  73       22G+4        0.00000   0.00000   0.00000   0.00000   0.00000
  74       22G-4        0.00000   0.00000   0.00000   0.00000   0.00000
  75       23G 0        0.00000   0.00000   0.00000   0.00000   0.00000
  76       23G+1        0.00000   0.00000   0.00000   0.00000   0.00000
  77       23G-1       -0.00000   0.00000   0.00000   0.00000   0.00000
  78       23G+2        0.00000   0.00000   0.00000   0.00000   0.00000
  79       23G-2        0.00000   0.00000   0.00000   0.00000   0.00000
  80       23G+3        0.00000  -0.00000   0.00000   0.00000   0.00000
  81       23G-3        0.00000   0.00000   0.00000   0.00000   0.00000
  82       23G+4        0.00000   0.00000   0.00000   0.00000   0.00000
  83       23G-4        0.00000   0.00000   0.00000   0.00000   0.00000
                          31        32        33        34        35
                           V     (T2G)--V  (T2G)--V      V         V
     Eigenvalues --     2.92919   2.92919   2.92919   2.92919   2.92919
   1 1   H  1S          0.00000   0.00000  -0.00000   0.00000   0.00000
   2        2S          0.00000  -0.00000   0.00000   0.00000   0.00000
   3        3S          0.00000   0.00000  -0.00000   0.00000   0.00000
   4        4S          0.00000  -0.00000  -0.00000   0.00000   0.00000
   5        5S          0.00000   0.00000   0.00000   0.00000   0.00000
   6        6S          0.00000  -0.00000  -0.00000   0.00000   0.00000
   7        7S          0.00000   0.00000   0.00000   0.00000   0.00000
   8        8S          0.00000  -0.00000  -0.00000   0.00000   0.00000
   9        9S          0.00000   0.00000   0.00000   0.00000   0.00000
  10       10PX         0.00000   0.00000   0.00000   0.00000   0.00000
  11       10PY         0.00000   0.00000   0.00000   0.00000   0.00000
  12       10PZ         0.00000   0.00000   0.00000   0.00000   0.00000
  13       11PX         0.00000   0.00000   0.00000   0.00000   0.00000
  14       11PY         0.00000   0.00000   0.00000   0.00000   0.00000
  15       11PZ         0.00000   0.00000   0.00000   0.00000   0.00000
  16       12PX         0.00000   0.00000   0.00000   0.00000   0.00000
  17       12PY         0.00000   0.00000   0.00000   0.00000   0.00000
  18       12PZ         0.00000   0.00000   0.00000   0.00000   0.00000
  19       13PX         0.00000   0.00000   0.00000   0.00000   0.00000
  20       13PY         0.00000   0.00000   0.00000   0.00000   0.00000
  21       13PZ         0.00000   0.00000   0.00000   0.00000   0.00000
  22       14PX         0.00000   0.00000   0.00000   0.00000   0.00000
  23       14PY         0.00000   0.00000   0.00000   0.00000   0.00000
  24       14PZ         0.00000   0.00000   0.00000   0.00000   0.00000
  25       15D 0        0.00000   0.00000   0.00000   0.00000   0.00000
  26       15D+1        0.00000   0.00000   0.00000  -0.00000   0.00000
  27       15D-1        0.00000   0.00000   0.00000   0.00000   0.00000
  28       15D+2        0.00000   0.00000   0.00000   0.00000   0.00000
  29       15D-2        0.00000   0.00000   0.00000   0.00000  -0.00000
  30       16D 0        0.00000  -0.00000   0.00000   0.00000   0.00000
  31       16D+1        0.00000   0.00000   0.00000  -0.00000   0.00000
  32       16D-1       -0.00000   0.00000   0.00000   0.00000   0.00000
  33       16D+2        0.00000   0.00000  -0.00000   0.00000   0.00000
  34       16D-2        0.00000   0.00000   0.00000   0.00000  -0.00000
  35       17D 0        0.00000   0.00000   0.00000   0.00000   0.00000
  36       17D+1        0.00000   0.00000   0.00000   0.00000   0.00000
  37       17D-1        0.00000   0.00000   0.00000   0.00000   0.00000
  38       17D+2        0.00000   0.00000   0.00000   0.00000   0.00000
  39       17D-2        0.00000   0.00000   0.00000   0.00000   0.00000
  40       18D 0        0.00000  -0.00000  -0.00000   0.00000   0.00000
  41       18D+1        0.00000   0.00000   0.00000  -0.00000   0.00000
  42       18D-1       -0.00000   0.00000   0.00000   0.00000   0.00000
  43       18D+2        0.00000   0.00000  -0.00000   0.00000   0.00000
  44       18D-2        0.00000   0.00000   0.00000   0.00000  -0.00000
  45       19F 0        0.00000   0.00000   0.00000   0.00000   0.00000
  46       19F+1        0.00000   0.00000   0.00000   0.00000   0.00000
  47       19F-1        0.00000   0.00000   0.00000   0.00000   0.00000
  48       19F+2        0.00000   0.00000   0.00000   0.00000   0.00000
  49       19F-2        0.00000   0.00000   0.00000   0.00000   0.00000
  50       19F+3        0.00000   0.00000   0.00000   0.00000   0.00000
  51       19F-3        0.00000   0.00000   0.00000   0.00000   0.00000
  52       20F 0        0.00000   0.00000   0.00000   0.00000   0.00000
  53       20F+1        0.00000   0.00000   0.00000   0.00000   0.00000
  54       20F-1        0.00000   0.00000   0.00000   0.00000   0.00000
  55       20F+2        0.00000   0.00000   0.00000   0.00000   0.00000
  56       20F-2        0.00000   0.00000   0.00000   0.00000   0.00000
  57       20F+3        0.00000   0.00000   0.00000   0.00000   0.00000
  58       20F-3        0.00000   0.00000   0.00000   0.00000   0.00000
  59       21F 0        0.00000   0.00000   0.00000   0.00000   0.00000
  60       21F+1        0.00000   0.00000   0.00000   0.00000   0.00000
  61       21F-1        0.00000   0.00000   0.00000   0.00000   0.00000
  62       21F+2        0.00000   0.00000   0.00000   0.00000   0.00000
  63       21F-2        0.00000   0.00000   0.00000   0.00000   0.00000
  64       21F+3        0.00000   0.00000   0.00000   0.00000   0.00000
  65       21F-3        0.00000   0.00000   0.00000   0.00000   0.00000
  66       22G 0        0.00000  -0.03868  -0.00934   0.00000   0.00000
  67       22G+1        0.00000   0.00000   0.00000  -0.04302   0.00000
  68       22G-1       -0.02837   0.00000   0.00000   0.00000   0.00000
  69       22G+2        0.00000  -0.02518   0.00376   0.00000   0.00000
  70       22G-2        0.00000   0.00000   0.00000   0.00000  -0.04603
  71       22G+3        0.00000   0.00000   0.00000   0.01773   0.00000
  72       22G-3       -0.03688   0.00000   0.00000   0.00000   0.00000
  73       22G+4        0.00000   0.00587  -0.04543   0.00000   0.00000
  74       22G-4        0.00000   0.00000   0.00000   0.00000   0.00682
  75       23G 0        0.00000   0.84043   0.20297   0.00000   0.00000
  76       23G+1        0.00000   0.00000   0.00000   0.93462   0.00000
  77       23G-1        0.61636   0.00000   0.00000   0.00000   0.00000
  78       23G+2        0.00000   0.54704  -0.08173   0.00000   0.00000
  79       23G-2        0.00000   0.00000   0.00000   0.00000   0.99993
  80       23G+3        0.00000   0.00000   0.00000  -0.38513   0.00000
  81       23G-3        0.80121   0.00000   0.00000   0.00000   0.00000
  82       23G+4        0.00000  -0.12754   0.98690   0.00000   0.00000
  83       23G-4        0.00000   0.00000   0.00000   0.00000  -0.14824
                          36        37        38        39        40
                           V         V         V     (T2G)--V  (A1G)--V
     Eigenvalues --     2.92919   2.92919   2.92919   2.92919   3.09998
   1 1   H  1S          0.00000   0.00000   0.00000  -0.00000  -0.00073
   2        2S          0.00000   0.00000   0.00000   0.00000   0.00849
   3        3S          0.00000   0.00000   0.00000  -0.00000  -0.09690
   4        4S          0.00000   0.00000   0.00000  -0.00000   0.33239
   5        5S          0.00000   0.00000   0.00000   0.00000  -2.89033
   6        6S          0.00000   0.00000   0.00000  -0.00000   4.45179
   7        7S          0.00000   0.00000   0.00000   0.00000  -3.33531
   8        8S          0.00000   0.00000   0.00000  -0.00000   1.45544
   9        9S          0.00000   0.00000   0.00000   0.00000  -0.30549
  10       10PX         0.00000   0.00000   0.00000   0.00000   0.00000
  11       10PY         0.00000   0.00000   0.00000   0.00000   0.00000
  12       10PZ         0.00000   0.00000   0.00000   0.00000   0.00000
  13       11PX         0.00000   0.00000   0.00000   0.00000   0.00000
  14       11PY         0.00000   0.00000   0.00000   0.00000   0.00000
  15       11PZ         0.00000   0.00000   0.00000   0.00000   0.00000
  16       12PX         0.00000   0.00000   0.00000   0.00000   0.00000
  17       12PY         0.00000   0.00000   0.00000   0.00000   0.00000
  18       12PZ         0.00000   0.00000   0.00000   0.00000   0.00000
  19       13PX         0.00000   0.00000   0.00000   0.00000   0.00000
  20       13PY         0.00000   0.00000   0.00000   0.00000   0.00000
  21       13PZ         0.00000   0.00000   0.00000   0.00000   0.00000
  22       14PX         0.00000   0.00000   0.00000   0.00000   0.00000
  23       14PY         0.00000   0.00000   0.00000   0.00000   0.00000
  24       14PZ         0.00000   0.00000   0.00000   0.00000   0.00000
  25       15D 0        0.00000   0.00000   0.00000   0.00000   0.00000
  26       15D+1        0.00000   0.00000   0.00000   0.00000   0.00000
  27       15D-1       -0.00000   0.00000   0.00000   0.00000   0.00000
  28       15D+2        0.00000   0.00000   0.00000   0.00000  -0.00000
  29       15D-2        0.00000   0.00000   0.00000   0.00000   0.00000
  30       16D 0        0.00000   0.00000   0.00000  -0.00000  -0.00000
  31       16D+1        0.00000   0.00000   0.00000   0.00000   0.00000
  32       16D-1        0.00000   0.00000   0.00000   0.00000   0.00000
  33       16D+2        0.00000   0.00000   0.00000  -0.00000   0.00000
  34       16D-2        0.00000   0.00000   0.00000   0.00000   0.00000
  35       17D 0        0.00000   0.00000   0.00000   0.00000   0.00000
  36       17D+1        0.00000  -0.00000   0.00000   0.00000   0.00000
  37       17D-1       -0.00000   0.00000   0.00000   0.00000   0.00000
  38       17D+2        0.00000   0.00000   0.00000   0.00000  -0.00000
  39       17D-2        0.00000   0.00000  -0.00000   0.00000   0.00000
  40       18D 0        0.00000   0.00000   0.00000  -0.00000  -0.00000
  41       18D+1        0.00000   0.00000   0.00000   0.00000   0.00000
  42       18D-1        0.00000   0.00000   0.00000   0.00000   0.00000
  43       18D+2        0.00000   0.00000   0.00000  -0.00000   0.00000
  44       18D-2        0.00000   0.00000   0.00000   0.00000   0.00000
  45       19F 0        0.00000   0.00000   0.00000   0.00000   0.00000
  46       19F+1        0.00000   0.00000   0.00000   0.00000   0.00000
  47       19F-1        0.00000   0.00000   0.00000   0.00000   0.00000
  48       19F+2        0.00000   0.00000   0.00000   0.00000   0.00000
  49       19F-2        0.00000   0.00000   0.00000   0.00000   0.00000
  50       19F+3        0.00000   0.00000   0.00000   0.00000   0.00000
  51       19F-3        0.00000   0.00000   0.00000   0.00000   0.00000
  52       20F 0        0.00000   0.00000   0.00000   0.00000   0.00000
  53       20F+1        0.00000   0.00000   0.00000   0.00000   0.00000
  54       20F-1        0.00000   0.00000   0.00000   0.00000   0.00000
  55       20F+2        0.00000   0.00000   0.00000   0.00000   0.00000
  56       20F-2        0.00000   0.00000   0.00000   0.00000   0.00000
  57       20F+3        0.00000   0.00000   0.00000   0.00000   0.00000
  58       20F-3        0.00000   0.00000   0.00000   0.00000   0.00000
  59       21F 0        0.00000   0.00000   0.00000   0.00000   0.00000
  60       21F+1        0.00000   0.00000   0.00000   0.00000   0.00000
  61       21F-1        0.00000   0.00000   0.00000   0.00000   0.00000
  62       21F+2        0.00000   0.00000   0.00000   0.00000   0.00000
  63       21F-2        0.00000   0.00000   0.00000   0.00000   0.00000
  64       21F+3        0.00000   0.00000   0.00000   0.00000   0.00000
  65       21F-3        0.00000   0.00000   0.00000   0.00000   0.00000
  66       22G 0        0.00000   0.00000   0.00000   0.02411  -0.00000
  67       22G+1        0.00000  -0.01773   0.00000   0.00000   0.00000
  68       22G-1       -0.03688   0.00000   0.00000   0.00000   0.00000
  69       22G+2        0.00000   0.00000   0.00000  -0.03895  -0.00000
  70       22G-2        0.00000   0.00000  -0.00682   0.00000   0.00000
  71       22G+3        0.00000  -0.04302   0.00000   0.00000   0.00000
  72       22G-3        0.02837   0.00000   0.00000   0.00000   0.00000
  73       22G+4        0.00000   0.00000   0.00000  -0.00818  -0.00000
  74       22G-4        0.00000   0.00000  -0.04603   0.00000   0.00000
  75       23G 0        0.00000   0.00000   0.00000  -0.52376  -0.00000
  76       23G+1        0.00000   0.38513   0.00000   0.00000   0.00000
  77       23G-1        0.80121   0.00000   0.00000   0.00000   0.00000
  78       23G+2        0.00000   0.00000   0.00000   0.84611   0.00000
  79       23G-2        0.00000   0.00000   0.14824   0.00000   0.00000
  80       23G+3        0.00000   0.93462   0.00000   0.00000   0.00000
  81       23G-3       -0.61636   0.00000   0.00000   0.00000   0.00000
  82       23G+4        0.00000   0.00000   0.00000   0.17779   0.00000
  83       23G-4        0.00000   0.00000   0.99993   0.00000   0.00000
                          41        42        43        44        45
                           V         V         V         V         V
     Eigenvalues --     4.14813   4.14813   4.14813   4.14813   4.14813
   1 1   H  1S          0.00000   0.00000   0.00000   0.00000   0.00000
   2        2S          0.00000   0.00000   0.00000   0.00000   0.00000
   3        3S          0.00000   0.00000   0.00000   0.00000   0.00000
   4        4S          0.00000   0.00000   0.00000   0.00000   0.00000
   5        5S          0.00000   0.00000   0.00000   0.00000   0.00000
   6        6S          0.00000   0.00000   0.00000   0.00000   0.00000
   7        7S          0.00000   0.00000   0.00000   0.00000   0.00000
   8        8S          0.00000   0.00000   0.00000   0.00000   0.00000
   9        9S          0.00000   0.00000   0.00000   0.00000   0.00000
  10       10PX         0.00000  -0.00000   0.00000   0.00000   0.00000
  11       10PY         0.00000   0.00000   0.00000  -0.00000   0.00000
  12       10PZ         0.00000   0.00000   0.00000   0.00000   0.00000
  13       11PX         0.00000   0.00000   0.00000   0.00000  -0.00000
  14       11PY         0.00000   0.00000   0.00000   0.00000   0.00000
  15       11PZ        -0.00000   0.00000  -0.00000   0.00000   0.00000
  16       12PX         0.00000  -0.00000   0.00000   0.00000   0.00000
  17       12PY         0.00000   0.00000   0.00000  -0.00000   0.00000
  18       12PZ         0.00000   0.00000   0.00000   0.00000   0.00000
  19       13PX         0.00000   0.00000   0.00000   0.00000  -0.00000
  20       13PY         0.00000   0.00000   0.00000   0.00000   0.00000
  21       13PZ         0.00000   0.00000  -0.00000   0.00000   0.00000
  22       14PX         0.00000  -0.00000   0.00000   0.00000   0.00000
  23       14PY         0.00000   0.00000   0.00000  -0.00000   0.00000
  24       14PZ        -0.00000   0.00000   0.00000   0.00000   0.00000
  25       15D 0        0.00000   0.00000   0.00000   0.00000   0.00000
  26       15D+1        0.00000   0.00000   0.00000   0.00000   0.00000
  27       15D-1        0.00000   0.00000   0.00000   0.00000   0.00000
  28       15D+2        0.00000   0.00000   0.00000   0.00000   0.00000
  29       15D-2        0.00000   0.00000   0.00000   0.00000   0.00000
  30       16D 0        0.00000   0.00000   0.00000   0.00000   0.00000
  31       16D+1        0.00000   0.00000   0.00000   0.00000   0.00000
  32       16D-1        0.00000   0.00000   0.00000   0.00000   0.00000
  33       16D+2        0.00000   0.00000   0.00000   0.00000   0.00000
  34       16D-2        0.00000   0.00000   0.00000   0.00000   0.00000
  35       17D 0        0.00000   0.00000   0.00000   0.00000   0.00000
  36       17D+1        0.00000   0.00000   0.00000   0.00000   0.00000
  37       17D-1        0.00000   0.00000   0.00000   0.00000   0.00000
  38       17D+2        0.00000   0.00000   0.00000   0.00000   0.00000
  39       17D-2        0.00000   0.00000   0.00000   0.00000   0.00000
  40       18D 0        0.00000   0.00000   0.00000   0.00000   0.00000
  41       18D+1        0.00000   0.00000   0.00000   0.00000   0.00000
  42       18D-1        0.00000   0.00000   0.00000   0.00000   0.00000
  43       18D+2        0.00000   0.00000   0.00000   0.00000   0.00000
  44       18D-2        0.00000   0.00000   0.00000   0.00000   0.00000
  45       19F 0       -0.11222   0.00000  -0.11011   0.00000   0.00000
  46       19F+1        0.00000  -0.15330   0.00000   0.00000   0.03490
  47       19F-1        0.00000   0.00000   0.00000  -0.15184   0.00000
  48       19F+2        0.11011   0.00000  -0.11222   0.00000   0.00000
  49       19F-2        0.00000   0.00000   0.00000   0.00000   0.00000
  50       19F+3        0.00000  -0.03490   0.00000   0.00000  -0.15330
  51       19F-3        0.00000   0.00000   0.00000   0.04077   0.00000
  52       20F 0        0.87900   0.00000   0.86251   0.00000   0.00000
  53       20F+1        0.00000   1.20076   0.00000   0.00000  -0.27339
  54       20F-1        0.00000   0.00000   0.00000   1.18935   0.00000
  55       20F+2       -0.86251   0.00000   0.87900   0.00000   0.00000
  56       20F-2        0.00000   0.00000   0.00000   0.00000   0.00000
  57       20F+3        0.00000   0.27339   0.00000   0.00000   1.20076
  58       20F-3        0.00000   0.00000   0.00000  -0.31938   0.00000
  59       21F 0       -0.33338   0.00000  -0.32712   0.00000   0.00000
  60       21F+1        0.00000  -0.45541   0.00000   0.00000   0.10369
  61       21F-1        0.00000   0.00000   0.00000  -0.45109   0.00000
  62       21F+2        0.32712   0.00000  -0.33338   0.00000   0.00000
  63       21F-2        0.00000   0.00000   0.00000   0.00000   0.00000
  64       21F+3        0.00000  -0.10369   0.00000   0.00000  -0.45541
  65       21F-3        0.00000   0.00000   0.00000   0.12113   0.00000
  66       22G 0        0.00000   0.00000   0.00000   0.00000   0.00000
  67       22G+1        0.00000   0.00000   0.00000   0.00000   0.00000
  68       22G-1        0.00000   0.00000   0.00000   0.00000   0.00000
  69       22G+2        0.00000   0.00000   0.00000   0.00000   0.00000
  70       22G-2        0.00000   0.00000   0.00000   0.00000   0.00000
  71       22G+3        0.00000   0.00000   0.00000   0.00000   0.00000
  72       22G-3        0.00000   0.00000   0.00000   0.00000   0.00000
  73       22G+4        0.00000   0.00000   0.00000   0.00000   0.00000
  74       22G-4        0.00000   0.00000   0.00000   0.00000   0.00000
  75       23G 0        0.00000   0.00000   0.00000   0.00000   0.00000
  76       23G+1        0.00000   0.00000   0.00000   0.00000   0.00000
  77       23G-1        0.00000   0.00000   0.00000   0.00000   0.00000
  78       23G+2        0.00000   0.00000   0.00000   0.00000   0.00000
  79       23G-2        0.00000   0.00000   0.00000   0.00000   0.00000
  80       23G+3        0.00000   0.00000   0.00000   0.00000   0.00000
  81       23G-3        0.00000   0.00000   0.00000   0.00000   0.00000
  82       23G+4        0.00000   0.00000   0.00000   0.00000   0.00000
  83       23G-4        0.00000   0.00000   0.00000   0.00000   0.00000
                          46        47        48        49        50
[...]
  81       23G-3        0.00000   0.00000   0.00000   0.00000   0.00000
  82       23G+4        0.00000   0.00000   0.00000   0.00000   0.00000
  83       23G-4        0.00000   0.00000   0.00000   0.00000   0.00000
                          61        62        63        64        65
  61       21F-1        0.00000
  62       21F+2        0.00000   0.00000
  63       21F-2        0.00000   0.00000   0.00000
  64       21F+3        0.00000   0.00000   0.00000   0.00000
  65       21F-3        0.00000   0.00000   0.00000   0.00000   0.00000
  66       22G 0        0.00000   0.00000   0.00000   0.00000   0.00000
  67       22G+1        0.00000   0.00000   0.00000   0.00000   0.00000
  68       22G-1        0.00000   0.00000   0.00000   0.00000   0.00000
  69       22G+2        0.00000   0.00000   0.00000   0.00000   0.00000
  70       22G-2        0.00000   0.00000   0.00000   0.00000   0.00000
  71       22G+3        0.00000   0.00000   0.00000   0.00000   0.00000
  72       22G-3        0.00000   0.00000   0.00000   0.00000   0.00000
  73       22G+4        0.00000   0.00000   0.00000   0.00000   0.00000
  74       22G-4        0.00000   0.00000   0.00000   0.00000   0.00000
  75       23G 0        0.00000   0.00000   0.00000   0.00000   0.00000
  76       23G+1        0.00000   0.00000   0.00000   0.00000   0.00000
  77       23G-1        0.00000   0.00000   0.00000   0.00000   0.00000
  78       23G+2        0.00000   0.00000   0.00000   0.00000   0.00000
  79       23G-2        0.00000   0.00000   0.00000   0.00000   0.00000
  80       23G+3        0.00000   0.00000   0.00000   0.00000   0.00000
  81       23G-3        0.00000   0.00000   0.00000   0.00000   0.00000
  82       23G+4        0.00000   0.00000   0.00000   0.00000   0.00000
  83       23G-4        0.00000   0.00000   0.00000   0.00000   0.00000
                          66        67        68        69        70
  66       22G 0        0.00000
  67       22G+1       -0.00000   0.00000
  68       22G-1       -0.00000   0.00000   0.00000
  69       22G+2        0.00000   0.00000   0.00000   0.00000
  70       22G-2        0.00000  -0.00000  -0.00000  -0.00000   0.00000
  71       22G+3       -0.00000   0.00000   0.00000  -0.00000  -0.00000
  72       22G-3        0.00000  -0.00000  -0.00000   0.00000  -0.00000
  73       22G+4       -0.00000  -0.00000   0.00000  -0.00000  -0.00000
  74       22G-4       -0.00000   0.00000  -0.00000  -0.00000   0.00000
  75       23G 0       -0.00000   0.00000   0.00000  -0.00000  -0.00000
  76       23G+1        0.00000  -0.00000  -0.00000   0.00000   0.00000
  77       23G-1        0.00000   0.00000  -0.00000   0.00000  -0.00000
  78       23G+2       -0.00000  -0.00000  -0.00000  -0.00000   0.00000
  79       23G-2       -0.00000   0.00000  -0.00000   0.00000  -0.00000
  80       23G+3        0.00000  -0.00000  -0.00000   0.00000   0.00000
  81       23G-3       -0.00000   0.00000  -0.00000   0.00000   0.00000
  82       23G+4        0.00000  -0.00000  -0.00000  -0.00000   0.00000
  83       23G-4       -0.00000  -0.00000   0.00000   0.00000  -0.00000
                          71        72        73        74        75
  71       22G+3        0.00000
  72       22G-3       -0.00000   0.00000
  73       22G+4       -0.00000   0.00000   0.00000
  74       22G-4        0.00000  -0.00000  -0.00000   0.00000
  75       23G 0        0.00000  -0.00000   0.00000   0.00000   0.00000
  76       23G+1       -0.00000   0.00000  -0.00000  -0.00000   0.00000
  77       23G-1       -0.00000  -0.00000  -0.00000   0.00000  -0.00000
  78       23G+2        0.00000   0.00000   0.00000  -0.00000  -0.00000
  79       23G-2        0.00000  -0.00000   0.00000   0.00000   0.00000
  80       23G+3       -0.00000   0.00000  -0.00000  -0.00000  -0.00000
  81       23G-3       -0.00000  -0.00000  -0.00000  -0.00000  -0.00000
  82       23G+4       -0.00000  -0.00000  -0.00000   0.00000  -0.00000
  83       23G-4        0.00000  -0.00000   0.00000  -0.00000   0.00000
                          76        77        78        79        80
  76       23G+1        0.00000
  77       23G-1        0.00000   0.00000
  78       23G+2        0.00000  -0.00000   0.00000
  79       23G-2       -0.00000  -0.00000  -0.00000   0.00000
  80       23G+3       -0.00000  -0.00000  -0.00000   0.00000   0.00000
  81       23G-3       -0.00000  -0.00000   0.00000  -0.00000  -0.00000
  82       23G+4       -0.00000   0.00000   0.00000  -0.00000  -0.00000
  83       23G-4        0.00000  -0.00000  -0.00000  -0.00000   0.00000
                          81        82        83
  81       23G-3        0.00000
  82       23G+4       -0.00000   0.00000
  83       23G-4        0.00000  -0.00000   0.00000
     Gross orbital populations:
                         Total     Alpha     Beta      Spin
   1 1   H  1S         -0.00000  -0.00000   0.00000  -0.00000
   2        2S          0.00005   0.00005   0.00000   0.00005
   3        3S          0.00286   0.00286   0.00000   0.00286
   4        4S          0.02070   0.02070   0.00000   0.02070
   5        5S          0.10660   0.10660   0.00000   0.10660
   6        6S          0.31152   0.31152   0.00000   0.31152
   7        7S          0.42012   0.42012   0.00000   0.42012
   8        8S          0.13750   0.13750   0.00000   0.13750
   9        9S          0.00065   0.00065   0.00000   0.00065
  10       10PX         0.00000   0.00000   0.00000   0.00000
  11       10PY         0.00000   0.00000   0.00000   0.00000
  12       10PZ         0.00000   0.00000   0.00000   0.00000
  13       11PX         0.00000   0.00000   0.00000   0.00000
  14       11PY         0.00000   0.00000   0.00000   0.00000
  15       11PZ         0.00000   0.00000   0.00000   0.00000
  16       12PX         0.00000   0.00000   0.00000   0.00000
  17       12PY         0.00000   0.00000   0.00000   0.00000
  18       12PZ         0.00000   0.00000   0.00000   0.00000
  19       13PX         0.00000   0.00000   0.00000   0.00000
  20       13PY         0.00000   0.00000   0.00000   0.00000
  21       13PZ         0.00000   0.00000   0.00000   0.00000
  22       14PX         0.00000   0.00000   0.00000   0.00000
  23       14PY         0.00000   0.00000   0.00000   0.00000
  24       14PZ         0.00000   0.00000   0.00000   0.00000
  25       15D 0        0.00000   0.00000   0.00000   0.00000
  26       15D+1        0.00000   0.00000   0.00000   0.00000
  27       15D-1        0.00000   0.00000   0.00000   0.00000
  28       15D+2        0.00000   0.00000   0.00000   0.00000
  29       15D-2        0.00000   0.00000   0.00000   0.00000
  30       16D 0       -0.00000  -0.00000   0.00000  -0.00000
  31       16D+1        0.00000   0.00000   0.00000   0.00000
  32       16D-1       -0.00000  -0.00000   0.00000  -0.00000
  33       16D+2       -0.00000  -0.00000   0.00000  -0.00000
  34       16D-2       -0.00000  -0.00000   0.00000  -0.00000
  35       17D 0        0.00000   0.00000   0.00000   0.00000
  36       17D+1        0.00000   0.00000   0.00000   0.00000
  37       17D-1        0.00000   0.00000   0.00000   0.00000
  38       17D+2        0.00000   0.00000   0.00000   0.00000
  39       17D-2        0.00000   0.00000   0.00000   0.00000
  40       18D 0       -0.00000  -0.00000   0.00000  -0.00000
  41       18D+1       -0.00000  -0.00000   0.00000  -0.00000
  42       18D-1       -0.00000  -0.00000   0.00000  -0.00000
  43       18D+2       -0.00000  -0.00000   0.00000  -0.00000
  44       18D-2       -0.00000  -0.00000   0.00000  -0.00000
  45       19F 0        0.00000   0.00000   0.00000   0.00000
  46       19F+1        0.00000   0.00000   0.00000   0.00000
  47       19F-1        0.00000   0.00000   0.00000   0.00000
  48       19F+2        0.00000   0.00000   0.00000   0.00000
  49       19F-2        0.00000   0.00000   0.00000   0.00000
  50       19F+3        0.00000   0.00000   0.00000   0.00000
  51       19F-3        0.00000   0.00000   0.00000   0.00000
  52       20F 0        0.00000   0.00000   0.00000   0.00000
  53       20F+1        0.00000   0.00000   0.00000   0.00000
  54       20F-1        0.00000   0.00000   0.00000   0.00000
  55       20F+2        0.00000   0.00000   0.00000   0.00000
  56       20F-2        0.00000   0.00000   0.00000   0.00000
  57       20F+3        0.00000   0.00000   0.00000   0.00000
  58       20F-3        0.00000   0.00000   0.00000   0.00000
  59       21F 0        0.00000   0.00000   0.00000   0.00000
  60       21F+1        0.00000   0.00000   0.00000   0.00000
  61       21F-1        0.00000   0.00000   0.00000   0.00000
  62       21F+2        0.00000   0.00000   0.00000   0.00000
  63       21F-2        0.00000   0.00000   0.00000   0.00000
  64       21F+3        0.00000   0.00000   0.00000   0.00000
  65       21F-3        0.00000   0.00000   0.00000   0.00000
  66       22G 0        0.00000   0.00000   0.00000   0.00000
  67       22G+1        0.00000   0.00000   0.00000   0.00000
  68       22G-1        0.00000   0.00000   0.00000   0.00000
  69       22G+2        0.00000   0.00000   0.00000   0.00000
  70       22G-2        0.00000   0.00000   0.00000   0.00000
  71       22G+3        0.00000   0.00000   0.00000   0.00000
  72       22G-3        0.00000   0.00000   0.00000   0.00000
  73       22G+4        0.00000   0.00000   0.00000   0.00000
  74       22G-4        0.00000   0.00000   0.00000   0.00000
  75       23G 0        0.00000   0.00000   0.00000   0.00000
  76       23G+1       -0.00000  -0.00000   0.00000  -0.00000
  77       23G-1       -0.00000  -0.00000   0.00000  -0.00000
  78       23G+2       -0.00000  -0.00000   0.00000  -0.00000
  79       23G-2       -0.00000  -0.00000   0.00000  -0.00000
  80       23G+3       -0.00000  -0.00000   0.00000  -0.00000
  81       23G-3       -0.00000  -0.00000   0.00000  -0.00000
  82       23G+4        0.00000   0.00000   0.00000   0.00000
  83       23G-4       -0.00000  -0.00000   0.00000  -0.00000
          Condensed to atoms (all electrons):
               1
     1  H    1.000000
          Atomic-Atomic Spin Densities.
               1
     1  H    1.000000
 Mulliken charges and spin densities:
               1          2
     1  H   -0.000000   1.000000
 Sum of Mulliken charges =  -0.00000   1.00000
 Mulliken charges and spin densities with hydrogens summed into heavy atoms:
               1          2
 Electronic spatial extent (au):  <R**2>=              3.0005
 Charge=             -0.0000 electrons
 Dipole moment (field-independent basis, Debye):
    X=              0.0000    Y=              0.0000    Z=              0.0000  Tot=              0.0000
 Quadrupole moment (field-independent basis, Debye-Ang):
   XX=             -1.3452   YY=             -1.3452   ZZ=             -1.3452
   XY=             -0.0000   XZ=             -0.0000   YZ=             -0.0000
 Traceless Quadrupole moment (field-independent basis, Debye-Ang):
   XX=              0.0000   YY=              0.0000   ZZ=              0.0000
   XY=             -0.0000   XZ=             -0.0000   YZ=             -0.0000
 Octapole moment (field-independent basis, Debye-Ang**2):
  XXX=              0.0000  YYY=              0.0000  ZZZ=              0.0000  XYY=              0.0000
  XXY=              0.0000  XXZ=              0.0000  XZZ=              0.0000  YZZ=              0.0000
  YYZ=              0.0000  XYZ=              0.0000
 Hexadecapole moment (field-independent basis, Debye-Ang**3):
 XXXX=             -1.6960 YYYY=             -1.6960 ZZZZ=             -1.6960 XXXY=              0.0000
 XXXZ=              0.0000 YYYX=              0.0000 YYYZ=             -0.0000 ZZZX=              0.0000
 ZZZY=             -0.0000 XXYY=             -0.5653 XXZZ=             -0.5653 YYZZ=             -0.5653
 XXYZ=             -0.0000 YYXZ=              0.0000 ZZXY=              0.0000
 N-N= 0.000000000000D+00 E-N=-9.989299055169D-01  KE= 4.989344664112D-01
 Symmetry AG   KE= 4.989344664112D-01
 Symmetry B1G  KE= 6.945838489932D-61
 Symmetry B2G  KE= 5.639483578102D-61
 Symmetry B3G  KE= 7.710735516878D-61
 Symmetry AU   KE= 0.000000000000D+00
 Symmetry B1U  KE= 0.000000000000D+00
 Symmetry B2U  KE= 0.000000000000D+00
 Symmetry B3U  KE= 0.000000000000D+00
 Symmetry AG   SP= 1.000000000000D+00
 Symmetry B1G  SP= 5.324803580962D-62
 Symmetry B2G  SP= 4.320420009686D-62
 Symmetry B3G  SP= 5.823370502924D-62
 Symmetry AU   SP= 0.000000000000D+00
 Symmetry B1U  SP= 0.000000000000D+00
 Symmetry B2U  SP= 0.000000000000D+00
 Symmetry B3U  SP= 0.000000000000D+00
 Orbital energies and kinetic energies (alpha):
                                 1                 2
   1         (A1G)--O         -0.125006          0.498934
   2         (A1G)--V          0.043356          0.055017
   3         (T1U)--V          0.156244          0.171597
   4         (T1U)--V          0.156244          0.171597
   5         (T1U)--V          0.156244          0.171597
   6         (A1G)--V          0.274426          0.369274
   7         (EG)--V           0.499458          0.510504
   8         (EG)--V           0.499458          0.510504
   9         (T2G)--V          0.499458          0.510504
  10         (T2G)--V          0.499458          0.510504
  11         (T2G)--V          0.499458          0.510504
  12         (T1U)--V          0.644613          0.729248
  13         (T1U)--V          0.644613          0.729248
  14         (T1U)--V          0.644613          0.729248
  15         (A1G)--V          1.005397          1.324789
  16         V                 1.171700          1.185907
  17         V                 1.171700          1.185907
  18         V                 1.171700          1.185907
  19         V                 1.171700          1.185907
  20         (A2U)--V          1.171700          1.185907
  21         V                 1.171700          1.185907
  22         V                 1.171700          1.185907
  23         (EG)--V           1.814135          1.887948
  24         (T2G)--V          1.814135          1.887948
  25         (EG)--V           1.814135          1.887948
  26         (T2G)--V          1.814135          1.887948
  27         (T2G)--V          1.814135          1.887948
  28         (T1U)--V          2.031814          2.255361
  29         (T1U)--V          2.031814          2.255361
  30         (T1U)--V          2.031814          2.255361
  31         V                 2.929186          2.963259
  32         (T2G)--V          2.929186          2.963259
  33         (T2G)--V          2.929186          2.963259
  34         V                 2.929186          2.963259
  35         V                 2.929186          2.963259
  36         V                 2.929186          2.963259
  37         V                 2.929186          2.963259
  38         V                 2.929186          2.963259
  39         (T2G)--V          2.929186          2.963259
  40         (A1G)--V          3.099977          3.850995
  41         V                 4.148130          4.253254
  42         V                 4.148130          4.253254
  43         V                 4.148130          4.253254
  44         V                 4.148130          4.253254
  45         V                 4.148130          4.253254
  46         (A2U)--V          4.148130          4.253254
  47         V                 4.148130          4.253254
  48         (EG)--V           5.138492          5.374110
  49         (EG)--V           5.138492          5.374110
  50         (T2G)--V          5.138492          5.374110
  51         (T2G)--V          5.138492          5.374110
  52         (T2G)--V          5.138492          5.374110
  53         (T1U)--V          5.832480          6.358852
  54         (T1U)--V          5.832480          6.358852
  55         (T1U)--V          5.832480          6.358852
  56         (A1G)--V          9.630968         11.294297
  57         V                12.858189         13.292632
  58         V                12.858189         13.292632
  59         V                12.858189         13.292632
  60         V                12.858189         13.292632
  61         (A2U)--V         12.858189         13.292632
  62         V                12.858189         13.292632
  63         V                12.858189         13.292632
  64         (T2G)--V         13.129696         13.427257
  65         V                13.129696         13.427257
  66         (T2G)--V         13.129696         13.427257
  67         V                13.129696         13.427257
  68         V                13.129696         13.427257
  69         V                13.129696         13.427257
  70         V                13.129696         13.427257
  71         V                13.129696         13.427257
  72         (T2G)--V         13.129696         13.427257
  73         (EG)--V          13.857721         14.571390
  74         (T2G)--V         13.857721         14.571390
  75         (T2G)--V         13.857721         14.571390
  76         (T2G)--V         13.857721         14.571390
  77         (EG)--V          13.857721         14.571390
  78         (T1U)--V         16.686495         18.143365
  79         (T1U)--V         16.686495         18.143365
  80         (T1U)--V         16.686495         18.143365
  81         (A1G)--V         33.213889         36.842711
  82         (A1G)--V        138.854720        145.358577
  83         (A1G)--V        816.589806        825.478659
 Total kinetic energy from orbitals= 9.978689328224D-01
                          Isotropic Fermi Contact Couplings
        Atom                 a.u.       MegaHertz       Gauss      10(-4) cm-1
     1  H(1)               0.26748    1195.59275     426.61722     398.80681
 --------------------------------------------------------
       Center         ----  Spin Dipole Couplings  ----
                      3XX-RR        3YY-RR        3ZZ-RR
 --------------------------------------------------------
     1   Atom       -0.000000     -0.000000     -0.000000
 --------------------------------------------------------
                        XY            XZ            YZ
 --------------------------------------------------------
     1   Atom        0.000000      0.000000      0.000000
 --------------------------------------------------------


 ---------------------------------------------------------------------------------
              Anisotropic Spin Dipole Couplings in Principal Axis System
 ---------------------------------------------------------------------------------

       Atom             a.u.   MegaHertz   Gauss  10(-4) cm-1        Axes

              Baa    -0.0000    -0.000    -0.000    -0.000  1.0000  0.0000  0.0000
     1 H(1)   Bbb    -0.0000    -0.000    -0.000    -0.000 -0.0000  1.0000  0.0000
              Bcc    -0.0000    -0.000    -0.000    -0.000  0.0000  0.0000  1.0000
 

 ---------------------------------------------------------------------------------

 No NMR shielding tensors so no spin-rotation constants.
 Leave Link  601 at Mon Jan 29 13:08:46 2018, MaxMem= 10737418240 cpu:              26.7 elap:               1.7
 (Enter /home1/apps/gaussian/16rA.03/g16/l9999.exe)
 1\1\GINC-C455-024\SP\ROHF\Gen\H1(2)\AANNABE\29-Jan-2018\0\\#P ROHF/Gen
  5d 7f SCF=(maxcycles=500) Integral(Grid=525302) MaxDisk=5000GB Pop=Fu
 ll Pseudo=Read\\H\\0,2\H,0,0.,0.,0.\\Version=ES64L-G16RevA.03\State=2-
 A1G\HF=-0.4999954\RMSD=1.789e-10\Dipole=0.,0.,0.\Quadrupole=0.,0.,0.,0
 .,0.,0.\PG=OH [O(H1)]\\@


 Where a calculator on the ENIAC is equipped with 18,000
 vacuum tubes and weighs 30 tons, computers inthe future
 may  have only 1,000 vacuum tubes and weigh only 1 1/2 tons.
              ---Popular Mechanics, March 1949
 Job cpu time:       0 days  0 hours  2 minutes 52.7 seconds.
 Elapsed time:       0 days  0 hours  0 minutes 11.0 seconds.
 File lengths (MBytes):  RWF=      6 Int=      0 D2E=      0 Chk=      2 Scr=      1
 Normal termination of Gaussian 16 at Mon Jan 29 13:08:46 2018.
