 Entering Gaussian System, Link 0=g16
 Initial command:
 /home1/apps/gaussian/16rA.03/g16/l1.exe "/tmp/Gau-62392.inp" -scrdir="/tmp/"
 Entering Link 1 = /home1/apps/gaussian/16rA.03/g16/l1.exe PID=     62393.
  
 Copyright (c) 1988,1990,1992,1993,1995,1998,2003,2009,2016,
            Gaussian, Inc.  All Rights Reserved.
  
 This is part of the Gaussian(R) 16 program.  It is based on
 the Gaussian(R) 09 system (copyright 2009, Gaussian, Inc.),
 the Gaussian(R) 03 system (copyright 2003, Gaussian, Inc.),
 the Gaussian(R) 98 system (copyright 1998, Gaussian, Inc.),
 the Gaussian(R) 94 system (copyright 1995, Gaussian, Inc.),
 the Gaussian 92(TM) system (copyright 1992, Gaussian, Inc.),
 the Gaussian 90(TM) system (copyright 1990, Gaussian, Inc.),
 the Gaussian 88(TM) system (copyright 1988, Gaussian, Inc.),
 the Gaussian 86(TM) system (copyright 1986, Carnegie Mellon
 University), and the Gaussian 82(TM) system (copyright 1983,
 Carnegie Mellon University). Gaussian is a federally registered
 trademark of Gaussian, Inc.
  
 This software contains proprietary and confidential information,
 including trade secrets, belonging to Gaussian, Inc.
  
 This software is provided under written license and may be
 used, copied, transmitted, or stored only in accord with that
 written license.
  
 The following legend is applicable only to US Government
 contracts under FAR:
  
                    RESTRICTED RIGHTS LEGEND
  
 Use, reproduction and disclosure by the US Government is
 subject to restrictions as set forth in subparagraphs (a)
 and (c) of the Commercial Computer Software - Restricted
 Rights clause in FAR 52.227-19.
  
 Gaussian, Inc.
 340 Quinnipiac St., Bldg. 40, Wallingford CT 06492
  
  
 ---------------------------------------------------------------
 Warning -- This program may not be used in any manner that
 competes with the business of Gaussian, Inc. or will provide
 assistance to any competitor of Gaussian, Inc.  The licensee
 of this program is prohibited from giving any competitor of
 Gaussian, Inc. access to this program.  By using this program,
 the user acknowledges that Gaussian, Inc. is engaged in the
 business of creating and licensing software in the field of
 computational chemistry and represents and warrants to the
 licensee that it is not a competitor of Gaussian, Inc. and that
 it will not use this program in any manner prohibited above.
 ---------------------------------------------------------------
  

 Cite this work as:
 Gaussian 16, Revision A.03,
 M. J. Frisch, G. W. Trucks, H. B. Schlegel, G. E. Scuseria, 
 M. A. Robb, J. R. Cheeseman, G. Scalmani, V. Barone, 
 G. A. Petersson, H. Nakatsuji, X. Li, M. Caricato, A. V. Marenich, 
 J. Bloino, B. G. Janesko, R. Gomperts, B. Mennucci, H. P. Hratchian, 
 J. V. Ortiz, A. F. Izmaylov, J. L. Sonnenberg, D. Williams-Young, 
 F. Ding, F. Lipparini, F. Egidi, J. Goings, B. Peng, A. Petrone, 
 T. Henderson, D. Ranasinghe, V. G. Zakrzewski, J. Gao, N. Rega, 
 G. Zheng, W. Liang, M. Hada, M. Ehara, K. Toyota, R. Fukuda, 
 J. Hasegawa, M. Ishida, T. Nakajima, Y. Honda, O. Kitao, H. Nakai, 
 T. Vreven, K. Throssell, J. A. Montgomery, Jr., J. E. Peralta, 
 F. Ogliaro, M. J. Bearpark, J. J. Heyd, E. N. Brothers, K. N. Kudin, 
 V. N. Staroverov, T. A. Keith, R. Kobayashi, J. Normand, 
 K. Raghavachari, A. P. Rendell, J. C. Burant, S. S. Iyengar, 
 J. Tomasi, M. Cossi, J. M. Millam, M. Klene, C. Adamo, R. Cammi, 
 J. W. Ochterski, R. L. Martin, K. Morokuma, O. Farkas, 
 J. B. Foresman, and D. J. Fox, Gaussian, Inc., Wallingford CT, 2016.
 
 ******************************************
 Gaussian 16:  ES64L-G16RevA.03 25-Dec-2016
                20-Feb-2018 
 ******************************************
 %mem=80GB
 %cpu=0-31
 SetSPE:  set environment variable "MP_BIND" = "yes"
 SetSPE:  set environment variable "MP_BLIST" = "0,1,2,3,4,5,6,7,8,9,10,11,12,13,14,15,16,17,18,19,20,21,22,23,24,25,26,27,28,29,30,31"
 Will use up to   32 processors via shared memory.
 %chk=ScO
 %rwf=/scratch/04843/aannabe/gaussian/
 ----------------------------------------------------------------------
 #P ROCCSD(T)=(maxcyc=150, Full, SaveAmplitudes, ReadAmplitudes)/Gen 5d
  7f SCF=(maxcycles=300) Integral(NoXCTest) MaxDisk=500GB Pop=Regular P
 seudo=Read Guess=Read
 ----------------------------------------------------------------------
 1/38=1,172=1/1;
 2/12=2,17=6,18=5,40=1/2;
 3/5=7,8=11,11=2,16=1,17=8,25=1,30=1,47=8,116=101/1,2,3;
 4/5=1/1;
 5/5=2,7=300,38=6/2;
 8/5=-1,6=4,9=120000,10=90,24=1/1,4;
 9/5=7,6=150,14=2,77=1/13;
 6//1;
 99/5=1,9=1/99;
 Leave Link    1 at Tue Feb 20 21:15:25 2018, MaxMem= 10737418240 cpu:               6.7 elap:               0.2
 (Enter /home1/apps/gaussian/16rA.03/g16/l101.exe)
 ---
 ScO
 ---
 Symbolic Z-matrix:
 Charge =  0 Multiplicity = 2
 Sc                    0.        0.        0. 
 O                     0.        0.        1.2 
 
 ITRead=  0  0
 MicOpt= -1 -1
 NAtoms=      2 NQM=        2 NQMF=       0 NMMI=      0 NMMIF=      0
                NMic=       0 NMicF=      0.
                    Isotopes and Nuclear Properties:
 (Nuclear quadrupole moments (NQMom) in fm**2, nuclear magnetic moments (NMagM)
  in nuclear magnetons)

  Atom         1           2
 IAtWgt=          45          16
 AtmWgt=  44.9559136  15.9949146
 NucSpn=           7           0
 AtZEff=  -0.0000000  -0.0000000
 NQMom=  -22.0000000   0.0000000
 NMagM=    4.7564830   0.0000000
 AtZNuc=  21.0000000   8.0000000
 Leave Link  101 at Tue Feb 20 21:15:25 2018, MaxMem= 10737418240 cpu:               2.9 elap:               0.1
 (Enter /home1/apps/gaussian/16rA.03/g16/l202.exe)
                          Input orientation:                          
 ---------------------------------------------------------------------
 Center     Atomic      Atomic             Coordinates (Angstroms)
 Number     Number       Type             X           Y           Z
 ---------------------------------------------------------------------
      1         21           0        0.000000    0.000000    0.000000
      2          8           0        0.000000    0.000000    1.200000
 ---------------------------------------------------------------------
 Stoichiometry    OSc(2)
 Framework group  C*V[C*(OSc)]
 Deg. of freedom     1
 Full point group                 C*V     NOp   4
 Largest Abelian subgroup         C2V     NOp   4
 Largest concise Abelian subgroup C1      NOp   1
                         Standard orientation:                         
 ---------------------------------------------------------------------
 Center     Atomic      Atomic             Coordinates (Angstroms)
 Number     Number       Type             X           Y           Z
 ---------------------------------------------------------------------
      1         21           0        0.000000    0.000000    0.331034
      2          8           0        0.000000    0.000000   -0.868966
 ---------------------------------------------------------------------
 Rotational constants (GHZ):           0.0000000          29.7485337          29.7485337
 Leave Link  202 at Tue Feb 20 21:15:25 2018, MaxMem= 10737418240 cpu:               0.7 elap:               0.1
 (Enter /home1/apps/gaussian/16rA.03/g16/l301.exe)
 General basis read from cards:  (5D, 7F)
 Centers:       1
 S 1 1.00
     Exponent=  8.4179090000D+06 Coefficients=  1.0000000000D+00
 S 1 1.00
     Exponent=  1.2603120000D+06 Coefficients=  1.0000000000D+00
 S 1 1.00
     Exponent=  2.8679840000D+05 Coefficients=  1.0000000000D+00
 S 1 1.00
     Exponent=  8.1234690000D+04 Coefficients=  1.0000000000D+00
 S 1 1.00
     Exponent=  2.6503110000D+04 Coefficients=  1.0000000000D+00
 S 1 1.00
     Exponent=  9.5687010000D+03 Coefficients=  1.0000000000D+00
 S 1 1.00
     Exponent=  3.7324970000D+03 Coefficients=  1.0000000000D+00
 S 1 1.00
     Exponent=  1.5484220000D+03 Coefficients=  1.0000000000D+00
 S 1 1.00
     Exponent=  6.7554200000D+02 Coefficients=  1.0000000000D+00
 S 1 1.00
     Exponent=  3.0725220000D+02 Coefficients=  1.0000000000D+00
 S 1 1.00
     Exponent=  1.4466720000D+02 Coefficients=  1.0000000000D+00
 S 1 1.00
     Exponent=  7.0043870000D+01 Coefficients=  1.0000000000D+00
 S 1 1.00
     Exponent=  3.4322500000D+01 Coefficients=  1.0000000000D+00
 S 1 1.00
     Exponent=  1.5612240000D+01 Coefficients=  1.0000000000D+00
 S 1 1.00
     Exponent=  7.7437220000D+00 Coefficients=  1.0000000000D+00
 S 1 1.00
     Exponent=  3.8442600000D+00 Coefficients=  1.0000000000D+00
 S 1 1.00
     Exponent=  1.7197660000D+00 Coefficients=  1.0000000000D+00
 S 1 1.00
     Exponent=  8.3252300000D-01 Coefficients=  1.0000000000D+00
 S 1 1.00
     Exponent=  3.8556400000D-01 Coefficients=  1.0000000000D+00
 S 1 1.00
     Exponent=  9.6700000000D-02 Coefficients=  1.0000000000D+00
 S 1 1.00
     Exponent=  4.7778000000D-02 Coefficients=  1.0000000000D+00
 S 1 1.00
     Exponent=  2.2363000000D-02 Coefficients=  1.0000000000D+00
 S 1 1.00
     Exponent=  3.1672000000D+00 Coefficients=  1.0000000000D+00
 S 1 1.00
     Exponent=  1.6879000000D+00 Coefficients=  1.0000000000D+00
 S 1 1.00
     Exponent=  1.0470000000D-02 Coefficients=  1.0000000000D+00
 P 1 1.00
     Exponent=  2.2640970000D+04 Coefficients=  1.0000000000D+00
 P 1 1.00
     Exponent=  5.3575450000D+03 Coefficients=  1.0000000000D+00
 P 1 1.00
     Exponent=  1.7403730000D+03 Coefficients=  1.0000000000D+00
 P 1 1.00
     Exponent=  6.6661630000D+02 Coefficients=  1.0000000000D+00
 P 1 1.00
     Exponent=  2.8363840000D+02 Coefficients=  1.0000000000D+00
 P 1 1.00
     Exponent=  1.2979760000D+02 Coefficients=  1.0000000000D+00
 P 1 1.00
     Exponent=  6.2679560000D+01 Coefficients=  1.0000000000D+00
 P 1 1.00
     Exponent=  3.1504410000D+01 Coefficients=  1.0000000000D+00
 P 1 1.00
     Exponent=  1.6235250000D+01 Coefficients=  1.0000000000D+00
 P 1 1.00
     Exponent=  8.5183240000D+00 Coefficients=  1.0000000000D+00
 P 1 1.00
     Exponent=  4.5190050000D+00 Coefficients=  1.0000000000D+00
 P 1 1.00
     Exponent=  2.3665910000D+00 Coefficients=  1.0000000000D+00
 P 1 1.00
     Exponent=  1.2152350000D+00 Coefficients=  1.0000000000D+00
 P 1 1.00
     Exponent=  6.1434800000D-01 Coefficients=  1.0000000000D+00
 P 1 1.00
     Exponent=  3.0074500000D-01 Coefficients=  1.0000000000D+00
 P 1 1.00
     Exponent=  1.2583400000D-01 Coefficients=  1.0000000000D+00
 P 1 1.00
     Exponent=  5.4719000000D-02 Coefficients=  1.0000000000D+00
 P 1 1.00
     Exponent=  2.3488000000D-02 Coefficients=  1.0000000000D+00
 P 1 1.00
     Exponent=  4.0719000000D+00 Coefficients=  1.0000000000D+00
 P 1 1.00
     Exponent=  9.9940000000D-01 Coefficients=  1.0000000000D+00
 P 1 1.00
     Exponent=  1.0080000000D-02 Coefficients=  1.0000000000D+00
 D 1 1.00
     Exponent=  1.4802800000D+02 Coefficients=  1.0000000000D+00
 D 1 1.00
     Exponent=  4.3852800000D+01 Coefficients=  1.0000000000D+00
 D 1 1.00
     Exponent=  1.6664600000D+01 Coefficients=  1.0000000000D+00
 D 1 1.00
     Exponent=  6.9789300000D+00 Coefficients=  1.0000000000D+00
 D 1 1.00
     Exponent=  3.1236900000D+00 Coefficients=  1.0000000000D+00
 D 1 1.00
     Exponent=  1.4468700000D+00 Coefficients=  1.0000000000D+00
 D 1 1.00
     Exponent=  6.6740700000D-01 Coefficients=  1.0000000000D+00
 D 1 1.00
     Exponent=  3.0163300000D-01 Coefficients=  1.0000000000D+00
 D 1 1.00
     Exponent=  1.3267400000D-01 Coefficients=  1.0000000000D+00
 D 1 1.00
     Exponent=  5.6739000000D-02 Coefficients=  1.0000000000D+00
 D 1 1.00
     Exponent=  2.3175000000D-02 Coefficients=  1.0000000000D+00
 D 1 1.00
     Exponent=  2.1282000000D+00 Coefficients=  1.0000000000D+00
 D 1 1.00
     Exponent=  9.6910000000D-01 Coefficients=  1.0000000000D+00
 D 1 1.00
     Exponent=  9.4700000000D-03 Coefficients=  1.0000000000D+00
 F 1 1.00
     Exponent=  2.7590000000D+00 Coefficients=  1.0000000000D+00
 F 1 1.00
     Exponent=  1.0490000000D+00 Coefficients=  1.0000000000D+00
 F 1 1.00
     Exponent=  3.9890000000D-01 Coefficients=  1.0000000000D+00
 F 1 1.00
     Exponent=  1.1060000000D-01 Coefficients=  1.0000000000D+00
 F 1 1.00
     Exponent=  3.0670000000D-02 Coefficients=  1.0000000000D+00
 G 1 1.00
     Exponent=  2.4852000000D+00 Coefficients=  1.0000000000D+00
 G 1 1.00
     Exponent=  9.0670000000D-01 Coefficients=  1.0000000000D+00
 G 1 1.00
     Exponent=  2.5300000000D-01 Coefficients=  1.0000000000D+00
 G 1 1.00
     Exponent=  7.0600000000D-02 Coefficients=  1.0000000000D+00
 H 1 1.00
     Exponent=  2.0405000000D+00 Coefficients=  1.0000000000D+00
 H 1 1.00
     Exponent=  4.9340000000D-01 Coefficients=  1.0000000000D+00
 H 1 1.00
     Exponent=  1.1931000000D-01 Coefficients=  1.0000000000D+00
 ****
 Centers:       2
 S 1 1.00
     Exponent=  6.1420000000D+04 Coefficients=  1.0000000000D+00
 S 1 1.00
     Exponent=  9.1990000000D+03 Coefficients=  1.0000000000D+00
 S 1 1.00
     Exponent=  2.0910000000D+03 Coefficients=  1.0000000000D+00
 S 1 1.00
     Exponent=  5.9090000000D+02 Coefficients=  1.0000000000D+00
 S 1 1.00
     Exponent=  1.9230000000D+02 Coefficients=  1.0000000000D+00
 S 1 1.00
     Exponent=  6.9320000000D+01 Coefficients=  1.0000000000D+00
 S 1 1.00
     Exponent=  2.6970000000D+01 Coefficients=  1.0000000000D+00
 S 1 1.00
     Exponent=  1.1100000000D+01 Coefficients=  1.0000000000D+00
 S 1 1.00
     Exponent=  4.6820000000D+00 Coefficients=  1.0000000000D+00
 S 1 1.00
     Exponent=  1.4280000000D+00 Coefficients=  1.0000000000D+00
 S 1 1.00
     Exponent=  5.5470000000D-01 Coefficients=  1.0000000000D+00
 S 1 1.00
     Exponent=  2.0670000000D-01 Coefficients=  1.0000000000D+00
 S 1 1.00
     Exponent=  1.2974000000D+01 Coefficients=  1.0000000000D+00
 S 1 1.00
     Exponent=  3.4900000000D+01 Coefficients=  1.0000000000D+00
 S 1 1.00
     Exponent=  9.3881000000D+01 Coefficients=  1.0000000000D+00
 S 1 1.00
     Exponent=  6.9590000000D-02 Coefficients=  1.0000000000D+00
 P 1 1.00
     Exponent=  6.3420000000D+01 Coefficients=  1.0000000000D+00
 P 1 1.00
     Exponent=  1.4660000000D+01 Coefficients=  1.0000000000D+00
 P 1 1.00
     Exponent=  4.4590000000D+00 Coefficients=  1.0000000000D+00
 P 1 1.00
     Exponent=  1.5310000000D+00 Coefficients=  1.0000000000D+00
 P 1 1.00
     Exponent=  5.3020000000D-01 Coefficients=  1.0000000000D+00
 P 1 1.00
     Exponent=  1.7500000000D-01 Coefficients=  1.0000000000D+00
 P 1 1.00
     Exponent=  1.4475000000D+01 Coefficients=  1.0000000000D+00
 P 1 1.00
     Exponent=  4.2730000000D+01 Coefficients=  1.0000000000D+00
 P 1 1.00
     Exponent=  1.2614000000D+02 Coefficients=  1.0000000000D+00
 P 1 1.00
     Exponent=  5.3480000000D-02 Coefficients=  1.0000000000D+00
 D 1 1.00
     Exponent=  3.7750000000D+00 Coefficients=  1.0000000000D+00
 D 1 1.00
     Exponent=  1.3000000000D+00 Coefficients=  1.0000000000D+00
 D 1 1.00
     Exponent=  4.4400000000D-01 Coefficients=  1.0000000000D+00
 D 1 1.00
     Exponent=  1.4927000000D+01 Coefficients=  1.0000000000D+00
 D 1 1.00
     Exponent=  5.7544000000D+01 Coefficients=  1.0000000000D+00
 D 1 1.00
     Exponent=  1.5400000000D-01 Coefficients=  1.0000000000D+00
 F 1 1.00
     Exponent=  2.6660000000D+00 Coefficients=  1.0000000000D+00
 F 1 1.00
     Exponent=  8.5900000000D-01 Coefficients=  1.0000000000D+00
 F 1 1.00
     Exponent=  2.6483000000D+01 Coefficients=  1.0000000000D+00
 F 1 1.00
     Exponent=  3.2400000000D-01 Coefficients=  1.0000000000D+00
 G 1 1.00
     Exponent=  1.8460000000D+00 Coefficients=  1.0000000000D+00
 G 1 1.00
     Exponent=  7.1400000000D-01 Coefficients=  1.0000000000D+00
 ****
 ======================================================================================================
                                       Pseudopotential Parameters
 ======================================================================================================
  Center     Atomic      Valence      Angular      Power
  Number     Number     Electrons     Momentum     of R      Exponent        Coefficient   SO-Coeffient
 ======================================================================================================
    1         21           11
                                      F and up 
                                                     1        8.6843244       11.00000000    0.00000000
                                                     2       12.9608105     1293.12711495    0.00000000
                                                     2        3.4272602      -59.34807006    0.00000000
                                                     2       13.9264987    -6626.33658022    0.00000000
                                                     2       14.1135521     5365.41708240    0.00000000
                                                     3        3.8783422       95.52756785    0.00000000
                                      S - F
                                                     2       14.1143229    -1492.86349923    0.00000000
                                                     2        4.4283560     1499.37242000    0.00000000
                                                     2        7.4604557     1088.20049735    0.00000000
                                                     2       10.2353388    -1981.91696501    0.00000000
                                                     2        4.5248959    -1710.45115474    0.00000000
                                                     2       13.0788594     2625.43810581    0.00000000
                                      P - F
                                                     2        9.8399764    -2070.12504374    0.00000000
                                                     2        7.2507207     5801.02991534    0.00000000
                                                     2       11.8197475     1554.97375552    0.00000000
                                                     2       14.0743327     -853.69420879    0.00000000
                                                     2        7.0846032    -4878.01776292    0.00000000
                                                     2       14.0716643      462.12967346    0.00000000
                                      D - F
                                                     2       11.2984945     -570.27953430    0.00000000
                                                     2        5.7211985     -549.43824610    0.00000000
                                                     2        6.5323409     1672.92599442    0.00000000
                                                     2        8.1143102    -2704.80905453    0.00000000
                                                     2        9.9572828     4666.19773963    0.00000000
                                                     2       10.2402945    -2524.96335631    0.00000000
    2          8            6
                                      P and up 
                                                     1       12.3099700        6.00000000    0.00000000
                                                     3       14.7696200       73.85984000    0.00000000
                                                     2       13.7141900      -47.87600000    0.00000000
                                      S - P
                                                     2       13.6551200       85.86406000    0.00000000
 ======================================================================================================
 Ernie: Thresh=  0.10000D-02 Tol=  0.10000D-05 Strict=F.
 There are   213 symmetry adapted cartesian basis functions of A1  symmetry.
 There are    56 symmetry adapted cartesian basis functions of A2  symmetry.
 There are   114 symmetry adapted cartesian basis functions of B1  symmetry.
 There are   114 symmetry adapted cartesian basis functions of B2  symmetry.
 There are   157 symmetry adapted basis functions of A1  symmetry.
 There are    47 symmetry adapted basis functions of A2  symmetry.
 There are    90 symmetry adapted basis functions of B1  symmetry.
 There are    90 symmetry adapted basis functions of B2  symmetry.
   384 basis functions,   497 primitive gaussians,   497 cartesian basis functions
     9 alpha electrons        8 beta electrons
       nuclear repulsion energy        29.1047466006 Hartrees.
 IExCor=    0 DFT=F Ex=HF Corr=None ExCW=0 ScaHFX=  1.000000
 ScaDFX=  1.000000  1.000000  1.000000  1.000000 ScalE2=  1.000000  1.000000
 IRadAn=      5 IRanWt=     -1 IRanGd=            0 ICorTp=0 IEmpDi=  4
 NAtoms=    2 NActive=    2 NUniq=    2 SFac= 1.00D+00 NAtFMM=   60 NAOKFM=F Big=F
 Integral buffers will be    131072 words long.
 Raffenetti 2 integral format.
 Two-electron integral symmetry is turned on.
 Leave Link  301 at Tue Feb 20 21:15:26 2018, MaxMem= 10737418240 cpu:              10.0 elap:               0.3
 (Enter /home1/apps/gaussian/16rA.03/g16/l302.exe)
 NPDir=0 NMtPBC=     1 NCelOv=     1 NCel=       1 NClECP=     1 NCelD=      1
         NCelK=      1 NCelE2=     1 NClLst=     1 CellRange=     0.0.
 One-electron integrals computed using PRISM.
 One-electron integral symmetry used in STVInt
   4 Symmetry operations used in ECPInt.
 ECPInt:  NShTT=    6105 NPrTT=    6105 LenC2=    5722 LenP2D=    5721.
 LDataN:  DoStor=T MaxTD1=10 Len=  848
 NBasis=   384 RedAO= T EigKep=  1.12D-06  NBF=   157    47    90    90
 NBsUse=   383 1.00D-06 EigRej=  6.86D-09 NBFU=   156    47    90    90
 Leave Link  302 at Tue Feb 20 21:15:29 2018, MaxMem= 10737418240 cpu:              98.1 elap:               3.1
 (Enter /home1/apps/gaussian/16rA.03/g16/l303.exe)
 DipDrv:  MaxL=1.
 Leave Link  303 at Tue Feb 20 21:15:29 2018, MaxMem= 10737418240 cpu:               3.7 elap:               0.2
 (Enter /home1/apps/gaussian/16rA.03/g16/l401.exe)
 Initial guess from the checkpoint file:  "ScO.chk"
 B after Tr=     0.000000    0.000000    0.000000
         Rot=    1.000000    0.000000    0.000000    0.000000 Ang=   0.00 deg.
 Guess basis will be translated and rotated to current coordinates.
 JPrj=2 DoOrth=T DoCkMO=T.
 Initial guess orbital symmetries:
       Occupied  (SG) (SG) (PI) (PI) (SG) (PI) (PI) (SG) (SG)
       Virtual   (PI) (PI) (SG) (SG) (DLTA) (DLTA) (PI) (PI) (SG)
                 (PI) (PI) (SG) (DLTA) (DLTA) (SG) (PI) (PI) (SG)
                 (SG) (PI) (PI) (PHI) (PHI) (DLTA) (DLTA) (PI)
                 (PI) (SG) (DLTA) (DLTA) (SG) (PI) (PI) (PI) (PI)
                 (SG) (SG) (DLTA) (DLTA) (PI) (PI) (?A) (?A) (PHI)
                 (PHI) (SG) (PI) (PI) (DLTA) (DLTA) (SG) (SG) (DLTA)
                 (DLTA) (PHI) (PHI) (PI) (PI) (PI) (PI) (SG) (SG)
                 (PI) (PI) (DLTA) (DLTA) (SG) (PI) (PI) (DLTA)
                 (DLTA) (SG) (SG) (SG) (PI) (PI) (PI) (PI) (PHI)
                 (PHI) (DLTA) (DLTA) (SG) (?A) (?A) (SG) (PI) (PI)
                 (DLTA) (DLTA) (PHI) (PHI) (PI) (PI) (SG) (PHI)
                 (PHI) (DLTA) (DLTA) (SG) (PI) (PI) (DLTA) (DLTA)
                 (SG) (PI) (PI) (DLTA) (DLTA) (SG) (PI) (PI) (SG)
                 (PI) (PI) (SG) (SG) (PI) (PI) (SG) (DLTA) (DLTA)
                 (PI) (PI) (DLTA) (DLTA) (SG) (PHI) (PHI) (PI)
                 (PI) (SG) (PHI) (PHI) (DLTA) (DLTA) (SG) (DLTA)
                 (DLTA) (PI) (PI) (PI) (PI) (?A) (?A) (PHI) (PHI)
                 (SG) (DLTA) (DLTA) (SG) (PI) (PI) (PI) (PI) (SG)
                 (SG) (SG) (DLTA) (DLTA) (PI) (PI) (PI) (PI) (SG)
                 (SG) (SG) (PI) (PI) (SG) (SG) (DLTA) (DLTA) (PI)
                 (PI) (SG) (PI) (PI) (SG) (SG) (DLTA) (DLTA) (PI)
                 (PI) (SG) (PI) (PI) (SG) (SG) (SG) (DLTA) (DLTA)
                 (PI) (PI) (PI) (PI) (SG) (SG) (SG) (PI) (PI) (SG)
                 (PI) (PI) (SG) (SG) (SG) (SG) (DLTA) (DLTA) (PI)
                 (PI) (SG) (PI) (PI) (SG) (PI) (PI) (SG) (SG) (SG)
                 (PI) (PI) (SG) (SG) (PI) (PI) (SG) (SG) (SG) (PI)
                 (PI) (SG) (SG) (SG) (PI) (PI) (SG) (SG) (SG) (SG)
                 (PI) (PI) (SG) (SG) (SG) (SG) (SG) (DLTA) (SG)
                 (SG) (SG) (DLTA) (SG) (SG) (SG) (SG) (DLTA) (SG)
                 (DLTA) (SG) (SG) (SG) (DLTA) (SG) (SG) (DLTA)
                 (?A) (SG) (DLTA) (SG) (SG) (DLTA) (SG) (?A) (SG)
                 (DLTA) (DLTA) (SG) (SG) (DLTA) (SG) (?A) (SG)
                 (DLTA) (DLTA) (?A) (SG) (DLTA) (?A) (SG) (?A)
                 (DLTA) (DLTA) (DLTA) (DLTA) (DLTA) (DLTA) (?A)
                 (DLTA) (DLTA) (?A) (DLTA) (DLTA) (DLTA) (?A) (DLTA)
                 (DLTA) (?A) (DLTA) (?A) (?A) (PI) (PI) (PI) (PI)
                 (PI) (PHI) (PI) (PI) (PI) (PI) (PI) (PHI) (PI)
                 (PI) (PHI) (PI) (PI) (PI) (PHI) (PI) (PHI) (PI)
                 (?B) (PI) (PHI) (PHI) (PI) (?B) (PHI) (PHI) (?B)
                 (PI) (PI) (PI) (PI) (PI) (PHI) (PI) (PI) (PI)
                 (PI) (PI) (PHI) (PI) (PI) (PHI) (PI) (PI) (PI)
                 (PHI) (PI) (PHI) (PI) (?B) (PI) (PHI) (PHI) (PI)
                 (?B) (PHI) (PHI) (?B)
 The electronic state of the initial guess is 2-SG.
 Leave Link  401 at Tue Feb 20 21:15:30 2018, MaxMem= 10737418240 cpu:              24.4 elap:               0.9
 (Enter /home1/apps/gaussian/16rA.03/g16/l502.exe)
 Keep R1 and R2 ints in memory in symmetry-blocked form, NReq=3425113631.
 FoFCou: FMM=F IPFlag=           8 FMFlag=           0 FMFlg1=           0
         NFxFlg=           0 DoJE=F BraDBF=F KetDBF=F FulRan=T
         wScrn=  0.000000 ICntrl=       600 IOpCl=  0 I1Cent=           0 NGrid=           0
         NMat0=    1 NMatS0=  73920 NMatT0=    0 NMatD0=    1 NMtDS0=    0 NMtDT0=    0
 Petite list used in FoFCou.
 Restricted open shell SCF:
 Using DIIS extrapolation, IDIIS=  1040.
 NGot= 10737418240 LenX=  9351085953 LenY=  9350838447
 Requested convergence on RMS density matrix=1.00D-08 within 300 cycles.
 Requested convergence on MAX density matrix=1.00D-06.
 Requested convergence on             energy=1.00D-06.
 No special actions if energy rises.

 Cycle   1  Pass 1  IDiag  1:
 E= -61.5549347287794    
 DIIS: error= 1.73D+00 at cycle   1 NSaved=   1.
 NSaved= 1 IEnMin= 1 EnMin= -61.5549347287794     IErMin= 1 ErrMin= 1.73D+00
 ErrMax= 1.73D+00  0.00D+00 EMaxC= 1.00D-01 BMatC= 7.16D+02 BMatP= 7.16D+02
 IDIUse=3 WtCom= 0.00D+00 WtEn= 1.00D+00
 Coeff-Com:  0.100D+01
 Coeff-En:   0.100D+01
 Coeff:      0.100D+01
 Gap=     0.062 Goal=   None    Shift=    0.000
 GapD=    0.062 DampG=0.500 DampE=0.125 DampFc=0.1250 IDamp=-1.
 Damping current iteration by 1.25D-01
 RMSDP=8.99D-03 MaxDP=1.42D+00              OVMax= 5.80D-03

 Cycle   2  Pass 1  IDiag  1:
 E= -61.5555232009399     Delta-E=       -0.000588472161 Rises=F Damp=T
 DIIS: error= 1.52D+00 at cycle   2 NSaved=   2.
 NSaved= 2 IEnMin= 2 EnMin= -61.5555232009399     IErMin= 2 ErrMin= 1.52D+00
 ErrMax= 1.52D+00  0.00D+00 EMaxC= 1.00D-01 BMatC= 5.48D+02 BMatP= 7.16D+02
 IDIUse=3 WtCom= 0.00D+00 WtEn= 1.00D+00
 Coeff-Com: -0.700D+01 0.800D+01
 Coeff-En:   0.000D+00 0.100D+01
 Coeff:      0.000D+00 0.100D+01
 Gap=     0.061 Goal=   None    Shift=    0.000
 RMSDP=7.89D-03 MaxDP=1.24D+00 DE=-5.88D-04 OVMax= 8.39D-04

 Cycle   3  Pass 1  IDiag  1:
 E= -61.5597323957030     Delta-E=       -0.004209194763 Rises=F Damp=F
 DIIS: error= 3.97D-04 at cycle   3 NSaved=   3.
 NSaved= 3 IEnMin= 3 EnMin= -61.5597323957030     IErMin= 3 ErrMin= 3.97D-04
 ErrMax= 3.97D-04  0.00D+00 EMaxC= 1.00D-01 BMatC= 2.25D-05 BMatP= 5.48D+02
 IDIUse=3 WtCom= 9.96D-01 WtEn= 3.97D-03
 Coeff-Com:  0.561D+01-0.641D+01 0.180D+01
 Coeff-En:   0.000D+00 0.000D+00 0.100D+01
 Coeff:      0.559D+01-0.639D+01 0.180D+01
 Gap=     0.061 Goal=   None    Shift=    0.000
 RMSDP=4.46D-04 MaxDP=9.20D-02 DE=-4.21D-03 OVMax= 6.14D-03

 Cycle   4  Pass 1  IDiag  1:
 E= -61.5597324411704     Delta-E=       -0.000000045467 Rises=F Damp=F
 DIIS: error= 1.16D-04 at cycle   4 NSaved=   4.
 NSaved= 4 IEnMin= 4 EnMin= -61.5597324411704     IErMin= 4 ErrMin= 1.16D-04
 ErrMax= 1.16D-04  0.00D+00 EMaxC= 1.00D-01 BMatC= 2.00D-06 BMatP= 2.25D-05
 IDIUse=3 WtCom= 9.99D-01 WtEn= 1.16D-03
 Coeff-Com:  0.506D+01-0.579D+01 0.803D+00 0.921D+00
 Coeff-En:   0.000D+00 0.000D+00 0.492D+00 0.508D+00
 Coeff:      0.506D+01-0.578D+01 0.802D+00 0.920D+00
 Gap=     0.061 Goal=   None    Shift=    0.000
 RMSDP=1.36D-04 MaxDP=3.43D-02 DE=-4.55D-08 OVMax= 3.36D-03

 Cycle   5  Pass 1  IDiag  1:
 E= -61.5597361523403     Delta-E=       -0.000003711170 Rises=F Damp=F
 DIIS: error= 1.03D-04 at cycle   5 NSaved=   5.
 NSaved= 5 IEnMin= 5 EnMin= -61.5597361523403     IErMin= 5 ErrMin= 1.03D-04
 ErrMax= 1.03D-04  0.00D+00 EMaxC= 1.00D-01 BMatC= 1.07D-06 BMatP= 2.00D-06
 IDIUse=3 WtCom= 9.99D-01 WtEn= 1.03D-03
 Coeff-Com:  0.424D+01-0.484D+01 0.672D+00 0.257D+00 0.676D+00
 Coeff-En:   0.000D+00 0.000D+00 0.000D+00 0.000D+00 0.100D+01
 Coeff:      0.423D+01-0.484D+01 0.671D+00 0.257D+00 0.676D+00
 Gap=     0.061 Goal=   None    Shift=    0.000
 RMSDP=2.43D-05 MaxDP=3.04D-03 DE=-3.71D-06 OVMax= 1.37D-03

 Cycle   6  Pass 1  IDiag  1:
 E= -61.5597365805220     Delta-E=       -0.000000428182 Rises=F Damp=F
 DIIS: error= 8.61D-05 at cycle   6 NSaved=   6.
 NSaved= 6 IEnMin= 6 EnMin= -61.5597365805220     IErMin= 6 ErrMin= 8.61D-05
 ErrMax= 8.61D-05  0.00D+00 EMaxC= 1.00D-01 BMatC= 7.76D-07 BMatP= 1.07D-06
 IDIUse=1 WtCom= 1.00D+00 WtEn= 0.00D+00
 Coeff-Com:  0.336D+01-0.384D+01 0.546D+00-0.720D-01 0.102D+00 0.904D+00
 Coeff:      0.336D+01-0.384D+01 0.546D+00-0.720D-01 0.102D+00 0.904D+00
 Gap=     0.061 Goal=   None    Shift=    0.000
 RMSDP=4.37D-05 MaxDP=1.15D-02 DE=-4.28D-07 OVMax= 7.81D-04

 Cycle   7  Pass 1  IDiag  1:
 E= -61.5597374120589     Delta-E=       -0.000000831537 Rises=F Damp=F
 DIIS: error= 6.84D-05 at cycle   7 NSaved=   7.
 NSaved= 7 IEnMin= 7 EnMin= -61.5597374120589     IErMin= 7 ErrMin= 6.84D-05
 ErrMax= 6.84D-05  0.00D+00 EMaxC= 1.00D-01 BMatC= 4.82D-07 BMatP= 7.76D-07
 IDIUse=1 WtCom= 1.00D+00 WtEn= 0.00D+00
 Coeff-Com:  0.246D+01-0.281D+01 0.404D+00-0.110D+00-0.119D+00 0.188D+00
 Coeff-Com:  0.988D+00
 Coeff:      0.246D+01-0.281D+01 0.404D+00-0.110D+00-0.119D+00 0.188D+00
 Coeff:      0.988D+00
 Gap=     0.061 Goal=   None    Shift=    0.000
 RMSDP=3.56D-05 MaxDP=8.17D-03 DE=-8.32D-07 OVMax= 6.53D-04

 Cycle   8  Pass 1  IDiag  1:
 E= -61.5597380045618     Delta-E=       -0.000000592503 Rises=F Damp=F
 DIIS: error= 5.00D-05 at cycle   8 NSaved=   8.
 NSaved= 8 IEnMin= 8 EnMin= -61.5597380045618     IErMin= 8 ErrMin= 5.00D-05
 ErrMax= 5.00D-05  0.00D+00 EMaxC= 1.00D-01 BMatC= 2.59D-07 BMatP= 4.82D-07
 IDIUse=1 WtCom= 1.00D+00 WtEn= 0.00D+00
 Coeff-Com:  0.157D+01-0.180D+01 0.257D+00-0.239D-01-0.139D-01-0.134D+00
 Coeff-Com: -0.222D+00 0.136D+01
 Coeff:      0.157D+01-0.180D+01 0.257D+00-0.239D-01-0.139D-01-0.134D+00
 Coeff:     -0.222D+00 0.136D+01
 Gap=     0.061 Goal=   None    Shift=    0.000
 RMSDP=4.22D-05 MaxDP=1.08D-02 DE=-5.93D-07 OVMax= 6.42D-04

 Cycle   9  Pass 1  IDiag  1:
 E= -61.5597384127884     Delta-E=       -0.000000408227 Rises=F Damp=F
 DIIS: error= 3.21D-05 at cycle   9 NSaved=   9.
 NSaved= 9 IEnMin= 9 EnMin= -61.5597384127884     IErMin= 9 ErrMin= 3.21D-05
 ErrMax= 3.21D-05  0.00D+00 EMaxC= 1.00D-01 BMatC= 1.06D-07 BMatP= 2.59D-07
 IDIUse=1 WtCom= 1.00D+00 WtEn= 0.00D+00
 Coeff-Com:  0.951D+00-0.109D+01 0.154D+00 0.390D-02 0.321D-01-0.606D-01
 Coeff-Com: -0.450D+00 0.442D+00 0.101D+01
 Coeff:      0.951D+00-0.109D+01 0.154D+00 0.390D-02 0.321D-01-0.606D-01
 Coeff:     -0.450D+00 0.442D+00 0.101D+01
 Gap=     0.061 Goal=   None    Shift=    0.000
 RMSDP=2.56D-05 MaxDP=6.08D-03 DE=-4.08D-07 OVMax= 4.58D-04

 Cycle  10  Pass 1  IDiag  1:
 E= -61.5597385946638     Delta-E=       -0.000000181875 Rises=F Damp=F
 DIIS: error= 1.94D-05 at cycle  10 NSaved=  10.
 NSaved=10 IEnMin=10 EnMin= -61.5597385946638     IErMin=10 ErrMin= 1.94D-05
 ErrMax= 1.94D-05  0.00D+00 EMaxC= 1.00D-01 BMatC= 3.86D-08 BMatP= 1.06D-07
 IDIUse=1 WtCom= 1.00D+00 WtEn= 0.00D+00
 Coeff-Com:  0.340D+00-0.388D+00 0.553D-01-0.693D-02 0.629D-02 0.682D-01
 Coeff-Com:  0.151D-01-0.514D+00-0.379D-01 0.146D+01
 Coeff:      0.340D+00-0.388D+00 0.553D-01-0.693D-02 0.629D-02 0.682D-01
 Coeff:      0.151D-01-0.514D+00-0.379D-01 0.146D+01
 Gap=     0.061 Goal=   None    Shift=    0.000
 RMSDP=2.74D-05 MaxDP=6.94D-03 DE=-1.82D-07 OVMax= 4.41D-04

 Cycle  11  Pass 1  IDiag  1:
 E= -61.5597386847702     Delta-E=       -0.000000090106 Rises=F Damp=F
 DIIS: error= 6.92D-06 at cycle  11 NSaved=  11.
 NSaved=11 IEnMin=11 EnMin= -61.5597386847702     IErMin=11 ErrMin= 6.92D-06
 ErrMax= 6.92D-06  0.00D+00 EMaxC= 1.00D-01 BMatC= 4.93D-09 BMatP= 3.86D-08
 IDIUse=1 WtCom= 1.00D+00 WtEn= 0.00D+00
 Coeff-Com:  0.191D-01-0.218D-01 0.332D-02-0.505D-02-0.846D-02 0.221D-01
 Coeff-Com:  0.876D-01-0.105D+00-0.238D+00-0.135D+00 0.138D+01
 Coeff:      0.191D-01-0.218D-01 0.332D-02-0.505D-02-0.846D-02 0.221D-01
 Coeff:      0.876D-01-0.105D+00-0.238D+00-0.135D+00 0.138D+01
 Gap=     0.061 Goal=   None    Shift=    0.000
 RMSDP=1.41D-05 MaxDP=3.49D-03 DE=-9.01D-08 OVMax= 2.29D-04

 Cycle  12  Pass 1  IDiag  1:
 E= -61.5597386978699     Delta-E=       -0.000000013100 Rises=F Damp=F
 DIIS: error= 3.88D-07 at cycle  12 NSaved=  12.
 NSaved=12 IEnMin=12 EnMin= -61.5597386978699     IErMin=12 ErrMin= 3.88D-07
 ErrMax= 3.88D-07  0.00D+00 EMaxC= 1.00D-01 BMatC= 1.79D-11 BMatP= 4.93D-09
 IDIUse=1 WtCom= 1.00D+00 WtEn= 0.00D+00
 Coeff-Com:  0.624D-01-0.713D-01 0.101D-01 0.638D-04-0.963D-03-0.177D-01
 Coeff-Com: -0.222D-01 0.156D+00 0.634D-01-0.321D+00 0.753D-01 0.107D+01
 Coeff:      0.624D-01-0.713D-01 0.101D-01 0.638D-04-0.963D-03-0.177D-01
 Coeff:     -0.222D-01 0.156D+00 0.634D-01-0.321D+00 0.753D-01 0.107D+01
 Gap=     0.061 Goal=   None    Shift=    0.000
 RMSDP=1.80D-06 MaxDP=4.26D-04 DE=-1.31D-08 OVMax= 3.00D-05

 Cycle  13  Pass 1  IDiag  1:
 E= -61.5597386974860     Delta-E=        0.000000000384 Rises=F Damp=F
 DIIS: error= 1.27D-06 at cycle  13 NSaved=  13.
 NSaved=13 IEnMin=12 EnMin= -61.5597386978699     IErMin=12 ErrMin= 3.88D-07
 ErrMax= 1.27D-06  0.00D+00 EMaxC= 1.00D-01 BMatC= 1.65D-10 BMatP= 1.79D-11
 IDIUse=1 WtCom= 1.00D+00 WtEn= 0.00D+00
 Large coefficients: NSaved= 13 BigCof=    0.00 CofMax=   10.00 Det=-2.05D-13
 Inversion failed.  Reducing to 12 matrices.
 Coeff-Com:  0.650D-10-0.173D-04 0.472D-03 0.798D-03-0.226D-02-0.908D-02
 Coeff-Com:  0.417D-02 0.182D-01-0.126D-01-0.184D+00 0.117D+00 0.107D+01
 Coeff:      0.650D-10-0.173D-04 0.472D-03 0.798D-03-0.226D-02-0.908D-02
 Coeff:      0.417D-02 0.182D-01-0.126D-01-0.184D+00 0.117D+00 0.107D+01
 Gap=     0.061 Goal=   None    Shift=    0.000
 RMSDP=2.73D-06 MaxDP=6.80D-04 DE= 3.84D-10 OVMax= 4.43D-05

 Cycle  14  Pass 1  IDiag  1:
 E= -61.5597386979225     Delta-E=       -0.000000000437 Rises=F Damp=F
 DIIS: error= 3.22D-09 at cycle  14 NSaved=  13.
 NSaved=13 IEnMin=13 EnMin= -61.5597386979225     IErMin=13 ErrMin= 3.22D-09
 ErrMax= 3.22D-09  0.00D+00 EMaxC= 1.00D-01 BMatC= 2.01D-15 BMatP= 1.79D-11
 IDIUse=1 WtCom= 1.00D+00 WtEn= 0.00D+00
 Coeff-Com: -0.300D-10 0.620D-06-0.366D-04 0.497D-04 0.731D-03 0.440D-03
 Coeff-Com: -0.541D-02-0.156D-02 0.170D-01-0.172D-02-0.503D-01-0.552D-01
 Coeff-Com:  0.110D+01
 Coeff:     -0.300D-10 0.620D-06-0.366D-04 0.497D-04 0.731D-03 0.440D-03
 Coeff:     -0.541D-02-0.156D-02 0.170D-01-0.172D-02-0.503D-01-0.552D-01
 Coeff:      0.110D+01
 Gap=     0.061 Goal=   None    Shift=    0.000
 RMSDP=2.37D-09 MaxDP=3.77D-07 DE=-4.37D-10 OVMax= 1.59D-07

 SCF Done:  E(ROHF) =  -61.5597386979     A.U. after   14 cycles
            NFock= 14  Conv=0.24D-08     -V/T= 2.8610
 <Sx>= 0.0000 <Sy>= 0.0000 <Sz>= 0.5000 <S**2>= 0.7500 S= 0.5000
 <L.S>=  0.00000000000    
 KE= 3.307870006593D+01 PE=-1.936767238675D+02 EE= 6.993353850308D+01
 Annihilation of the first spin contaminant:
 S**2 before annihilation     0.7500,   after     0.7500
 Leave Link  502 at Tue Feb 20 21:16:51 2018, MaxMem= 10737418240 cpu:            2180.2 elap:              80.7
 (Enter /home1/apps/gaussian/16rA.03/g16/l801.exe)
 Windowed orbitals will be sorted by symmetry type.
 GenMOA:  NOpAll=  4 NOp2=4 NOpUse=  4 JSym2X=1
 FoFJK:  IHMeth= 1 ICntrl=       0 DoSepK=F KAlg= 0 I1Cent=           0 FoldK=F
 IRaf=         0 NMat=       1 IRICut=       1 DoRegI=T DoRafI=F ISym2E= 1 IDoP0=0 IntGTp=1.
 FoFCou: FMM=F IPFlag=           8 FMFlag=      100000 FMFlg1=           0
         NFxFlg=           0 DoJE=F BraDBF=F KetDBF=F FulRan=T
         wScrn=  0.000000 ICntrl=         0 IOpCl=  1 I1Cent=           0 NGrid=           0
         NMat0=    1 NMatS0=      1 NMatT0=    0 NMatD0=    1 NMtDS0=    0 NMtDT0=    0
 Petite list used in FoFCou.
 <Sx>= 0.0000 <Sy>= 0.0000 <Sz>= 0.5000 <S**2>= 0.7500 S= 0.5000
 Range of M.O.s used for correlation:     1   383
 NBasis=   384 NAE=     9 NBE=     8 NFC=     0 NFV=     0
 NROrb=    383 NOA=     9 NOB=     8 NVA=   374 NVB=   375

 **** Warning!!: The largest alpha MO coefficient is  0.32403577D+03


 **** Warning!!: The largest beta MO coefficient is  0.32403567D+03

 Singles contribution to E2=   -0.1055343137D-03
 Leave Link  801 at Tue Feb 20 21:17:12 2018, MaxMem= 10737418240 cpu:             682.9 elap:              21.4
 (Enter /home1/apps/gaussian/16rA.03/g16/l804.exe)
 Open-shell transformation, MDV= 10737418240 ITran=4 ISComp=2.
 Unit  1 TFree=       4459634 TCopy=       3230129.
 Semi-Direct transformation.
 ModeAB=           4 MOrb=             9 LenV=   10733044628
 LASXX=     63702177 LTotXX=    63702177 LenRXX=   128059521
 LTotAB=    64357344 MaxLAS=   424956501 LenRXY=           0
 NonZer=   191761698 LenScr=   288771072 LnRSAI=   424956501
 LnScr1=   639935488 LExtra=    17918674 Total=   1499641256
 MaxDsk= 67108864000 SrtSym=           T ITran=            4
 DoSDTr:  NPSUse= 32
 JobTyp=1 Pass  1:  I=   1 to   9.
 (rs|ai) integrals will be sorted in core.
 Complete sort for first half transformation.
 First half transformation complete.
 Complete sort for second half transformation.
 Second half transformation complete.
 ModeAB=           4 MOrb=             8 LenV=   10733044628
 LASXX=     56573606 LTotXX=    56573606 LenRXX=   111007430
 LTotAB=    54433824 MaxLAS=   377739112 LenRXY=           0
 NonZer=   167581036 LenScr=   252357632 LnRSAI=   377739112
 LnScr1=   568830976 LExtra=   145978195 Total=   1455913345
 MaxDsk= 67108864000 SrtSym=           T ITran=            4
 DoSDTr:  NPSUse= 32
 JobTyp=2 Pass  1:  I=   1 to   8.
 (rs|ai) integrals will be sorted in core.
 Complete sort for first half transformation.
 First half transformation complete.
 Complete sort for second half transformation.
 Second half transformation complete.
 Spin components of T(2) and E(2):
     alpha-alpha T2 =       0.2260316519D-01 E2=     -0.9415736171D-01
     alpha-beta  T2 =       0.9800539457D-01 E2=     -0.5015633009D+00
     beta-beta   T2 =       0.1910641097D-01 E2=     -0.8649450591D-01
 ANorm=    0.1067620786D+01
 E2 =    -0.6823207028D+00 EUMP2 =    -0.62242059400708D+02
 (S**2,0)=  0.75000D+00           (S**2,1)=  0.75000D+00
 E(PUHF)=      -0.61559738698D+02        E(PMP2)=      -0.62242059401D+02
 Recovering and transforming amplitudes from chk file.
 B after Tr=     0.000000    0.000000    0.000000
         Rot=    1.000000    0.000000    0.000000    0.000000 Ang=   0.00 deg.
 Alpha occ  Sing. vals= 9.999988D-01 9.999966D-01 9.999962D-01 9.999937D-01 9.999937D-01 9.999916D-01 9.999652D-01 9.999565D-01 9.999565D-01
 Alpha occ  NOrbO=     9 NOrbN=     9 NSVal=     9 ThrEig=  0.900000.
 TrMax= 1.000000D+00 PrMax= 1.000000D+00 Trace(Pr)= 9.000000D+00
 B after Tr=     0.000000    0.000000    0.000000
         Rot=    1.000000    0.000000    0.000000    0.000000 Ang=   0.00 deg.
 Alpha virt Sing. vals= 1.000000D+00 1.000000D+00 1.000000D+00 1.000000D+00 1.000000D+00 1.000000D+00 1.000000D+00 1.000000D+00 1.000000D+00 1.000000D+00
 Alpha virt Sing. vals= 1.000000D+00 1.000000D+00 1.000000D+00 1.000000D+00 1.000000D+00 1.000000D+00 1.000000D+00 1.000000D+00 1.000000D+00 1.000000D+00
 Alpha virt Sing. vals= 1.000000D+00 1.000000D+00 1.000000D+00 1.000000D+00 1.000000D+00 1.000000D+00 1.000000D+00 1.000000D+00 1.000000D+00 1.000000D+00
 Alpha virt Sing. vals= 1.000000D+00 1.000000D+00 1.000000D+00 1.000000D+00 9.999999D-01 9.999999D-01 9.999999D-01 9.999999D-01 9.999999D-01 9.999999D-01
 Alpha virt Sing. vals= 9.999999D-01 9.999998D-01 9.999998D-01 9.999997D-01 9.999997D-01 9.999996D-01 9.999995D-01 9.999993D-01 9.999992D-01 9.999992D-01
 Alpha virt Sing. vals= 9.999991D-01 9.999990D-01 9.999990D-01 9.999990D-01 9.999986D-01 9.999979D-01 9.999979D-01 9.999978D-01 9.999972D-01 9.999966D-01
 Alpha virt Sing. vals= 9.999966D-01 9.999950D-01 9.999950D-01 9.999950D-01 9.999948D-01 9.999941D-01 9.999935D-01 9.999935D-01 9.999933D-01 9.999933D-01
 Alpha virt Sing. vals= 9.999922D-01 9.999914D-01 9.999907D-01 9.999907D-01 9.999901D-01 9.999901D-01 9.999900D-01 9.999874D-01 9.999874D-01 9.999867D-01
 Alpha virt Sing. vals= 9.999808D-01 9.999808D-01 9.999808D-01 9.999738D-01 9.999664D-01 9.999649D-01 9.999649D-01 9.999610D-01 9.999544D-01 9.999544D-01
 Alpha virt Sing. vals= 9.999489D-01 9.999280D-01 9.999221D-01 9.998994D-01 9.998994D-01 9.998944D-01 9.998944D-01 9.998723D-01 9.998610D-01 9.998610D-01
 Alpha virt Sing. vals= 9.998225D-01 9.998225D-01 9.998196D-01 9.998178D-01 9.998178D-01 9.998139D-01 9.997536D-01 9.997407D-01 9.997407D-01 9.997407D-01
 Alpha virt Sing. vals= 9.997290D-01 9.997290D-01 9.996049D-01 9.995830D-01 9.995816D-01 9.995816D-01 9.995717D-01 9.995717D-01 9.995549D-01 9.994523D-01
 Alpha virt Sing. vals= 9.994083D-01 9.994083D-01 9.993738D-01 9.993738D-01 9.993601D-01 9.992675D-01 9.992675D-01 9.991652D-01 9.991652D-01 9.990835D-01
 Alpha virt Sing. vals= 9.990835D-01 9.990695D-01 9.990695D-01 9.989946D-01 9.988689D-01 9.988105D-01 9.987885D-01 9.987885D-01 9.987782D-01 9.987782D-01
 Alpha virt Sing. vals= 9.986478D-01 9.986478D-01 9.985507D-01 9.984279D-01 9.984279D-01 9.983103D-01 9.982355D-01 9.982355D-01 9.980948D-01 9.980948D-01
 Alpha virt Sing. vals= 9.980652D-01 9.980652D-01 9.979078D-01 9.977622D-01 9.977622D-01 9.974901D-01 9.972843D-01 9.972512D-01 9.972512D-01 9.968428D-01
 Alpha virt Sing. vals= 9.965029D-01 9.960701D-01 9.954565D-01 9.954565D-01 9.953395D-01 9.953395D-01 9.947382D-01 9.947378D-01 9.947378D-01 9.947004D-01
 Alpha virt Sing. vals= 9.947004D-01 9.946994D-01 9.944449D-01 9.944449D-01 9.944316D-01 9.944316D-01 9.926717D-01 9.926717D-01 9.923570D-01 9.923570D-01
 Alpha virt Sing. vals= 9.919913D-01 9.919913D-01 9.904855D-01 9.904855D-01 9.902409D-01 9.892600D-01 9.892600D-01 9.884838D-01 9.874913D-01 9.874913D-01
 Alpha virt Sing. vals= 9.870100D-01 9.870100D-01 9.863773D-01 9.853931D-01 9.809799D-01 9.809799D-01 9.800824D-01 9.798103D-01 9.798103D-01 9.779901D-01
 Alpha virt Sing. vals= 9.777699D-01 9.777699D-01 9.776430D-01 9.776430D-01 9.771870D-01 9.771870D-01 9.766293D-01 9.766293D-01 9.751027D-01 9.751027D-01
 Alpha virt Sing. vals= 9.745891D-01 9.678869D-01 9.678869D-01 9.662145D-01 9.662145D-01 9.661868D-01 9.467856D-01 9.467856D-01 9.444342D-01 9.444342D-01
 Alpha virt Sing. vals= 9.443353D-01 9.443353D-01 9.430296D-01 9.412868D-01 9.351141D-01 9.351141D-01 9.351037D-01 9.287142D-01 9.211208D-01 9.211208D-01
 Alpha virt Sing. vals= 9.206310D-01 9.206310D-01 9.190012D-01 9.156696D-01 9.136622D-01 9.136622D-01 9.118062D-01 9.118062D-01 8.971487D-01 8.971487D-01
 Alpha virt Sing. vals= 8.963086D-01 8.963086D-01 8.892400D-01 8.892400D-01 8.859785D-01 8.859785D-01 8.709045D-01 5.735960D-01
 Alpha virt NOrbO=   248 NOrbN=   374 NSVal=   238 ThrEig=  0.900000.
 TrMax= 9.987457D-01 PrMax= 9.996564D-01 Trace(Pr)= 2.380000D+02
 B after Tr=     0.000000    0.000000    0.000000
         Rot=    1.000000    0.000000    0.000000    0.000000 Ang=   0.00 deg.
 Beta  occ  Sing. vals= 9.999974D-01 9.999963D-01 9.999937D-01 9.999937D-01 9.999916D-01 9.999654D-01 9.999565D-01 9.999565D-01
 Beta  occ  NOrbO=     8 NOrbN=     8 NSVal=     8 ThrEig=  0.900000.
 TrMax= 1.000000D+00 PrMax= 1.000000D+00 Trace(Pr)= 8.000000D+00
 B after Tr=     0.000000    0.000000    0.000000
         Rot=    1.000000    0.000000    0.000000    0.000000 Ang=   0.00 deg.
 Beta  virt Sing. vals= 1.000000D+00 1.000000D+00 1.000000D+00 1.000000D+00 1.000000D+00 1.000000D+00 1.000000D+00 1.000000D+00 1.000000D+00 1.000000D+00
 Beta  virt Sing. vals= 1.000000D+00 1.000000D+00 1.000000D+00 1.000000D+00 1.000000D+00 1.000000D+00 1.000000D+00 1.000000D+00 1.000000D+00 1.000000D+00
 Beta  virt Sing. vals= 1.000000D+00 1.000000D+00 1.000000D+00 1.000000D+00 1.000000D+00 1.000000D+00 1.000000D+00 1.000000D+00 1.000000D+00 1.000000D+00
 Beta  virt Sing. vals= 1.000000D+00 1.000000D+00 1.000000D+00 1.000000D+00 1.000000D+00 1.000000D+00 9.999999D-01 9.999999D-01 9.999999D-01 9.999999D-01
 Beta  virt Sing. vals= 9.999999D-01 9.999999D-01 9.999999D-01 9.999998D-01 9.999997D-01 9.999997D-01 9.999996D-01 9.999995D-01 9.999993D-01 9.999992D-01
 Beta  virt Sing. vals= 9.999992D-01 9.999991D-01 9.999990D-01 9.999990D-01 9.999990D-01 9.999986D-01 9.999979D-01 9.999979D-01 9.999978D-01 9.999972D-01
 Beta  virt Sing. vals= 9.999966D-01 9.999966D-01 9.999950D-01 9.999950D-01 9.999950D-01 9.999948D-01 9.999941D-01 9.999935D-01 9.999935D-01 9.999933D-01
 Beta  virt Sing. vals= 9.999933D-01 9.999922D-01 9.999914D-01 9.999907D-01 9.999907D-01 9.999901D-01 9.999901D-01 9.999900D-01 9.999874D-01 9.999874D-01
 Beta  virt Sing. vals= 9.999867D-01 9.999808D-01 9.999808D-01 9.999808D-01 9.999738D-01 9.999664D-01 9.999649D-01 9.999649D-01 9.999610D-01 9.999544D-01
 Beta  virt Sing. vals= 9.999544D-01 9.999489D-01 9.999280D-01 9.999221D-01 9.998994D-01 9.998994D-01 9.998944D-01 9.998944D-01 9.998722D-01 9.998610D-01
 Beta  virt Sing. vals= 9.998610D-01 9.998225D-01 9.998225D-01 9.998195D-01 9.998178D-01 9.998178D-01 9.998139D-01 9.997535D-01 9.997407D-01 9.997407D-01
 Beta  virt Sing. vals= 9.997407D-01 9.997290D-01 9.997290D-01 9.996049D-01 9.995830D-01 9.995816D-01 9.995816D-01 9.995717D-01 9.995717D-01 9.995549D-01
 Beta  virt Sing. vals= 9.994523D-01 9.994083D-01 9.994083D-01 9.993738D-01 9.993738D-01 9.993601D-01 9.992675D-01 9.992675D-01 9.991652D-01 9.991652D-01
 Beta  virt Sing. vals= 9.990835D-01 9.990835D-01 9.990695D-01 9.990695D-01 9.989946D-01 9.988689D-01 9.988105D-01 9.987885D-01 9.987885D-01 9.987782D-01
 Beta  virt Sing. vals= 9.987782D-01 9.986478D-01 9.986478D-01 9.985507D-01 9.984279D-01 9.984279D-01 9.983103D-01 9.982355D-01 9.982355D-01 9.980948D-01
 Beta  virt Sing. vals= 9.980948D-01 9.980652D-01 9.980652D-01 9.979078D-01 9.977622D-01 9.977622D-01 9.974901D-01 9.972843D-01 9.972512D-01 9.972512D-01
 Beta  virt Sing. vals= 9.968428D-01 9.965029D-01 9.960701D-01 9.954565D-01 9.954565D-01 9.953395D-01 9.953395D-01 9.947382D-01 9.947378D-01 9.947378D-01
 Beta  virt Sing. vals= 9.947004D-01 9.947004D-01 9.946993D-01 9.944449D-01 9.944449D-01 9.944316D-01 9.944316D-01 9.926717D-01 9.926717D-01 9.923570D-01
 Beta  virt Sing. vals= 9.923570D-01 9.919913D-01 9.919913D-01 9.904855D-01 9.904855D-01 9.902409D-01 9.892600D-01 9.892600D-01 9.884839D-01 9.874913D-01
 Beta  virt Sing. vals= 9.874913D-01 9.870100D-01 9.870100D-01 9.863773D-01 9.853931D-01 9.809799D-01 9.809799D-01 9.800824D-01 9.798103D-01 9.798103D-01
 Beta  virt Sing. vals= 9.779900D-01 9.777699D-01 9.777699D-01 9.776430D-01 9.776430D-01 9.771870D-01 9.771870D-01 9.766293D-01 9.766293D-01 9.751027D-01
 Beta  virt Sing. vals= 9.751027D-01 9.745892D-01 9.678869D-01 9.678869D-01 9.662145D-01 9.662145D-01 9.661867D-01 9.467856D-01 9.467856D-01 9.444342D-01
 Beta  virt Sing. vals= 9.444342D-01 9.443353D-01 9.443353D-01 9.430296D-01 9.412869D-01 9.351141D-01 9.351141D-01 9.351037D-01 9.287142D-01 9.211208D-01
 Beta  virt Sing. vals= 9.211208D-01 9.206310D-01 9.206310D-01 9.190011D-01 9.156696D-01 9.136622D-01 9.136622D-01 9.118062D-01 9.118062D-01 8.971487D-01
 Beta  virt Sing. vals= 8.971487D-01 8.963086D-01 8.963086D-01 8.892400D-01 8.892400D-01 8.859785D-01 8.859785D-01 8.709044D-01 5.735959D-01
 Beta  virt NOrbO=   249 NOrbN=   375 NSVal=   239 ThrEig=  0.900000.
 TrMax= 9.988909D-01 PrMax= 9.994800D-01 Trace(Pr)= 2.390000D+02
 Leave Link  804 at Tue Feb 20 21:28:28 2018, MaxMem= 10737418240 cpu:           21595.6 elap:             675.3
 (Enter /home1/apps/gaussian/16rA.03/g16/l913.exe)
 CIDS:  MDV= 10737418240.
 IFCWin=0 IBDFC=1 NFBD=     0     0 NFCmp=     0     0 NFFFC=     0     0
 Amplitudes recovered.
 Using DD4UQ or CC4UQ for all iterations.
 Keep R2 and R3 ints in memory in symmetry-blocked form, NReq=3425131966.
 FoFCou: FMM=F IPFlag=           8 FMFlag=           0 FMFlg1=           0
         NFxFlg=           0 DoJE=F BraDBF=F KetDBF=F FulRan=T
         wScrn=  0.000000 ICntrl=       600 IOpCl=  0 I1Cent=           0 NGrid=           0
         NMat0=    1 NMatS0=  73920 NMatT0=    0 NMatD0=    1 NMtDS0=    0 NMtDT0=    0
 Petite list used in FoFCou.
 CIDS: In Core Option IDoMem=           1.
 CCSD(T)
 =======
 Iterations= 150 Convergence= 0.100D-06
 Produce multiple copies of IABC intergrals
 Iteration Nr.   1
 **********************
 DD1Dir will call FoFMem   1 times, MxPair=       208
 NAB=    72 NAA=    36 NBB=    28.
 Maximum subspace dimension=  5
 A-vector RMS=  1.1660463D-04 Max=  9.9426071D-04 conv= 1.00D-05.
 RLE energy=       -0.6814970036
 DE(Corr)= -0.68148879     E(Corr)=     -62.241227488    
 NORM(A)=   0.10748080D+01
 Iteration Nr.   2
 **********************
 DD1Dir will call FoFMem   1 times, MxPair=       208
 NAB=    72 NAA=    36 NBB=    28.
 A-vector RMS=  3.8675190D-05 Max=  3.2977849D-04 conv= 1.00D-05.
 RLE energy=       -0.6817217099
 DE(Corr)= -0.68171726     E(CORR)=     -62.241455960     Delta=-2.28D-04
 NORM(A)=   0.10749096D+01
 Iteration Nr.   3
 **********************
 DD1Dir will call FoFMem   1 times, MxPair=       208
 NAB=    72 NAA=    36 NBB=    28.
 A-vector RMS=  1.5776404D-05 Max=  1.8081395D-04 conv= 1.00D-05.
 RLE energy=       -0.6818420150
 DE(Corr)= -0.68183337     E(CORR)=     -62.241572066     Delta=-1.16D-04
 NORM(A)=   0.10749580D+01
 Iteration Nr.   4
 **********************
 DD1Dir will call FoFMem   1 times, MxPair=       208
 NAB=    72 NAA=    36 NBB=    28.
 A-vector RMS=  8.4577993D-06 Max=  7.0204210D-05 conv= 1.00D-05.
 RLE energy=       -0.6818185845
 DE(Corr)= -0.68181144     E(CORR)=     -62.241550139     Delta= 2.19D-05
 NORM(A)=   0.10749752D+01
 Iteration Nr.   5
 **********************
 DD1Dir will call FoFMem   1 times, MxPair=       208
 NAB=    72 NAA=    36 NBB=    28.
 A-vector RMS=  3.7437714D-06 Max=  5.5494486D-05 conv= 1.00D-05.
 RLE energy=       -0.6818252208
 DE(Corr)= -0.68182656     E(CORR)=     -62.241565257     Delta=-1.51D-05
 NORM(A)=   0.10749921D+01
 Iteration Nr.   6
 **********************
 DD1Dir will call FoFMem   1 times, MxPair=       208
 NAB=    72 NAA=    36 NBB=    28.
 A-vector RMS=  1.3055914D-06 Max=  2.2307345D-05 conv= 1.00D-05.
 RLE energy=       -0.6818266225
 DE(Corr)= -0.68182579     E(CORR)=     -62.241564491     Delta= 7.66D-07
 NORM(A)=   0.10749987D+01
 Iteration Nr.   7
 **********************
 DD1Dir will call FoFMem   1 times, MxPair=       208
 NAB=    72 NAA=    36 NBB=    28.
 A-vector RMS=  6.3482829D-07 Max=  1.1523438D-05 conv= 1.00D-05.
 RLE energy=       -0.6818276196
 DE(Corr)= -0.68182747     E(CORR)=     -62.241566170     Delta=-1.68D-06
 NORM(A)=   0.10750013D+01
 Iteration Nr.   8
 **********************
 DD1Dir will call FoFMem   1 times, MxPair=       208
 NAB=    72 NAA=    36 NBB=    28.
 A-vector RMS=  2.4631443D-07 Max=  3.8311168D-06 conv= 1.00D-05.
 RLE energy=       -0.6818277609
 DE(Corr)= -0.68182759     E(CORR)=     -62.241566286     Delta=-1.16D-07
 NORM(A)=   0.10750024D+01
 Iteration Nr.   9
 **********************
 DD1Dir will call FoFMem   1 times, MxPair=       208
 NAB=    72 NAA=    36 NBB=    28.
 A-vector RMS=  1.0079818D-07 Max=  1.7359242D-06 conv= 1.00D-05.
 RLE energy=       -0.6818278584
 DE(Corr)= -0.68182784     E(CORR)=     -62.241566535     Delta=-2.49D-07
 NORM(A)=   0.10750027D+01
 Iteration Nr.  10
 **********************
 DD1Dir will call FoFMem   1 times, MxPair=       208
 NAB=    72 NAA=    36 NBB=    28.
 A-vector RMS=  4.3717793D-08 Max=  8.4779336D-07 conv= 1.00D-05.
 RLE energy=       -0.6818278622
 DE(Corr)= -0.68182785     E(CORR)=     -62.241566547     Delta=-1.24D-08
 NORM(A)=   0.10750028D+01
 CI/CC converged in   10 iterations to DelEn=-1.24D-08 Conv= 1.00D-07 ErrA1= 4.37D-08 Conv= 1.00D-05
 Wavefunction amplitudes converged. E(Corr)=     -62.241566547    
 Largest amplitude= 5.78D-02
 Time for triples=    77105.36 seconds.
 T4(CCSD)= -0.30361306D-01
 T5(CCSD)=  0.16319127D-02
 CCSD(T)= -0.62270295941D+02
 Discarding MO integrals.
 Leave Link  913 at Tue Feb 20 22:16:29 2018, MaxMem= 10737418240 cpu:           92159.5 elap:            2881.5
 (Enter /home1/apps/gaussian/16rA.03/g16/l601.exe)
 Copying SCF densities to generalized density rwf, IOpCl= 0 IROHF=1.

 **********************************************************************

            Population analysis using the SCF density.

 **********************************************************************

 Orbital symmetries:
       Occupied  (SG) (SG) (PI) (PI) (SG) (PI) (PI) (SG) (SG)
       Virtual   (PI) (PI) (SG) (SG) (DLTA) (DLTA) (PI) (PI) (SG)
                 (PI) (PI) (SG) (DLTA) (DLTA) (SG) (PI) (PI) (SG)
                 (PI) (PI) (SG) (PHI) (PHI) (DLTA) (DLTA) (PI)
                 (PI) (DLTA) (DLTA) (SG) (SG) (PI) (PI) (SG) (PI)
                 (PI) (DLTA) (DLTA) (DLTA) (DLTA) (SG) (PI) (PI)
                 (SG) (?A) (?A) (PHI) (PHI) (PI) (PI) (SG) (DLTA)
                 (DLTA) (PHI) (PHI) (SG) (PI) (PI) (PI) (PI) (SG)
                 (DLTA) (DLTA) (PI) (PI) (SG) (PHI) (PHI) (DLTA)
                 (DLTA) (?B) (?B) (PI) (PI) (?A) (?A) (SG) (DLTA)
                 (DLTA) (PI) (PI) (SG) (SG) (SG) (PI) (PI) (SG)
                 (PI) (PI) (DLTA) (DLTA) (PHI) (PHI) (?A) (?A)
                 (PI) (PI) (PHI) (PHI) (DLTA) (DLTA) (SG) (SG)
                 (PI) (PI) (DLTA) (DLTA) (SG) (PI) (PI) (SG) (DLTA)
                 (DLTA) (PHI) (PHI) (SG) (PI) (PI) (SG) (PI) (PI)
                 (DLTA) (DLTA) (SG) (PI) (PI) (?A) (?A) (?B) (?B)
                 (SG) (DLTA) (DLTA) (PI) (PI) (DLTA) (DLTA) (PHI)
                 (PHI) (PI) (PI) (SG) (SG) (DLTA) (DLTA) (PI) (PI)
                 (PHI) (PHI) (SG) (?A) (?A) (PHI) (PHI) (PI) (PI)
                 (SG) (DLTA) (DLTA) (PHI) (PHI) (?A) (?A) (SG)
                 (PI) (PI) (DLTA) (DLTA) (PI) (PI) (SG) (DLTA)
                 (DLTA) (PHI) (PHI) (SG) (PI) (PI) (DLTA) (DLTA)
                 (PI) (PI) (SG) (SG) (PI) (PI) (SG) (DLTA) (DLTA)
                 (SG) (PI) (PI) (SG) (PI) (PI) (PHI) (PHI) (SG)
                 (PI) (PI) (DLTA) (DLTA) (DLTA) (DLTA) (SG) (PHI)
                 (PHI) (DLTA) (DLTA) (?A) (?A) (PI) (PI) (SG) (PI)
                 (PI) (SG) (PI) (PI) (?B) (?B) (?A) (?A) (PHI)
                 (PHI) (?A) (?A) (PI) (PI) (PHI) (PHI) (SG) (SG)
                 (DLTA) (DLTA) (PHI) (PHI) (DLTA) (DLTA) (DLTA)
                 (DLTA) (SG) (PI) (PI) (DLTA) (DLTA) (PI) (PI)
                 (SG) (SG) (PI) (PI) (SG) (SG) (DLTA) (DLTA) (PI)
                 (PI) (SG) (PI) (PI) (SG) (SG) (PI) (PI) (SG) (PI)
                 (PI) (SG) (DLTA) (DLTA) (PI) (PI) (SG) (SG) (SG)
                 (DLTA) (DLTA) (PI) (PI) (SG) (PI) (PI) (SG) (SG)
                 (PI) (PI) (SG) (DLTA) (DLTA) (PI) (PI) (SG) (SG)
                 (PI) (PI) (SG) (PHI) (PHI) (DLTA) (DLTA) (PI)
                 (PI) (SG) (SG) (SG) (PI) (PI) (SG) (PI) (PI) (SG)
                 (DLTA) (DLTA) (PI) (PI) (SG) (DLTA) (DLTA) (PI)
                 (PI) (SG) (SG) (SG) (PI) (PI) (SG) (PI) (PI) (SG)
                 (SG) (SG) (SG) (DLTA) (DLTA) (PI) (PI) (SG) (PI)
                 (PI) (SG) (PI) (PI) (SG) (SG) (SG) (PI) (PI) (SG)
                 (SG) (SG) (PI) (PI) (SG) (SG) (SG) (PI) (PI) (SG)
                 (SG) (PI) (PI) (SG) (SG) (SG) (PI) (PI) (SG) (SG)
                 (SG) (SG) (SG) (SG) (SG)
 The electronic state is 2-SG.
 Alpha  occ. eigenvalues --   -2.61824  -1.82402  -1.52428  -1.52428  -1.04474
 Alpha  occ. eigenvalues --   -0.63900  -0.63900  -0.47766  -0.17838
 Alpha virt. eigenvalues --    0.00987   0.00987   0.01642   0.02540   0.02824
 Alpha virt. eigenvalues --    0.02824   0.02859   0.02859   0.02885   0.04340
 Alpha virt. eigenvalues --    0.04340   0.06510   0.08144   0.08144   0.08381
 Alpha virt. eigenvalues --    0.08716   0.08716   0.11265   0.11370   0.11370
 Alpha virt. eigenvalues --    0.11476   0.12754   0.12754   0.12883   0.12883
 Alpha virt. eigenvalues --    0.15015   0.15015   0.16541   0.16541   0.17968
 Alpha virt. eigenvalues --    0.20006   0.22139   0.22139   0.27287   0.27322
 Alpha virt. eigenvalues --    0.27322   0.30781   0.30781   0.33368   0.33477
 Alpha virt. eigenvalues --    0.33477   0.33770   0.33770   0.34407   0.36192
 Alpha virt. eigenvalues --    0.36192   0.36587   0.36587   0.38219   0.38219
 Alpha virt. eigenvalues --    0.41778   0.44179   0.44179   0.45600   0.45600
 Alpha virt. eigenvalues --    0.47023   0.50368   0.50368   0.53956   0.53956
 Alpha virt. eigenvalues --    0.58070   0.66405   0.66405   0.66579   0.66579
 Alpha virt. eigenvalues --    0.72541   0.72663   0.72663   0.72996   0.72996
 Alpha virt. eigenvalues --    0.73526   0.73526   0.73688   0.73688   0.74070
 Alpha virt. eigenvalues --    0.74070   0.77794   0.78106   0.78106   0.79258
 Alpha virt. eigenvalues --    0.79258   0.80244   0.85060   1.12910   1.15647
 Alpha virt. eigenvalues --    1.15647   1.19503   1.24373   1.24373   1.25558
 Alpha virt. eigenvalues --    1.25558   1.28253   1.28253   1.29098   1.29098
 Alpha virt. eigenvalues --    1.40012   1.40012   1.40718   1.40718   1.46482
 Alpha virt. eigenvalues --    1.46482   1.47804   1.53986   1.55539   1.55539
 Alpha virt. eigenvalues --    1.56236   1.56236   1.65117   1.65474   1.65474
 Alpha virt. eigenvalues --    1.69720   1.77363   1.77363   1.83338   1.83338
 Alpha virt. eigenvalues --    2.20632   2.26099   2.26099   2.33404   2.39182
 Alpha virt. eigenvalues --    2.39182   2.39648   2.39648   2.64132   2.89519
 Alpha virt. eigenvalues --    2.89519   2.94906   2.94906   2.96053   2.96053
 Alpha virt. eigenvalues --    3.03926   3.07191   3.07191   3.12552   3.12552
 Alpha virt. eigenvalues --    3.13312   3.13312   3.14689   3.14689   3.17198
 Alpha virt. eigenvalues --    3.17198   3.29480   3.33493   3.72851   3.72851
 Alpha virt. eigenvalues --    3.76710   3.76710   3.78609   3.78609   3.81216
 Alpha virt. eigenvalues --    3.87868   3.87868   3.93766   3.93766   4.11353
 Alpha virt. eigenvalues --    4.11353   4.23257   4.26560   4.26560   4.29048
 Alpha virt. eigenvalues --    4.29048   4.32121   4.32121   4.38958   4.40489
 Alpha virt. eigenvalues --    4.40489   4.70404   4.70404   4.72262   4.72262
 Alpha virt. eigenvalues --    4.80202   4.90235   4.90235   5.20452   5.20452
 Alpha virt. eigenvalues --    5.52548   5.84737   5.84737   5.88713   5.88713
 Alpha virt. eigenvalues --    5.95185   5.95185   6.02362   6.07636   6.31704
 Alpha virt. eigenvalues --    6.31704   6.32038   6.35941   6.35941   6.62487
 Alpha virt. eigenvalues --    7.07930   7.07930   7.53587   9.95643   9.95643
 Alpha virt. eigenvalues --    9.96371   9.96371  10.17717  10.22067  10.22067
 Alpha virt. eigenvalues --   10.25726  10.25726  10.34507  10.34507  10.44105
 Alpha virt. eigenvalues --   10.53977  10.53977  10.55861  10.55861  10.62877
 Alpha virt. eigenvalues --   10.62877  10.67135  10.67135  10.87426  10.97589
 Alpha virt. eigenvalues --   10.97589  11.06614  11.49376  11.49376  11.53698
 Alpha virt. eigenvalues --   11.53698  11.55402  11.55402  11.85158  11.85158
 Alpha virt. eigenvalues --   11.88836  11.88836  11.89003  11.89003  11.90794
 Alpha virt. eigenvalues --   11.90794  12.00661  12.07212  12.10830  12.10830
 Alpha virt. eigenvalues --   12.17367  12.17367  12.50162  12.50162  12.85617
 Alpha virt. eigenvalues --   12.85617  12.94249  13.18858  13.18858  13.40989
 Alpha virt. eigenvalues --   13.40989  13.52478  13.52478  13.88714  13.96223
 Alpha virt. eigenvalues --   16.06313  16.06313  16.41704  16.93955  18.54190
 Alpha virt. eigenvalues --   18.54190  18.72931  18.72931  18.94755  19.21232
 Alpha virt. eigenvalues --   19.21232  20.33914  23.29495  28.58937  28.58937
 Alpha virt. eigenvalues --   30.63864  32.34235  32.34235  32.69323  33.39048
 Alpha virt. eigenvalues --   33.39048  33.52891  33.52891  33.88903  35.42793
 Alpha virt. eigenvalues --   41.54743  46.80499  46.80499  47.69968  47.69968
 Alpha virt. eigenvalues --   48.72507  54.47359  54.47359  54.87287  68.35966
 Alpha virt. eigenvalues --   69.97276  69.97276  71.80195  71.83091  71.83091
 Alpha virt. eigenvalues --   71.94265  71.94265  72.27933  76.63067  94.13800
 Alpha virt. eigenvalues --   94.13800  94.51071 102.90799 102.90799 102.93457
 Alpha virt. eigenvalues --  102.93457 102.99914 102.99914 103.22038 121.87991
 Alpha virt. eigenvalues --  145.46478 154.71642 154.71642 156.24200 169.41398
 Alpha virt. eigenvalues --  169.41398 169.76474 192.15330 192.15330 192.23765
 Alpha virt. eigenvalues --  192.23765 192.43684 206.73562 206.73562 207.21841
 Alpha virt. eigenvalues --  207.21841 207.81331 210.35660 285.62170 319.06240
 Alpha virt. eigenvalues --  319.06240 319.39474 324.91984 324.91984 326.29857
 Alpha virt. eigenvalues --  358.37389 576.96274 612.51088 628.03473 628.03473
 Alpha virt. eigenvalues --  628.08935 628.08935 628.19742 630.15182 630.15182
 Alpha virt. eigenvalues --  630.48492 691.14945 691.14945 692.434341090.40632
 Alpha virt. eigenvalues -- 1195.670971312.537931312.537931312.819752262.72790
 Alpha virt. eigenvalues -- 2550.368692921.261372921.261372921.513175636.06464
 Alpha virt. eigenvalues -- 6141.372147127.273957127.273957127.49222**********
 Alpha virt. eigenvalues -- **************************************************
 Alpha virt. eigenvalues -- **************************************************
 Alpha virt. eigenvalues -- ****************************************
     Molecular Orbital Coefficients:
                           4         5         6         7         8
                           O         O         O         O         O
     Eigenvalues --    -1.52428  -1.04474  -0.63900  -0.63900  -0.47766
   1 1   Sc 1S          0.00000   0.00000   0.00000   0.00000   0.00000
   2        2S          0.00000  -0.00000   0.00000   0.00000  -0.00000
   3        3S          0.00000   0.00000   0.00000   0.00000   0.00000
   4        4S          0.00000  -0.00000   0.00000   0.00000  -0.00000
   5        5S          0.00000   0.00000   0.00000   0.00000   0.00000
   6        6S          0.00000  -0.00000   0.00000   0.00000  -0.00000
   7        7S          0.00000   0.00000   0.00000   0.00000   0.00000
   8        8S          0.00000  -0.00001   0.00000   0.00000  -0.00001
   9        9S          0.00000   0.00004   0.00000   0.00000   0.00003
  10       10S          0.00000  -0.00010   0.00000   0.00000  -0.00009
  11       11S          0.00000   0.00026   0.00000   0.00000   0.00024
  12       12S          0.00000  -0.00057   0.00000   0.00000  -0.00054
  13       13S          0.00000   0.00090   0.00000   0.00000   0.00089
  14       14S          0.00000   0.00182   0.00000   0.00000   0.00130
  15       15S          0.00000  -0.03584   0.00000   0.00000  -0.03178
  16       16S          0.00000   0.23341   0.00000   0.00000   0.22304
  17       17S          0.00000  -0.01775   0.00000   0.00000  -0.01582
  18       18S          0.00000  -0.14158   0.00000   0.00000  -0.11857
  19       19S          0.00000  -0.06614   0.00000   0.00000  -0.15296
  20       20S          0.00000  -0.04026   0.00000   0.00000  -0.13870
  21       21S          0.00000  -0.02986   0.00000   0.00000  -0.03683
  22       22S          0.00000   0.00152   0.00000   0.00000   0.00595
  23       23S          0.00000  -0.16699   0.00000   0.00000  -0.16792
  24       24S          0.00000   0.01813   0.00000   0.00000   0.01748
  25       25S          0.00000  -0.00046   0.00000   0.00000  -0.00041
  26       26PX        -0.00000   0.00000   0.00000  -0.00000   0.00000
  27       26PY         0.00000   0.00000  -0.00000   0.00000   0.00000
  28       26PZ         0.00000   0.00000   0.00000   0.00000   0.00000
  29       27PX         0.00000   0.00000   0.00000   0.00000   0.00000
  30       27PY         0.00000   0.00000   0.00000   0.00000   0.00000
  31       27PZ         0.00000  -0.00000   0.00000   0.00000  -0.00000
  32       28PX        -0.00000   0.00000   0.00000  -0.00000   0.00000
  33       28PY         0.00000   0.00000  -0.00000   0.00000   0.00000
  34       28PZ         0.00000   0.00000   0.00000   0.00000   0.00000
  35       29PX         0.00001   0.00000   0.00000   0.00000   0.00000
  36       29PY         0.00000   0.00000   0.00000   0.00000   0.00000
  37       29PZ         0.00000  -0.00001   0.00000   0.00000  -0.00000
  38       30PX        -0.00004   0.00000   0.00000  -0.00002   0.00000
  39       30PY         0.00000   0.00000  -0.00002   0.00000   0.00000
  40       30PZ         0.00000   0.00002   0.00000   0.00000   0.00001
  41       31PX         0.00013   0.00000   0.00000   0.00005   0.00000
  42       31PY         0.00000   0.00000   0.00005   0.00000   0.00000
  43       31PZ         0.00000  -0.00007   0.00000   0.00000  -0.00004
  44       32PX        -0.00035   0.00000   0.00000  -0.00015   0.00000
  45       32PY         0.00000   0.00000  -0.00015   0.00000   0.00000
  46       32PZ         0.00000   0.00020   0.00000   0.00000   0.00011
  47       33PX         0.00070   0.00000   0.00000   0.00035   0.00000
  48       33PY         0.00000   0.00000   0.00035   0.00000   0.00000
  49       33PZ         0.00000  -0.00042   0.00000   0.00000  -0.00023
  50       34PX         0.00131   0.00000   0.00000  -0.00010   0.00000
  51       34PY         0.00000   0.00000  -0.00010   0.00000   0.00000
  52       34PZ         0.00000  -0.00056   0.00000   0.00000  -0.00042
  53       35PX        -0.03750   0.00000   0.00000  -0.00922   0.00000
  54       35PY         0.00000   0.00000  -0.00922   0.00000   0.00000
  55       35PZ         0.00000   0.01987   0.00000   0.00000   0.01314
  56       36PX         0.54678   0.00000   0.00000   0.14501   0.00000
  57       36PY         0.00000   0.00000   0.14501   0.00000   0.00000
  58       36PZ         0.00000  -0.30313   0.00000   0.00000  -0.20941
  59       37PX        -0.07855   0.00000   0.00000  -0.03314   0.00000
  60       37PY         0.00000   0.00000  -0.03314   0.00000   0.00000
  61       37PZ         0.00000   0.04037   0.00000   0.00000   0.02506
  62       38PX        -0.50892   0.00000   0.00000  -0.14023   0.00000
  63       38PY         0.00000   0.00000  -0.14023   0.00000   0.00000
  64       38PZ         0.00000   0.30561   0.00000   0.00000   0.21964
  65       39PX        -0.41260   0.00000   0.00000  -0.13058   0.00000
  66       39PY         0.00000   0.00000  -0.13058   0.00000   0.00000
  67       39PZ         0.00000   0.24006   0.00000   0.00000   0.21491
  68       40PX        -0.15231   0.00000   0.00000  -0.10392   0.00000
  69       40PY         0.00000   0.00000  -0.10392   0.00000   0.00000
  70       40PZ         0.00000   0.10300   0.00000   0.00000   0.10929
  71       41PX        -0.00581   0.00000   0.00000  -0.10686   0.00000
  72       41PY         0.00000   0.00000  -0.10686   0.00000   0.00000
  73       41PZ         0.00000   0.05519   0.00000   0.00000   0.12404
  74       42PX         0.00841   0.00000   0.00000  -0.01183   0.00000
  75       42PY         0.00000   0.00000  -0.01183   0.00000   0.00000
  76       42PZ         0.00000   0.01749   0.00000   0.00000   0.02201
  77       43PX         0.00015   0.00000   0.00000  -0.01101   0.00000
  78       43PY         0.00000   0.00000  -0.01101   0.00000   0.00000
  79       43PZ         0.00000   0.00059   0.00000   0.00000  -0.00872
  80       44PX        -0.48434   0.00000   0.00000  -0.12527   0.00000
  81       44PY         0.00000   0.00000  -0.12527   0.00000   0.00000
  82       44PZ         0.00000   0.27250   0.00000   0.00000   0.19332
  83       45PX         0.11743   0.00000   0.00000   0.02226   0.00000
  84       45PY         0.00000   0.00000   0.02226   0.00000   0.00000
  85       45PZ         0.00000  -0.09156   0.00000   0.00000  -0.10003
  86       46PX         0.00003   0.00000   0.00000   0.00265   0.00000
  87       46PY         0.00000   0.00000   0.00265   0.00000   0.00000
  88       46PZ         0.00000  -0.00021   0.00000   0.00000   0.00163
  89       47D 0        0.00000   0.00000   0.00000   0.00000   0.00001
  90       47D+1        0.00000   0.00000   0.00000  -0.00000   0.00000
  91       47D-1        0.00000   0.00000  -0.00000   0.00000   0.00000
  92       47D+2        0.00000  -0.00000   0.00000   0.00000  -0.00000
  93       47D-2        0.00000   0.00000   0.00000   0.00000   0.00000
  94       48D 0        0.00000   0.00001   0.00000   0.00000   0.00001
  95       48D+1       -0.00000   0.00000   0.00000  -0.00001   0.00000
  96       48D-1        0.00000   0.00000  -0.00001   0.00000   0.00000
  97       48D+2        0.00000   0.00000   0.00000   0.00000   0.00000
  98       48D-2        0.00000   0.00000   0.00000   0.00000   0.00000
  99       49D 0        0.00000  -0.00046   0.00000   0.00000  -0.00241
 100       49D+1       -0.00022   0.00000   0.00000   0.00106   0.00000
 101       49D-1        0.00000   0.00000   0.00106   0.00000   0.00000
 102       49D+2        0.00000  -0.00000   0.00000   0.00000  -0.00000
 103       49D-2        0.00000   0.00000   0.00000   0.00000   0.00000
 104       50D 0        0.00000   0.01166   0.00000   0.00000   0.06464
 105       50D+1        0.00582   0.00000   0.00000  -0.02689   0.00000
 106       50D-1        0.00000   0.00000  -0.02689   0.00000   0.00000
 107       50D+2        0.00000  -0.00000   0.00000   0.00000  -0.00000
 108       50D-2        0.00000   0.00000   0.00000   0.00000   0.00000
 109       51D 0        0.00000   0.01300   0.00000   0.00000   0.07448
 110       51D+1        0.00758   0.00000   0.00000  -0.03117   0.00000
 111       51D-1        0.00000   0.00000  -0.03117   0.00000   0.00000
 112       51D+2        0.00000  -0.00000   0.00000   0.00000  -0.00000
 113       51D-2        0.00000   0.00000   0.00000   0.00000   0.00000
 114       52D 0        0.00000   0.01825   0.00000   0.00000   0.13151
 115       52D+1        0.01668   0.00000   0.00000  -0.05549   0.00000
 116       52D-1        0.00000   0.00000  -0.05549   0.00000   0.00000
 117       52D+2        0.00000  -0.00000   0.00000   0.00000  -0.00000
 118       52D-2        0.00000   0.00000   0.00000   0.00000   0.00000
 119       53D 0        0.00000   0.03597   0.00000   0.00000   0.19398
 120       53D+1        0.01348   0.00000   0.00000  -0.08196   0.00000
 121       53D-1        0.00000   0.00000  -0.08196   0.00000   0.00000
 122       53D+2        0.00000  -0.00000   0.00000   0.00000  -0.00000
 123       53D-2        0.00000   0.00000   0.00000   0.00000   0.00000
 124       54D 0        0.00000   0.03610   0.00000   0.00000   0.19416
 125       54D+1       -0.00059   0.00000   0.00000  -0.07023   0.00000
 126       54D-1        0.00000   0.00000  -0.07023   0.00000   0.00000
 127       54D+2        0.00000   0.00000   0.00000   0.00000  -0.00000
 128       54D-2        0.00000   0.00000   0.00000   0.00000   0.00000
 129       55D 0        0.00000  -0.01094   0.00000   0.00000   0.05563
 130       55D+1       -0.00710   0.00000   0.00000   0.02679   0.00000
 131       55D-1        0.00000   0.00000   0.02679   0.00000   0.00000
 132       55D+2        0.00000  -0.00000   0.00000   0.00000  -0.00000
 133       55D-2        0.00000   0.00000   0.00000   0.00000   0.00000
 134       56D 0        0.00000  -0.00507   0.00000   0.00000   0.01251
 135       56D+1       -0.00368   0.00000   0.00000   0.00357   0.00000
 136       56D-1        0.00000   0.00000   0.00357   0.00000   0.00000
 137       56D+2        0.00000  -0.00000   0.00000   0.00000  -0.00000
 138       56D-2        0.00000   0.00000   0.00000   0.00000   0.00000
 139       57D 0        0.00000  -0.00015   0.00000   0.00000   0.00334
 140       57D+1       -0.00057   0.00000   0.00000   0.00541   0.00000
 141       57D-1        0.00000   0.00000   0.00541   0.00000   0.00000
 142       57D+2        0.00000   0.00000   0.00000   0.00000   0.00000
 143       57D-2        0.00000   0.00000   0.00000   0.00000   0.00000
 144       58D 0        0.00000   0.01006   0.00000   0.00000   0.05272
 145       58D+1        0.00324   0.00000   0.00000  -0.01916   0.00000
 146       58D-1        0.00000   0.00000  -0.01916   0.00000   0.00000
 147       58D+2        0.00000   0.00000   0.00000   0.00000   0.00000
 148       58D-2        0.00000   0.00000   0.00000   0.00000   0.00000
 149       59D 0        0.00000   0.01170   0.00000   0.00000   0.04898
 150       59D+1        0.00731   0.00000   0.00000  -0.02413   0.00000
 151       59D-1        0.00000   0.00000  -0.02413   0.00000   0.00000
 152       59D+2        0.00000   0.00000   0.00000   0.00000   0.00000
 153       59D-2        0.00000   0.00000   0.00000   0.00000   0.00000
 154       60D 0        0.00000   0.00005   0.00000   0.00000  -0.00065
 155       60D+1        0.00012   0.00000   0.00000  -0.00137   0.00000
 156       60D-1        0.00000   0.00000  -0.00137   0.00000   0.00000
 157       60D+2        0.00000  -0.00000   0.00000   0.00000  -0.00000
 158       60D-2        0.00000   0.00000   0.00000   0.00000   0.00000
 159       61F 0        0.00000  -0.00072   0.00000   0.00000  -0.00964
 160       61F+1        0.00011   0.00000   0.00000   0.00660   0.00000
 161       61F-1        0.00000   0.00000   0.00660   0.00000   0.00000
 162       61F+2        0.00000   0.00000   0.00000   0.00000   0.00000
 163       61F-2        0.00000   0.00000   0.00000   0.00000   0.00000
 164       61F+3        0.00000   0.00000   0.00000   0.00000   0.00000
 165       61F-3        0.00000   0.00000   0.00000   0.00000   0.00000
 166       62F 0        0.00000  -0.00387   0.00000   0.00000  -0.02634
 167       62F+1       -0.00113   0.00000   0.00000   0.02214   0.00000
 168       62F-1        0.00000   0.00000   0.02214   0.00000   0.00000
 169       62F+2        0.00000   0.00000   0.00000   0.00000   0.00000
 170       62F-2        0.00000   0.00000   0.00000   0.00000   0.00000
 171       62F+3        0.00000   0.00000   0.00000   0.00000   0.00000
 172       62F-3        0.00000   0.00000   0.00000   0.00000   0.00000
 173       63F 0        0.00000  -0.00397   0.00000   0.00000  -0.02450
 174       63F+1        0.00481   0.00000   0.00000   0.01837   0.00000
 175       63F-1        0.00000   0.00000   0.01837   0.00000   0.00000
 176       63F+2        0.00000  -0.00000   0.00000   0.00000   0.00000
 177       63F-2        0.00000   0.00000   0.00000   0.00000   0.00000
 178       63F+3       -0.00000   0.00000   0.00000   0.00000   0.00000
 179       63F-3        0.00000   0.00000   0.00000   0.00000   0.00000
 180       64F 0        0.00000   0.00524   0.00000   0.00000  -0.00692
 181       64F+1        0.00331   0.00000   0.00000  -0.00906   0.00000
 182       64F-1        0.00000   0.00000  -0.00906   0.00000   0.00000
 183       64F+2        0.00000   0.00000   0.00000   0.00000   0.00000
 184       64F-2        0.00000   0.00000   0.00000   0.00000   0.00000
 185       64F+3        0.00000   0.00000   0.00000  -0.00000   0.00000
 186       64F-3        0.00000   0.00000  -0.00000   0.00000   0.00000
 187       65F 0        0.00000   0.00041   0.00000   0.00000  -0.00172
 188       65F+1        0.00056   0.00000   0.00000  -0.00153   0.00000
 189       65F-1        0.00000   0.00000  -0.00153   0.00000   0.00000
 190       65F+2        0.00000  -0.00000   0.00000   0.00000  -0.00000
 191       65F-2        0.00000   0.00000   0.00000   0.00000   0.00000
 192       65F+3       -0.00000   0.00000   0.00000   0.00000   0.00000
 193       65F-3        0.00000   0.00000   0.00000   0.00000   0.00000
 194       66G 0        0.00000  -0.00015   0.00000   0.00000   0.00210
 195       66G+1        0.00093   0.00000   0.00000  -0.00199   0.00000
 196       66G-1        0.00000   0.00000  -0.00199   0.00000   0.00000
 197       66G+2        0.00000   0.00000   0.00000   0.00000   0.00000
 198       66G-2        0.00000   0.00000   0.00000   0.00000   0.00000
 199       66G+3       -0.00000   0.00000   0.00000   0.00000   0.00000
 200       66G-3        0.00000   0.00000   0.00000   0.00000   0.00000
 201       66G+4        0.00000   0.00000   0.00000   0.00000   0.00000
 202       66G-4        0.00000   0.00000   0.00000   0.00000   0.00000
 203       67G 0        0.00000  -0.00024   0.00000   0.00000   0.00416
 204       67G+1        0.00206   0.00000   0.00000  -0.00613   0.00000
 205       67G-1        0.00000   0.00000  -0.00613   0.00000   0.00000
 206       67G+2        0.00000   0.00000   0.00000   0.00000   0.00000
 207       67G-2        0.00000   0.00000   0.00000   0.00000   0.00000
 208       67G+3       -0.00000   0.00000   0.00000   0.00000   0.00000
 209       67G-3        0.00000   0.00000   0.00000   0.00000   0.00000
 210       67G+4        0.00000  -0.00000   0.00000   0.00000  -0.00000
 211       67G-4        0.00000   0.00000   0.00000   0.00000   0.00000
 212       68G 0        0.00000  -0.00052   0.00000   0.00000  -0.00079
 213       68G+1       -0.00048   0.00000   0.00000  -0.00211   0.00000
 214       68G-1        0.00000   0.00000  -0.00211   0.00000   0.00000
 215       68G+2        0.00000  -0.00000   0.00000   0.00000  -0.00000
 216       68G-2        0.00000   0.00000   0.00000   0.00000   0.00000
 217       68G+3        0.00000   0.00000   0.00000   0.00000   0.00000
 218       68G-3        0.00000   0.00000   0.00000   0.00000   0.00000
 219       68G+4        0.00000   0.00000   0.00000   0.00000   0.00000
 220       68G-4        0.00000   0.00000   0.00000   0.00000   0.00000
 221       69G 0        0.00000  -0.00068   0.00000   0.00000   0.00184
 222       69G+1       -0.00052   0.00000   0.00000   0.00109   0.00000
 223       69G-1        0.00000   0.00000   0.00109   0.00000   0.00000
 224       69G+2        0.00000  -0.00000   0.00000   0.00000  -0.00000
 225       69G-2        0.00000   0.00000   0.00000   0.00000   0.00000
 226       69G+3        0.00000   0.00000   0.00000  -0.00000   0.00000
 227       69G-3        0.00000   0.00000   0.00000   0.00000   0.00000
 228       69G+4        0.00000   0.00000   0.00000   0.00000   0.00000
 229       69G-4        0.00000   0.00000   0.00000   0.00000   0.00000
 230       70H 0        0.00000  -0.00017   0.00000   0.00000  -0.00138
 231       70H+1       -0.00056   0.00000   0.00000   0.00155   0.00000
 232       70H-1        0.00000   0.00000   0.00155   0.00000   0.00000
 233       70H+2        0.00000  -0.00000   0.00000   0.00000  -0.00000
 234       70H-2        0.00000   0.00000   0.00000   0.00000   0.00000
 235       70H+3        0.00000   0.00000   0.00000   0.00000   0.00000
 236       70H-3        0.00000   0.00000  -0.00000   0.00000   0.00000
 237       70H+4        0.00000   0.00000   0.00000   0.00000   0.00000
 238       70H-4        0.00000   0.00000   0.00000   0.00000   0.00000
 239       70H+5        0.00000   0.00000   0.00000  -0.00000   0.00000
 240       70H-5        0.00000   0.00000  -0.00000   0.00000   0.00000
 241       71H 0        0.00000  -0.00022   0.00000   0.00000  -0.00106
 242       71H+1       -0.00092   0.00000   0.00000   0.00188   0.00000
 243       71H-1        0.00000   0.00000   0.00188   0.00000   0.00000
 244       71H+2        0.00000   0.00000   0.00000   0.00000   0.00000
 245       71H-2        0.00000   0.00000   0.00000   0.00000   0.00000
 246       71H+3        0.00000   0.00000   0.00000   0.00000   0.00000
 247       71H-3        0.00000   0.00000   0.00000   0.00000   0.00000
[...]
 164       61F+3        0.00000   0.00000   0.00000   0.00000
 165       61F-3        0.00000   0.00000   0.00000   0.00000
 166       62F 0        0.01319   0.00660   0.00660  -0.00000
 167       62F+1        0.00980   0.00490   0.00490  -0.00000
 168       62F-1        0.00980   0.00490   0.00490  -0.00000
 169       62F+2        0.00000   0.00000  -0.00000   0.00000
 170       62F-2        0.00000   0.00000  -0.00000   0.00000
 171       62F+3       -0.00000  -0.00000  -0.00000  -0.00000
 172       62F-3       -0.00000  -0.00000  -0.00000   0.00000
 173       63F 0        0.00661   0.00324   0.00337  -0.00013
 174       63F+1        0.01530   0.00765   0.00765  -0.00000
 175       63F-1        0.01530   0.00765   0.00765  -0.00000
 176       63F+2       -0.00000  -0.00000  -0.00000   0.00000
 177       63F-2       -0.00000   0.00000  -0.00000   0.00000
 178       63F+3        0.00000  -0.00000   0.00000  -0.00000
 179       63F-3       -0.00000  -0.00000  -0.00000   0.00000
 180       64F 0       -0.00398  -0.00204  -0.00194  -0.00010
 181       64F+1       -0.00470  -0.00235  -0.00235   0.00000
 182       64F-1       -0.00470  -0.00235  -0.00235   0.00000
 183       64F+2        0.00000   0.00000   0.00000  -0.00000
 184       64F-2        0.00000   0.00000   0.00000  -0.00000
 185       64F+3       -0.00000  -0.00000  -0.00000  -0.00000
 186       64F-3       -0.00000  -0.00000  -0.00000  -0.00000
 187       65F 0       -0.00015  -0.00008  -0.00007  -0.00000
 188       65F+1       -0.00014  -0.00007  -0.00007   0.00000
 189       65F-1       -0.00014  -0.00007  -0.00007   0.00000
 190       65F+2        0.00000   0.00000   0.00000   0.00000
 191       65F-2        0.00000   0.00000   0.00000   0.00000
 192       65F+3       -0.00000  -0.00000  -0.00000  -0.00000
 193       65F-3       -0.00000  -0.00000  -0.00000   0.00000
 194       66G 0        0.00027   0.00014   0.00014   0.00000
 195       66G+1        0.00017   0.00008   0.00008  -0.00000
 196       66G-1        0.00017   0.00008   0.00008  -0.00000
 197       66G+2       -0.00000  -0.00000  -0.00000  -0.00000
 198       66G-2        0.00000   0.00000   0.00000   0.00000
 199       66G+3       -0.00000  -0.00000  -0.00000   0.00000
 200       66G-3        0.00000   0.00000   0.00000   0.00000
 201       66G+4       -0.00000  -0.00000   0.00000  -0.00000
 202       66G-4       -0.00000  -0.00000   0.00000  -0.00000
 203       67G 0        0.00155   0.00078   0.00078  -0.00000
 204       67G+1        0.00281   0.00140   0.00140  -0.00000
 205       67G-1        0.00281   0.00140   0.00140  -0.00000
 206       67G+2        0.00000  -0.00000   0.00000  -0.00000
 207       67G-2        0.00000   0.00000  -0.00000   0.00000
 208       67G+3        0.00000   0.00000   0.00000   0.00000
 209       67G-3       -0.00000  -0.00000   0.00000  -0.00000
 210       67G+4        0.00000   0.00000   0.00000  -0.00000
 211       67G-4        0.00000   0.00000   0.00000  -0.00000
 212       68G 0        0.00007   0.00002   0.00004  -0.00002
 213       68G+1        0.00119   0.00060   0.00060  -0.00000
 214       68G-1        0.00119   0.00060   0.00060  -0.00000
 215       68G+2        0.00000   0.00000   0.00000  -0.00000
 216       68G-2        0.00000   0.00000   0.00000  -0.00000
 217       68G+3        0.00000   0.00000   0.00000   0.00000
 218       68G-3       -0.00000  -0.00000  -0.00000  -0.00000
 219       68G+4        0.00000   0.00000   0.00000  -0.00000
 220       68G-4        0.00000   0.00000   0.00000   0.00000
 221       69G 0       -0.00026  -0.00013  -0.00013   0.00001
 222       69G+1       -0.00015  -0.00008  -0.00008   0.00000
 223       69G-1       -0.00015  -0.00008  -0.00008   0.00000
 224       69G+2       -0.00000  -0.00000  -0.00000  -0.00000
 225       69G-2       -0.00000  -0.00000  -0.00000  -0.00000
 226       69G+3       -0.00000  -0.00000  -0.00000   0.00000
 227       69G-3        0.00000   0.00000   0.00000  -0.00000
 228       69G+4        0.00000   0.00000   0.00000   0.00000
 229       69G-4        0.00000   0.00000   0.00000   0.00000
 230       70H 0        0.00015   0.00008   0.00008  -0.00000
 231       70H+1        0.00015   0.00008   0.00008  -0.00000
 232       70H-1        0.00015   0.00008   0.00008  -0.00000
 233       70H+2        0.00000   0.00000  -0.00000   0.00000
 234       70H-2       -0.00000   0.00000  -0.00000   0.00000
 235       70H+3        0.00000   0.00000   0.00000   0.00000
 236       70H-3        0.00000  -0.00000   0.00000  -0.00000
 237       70H+4        0.00000   0.00000   0.00000  -0.00000
 238       70H-4       -0.00000  -0.00000  -0.00000   0.00000
 239       70H+5       -0.00000  -0.00000  -0.00000  -0.00000
 240       70H-5       -0.00000  -0.00000  -0.00000  -0.00000
 241       71H 0       -0.00003  -0.00001  -0.00002   0.00000
 242       71H+1        0.00107   0.00054   0.00054  -0.00000
 243       71H-1        0.00107   0.00054   0.00054  -0.00000
 244       71H+2        0.00000   0.00000   0.00000  -0.00000
 245       71H-2        0.00000   0.00000   0.00000  -0.00000
 246       71H+3        0.00000   0.00000   0.00000   0.00000
 247       71H-3       -0.00000  -0.00000  -0.00000  -0.00000
 248       71H+4        0.00000   0.00000  -0.00000   0.00000
 249       71H-4       -0.00000   0.00000  -0.00000   0.00000
 250       71H+5        0.00000   0.00000   0.00000   0.00000
 251       71H-5        0.00000   0.00000   0.00000   0.00000
 252       72H 0       -0.00006  -0.00003  -0.00003  -0.00001
 253       72H+1        0.00015   0.00008   0.00008  -0.00000
 254       72H-1        0.00015   0.00008   0.00008  -0.00000
 255       72H+2       -0.00000  -0.00000  -0.00000   0.00000
 256       72H-2       -0.00000  -0.00000  -0.00000   0.00000
 257       72H+3       -0.00000  -0.00000  -0.00000   0.00000
 258       72H-3       -0.00000  -0.00000  -0.00000   0.00000
 259       72H+4        0.00000   0.00000   0.00000   0.00000
 260       72H-4        0.00000   0.00000   0.00000   0.00000
 261       72H+5       -0.00000  -0.00000  -0.00000   0.00000
 262       72H-5       -0.00000  -0.00000  -0.00000  -0.00000
 263 2   O  1S         -0.00000  -0.00000  -0.00000  -0.00000
 264        2S          0.00000   0.00000   0.00000   0.00000
 265        3S         -0.00000  -0.00000  -0.00000  -0.00000
 266        4S          0.00000   0.00000   0.00000   0.00000
 267        5S         -0.00000  -0.00000  -0.00000  -0.00000
 268        6S         -0.00005  -0.00002  -0.00002  -0.00000
 269        7S         -0.00027  -0.00014  -0.00013  -0.00000
 270        8S         -0.09423  -0.04721  -0.04702  -0.00019
 271        9S         -0.08234  -0.04124  -0.04110  -0.00013
 272       10S          0.44024   0.22047   0.21977   0.00070
 273       11S          1.06423   0.53270   0.53153   0.00117
 274       12S          0.59969   0.29456   0.30513  -0.01057
 275       13S          0.05631   0.02822   0.02809   0.00012
 276       14S          0.00017   0.00009   0.00009   0.00000
 277       15S          0.00002   0.00001   0.00001   0.00000
 278       16S          0.06831   0.01801   0.05030  -0.03229
 279       17PX        -0.00020  -0.00010  -0.00010   0.00000
 280       17PY        -0.00020  -0.00010  -0.00010   0.00000
 281       17PZ        -0.00019  -0.00010  -0.00010  -0.00000
 282       18PX        -0.14228  -0.07114  -0.07114   0.00000
 283       18PY        -0.14228  -0.07114  -0.07114   0.00000
 284       18PZ        -0.13667  -0.06879  -0.06788  -0.00092
 285       19PX         0.14672   0.07336   0.07336  -0.00000
 286       19PY         0.14672   0.07336   0.07336  -0.00000
 287       19PZ         0.13138   0.06614   0.06523   0.00091
 288       20PX         0.51052   0.25526   0.25526  -0.00000
 289       20PY         0.51052   0.25526   0.25526  -0.00000
 290       20PZ         0.46623   0.23461   0.23163   0.00298
 291       21PX         0.71644   0.35822   0.35822  -0.00000
 292       21PY         0.71644   0.35822   0.35822  -0.00000
 293       21PZ         0.45967   0.23163   0.22804   0.00359
 294       22PX         0.37505   0.18753   0.18753  -0.00000
 295       22PY         0.37505   0.18753   0.18753  -0.00000
 296       22PZ         0.08749   0.04463   0.04286   0.00177
 297       23PX         0.16160   0.08080   0.08080  -0.00000
 298       23PY         0.16160   0.08080   0.08080  -0.00000
 299       23PZ         0.15425   0.07764   0.07660   0.00104
 300       24PX         0.00074   0.00037   0.00037  -0.00000
 301       24PY         0.00074   0.00037   0.00037  -0.00000
 302       24PZ         0.00070   0.00035   0.00035   0.00000
 303       25PX         0.00001   0.00001   0.00001  -0.00000
 304       25PY         0.00001   0.00001   0.00001  -0.00000
 305       25PZ         0.00001   0.00001   0.00001   0.00000
 306       26PX         0.02402   0.01201   0.01201  -0.00000
 307       26PY         0.02402   0.01201   0.01201  -0.00000
 308       26PZ         0.01042   0.00320   0.00722  -0.00401
 309       27D 0        0.00119   0.00060   0.00059   0.00001
 310       27D+1        0.00038   0.00019   0.00019  -0.00000
 311       27D-1        0.00038   0.00019   0.00019  -0.00000
 312       27D+2        0.00000   0.00000   0.00000  -0.00000
 313       27D-2       -0.00000  -0.00000   0.00000  -0.00000
 314       28D 0        0.01412   0.00712   0.00700   0.00012
 315       28D+1        0.00669   0.00334   0.00334  -0.00000
 316       28D-1        0.00669   0.00334   0.00334  -0.00000
 317       28D+2        0.00000   0.00000  -0.00000   0.00000
 318       28D-2       -0.00000   0.00000  -0.00000   0.00000
 319       29D 0        0.00307   0.00174   0.00133   0.00041
 320       29D+1        0.01160   0.00580   0.00580  -0.00000
 321       29D-1        0.01160   0.00580   0.00580  -0.00000
 322       29D+2       -0.00000  -0.00000  -0.00000   0.00000
 323       29D-2       -0.00000  -0.00000  -0.00000   0.00000
 324       30D 0        0.00002   0.00001   0.00001   0.00000
 325       30D+1        0.00001   0.00000   0.00000  -0.00000
 326       30D-1        0.00001   0.00000   0.00000  -0.00000
 327       30D+2        0.00000   0.00000  -0.00000   0.00000
 328       30D-2        0.00000   0.00000  -0.00000   0.00000
 329       31D 0       -0.00000  -0.00000  -0.00000  -0.00000
 330       31D+1       -0.00000  -0.00000  -0.00000   0.00000
 331       31D-1       -0.00000  -0.00000  -0.00000   0.00000
 332       31D+2       -0.00000  -0.00000  -0.00000   0.00000
 333       31D-2       -0.00000  -0.00000  -0.00000   0.00000
 334       32D 0       -0.00078  -0.00008  -0.00070   0.00062
 335       32D+1       -0.00708  -0.00354  -0.00354   0.00000
 336       32D-1       -0.00708  -0.00354  -0.00354   0.00000
 337       32D+2       -0.00000  -0.00000  -0.00000  -0.00000
 338       32D-2       -0.00000  -0.00000  -0.00000  -0.00000
 339       33F 0        0.00071   0.00036   0.00036   0.00000
 340       33F+1        0.00029   0.00014   0.00014  -0.00000
 341       33F-1        0.00029   0.00014   0.00014  -0.00000
 342       33F+2        0.00000   0.00000   0.00000   0.00000
 343       33F-2       -0.00000  -0.00000  -0.00000   0.00000
 344       33F+3        0.00000   0.00000   0.00000   0.00000
 345       33F-3       -0.00000  -0.00000  -0.00000  -0.00000
 346       34F 0        0.00225   0.00111   0.00114  -0.00003
 347       34F+1        0.00261   0.00130   0.00130  -0.00000
 348       34F-1        0.00261   0.00130   0.00130  -0.00000
 349       34F+2        0.00000   0.00000  -0.00000   0.00000
 350       34F-2       -0.00000   0.00000  -0.00000   0.00000
 351       34F+3       -0.00000   0.00000  -0.00000   0.00000
 352       34F-3        0.00000   0.00000  -0.00000   0.00000
 353       35F 0        0.00000   0.00000   0.00000   0.00000
 354       35F+1        0.00000   0.00000   0.00000  -0.00000
 355       35F-1        0.00000   0.00000   0.00000  -0.00000
 356       35F+2       -0.00000  -0.00000  -0.00000  -0.00000
 357       35F-2       -0.00000  -0.00000   0.00000  -0.00000
 358       35F+3        0.00000   0.00000  -0.00000   0.00000
 359       35F-3       -0.00000  -0.00000   0.00000  -0.00000
 360       36F 0       -0.00318  -0.00172  -0.00146  -0.00026
 361       36F+1       -0.00083  -0.00042  -0.00042   0.00000
 362       36F-1       -0.00083  -0.00042  -0.00042   0.00000
 363       36F+2        0.00000   0.00000  -0.00000   0.00000
 364       36F-2       -0.00000  -0.00000  -0.00000   0.00000
 365       36F+3       -0.00000  -0.00000  -0.00000  -0.00000
 366       36F-3       -0.00000  -0.00000   0.00000  -0.00000
 367       37G 0        0.00041   0.00020   0.00020   0.00000
 368       37G+1        0.00023   0.00012   0.00012   0.00000
 369       37G-1        0.00023   0.00012   0.00012  -0.00000
 370       37G+2        0.00000   0.00000   0.00000   0.00000
 371       37G-2        0.00000   0.00000   0.00000   0.00000
 372       37G+3       -0.00000  -0.00000  -0.00000   0.00000
 373       37G-3       -0.00000  -0.00000  -0.00000   0.00000
 374       37G+4       -0.00000  -0.00000  -0.00000   0.00000
 375       37G-4       -0.00000  -0.00000  -0.00000  -0.00000
 376       38G 0       -0.00037  -0.00020  -0.00017  -0.00003
 377       38G+1        0.00028   0.00014   0.00014  -0.00000
 378       38G-1        0.00028   0.00014   0.00014  -0.00000
 379       38G+2       -0.00000  -0.00000  -0.00000   0.00000
 380       38G-2       -0.00000  -0.00000  -0.00000   0.00000
 381       38G+3        0.00000   0.00000  -0.00000   0.00000
 382       38G-3       -0.00000  -0.00000  -0.00000  -0.00000
 383       38G+4        0.00000   0.00000   0.00000  -0.00000
 384       38G-4        0.00000   0.00000   0.00000  -0.00000
          Condensed to atoms (all electrons):
               1          2
     1  Sc  10.799302  -0.655671
     2  O   -0.655671   7.512040
          Atomic-Atomic Spin Densities.
               1          2
     1  Sc   1.123447  -0.088449
     2  O   -0.088449   0.053451
 Mulliken charges and spin densities:
               1          2
     1  Sc   0.856369   1.034998
     2  O   -0.856369  -0.034998
 Sum of Mulliken charges =  -0.00000   1.00000
 Mulliken charges and spin densities with hydrogens summed into heavy atoms:
               1          2
     1  Sc   0.856369   1.034998
     2  O   -0.856369  -0.034998
 Electronic spatial extent (au):  <R**2>=             77.1362
 Charge=             -0.0000 electrons
 Dipole moment (field-independent basis, Debye):
    X=              0.0000    Y=              0.0000    Z=             -1.2376  Tot=              1.2376
 Quadrupole moment (field-independent basis, Debye-Ang):
   XX=            -23.5740   YY=            -23.5740   ZZ=            -29.0515
   XY=              0.0000   XZ=              0.0000   YZ=              0.0000
 Traceless Quadrupole moment (field-independent basis, Debye-Ang):
   XX=              1.8258   YY=              1.8258   ZZ=             -3.6516
   XY=              0.0000   XZ=              0.0000   YZ=              0.0000
 Octapole moment (field-independent basis, Debye-Ang**2):
  XXX=              0.0000  YYY=              0.0000  ZZZ=            -25.6915  XYY=              0.0000
  XXY=              0.0000  XXZ=             -8.3425  XZZ=              0.0000  YZZ=              0.0000
  YYZ=             -8.3425  XYZ=              0.0000
 Hexadecapole moment (field-independent basis, Debye-Ang**3):
 XXXX=            -78.2813 YYYY=            -78.2813 ZZZZ=           -145.6178 XXXY=              0.0000
 XXXZ=              0.0000 YYYX=              0.0000 YYYZ=              0.0000 ZZZX=              0.0000
 ZZZY=              0.0000 XXYY=            -26.0938 XXZZ=            -37.3153 YYZZ=            -37.3153
 XXYZ=              0.0000 YYXZ=              0.0000 ZZXY=              0.0000
 N-N= 2.910474660060D+01 E-N=-1.936767238580D+02  KE= 3.307870006593D+01
 Symmetry A1   KE= 1.523659194708D+01
 Symmetry A2   KE=-5.135466062626D-50
 Symmetry B1   KE= 8.921054059330D+00
 Symmetry B2   KE= 8.921054060068D+00
 Symmetry A1   SP= 1.000000000000D+00
 Symmetry A2   SP=-9.524544877506D-51
 Symmetry B1   SP=-1.044916963350D-15
 Symmetry B2   SP=-8.464096803168D-16
 Orbital energies and kinetic energies (alpha):
                                 1                 2
   4         O                -1.524279          1.987530
   5         O                -1.044737          1.582033
   6         O                -0.639004          2.472997
   7         O                -0.639004          2.472997
   8         O                -0.477656          3.112284
   9         O                -0.178384          0.208845
  10         V                 0.009873          0.039272
  11         V                 0.009873          0.039272
  12         V                 0.016419          0.026734
  13         V                 0.025405          0.037853
  14         V                 0.028243          0.030227
 Total kinetic energy from orbitals= 3.328754537238D+01
                          Isotropic Fermi Contact Couplings
        Atom                 a.u.       MegaHertz       Gauss      10(-4) cm-1
     1  Sc(45)             0.00103       1.11793       0.39891       0.37290
     2  O(17)              0.00005      -0.02875      -0.01026      -0.00959
 --------------------------------------------------------
       Center         ----  Spin Dipole Couplings  ----
                      3XX-RR        3YY-RR        3ZZ-RR
 --------------------------------------------------------
     1   Atom       -0.005655     -0.005655      0.011310
     2   Atom       -0.020250     -0.020250      0.040501
 --------------------------------------------------------
                        XY            XZ            YZ
 --------------------------------------------------------
     1   Atom        0.000000      0.000000      0.000000
     2   Atom        0.000000      0.000000      0.000000
 --------------------------------------------------------


 ---------------------------------------------------------------------------------
              Anisotropic Spin Dipole Couplings in Principal Axis System
 ---------------------------------------------------------------------------------

       Atom             a.u.   MegaHertz   Gauss  10(-4) cm-1        Axes

              Baa    -0.0057    -0.734    -0.262    -0.245 -0.0000  1.0000  0.0000
     1 Sc(45) Bbb    -0.0057    -0.734    -0.262    -0.245  1.0000  0.0000  0.0000
              Bcc     0.0113     1.468     0.524     0.490  0.0000  0.0000  1.0000
 
              Baa    -0.0203     1.465     0.523     0.489  1.0000  0.0000  0.0000
     2 O(17)  Bbb    -0.0203     1.465     0.523     0.489 -0.0000  1.0000  0.0000
              Bcc     0.0405    -2.931    -1.046    -0.978  0.0000  0.0000  1.0000
 

 ---------------------------------------------------------------------------------

 No NMR shielding tensors so no spin-rotation constants.
 Leave Link  601 at Tue Feb 20 22:16:37 2018, MaxMem= 10737418240 cpu:             226.8 elap:               7.4
 (Enter /home1/apps/gaussian/16rA.03/g16/l9999.exe)
 1\1\GINC-C426-042\SP\ROCCSD(T)-Full\Gen\O1Sc1(2)\AANNABE\20-Feb-2018\0
 \\#P ROCCSD(T)=(maxcyc=150, Full, SaveAmplitudes, ReadAmplitudes)/Gen 
 5d 7f SCF=(maxcycles=300) Integral(NoXCTest) MaxDisk=500GB Pop=Regular
  Pseudo=Read Guess=Read\\ScO\\0,2\Sc,0,0.,0.,0.\O,0,0.,0.,1.2\\Version
 =ES64L-G16RevA.03\State=2-SG\HF=-61.5597387\MP2=-62.2420594\PUHF=-61.5
 597387\PMP2-0=-62.2420594\CCSD=-62.2415665\CCSD(T)=-62.2702959\RMSD=2.
 368e-09\PG=C*V [C*(O1Sc1)]\\@


 ONE OF THE BENEFITS OF A COLLEGE EDUCATION
 IS TO SHOW THE BOY ITS LITTLE AVAIL 
                                    EMERSON IN 'CULTURE'
 Job cpu time:       1 days  8 hours 29 minutes 59.5 seconds.
 Elapsed time:       0 days  1 hours  1 minutes 11.4 seconds.
 File lengths (MBytes):  RWF=  11446 Int=      0 D2E=      0 Chk=     61 Scr=      1
 Normal termination of Gaussian 16 at Tue Feb 20 22:16:38 2018.
