 Entering Gaussian System, Link 0=g16
 Initial command:
 /home1/apps/gaussian/16rA.03/g16/l1.exe "/tmp/Gau-201385.inp" -scrdir="/tmp/"
 Entering Link 1 = /home1/apps/gaussian/16rA.03/g16/l1.exe PID=    201386.
  
 Copyright (c) 1988,1990,1992,1993,1995,1998,2003,2009,2016,
            Gaussian, Inc.  All Rights Reserved.
  
 This is part of the Gaussian(R) 16 program.  It is based on
 the Gaussian(R) 09 system (copyright 2009, Gaussian, Inc.),
 the Gaussian(R) 03 system (copyright 2003, Gaussian, Inc.),
 the Gaussian(R) 98 system (copyright 1998, Gaussian, Inc.),
 the Gaussian(R) 94 system (copyright 1995, Gaussian, Inc.),
 the Gaussian 92(TM) system (copyright 1992, Gaussian, Inc.),
 the Gaussian 90(TM) system (copyright 1990, Gaussian, Inc.),
 the Gaussian 88(TM) system (copyright 1988, Gaussian, Inc.),
 the Gaussian 86(TM) system (copyright 1986, Carnegie Mellon
 University), and the Gaussian 82(TM) system (copyright 1983,
 Carnegie Mellon University). Gaussian is a federally registered
 trademark of Gaussian, Inc.
  
 This software contains proprietary and confidential information,
 including trade secrets, belonging to Gaussian, Inc.
  
 This software is provided under written license and may be
 used, copied, transmitted, or stored only in accord with that
 written license.
  
 The following legend is applicable only to US Government
 contracts under FAR:
  
                    RESTRICTED RIGHTS LEGEND
  
 Use, reproduction and disclosure by the US Government is
 subject to restrictions as set forth in subparagraphs (a)
 and (c) of the Commercial Computer Software - Restricted
 Rights clause in FAR 52.227-19.
  
 Gaussian, Inc.
 340 Quinnipiac St., Bldg. 40, Wallingford CT 06492
  
  
 ---------------------------------------------------------------
 Warning -- This program may not be used in any manner that
 competes with the business of Gaussian, Inc. or will provide
 assistance to any competitor of Gaussian, Inc.  The licensee
 of this program is prohibited from giving any competitor of
 Gaussian, Inc. access to this program.  By using this program,
 the user acknowledges that Gaussian, Inc. is engaged in the
 business of creating and licensing software in the field of
 computational chemistry and represents and warrants to the
 licensee that it is not a competitor of Gaussian, Inc. and that
 it will not use this program in any manner prohibited above.
 ---------------------------------------------------------------
  

 Cite this work as:
 Gaussian 16, Revision A.03,
 M. J. Frisch, G. W. Trucks, H. B. Schlegel, G. E. Scuseria, 
 M. A. Robb, J. R. Cheeseman, G. Scalmani, V. Barone, 
 G. A. Petersson, H. Nakatsuji, X. Li, M. Caricato, A. V. Marenich, 
 J. Bloino, B. G. Janesko, R. Gomperts, B. Mennucci, H. P. Hratchian, 
 J. V. Ortiz, A. F. Izmaylov, J. L. Sonnenberg, D. Williams-Young, 
 F. Ding, F. Lipparini, F. Egidi, J. Goings, B. Peng, A. Petrone, 
 T. Henderson, D. Ranasinghe, V. G. Zakrzewski, J. Gao, N. Rega, 
 G. Zheng, W. Liang, M. Hada, M. Ehara, K. Toyota, R. Fukuda, 
 J. Hasegawa, M. Ishida, T. Nakajima, Y. Honda, O. Kitao, H. Nakai, 
 T. Vreven, K. Throssell, J. A. Montgomery, Jr., J. E. Peralta, 
 F. Ogliaro, M. J. Bearpark, J. J. Heyd, E. N. Brothers, K. N. Kudin, 
 V. N. Staroverov, T. A. Keith, R. Kobayashi, J. Normand, 
 K. Raghavachari, A. P. Rendell, J. C. Burant, S. S. Iyengar, 
 J. Tomasi, M. Cossi, J. M. Millam, M. Klene, C. Adamo, R. Cammi, 
 J. W. Ochterski, R. L. Martin, K. Morokuma, O. Farkas, 
 J. B. Foresman, and D. J. Fox, Gaussian, Inc., Wallingford CT, 2016.
 
 ******************************************
 Gaussian 16:  ES64L-G16RevA.03 25-Dec-2016
                28-Apr-2018 
 ******************************************
 %mem=80GB
 %cpu=0-31
 SetSPE:  set environment variable "MP_BIND" = "yes"
 SetSPE:  set environment variable "MP_BLIST" = "0,1,2,3,4,5,6,7,8,9,10,11,12,13,14,15,16,17,18,19,20,21,22,23,24,25,26,27,28,29,30,31"
 Will use up to   32 processors via shared memory.
 %chk=5z.chk
 %rwf=/scratch/04843/gwang18/znh/
 ----------------------------------------------------------------------
 #P ROCCSD(T)=(MaxCyc=150, Full)/Gen SCF=(maxcycle=400, vshift=200) Pse
 udo=Read Integral(NoXCTest) Pop=Regular MaxDisk=500GB Guess=Read IOp(5
 /15=2)
 ----------------------------------------------------------------------
 1/38=1,172=1/1;
 2/12=2,17=6,18=5,40=1/2;
 3/5=7,11=2,16=1,17=8,25=1,30=1,47=8,116=101/1,2,3;
 4/5=1/1;
 5/5=2,7=400,10=200,15=2,38=6/2;
 8/5=-1,6=4,9=120000,10=90/1,4;
 9/5=7,6=150,14=2/13;
 6//1;
 99/5=1,9=1/99;
 Leave Link    1 at Sat Apr 28 21:40:58 2018, MaxMem= 10737418240 cpu:               8.4 elap:               0.3
 (Enter /home1/apps/gaussian/16rA.03/g16/l101.exe)
 ---
 ZnH
 ---
 Symbolic Z-matrix:
 Charge =  0 Multiplicity = 2
 Zn                    0.        0.        0. 
 H                     0.        0.        1.2 
 
 ITRead=  0  0
 MicOpt= -1 -1
 NAtoms=      2 NQM=        2 NQMF=       0 NMMI=      0 NMMIF=      0
                NMic=       0 NMicF=      0.
                    Isotopes and Nuclear Properties:
 (Nuclear quadrupole moments (NQMom) in fm**2, nuclear magnetic moments (NMagM)
  in nuclear magnetons)

  Atom         1           2
 IAtWgt=          64           1
 AtmWgt=  63.9291454   1.0078250
 NucSpn=           0           1
 AtZEff=  -0.0000000  -0.0000000
 NQMom=    0.0000000   0.0000000
 NMagM=    0.0000000   2.7928460
 AtZNuc=  30.0000000   1.0000000
 Leave Link  101 at Sat Apr 28 21:40:58 2018, MaxMem= 10737418240 cpu:               3.3 elap:               0.1
 (Enter /home1/apps/gaussian/16rA.03/g16/l202.exe)
                          Input orientation:                          
 ---------------------------------------------------------------------
 Center     Atomic      Atomic             Coordinates (Angstroms)
 Number     Number       Type             X           Y           Z
 ---------------------------------------------------------------------
      1         30           0        0.000000    0.000000    0.000000
      2          1           0        0.000000    0.000000    1.200000
 ---------------------------------------------------------------------
 Stoichiometry    HZn(2)
 Framework group  C*V[C*(HZn)]
 Deg. of freedom     1
 Full point group                 C*V     NOp   4
 Largest Abelian subgroup         C2V     NOp   4
 Largest concise Abelian subgroup C1      NOp   1
                         Standard orientation:                         
 ---------------------------------------------------------------------
 Center     Atomic      Atomic             Coordinates (Angstroms)
 Number     Number       Type             X           Y           Z
 ---------------------------------------------------------------------
      1         30           0        0.000000    0.000000    0.038710
      2          1           0        0.000000    0.000000   -1.161290
 ---------------------------------------------------------------------
 Rotational constants (GHZ):           0.0000000         353.7225024         353.7225024
 Leave Link  202 at Sat Apr 28 21:40:58 2018, MaxMem= 10737418240 cpu:               0.8 elap:               0.1
 (Enter /home1/apps/gaussian/16rA.03/g16/l301.exe)
 General basis read from cards:  (5D, 7F)
 Centers:       1
 S 1 1.00
     Exponent=  1.8741300000D+08 Coefficients=  1.0000000000D+00
 S 1 1.00
     Exponent=  3.3512700000D+07 Coefficients=  1.0000000000D+00
 S 1 1.00
     Exponent=  7.5047500000D+06 Coefficients=  1.0000000000D+00
 S 1 1.00
     Exponent=  2.0178700000D+06 Coefficients=  1.0000000000D+00
 S 1 1.00
     Exponent=  6.2857800000D+05 Coefficients=  1.0000000000D+00
 S 1 1.00
     Exponent=  2.2016300000D+05 Coefficients=  1.0000000000D+00
 S 1 1.00
     Exponent=  8.4595200000D+04 Coefficients=  1.0000000000D+00
 S 1 1.00
     Exponent=  3.4955500000D+04 Coefficients=  1.0000000000D+00
 S 1 1.00
     Exponent=  1.5290300000D+04 Coefficients=  1.0000000000D+00
 S 1 1.00
     Exponent=  6.9949300000D+03 Coefficients=  1.0000000000D+00
 S 1 1.00
     Exponent=  3.3165900000D+03 Coefficients=  1.0000000000D+00
 S 1 1.00
     Exponent=  1.6192400000D+03 Coefficients=  1.0000000000D+00
 S 1 1.00
     Exponent=  8.1034300000D+02 Coefficients=  1.0000000000D+00
 S 1 1.00
     Exponent=  4.1439300000D+02 Coefficients=  1.0000000000D+00
 S 1 1.00
     Exponent=  2.1605800000D+02 Coefficients=  1.0000000000D+00
 S 1 1.00
     Exponent=  1.1463500000D+02 Coefficients=  1.0000000000D+00
 S 1 1.00
     Exponent=  6.1762300000D+01 Coefficients=  1.0000000000D+00
 S 1 1.00
     Exponent=  3.3692400000D+01 Coefficients=  1.0000000000D+00
 S 1 1.00
     Exponent=  1.8531500000D+01 Coefficients=  1.0000000000D+00
 S 1 1.00
     Exponent=  1.0214400000D+01 Coefficients=  1.0000000000D+00
 S 1 1.00
     Exponent=  5.5942800000D+00 Coefficients=  1.0000000000D+00
 S 1 1.00
     Exponent=  3.0096800000D+00 Coefficients=  1.0000000000D+00
 S 1 1.00
     Exponent=  1.5668400000D+00 Coefficients=  1.0000000000D+00
 S 1 1.00
     Exponent=  7.8143700000D-01 Coefficients=  1.0000000000D+00
 S 1 1.00
     Exponent=  2.5811800000D-01 Coefficients=  1.0000000000D+00
 S 1 1.00
     Exponent=  1.3855600000D-01 Coefficients=  1.0000000000D+00
 S 1 1.00
     Exponent=  6.6171000000D-02 Coefficients=  1.0000000000D+00
 S 1 1.00
     Exponent=  3.0986000000D-02 Coefficients=  1.0000000000D+00
 S 1 1.00
     Exponent=  1.0450800000D+01 Coefficients=  1.0000000000D+00
 S 1 1.00
     Exponent=  3.9198000000D+00 Coefficients=  1.0000000000D+00
 S 1 1.00
     Exponent=  1.4510000000D-02 Coefficients=  1.0000000000D+00
 P 1 1.00
     Exponent=  1.1034900000D+05 Coefficients=  1.0000000000D+00
 P 1 1.00
     Exponent=  2.6971300000D+04 Coefficients=  1.0000000000D+00
 P 1 1.00
     Exponent=  8.5600700000D+03 Coefficients=  1.0000000000D+00
 P 1 1.00
     Exponent=  3.2488000000D+03 Coefficients=  1.0000000000D+00
 P 1 1.00
     Exponent=  1.3894100000D+03 Coefficients=  1.0000000000D+00
 P 1 1.00
     Exponent=  6.4304300000D+02 Coefficients=  1.0000000000D+00
 P 1 1.00
     Exponent=  3.1400500000D+02 Coefficients=  1.0000000000D+00
 P 1 1.00
     Exponent=  1.5948900000D+02 Coefficients=  1.0000000000D+00
 P 1 1.00
     Exponent=  8.3666200000D+01 Coefficients=  1.0000000000D+00
 P 1 1.00
     Exponent=  4.5157400000D+01 Coefficients=  1.0000000000D+00
 P 1 1.00
     Exponent=  2.4963000000D+01 Coefficients=  1.0000000000D+00
 P 1 1.00
     Exponent=  1.4004300000D+01 Coefficients=  1.0000000000D+00
 P 1 1.00
     Exponent=  7.8326700000D+00 Coefficients=  1.0000000000D+00
 P 1 1.00
     Exponent=  4.2841000000D+00 Coefficients=  1.0000000000D+00
 P 1 1.00
     Exponent=  2.2890100000D+00 Coefficients=  1.0000000000D+00
 P 1 1.00
     Exponent=  1.1943600000D+00 Coefficients=  1.0000000000D+00
 P 1 1.00
     Exponent=  5.9425800000D-01 Coefficients=  1.0000000000D+00
 P 1 1.00
     Exponent=  2.2691400000D-01 Coefficients=  1.0000000000D+00
 P 1 1.00
     Exponent=  9.0179000000D-02 Coefficients=  1.0000000000D+00
 P 1 1.00
     Exponent=  3.5718000000D-02 Coefficients=  1.0000000000D+00
 P 1 1.00
     Exponent=  1.4897100000D+01 Coefficients=  1.0000000000D+00
 P 1 1.00
     Exponent=  4.7100000000D+00 Coefficients=  1.0000000000D+00
 P 1 1.00
     Exponent=  1.4150000000D-02 Coefficients=  1.0000000000D+00
 D 1 1.00
     Exponent=  8.5412230000D+02 Coefficients=  1.0000000000D+00
 D 1 1.00
     Exponent=  2.5794960000D+02 Coefficients=  1.0000000000D+00
 D 1 1.00
     Exponent=  1.0023190000D+02 Coefficients=  1.0000000000D+00
 D 1 1.00
     Exponent=  4.4176210000D+01 Coefficients=  1.0000000000D+00
 D 1 1.00
     Exponent=  2.0784760000D+01 Coefficients=  1.0000000000D+00
 D 1 1.00
     Exponent=  1.0227560000D+01 Coefficients=  1.0000000000D+00
 D 1 1.00
     Exponent=  5.1512410000D+00 Coefficients=  1.0000000000D+00
 D 1 1.00
     Exponent=  2.5908470000D+00 Coefficients=  1.0000000000D+00
 D 1 1.00
     Exponent=  1.2858010000D+00 Coefficients=  1.0000000000D+00
 D 1 1.00
     Exponent=  6.2534400000D-01 Coefficients=  1.0000000000D+00
 D 1 1.00
     Exponent=  2.9394300000D-01 Coefficients=  1.0000000000D+00
 D 1 1.00
     Exponent=  1.2899700000D-01 Coefficients=  1.0000000000D+00
 D 1 1.00
     Exponent=  1.1593600000D+01 Coefficients=  1.0000000000D+00
 D 1 1.00
     Exponent=  7.2491000000D+00 Coefficients=  1.0000000000D+00
 D 1 1.00
     Exponent=  5.6610000000D-02 Coefficients=  1.0000000000D+00
 F 1 1.00
     Exponent=  1.7862800000D+01 Coefficients=  1.0000000000D+00
 F 1 1.00
     Exponent=  8.0392000000D+00 Coefficients=  1.0000000000D+00
 F 1 1.00
     Exponent=  3.6180000000D+00 Coefficients=  1.0000000000D+00
 F 1 1.00
     Exponent=  1.6283000000D+00 Coefficients=  1.0000000000D+00
 F 1 1.00
     Exponent=  5.7210000000D-01 Coefficients=  1.0000000000D+00
 F 1 1.00
     Exponent=  2.0101000000D-01 Coefficients=  1.0000000000D+00
 G 1 1.00
     Exponent=  1.2540600000D+01 Coefficients=  1.0000000000D+00
 G 1 1.00
     Exponent=  6.2306000000D+00 Coefficients=  1.0000000000D+00
 G 1 1.00
     Exponent=  3.0956000000D+00 Coefficients=  1.0000000000D+00
 G 1 1.00
     Exponent=  1.1951000000D+00 Coefficients=  1.0000000000D+00
 G 1 1.00
     Exponent=  4.6139000000D-01 Coefficients=  1.0000000000D+00
 H 1 1.00
     Exponent=  1.1226100000D+01 Coefficients=  1.0000000000D+00
 H 1 1.00
     Exponent=  5.5189000000D+00 Coefficients=  1.0000000000D+00
 H 1 1.00
     Exponent=  2.4250000000D+00 Coefficients=  1.0000000000D+00
 H 1 1.00
     Exponent=  1.0655400000D+00 Coefficients=  1.0000000000D+00
 I 1 1.00
     Exponent=  1.1018800000D+01 Coefficients=  1.0000000000D+00
 I 1 1.00
     Exponent=  5.5487000000D+00 Coefficients=  1.0000000000D+00
 I 1 1.00
     Exponent=  2.7941400000D+00 Coefficients=  1.0000000000D+00
 ****
 Centers:       2
 S 1 1.00
     Exponent=  4.0200000000D+02 Coefficients=  1.0000000000D+00
 S 1 1.00
     Exponent=  6.0240000000D+01 Coefficients=  1.0000000000D+00
 S 1 1.00
     Exponent=  1.3730000000D+01 Coefficients=  1.0000000000D+00
 S 1 1.00
     Exponent=  3.9050000000D+00 Coefficients=  1.0000000000D+00
 S 1 1.00
     Exponent=  1.2830000000D+00 Coefficients=  1.0000000000D+00
 S 1 1.00
     Exponent=  4.6550000000D-01 Coefficients=  1.0000000000D+00
 S 1 1.00
     Exponent=  1.8110000000D-01 Coefficients=  1.0000000000D+00
 S 1 1.00
     Exponent=  7.2790000000D-02 Coefficients=  1.0000000000D+00
 S 1 1.00
     Exponent=  2.0700000000D-02 Coefficients=  1.0000000000D+00
 P 1 1.00
     Exponent=  4.5160000000D+00 Coefficients=  1.0000000000D+00
 P 1 1.00
     Exponent=  1.7120000000D+00 Coefficients=  1.0000000000D+00
 P 1 1.00
     Exponent=  6.4900000000D-01 Coefficients=  1.0000000000D+00
 P 1 1.00
     Exponent=  2.4600000000D-01 Coefficients=  1.0000000000D+00
 P 1 1.00
     Exponent=  7.4400000000D-02 Coefficients=  1.0000000000D+00
 D 1 1.00
     Exponent=  2.9500000000D+00 Coefficients=  1.0000000000D+00
 D 1 1.00
     Exponent=  1.2060000000D+00 Coefficients=  1.0000000000D+00
 D 1 1.00
     Exponent=  4.9300000000D-01 Coefficients=  1.0000000000D+00
 D 1 1.00
     Exponent=  1.5600000000D-01 Coefficients=  1.0000000000D+00
 F 1 1.00
     Exponent=  2.5060000000D+00 Coefficients=  1.0000000000D+00
 F 1 1.00
     Exponent=  8.7500000000D-01 Coefficients=  1.0000000000D+00
 F 1 1.00
     Exponent=  2.7400000000D-01 Coefficients=  1.0000000000D+00
 G 1 1.00
     Exponent=  2.3580000000D+00 Coefficients=  1.0000000000D+00
 G 1 1.00
     Exponent=  5.4300000000D-01 Coefficients=  1.0000000000D+00
 ****
 ======================================================================================================
                                       Pseudopotential Parameters
 ======================================================================================================
  Center     Atomic      Valence      Angular      Power
  Number     Number     Electrons     Momentum     of R      Exponent        Coefficient   SO-Coeffient
 ======================================================================================================
    1         30           20
                                      D and up 
                                                     1       35.8777152       20.00000000    0.00000000
                                                     3       34.1078424      717.55430465    0.00000000
                                                     2       28.7174520     -203.49912625    0.00000000
                                                     2        8.3955088       -0.04450117    0.00000000
                                      S - D
                                                     2       14.4978289       95.23904949    0.00000000
                                                     2       35.1597610      430.48072035    0.00000000
                                      P - D
                                                     2       14.7119819       73.77695398    0.00000000
                                                     2       41.6286707      312.12270272    0.00000000
    2          1            1
                                      P and up 
                                                     2       21.7769666      -10.85192405    0.00000000
                                                     1       21.2435951        1.00000000    0.00000000
                                                     3       21.2435951       21.24359508    0.00000000
                                      S - P
                                                     2        1.0000000        0.00000000    0.00000000
 ======================================================================================================
 Ernie: Thresh=  0.10000D-02 Tol=  0.10000D-05 Strict=F.
 There are   248 symmetry adapted cartesian basis functions of A1  symmetry.
 There are    79 symmetry adapted cartesian basis functions of A2  symmetry.
 There are   137 symmetry adapted cartesian basis functions of B1  symmetry.
 There are   137 symmetry adapted cartesian basis functions of B2  symmetry.
 There are   169 symmetry adapted basis functions of A1  symmetry.
 There are    59 symmetry adapted basis functions of A2  symmetry.
 There are   100 symmetry adapted basis functions of B1  symmetry.
 There are   100 symmetry adapted basis functions of B2  symmetry.
   428 basis functions,   601 primitive gaussians,   601 cartesian basis functions
    11 alpha electrons       10 beta electrons
       nuclear repulsion energy         8.8196201820 Hartrees.
 IExCor=    0 DFT=F Ex=HF Corr=None ExCW=0 ScaHFX=  1.000000
 ScaDFX=  1.000000  1.000000  1.000000  1.000000 ScalE2=  1.000000  1.000000
 IRadAn=      5 IRanWt=     -1 IRanGd=            0 ICorTp=0 IEmpDi=  4
 NAtoms=    2 NActive=    2 NUniq=    2 SFac= 1.00D+00 NAtFMM=   60 NAOKFM=F Big=F
 Integral buffers will be    131072 words long.
 Raffenetti 2 integral format.
 Two-electron integral symmetry is turned on.
 Leave Link  301 at Sat Apr 28 21:40:59 2018, MaxMem= 10737418240 cpu:               9.3 elap:               0.3
 (Enter /home1/apps/gaussian/16rA.03/g16/l302.exe)
 NPDir=0 NMtPBC=     1 NCelOv=     1 NCel=       1 NClECP=     1 NCelD=      1
         NCelK=      1 NCelE2=     1 NClLst=     1 CellRange=     0.0.
 One-electron integrals computed using PRISM.
 One-electron integral symmetry used in STVInt
   4 Symmetry operations used in ECPInt.
 ECPInt:  NShTT=    6105 NPrTT=    6105 LenC2=    6017 LenP2D=    6016.
 LDataN:  DoStor=T MaxTD1=12 Len= 1566
 NBasis=   428 RedAO= T EigKep=  1.28D-06  NBF=   169    59   100   100
 NBsUse=   424 1.00D-06 EigRej=  1.04D-07 NBFU=   167    59    99    99
 Leave Link  302 at Sat Apr 28 21:41:09 2018, MaxMem= 10737418240 cpu:             294.7 elap:               9.2
 (Enter /home1/apps/gaussian/16rA.03/g16/l303.exe)
 DipDrv:  MaxL=1.
 Leave Link  303 at Sat Apr 28 21:41:09 2018, MaxMem= 10737418240 cpu:               4.8 elap:               0.3
 (Enter /home1/apps/gaussian/16rA.03/g16/l401.exe)
 Initial guess from the checkpoint file:  "5z.chk"
 B after Tr=     0.000000    0.000000    0.000000
         Rot=    1.000000    0.000000    0.000000    0.000000 Ang=   0.00 deg.
 Guess basis will be translated and rotated to current coordinates.
 JPrj=2 DoOrth=T DoCkMO=T.
 Initial guess orbital symmetries:
       Occupied  (SG) (SG) (PI) (PI) (SG) (DLTA) (DLTA) (PI) (PI)
                 (SG) (SG)
       Virtual   (PI) (PI) (SG) (SG) (PI) (PI) (SG) (SG) (PI) (PI)
                 (DLTA) (DLTA) (SG) (SG) (PI) (PI) (SG) (PI) (PI)
                 (SG) (SG) (PI) (PI) (DLTA) (DLTA) (SG) (DLTA)
                 (DLTA) (SG) (PI) (PI) (SG) (PI) (PI) (SG) (PHI)
                 (PHI) (PI) (PI) (DLTA) (DLTA) (SG) (PI) (PI) (SG)
                 (DLTA) (DLTA) (PHI) (PHI) (SG) (PI) (PI) (DLTA)
                 (DLTA) (PI) (PI) (SG) (SG) (SG) (DLTA) (DLTA)
                 (PI) (PI) (PI) (PI) (SG) (SG) (PHI) (PHI) (PI)
                 (PI) (DLTA) (DLTA) (PI) (PI) (DLTA) (DLTA) (?A)
                 (?A) (PHI) (PHI) (SG) (SG) (PI) (PI) (DLTA) (DLTA)
                 (SG) (PI) (PI) (SG) (PHI) (PHI) (SG) (DLTA) (DLTA)
                 (PI) (PI) (SG) (PI) (PI) (SG) (SG) (PHI) (PHI)
                 (DLTA) (DLTA) (PI) (PI) (DLTA) (DLTA) (DLTA) (DLTA)
                 (PI) (PI) (PI) (PI) (SG) (PI) (PI) (SG) (SG) (?A)
                 (?A) (PHI) (PHI) (DLTA) (DLTA) (SG) (?B) (?B)
                 (?A) (?A) (PHI) (PHI) (PI) (PI) (DLTA) (DLTA)
                 (SG) (PI) (PI) (SG) (PI) (PI) (SG) (DLTA) (DLTA)
                 (PI) (PI) (SG) (PHI) (PHI) (DLTA) (DLTA) (PI)
                 (PI) (SG) (SG) (?A) (?A) (PHI) (PHI) (DLTA) (DLTA)
                 (PI) (PI) (SG) (?B) (?B) (?A) (?A) (PHI) (PHI)
                 (DLTA) (DLTA) (PI) (PI) (SG) (SG) (DLTA) (DLTA)
                 (PI) (PI) (SG) (PI) (PI) (SG) (PHI) (PHI) (DLTA)
                 (DLTA) (PI) (PI) (SG) (SG) (?A) (?A) (PHI) (PHI)
                 (DLTA) (DLTA) (PI) (PI) (SG) (DLTA) (DLTA) (PI)
                 (PI) (SG) (?B) (?B) (?A) (?A) (PHI) (PHI) (DLTA)
                 (DLTA) (PI) (PI) (SG) (PI) (PI) (SG) (DLTA) (DLTA)
                 (PI) (PI) (SG) (SG) (PI) (PI) (SG) (SG) (DLTA)
                 (DLTA) (PI) (PI) (SG) (PI) (PI) (SG) (SG) (DLTA)
                 (DLTA) (PI) (PI) (SG) (SG) (PI) (PI) (SG) (SG)
                 (PI) (PI) (SG) (DLTA) (DLTA) (PI) (PI) (SG) (SG)
                 (PI) (PI) (SG) (DLTA) (DLTA) (PI) (PI) (SG) (SG)
                 (PI) (PI) (SG) (SG) (PI) (PI) (SG) (SG) (PI) (PI)
                 (SG) (SG) (PI) (PI) (SG) (SG) (PI) (PI) (SG) (SG)
                 (SG) (SG) (SG) (SG) (DLTA) (DLTA) (SG) (SG) (SG)
                 (DLTA) (SG) (SG) (SG) (SG) (DLTA) (DLTA) (SG)
                 (?A) (SG) (DLTA) (DLTA) (SG) (?A) (SG) (SG) (DLTA)
                 (?A) (SG) (DLTA) (SG) (SG) (DLTA) (SG) (SG) (?A)
                 (SG) (SG) (?A) (SG) (SG) (DLTA) (?A) (SG) (SG)
                 (?A) (SG) (SG) (DLTA) (DLTA) (DLTA) (DLTA) (DLTA)
                 (?A) (DLTA) (DLTA) (?A) (DLTA) (?A) (SG) (DLTA)
                 (DLTA) (?A) (?A) (DLTA) (?A) (SG) (SG) (?A) (PI)
                 (PI) (PI) (PHI) (PI) (PI) (PHI) (PI) (PI) (PHI)
                 (PI) (?B) (PHI) (PI) (PI) (PHI) (?B) (PI) (PHI)
                 (PI) (PHI) (PI) (PI) (PHI) (PHI) (?B) (?B) (PI)
                 (PI) (PI) (PHI) (PI) (PI) (PHI) (PI) (PI) (PHI)
                 (PI) (?B) (PHI) (PI) (PI) (PHI) (?B) (PI) (PHI)
                 (PI) (PHI) (PI) (PI) (PHI) (PHI) (?B) (?B)
 The electronic state of the initial guess is 2-SG.
 Leave Link  401 at Sat Apr 28 21:41:11 2018, MaxMem= 10737418240 cpu:              40.5 elap:               1.5
 (Enter /home1/apps/gaussian/16rA.03/g16/l502.exe)
 Keep R1 and R2 ints in memory in symmetry-blocked form, NReq=5277864979.
 FoFCou: FMM=F IPFlag=           8 FMFlag=           0 FMFlg1=           0
         NFxFlg=           0 DoJE=F BraDBF=F KetDBF=F FulRan=T
         wScrn=  0.000000 ICntrl=       600 IOpCl=  0 I1Cent=           0 NGrid=           0
         NMat0=    1 NMatS0=  91806 NMatT0=    0 NMatD0=    1 NMtDS0=    0 NMtDT0=    0
 Petite list used in FoFCou.
 Restricted open shell SCF:
 Using DIIS extrapolation, IDIIS=  1040.
 NGot= 10737418240 LenX=  8609582347 LenY=  8609220545
 Requested convergence on RMS density matrix=1.00D-08 within 400 cycles.
 Requested convergence on MAX density matrix=1.00D-06.
 Requested convergence on             energy=1.00D-06.
 Virtual orbitals will be shifted by   0.200 hartree.
 No special actions if energy rises.

 Cycle   1  Pass 1  IDiag  1:
 E= -226.093694863753    
 DIIS: error= 1.54D+00 at cycle   1 NSaved=   1.
 NSaved= 1 IEnMin= 1 EnMin= -226.093694863753     IErMin= 1 ErrMin= 1.54D+00
 ErrMax= 1.54D+00  0.00D+00 EMaxC= 1.00D-01 BMatC= 4.31D+02 BMatP= 4.31D+02
 IDIUse=3 WtCom= 0.00D+00 WtEn= 1.00D+00
 Coeff-Com:  0.100D+01
 Coeff-En:   0.100D+01
 Coeff:      0.100D+01
 Gap=     0.088 Goal=   None    Shift=    0.200
 GapD=    0.088 DampG=0.500 DampE=0.125 DampFc=0.1250 IDamp=-1.
 Damping current iteration by 1.25D-01
 RMSDP=1.18D-03 MaxDP=1.07D-01              OVMax= 1.23D-03

 Cycle   2  Pass 1  IDiag  1:
 E= -226.093718150154     Delta-E=       -0.000023286401 Rises=F Damp=T
 DIIS: error= 1.35D+00 at cycle   2 NSaved=   2.
 NSaved= 2 IEnMin= 2 EnMin= -226.093718150154     IErMin= 2 ErrMin= 1.35D+00
 ErrMax= 1.35D+00  0.00D+00 EMaxC= 1.00D-01 BMatC= 3.30D+02 BMatP= 4.31D+02
 IDIUse=3 WtCom= 0.00D+00 WtEn= 1.00D+00
 Coeff-Com: -0.700D+01 0.800D+01
 Coeff-En:   0.000D+00 0.100D+01
 Coeff:      0.000D+00 0.100D+01
 Gap=     0.086 Goal=   None    Shift=    0.200
 RMSDP=1.04D-03 MaxDP=9.38D-02 DE=-2.33D-05 OVMax= 1.35D-04

 Cycle   3  Pass 1  IDiag  1:
 E= -226.093883880230     Delta-E=       -0.000165730077 Rises=F Damp=F
 DIIS: error= 9.00D-05 at cycle   3 NSaved=   3.
 NSaved= 3 IEnMin= 3 EnMin= -226.093883880230     IErMin= 3 ErrMin= 9.00D-05
 ErrMax= 9.00D-05  0.00D+00 EMaxC= 1.00D-01 BMatC= 5.67D-07 BMatP= 3.30D+02
 IDIUse=1 WtCom= 1.00D+00 WtEn= 0.00D+00
 Coeff-Com: -0.478D-01 0.546D-01 0.993D+00
 Coeff:     -0.478D-01 0.546D-01 0.993D+00
 Gap=     0.086 Goal=   None    Shift=    0.200
 RMSDP=5.16D-05 MaxDP=1.31D-02 DE=-1.66D-04 OVMax= 1.73D-04

 Cycle   4  Pass 1  IDiag  1:
 E= -226.093884062451     Delta-E=       -0.000000182221 Rises=F Damp=F
 DIIS: error= 5.09D-06 at cycle   4 NSaved=   4.
 NSaved= 4 IEnMin= 4 EnMin= -226.093884062451     IErMin= 4 ErrMin= 5.09D-06
 ErrMax= 5.09D-06  0.00D+00 EMaxC= 1.00D-01 BMatC= 6.48D-09 BMatP= 5.67D-07
 IDIUse=1 WtCom= 1.00D+00 WtEn= 0.00D+00
 Coeff-Com: -0.801D-01 0.915D-01-0.862D-01 0.107D+01
 Coeff:     -0.801D-01 0.915D-01-0.862D-01 0.107D+01
 Gap=     0.086 Goal=   None    Shift=    0.200
 RMSDP=7.54D-06 MaxDP=1.33D-03 DE=-1.82D-07 OVMax= 3.21D-05

 Cycle   5  Pass 1  IDiag  1:
 E= -226.093884069402     Delta-E=       -0.000000006951 Rises=F Damp=F
 DIIS: error= 3.49D-06 at cycle   5 NSaved=   5.
 NSaved= 5 IEnMin= 5 EnMin= -226.093884069402     IErMin= 5 ErrMin= 3.49D-06
 ErrMax= 3.49D-06  0.00D+00 EMaxC= 1.00D-01 BMatC= 7.69D-10 BMatP= 6.48D-09
 IDIUse=1 WtCom= 1.00D+00 WtEn= 0.00D+00
 Coeff-Com: -0.854D-01 0.976D-01-0.846D-02-0.274D+00 0.127D+01
 Coeff:     -0.854D-01 0.976D-01-0.846D-02-0.274D+00 0.127D+01
 Gap=     0.086 Goal=   None    Shift=    0.200
 RMSDP=1.61D-06 MaxDP=2.36D-04 DE=-6.95D-09 OVMax= 1.36D-05

 Cycle   6  Pass 1  IDiag  1:
 E= -226.093884069986     Delta-E=       -0.000000000584 Rises=F Damp=F
 DIIS: error= 3.22D-06 at cycle   6 NSaved=   6.
 NSaved= 6 IEnMin= 6 EnMin= -226.093884069986     IErMin= 6 ErrMin= 3.22D-06
 ErrMax= 3.22D-06  0.00D+00 EMaxC= 1.00D-01 BMatC= 5.05D-10 BMatP= 7.69D-10
 IDIUse=1 WtCom= 1.00D+00 WtEn= 0.00D+00
 Coeff-Com: -0.843D-01 0.964D-01-0.154D-01-0.569D-01 0.180D-01 0.104D+01
 Coeff:     -0.843D-01 0.964D-01-0.154D-01-0.569D-01 0.180D-01 0.104D+01
 Gap=     0.086 Goal=   None    Shift=    0.200
 RMSDP=4.46D-07 MaxDP=1.14D-04 DE=-5.84D-10 OVMax= 6.35D-06

 Cycle   7  Pass 1  IDiag  1:
 E= -226.093884070095     Delta-E=       -0.000000000109 Rises=F Damp=F
 DIIS: error= 3.11D-06 at cycle   7 NSaved=   7.
 NSaved= 7 IEnMin= 7 EnMin= -226.093884070095     IErMin= 7 ErrMin= 3.11D-06
 ErrMax= 3.11D-06  0.00D+00 EMaxC= 1.00D-01 BMatC= 4.62D-10 BMatP= 5.05D-10
 IDIUse=1 WtCom= 1.00D+00 WtEn= 0.00D+00
 Coeff-Com: -0.823D-01 0.941D-01-0.179D-01 0.168D-01-0.235D+00 0.388D+00
 Coeff-Com:  0.836D+00
 Coeff:     -0.823D-01 0.941D-01-0.179D-01 0.168D-01-0.235D+00 0.388D+00
 Coeff:      0.836D+00
 Gap=     0.086 Goal=   None    Shift=    0.200
 RMSDP=3.00D-07 MaxDP=9.31D-05 DE=-1.09D-10 OVMax= 3.33D-06

 Cycle   8  Pass 1  IDiag  1:
 E= -226.093884070153     Delta-E=       -0.000000000058 Rises=F Damp=F
 DIIS: error= 3.02D-06 at cycle   8 NSaved=   8.
 NSaved= 8 IEnMin= 8 EnMin= -226.093884070153     IErMin= 8 ErrMin= 3.02D-06
 ErrMax= 3.02D-06  0.00D+00 EMaxC= 1.00D-01 BMatC= 4.30D-10 BMatP= 4.62D-10
 IDIUse=1 WtCom= 1.00D+00 WtEn= 0.00D+00
 Coeff-Com: -0.794D-01 0.907D-01-0.169D-01-0.408D-02-0.188D-01-0.142D+00
 Coeff-Com:  0.948D-01 0.108D+01
 Coeff:     -0.794D-01 0.907D-01-0.169D-01-0.408D-02-0.188D-01-0.142D+00
 Coeff:      0.948D-01 0.108D+01
 Gap=     0.086 Goal=   None    Shift=    0.200
 RMSDP=3.32D-07 MaxDP=1.06D-04 DE=-5.80D-11 OVMax= 2.20D-06

 Cycle   9  Pass 1  IDiag  1:
 E= -226.093884070206     Delta-E=       -0.000000000053 Rises=F Damp=F
 DIIS: error= 2.92D-06 at cycle   9 NSaved=   9.
 NSaved= 9 IEnMin= 9 EnMin= -226.093884070206     IErMin= 9 ErrMin= 2.92D-06
 ErrMax= 2.92D-06  0.00D+00 EMaxC= 1.00D-01 BMatC= 4.00D-10 BMatP= 4.30D-10
 IDIUse=1 WtCom= 1.00D+00 WtEn= 0.00D+00
 Coeff-Com: -0.753D-01 0.861D-01-0.153D-01-0.226D-01 0.750D-01-0.836D-01
 Coeff-Com: -0.146D+00-0.351D+00 0.153D+01
 Coeff:     -0.753D-01 0.861D-01-0.153D-01-0.226D-01 0.750D-01-0.836D-01
 Coeff:     -0.146D+00-0.351D+00 0.153D+01
 Gap=     0.086 Goal=   None    Shift=    0.200
 RMSDP=4.19D-07 MaxDP=1.35D-04 DE=-5.31D-11 OVMax= 2.04D-06

 Cycle  10  Pass 1  IDiag  1:
 E= -226.093884070268     Delta-E=       -0.000000000062 Rises=F Damp=F
 DIIS: error= 2.78D-06 at cycle  10 NSaved=  10.
 NSaved=10 IEnMin=10 EnMin= -226.093884070268     IErMin=10 ErrMin= 2.78D-06
 ErrMax= 2.78D-06  0.00D+00 EMaxC= 1.00D-01 BMatC= 3.64D-10 BMatP= 4.00D-10
 IDIUse=1 WtCom= 1.00D+00 WtEn= 0.00D+00
 Coeff-Com: -0.689D-01 0.787D-01-0.143D-01-0.108D-01-0.761D-02 0.685D-01
 Coeff-Com:  0.106D+00-0.144D+00-0.145D+01 0.244D+01
 Coeff:     -0.689D-01 0.787D-01-0.143D-01-0.108D-01-0.761D-02 0.685D-01
 Coeff:      0.106D+00-0.144D+00-0.145D+01 0.244D+01
 Gap=     0.086 Goal=   None    Shift=    0.200
 RMSDP=6.27D-07 MaxDP=2.02D-04 DE=-6.24D-11 OVMax= 2.75D-06

 Cycle  11  Pass 1  IDiag  1:
 E= -226.093884070355     Delta-E=       -0.000000000087 Rises=F Damp=F
 DIIS: error= 2.58D-06 at cycle  11 NSaved=  11.
 NSaved=11 IEnMin=11 EnMin= -226.093884070355     IErMin=11 ErrMin= 2.58D-06
 ErrMax= 2.58D-06  0.00D+00 EMaxC= 1.00D-01 BMatC= 3.12D-10 BMatP= 3.64D-10
 IDIUse=1 WtCom= 1.00D+00 WtEn= 0.00D+00
 Coeff-Com: -0.556D-01 0.636D-01-0.116D-01-0.561D-02-0.272D-01 0.638D-01
 Coeff-Com:  0.169D+00 0.732D-01-0.971D+00-0.136D+01 0.306D+01
 Coeff:     -0.556D-01 0.636D-01-0.116D-01-0.561D-02-0.272D-01 0.638D-01
 Coeff:      0.169D+00 0.732D-01-0.971D+00-0.136D+01 0.306D+01
 Gap=     0.086 Goal=   None    Shift=    0.200
 RMSDP=1.22D-06 MaxDP=3.91D-04 DE=-8.66D-11 OVMax= 5.20D-06

 Cycle  12  Pass 1  IDiag  1:
 E= -226.093884070504     Delta-E=       -0.000000000149 Rises=F Damp=F
 DIIS: error= 2.18D-06 at cycle  12 NSaved=  12.
 NSaved=12 IEnMin=12 EnMin= -226.093884070504     IErMin=12 ErrMin= 2.18D-06
 ErrMax= 2.18D-06  0.00D+00 EMaxC= 1.00D-01 BMatC= 2.22D-10 BMatP= 3.12D-10
 IDIUse=1 WtCom= 1.00D+00 WtEn= 0.00D+00
 Coeff-Com: -0.549D-01 0.627D-01-0.113D-01-0.736D-02-0.145D-01 0.431D-01
 Coeff-Com:  0.118D+00 0.136D-01-0.582D+00-0.936D+00 0.190D+01 0.470D+00
 Coeff:     -0.549D-01 0.627D-01-0.113D-01-0.736D-02-0.145D-01 0.431D-01
 Coeff:      0.118D+00 0.136D-01-0.582D+00-0.936D+00 0.190D+01 0.470D+00
 Gap=     0.086 Goal=   None    Shift=    0.200
 RMSDP=4.66D-07 MaxDP=1.50D-04 DE=-1.49D-10 OVMax= 2.61D-06

 Cycle  13  Pass 1  IDiag  1:
 E= -226.093884070560     Delta-E=       -0.000000000057 Rises=F Damp=F
 DIIS: error= 2.04D-06 at cycle  13 NSaved=  13.
 NSaved=13 IEnMin=13 EnMin= -226.093884070560     IErMin=13 ErrMin= 2.04D-06
 ErrMax= 2.04D-06  0.00D+00 EMaxC= 1.00D-01 BMatC= 1.96D-10 BMatP= 2.22D-10
 IDIUse=1 WtCom= 1.00D+00 WtEn= 0.00D+00
 Coeff-Com: -0.489D-02 0.559D-02-0.115D-02 0.180D-02-0.117D-01 0.116D-01
 Coeff-Com:  0.464D-01 0.164D+00-0.188D+00-0.132D+00-0.328D+01-0.482D+00
 Coeff-Com:  0.487D+01
 Coeff:     -0.489D-02 0.559D-02-0.115D-02 0.180D-02-0.117D-01 0.116D-01
 Coeff:      0.464D-01 0.164D+00-0.188D+00-0.132D+00-0.328D+01-0.482D+00
 Coeff:      0.487D+01
 Gap=     0.086 Goal=   None    Shift=    0.200
 RMSDP=3.87D-06 MaxDP=1.24D-03 DE=-5.68D-11 OVMax= 1.53D-05

 Cycle  14  Pass 1  IDiag  1:
 E= -226.093884070834     Delta-E=       -0.000000000273 Rises=F Damp=F
 DIIS: error= 7.28D-07 at cycle  14 NSaved=  14.
 NSaved=14 IEnMin=14 EnMin= -226.093884070834     IErMin=14 ErrMin= 7.28D-07
 ErrMax= 7.28D-07  0.00D+00 EMaxC= 1.00D-01 BMatC= 2.90D-11 BMatP= 1.96D-10
 IDIUse=1 WtCom= 1.00D+00 WtEn= 0.00D+00
 Coeff-Com: -0.456D-02 0.521D-02-0.107D-02 0.157D-02-0.101D-01 0.110D-01
 Coeff-Com:  0.412D-01 0.151D+00-0.244D+00 0.373D-01-0.243D+01-0.195D+01
 Coeff-Com:  0.514D+01 0.253D+00
 Coeff:     -0.456D-02 0.521D-02-0.107D-02 0.157D-02-0.101D-01 0.110D-01
 Coeff:      0.412D-01 0.151D+00-0.244D+00 0.373D-01-0.243D+01-0.195D+01
 Coeff:      0.514D+01 0.253D+00
 Gap=     0.086 Goal=   None    Shift=    0.200
 RMSDP=1.28D-06 MaxDP=4.12D-04 DE=-2.73D-10 OVMax= 6.54D-06

 Cycle  15  Pass 1  IDiag  1:
 E= -226.093884070886     Delta-E=       -0.000000000053 Rises=F Damp=F
 DIIS: error= 3.54D-07 at cycle  15 NSaved=  15.
 NSaved=15 IEnMin=15 EnMin= -226.093884070886     IErMin=15 ErrMin= 3.54D-07
 ErrMax= 3.54D-07  0.00D+00 EMaxC= 1.00D-01 BMatC= 8.83D-12 BMatP= 2.90D-11
 IDIUse=1 WtCom= 1.00D+00 WtEn= 0.00D+00
 Coeff-Com: -0.402D-02 0.460D-02-0.934D-03 0.149D-02-0.116D-01 0.158D-01
 Coeff-Com:  0.475D-01 0.171D+00-0.486D+00 0.433D+00-0.195D+01-0.416D+01
 Coeff-Com:  0.650D+01 0.870D+00-0.430D+00
 Coeff:     -0.402D-02 0.460D-02-0.934D-03 0.149D-02-0.116D-01 0.158D-01
 Coeff:      0.475D-01 0.171D+00-0.486D+00 0.433D+00-0.195D+01-0.416D+01
 Coeff:      0.650D+01 0.870D+00-0.430D+00
 Gap=     0.086 Goal=   None    Shift=    0.200
 RMSDP=4.95D-07 MaxDP=1.61D-04 DE=-5.26D-11 OVMax= 3.35D-06

 Cycle  16  Pass 1  IDiag  1:
 E= -226.093884070902     Delta-E=       -0.000000000016 Rises=F Damp=F
 DIIS: error= 2.23D-07 at cycle  16 NSaved=  16.
 NSaved=16 IEnMin=16 EnMin= -226.093884070902     IErMin=16 ErrMin= 2.23D-07
 ErrMax= 2.23D-07  0.00D+00 EMaxC= 1.00D-01 BMatC= 3.66D-12 BMatP= 8.83D-12
 IDIUse=1 WtCom= 1.00D+00 WtEn= 0.00D+00
 Large coefficients: NSaved= 16 BigCof=    0.00 CofMax=   10.00 Det=-9.70D-16
 Inversion failed.  Reducing to 15 matrices.
 Coeff-Com: -0.274D-08-0.116D-03 0.286D-02-0.175D-01 0.275D-01 0.614D-01
 Coeff-Com:  0.171D+00-0.660D+00 0.555D+00-0.206D+01-0.385D+01 0.630D+01
 Coeff-Com:  0.823D+00-0.519D+00 0.169D+00
 Coeff:     -0.274D-08-0.116D-03 0.286D-02-0.175D-01 0.275D-01 0.614D-01
 Coeff:      0.171D+00-0.660D+00 0.555D+00-0.206D+01-0.385D+01 0.630D+01
 Coeff:      0.823D+00-0.519D+00 0.169D+00
 Gap=     0.086 Goal=   None    Shift=    0.200
 RMSDP=4.94D-07 MaxDP=1.60D-04 DE=-1.58D-11 OVMax= 2.83D-06

 Cycle  17  Pass 1  IDiag  1:
 E= -226.093884070909     Delta-E=       -0.000000000007 Rises=F Damp=F
 DIIS: error= 9.16D-08 at cycle  17 NSaved=  16.
 NSaved=16 IEnMin=16 EnMin= -226.093884070909     IErMin=16 ErrMin= 9.16D-08
 ErrMax= 9.16D-08  0.00D+00 EMaxC= 1.00D-01 BMatC= 8.50D-13 BMatP= 3.66D-12
 IDIUse=1 WtCom= 1.00D+00 WtEn= 0.00D+00
 Large coefficients: NSaved= 16 BigCof=    0.00 CofMax=   10.00 Det=-9.48D-16
 Inversion failed.  Reducing to 15 matrices.
 Coeff-Com: -0.549D-04 0.144D-02-0.997D-02 0.196D-01 0.433D-01 0.655D-01
 Coeff-Com: -0.335D+00 0.260D+00-0.123D+01-0.304D+01 0.462D+01 0.593D+00
 Coeff-Com: -0.259D+00-0.833D+00 0.111D+01
 Coeff:     -0.549D-04 0.144D-02-0.997D-02 0.196D-01 0.433D-01 0.655D-01
 Coeff:     -0.335D+00 0.260D+00-0.123D+01-0.304D+01 0.462D+01 0.593D+00
 Coeff:     -0.259D+00-0.833D+00 0.111D+01
 Gap=     0.086 Goal=   None    Shift=    0.200
 RMSDP=1.80D-07 MaxDP=5.87D-05 DE=-6.96D-12 OVMax= 1.49D-06

 Cycle  18  Pass 1  IDiag  1:
 E= -226.093884070912     Delta-E=       -0.000000000003 Rises=F Damp=F
 DIIS: error= 5.30D-08 at cycle  18 NSaved=  16.
 NSaved=16 IEnMin=16 EnMin= -226.093884070912     IErMin=16 ErrMin= 5.30D-08
 ErrMax= 5.30D-08  0.00D+00 EMaxC= 1.00D-01 BMatC= 3.05D-13 BMatP= 8.50D-13
 IDIUse=1 WtCom= 1.00D+00 WtEn= 0.00D+00
 Large coefficients: NSaved= 16 BigCof=    0.00 CofMax=   10.00 Det=-1.07D-15
 Inversion failed.  Reducing to 15 matrices.
 Coeff-Com:  0.188D-03-0.288D-02 0.113D-01 0.201D-01 0.217D-01-0.138D+00
 Coeff-Com:  0.208D+00-0.113D+01-0.245D+01 0.379D+01 0.497D+00-0.174D+00
 Coeff-Com: -0.906D+00 0.820D+00 0.433D+00
 Coeff:      0.188D-03-0.288D-02 0.113D-01 0.201D-01 0.217D-01-0.138D+00
 Coeff:      0.208D+00-0.113D+01-0.245D+01 0.379D+01 0.497D+00-0.174D+00
 Coeff:     -0.906D+00 0.820D+00 0.433D+00
 Gap=     0.086 Goal=   None    Shift=    0.200
 RMSDP=7.29D-08 MaxDP=2.40D-05 DE=-2.87D-12 OVMax= 8.69D-07

 Cycle  19  Pass 1  IDiag  1:
 E= -226.093884070912     Delta-E=        0.000000000000 Rises=F Damp=F
 DIIS: error= 3.01D-08 at cycle  19 NSaved=  16.
 NSaved=16 IEnMin=15 EnMin= -226.093884070912     IErMin=16 ErrMin= 3.01D-08
 ErrMax= 3.01D-08  0.00D+00 EMaxC= 1.00D-01 BMatC= 8.20D-14 BMatP= 3.05D-13
 IDIUse=1 WtCom= 1.00D+00 WtEn= 0.00D+00
 Large coefficients: NSaved= 16 BigCof=    0.00 CofMax=   10.00 Det=-9.80D-16
 Inversion failed.  Reducing to 15 matrices.
 Coeff-Com:  0.418D-04-0.535D-03-0.422D-02 0.807D-02 0.230D-01 0.713D-01
 Coeff-Com: -0.252D+00-0.439D+00 0.647D+00 0.147D+00 0.486D-01-0.538D+00
 Coeff-Com: -0.160D+00-0.129D-01 0.146D+01
 Coeff:      0.418D-04-0.535D-03-0.422D-02 0.807D-02 0.230D-01 0.713D-01
 Coeff:     -0.252D+00-0.439D+00 0.647D+00 0.147D+00 0.486D-01-0.538D+00
 Coeff:     -0.160D+00-0.129D-01 0.146D+01
 Gap=     0.086 Goal=   None    Shift=    0.200
 RMSDP=3.21D-08 MaxDP=1.04D-05 DE= 5.68D-14 OVMax= 4.58D-07

 Cycle  20  Pass 1  IDiag  1:
 E= -226.093884070912     Delta-E=       -0.000000000000 Rises=F Damp=F
 DIIS: error= 2.49D-08 at cycle  20 NSaved=  16.
 NSaved=16 IEnMin=16 EnMin= -226.093884070912     IErMin=16 ErrMin= 2.49D-08
 ErrMax= 2.49D-08  0.00D+00 EMaxC= 1.00D-01 BMatC= 1.05D-13 BMatP= 8.20D-14
 IDIUse=1 WtCom= 1.00D+00 WtEn= 0.00D+00
 Large coefficients: NSaved= 16 BigCof=    0.00 CofMax=   10.00 Det=-9.75D-16
 Inversion failed.  Reducing to 15 matrices.
 Coeff-Com: -0.211D-03-0.405D-02 0.857D-02 0.116D-01 0.910D-01-0.245D+00
 Coeff-Com: -0.478D+00 0.663D+00 0.160D+00 0.203D-01-0.491D+00-0.142D+00
 Coeff-Com: -0.699D-01 0.140D+01 0.776D-01
 Coeff:     -0.211D-03-0.405D-02 0.857D-02 0.116D-01 0.910D-01-0.245D+00
 Coeff:     -0.478D+00 0.663D+00 0.160D+00 0.203D-01-0.491D+00-0.142D+00
 Coeff:     -0.699D-01 0.140D+01 0.776D-01
 Gap=     0.086 Goal=   None    Shift=    0.200
 RMSDP=1.56D-08 MaxDP=5.05D-06 DE=-1.99D-13 OVMax= 2.93D-07

 Cycle  21  Pass 1  IDiag  1:
 E= -226.093884070912     Delta-E=        0.000000000000 Rises=F Damp=F
 DIIS: error= 1.12D-08 at cycle  21 NSaved=  16.
 NSaved=16 IEnMin=15 EnMin= -226.093884070912     IErMin=16 ErrMin= 1.12D-08
 ErrMax= 1.12D-08  0.00D+00 EMaxC= 1.00D-01 BMatC= 1.29D-14 BMatP= 8.20D-14
 IDIUse=1 WtCom= 1.00D+00 WtEn= 0.00D+00
 Large coefficients: NSaved= 16 BigCof=    0.00 CofMax=   10.00 Det=-9.61D-16
 Inversion failed.  Reducing to 15 matrices.
 Coeff-Com: -0.255D-02 0.113D-01 0.579D-03 0.402D-01-0.142D+00-0.268D+00
 Coeff-Com:  0.392D+00 0.948D-01 0.378D-02-0.278D+00-0.655D-01-0.463D-02
 Coeff-Com:  0.405D+00-0.722D-02 0.820D+00
 Coeff:     -0.255D-02 0.113D-01 0.579D-03 0.402D-01-0.142D+00-0.268D+00
 Coeff:      0.392D+00 0.948D-01 0.378D-02-0.278D+00-0.655D-01-0.463D-02
 Coeff:      0.405D+00-0.722D-02 0.820D+00
 Gap=     0.086 Goal=   None    Shift=    0.200
 RMSDP=8.49D-09 MaxDP=2.59D-06 DE= 2.84D-13 OVMax= 1.84D-07

 Cycle  22  Pass 1  IDiag  1:
 E= -226.093884070913     Delta-E=       -0.000000000001 Rises=F Damp=F
 DIIS: error= 3.08D-08 at cycle  22 NSaved=  16.
 NSaved=16 IEnMin=16 EnMin= -226.093884070913     IErMin=15 ErrMin= 1.12D-08
 ErrMax= 3.08D-08  0.00D+00 EMaxC= 1.00D-01 BMatC= 7.17D-14 BMatP= 1.29D-14
 IDIUse=1 WtCom= 1.00D+00 WtEn= 0.00D+00
 Large coefficients: NSaved= 16 BigCof=    0.00 CofMax=   10.00 Det=-9.62D-16
 Inversion failed.  Reducing to 15 matrices.
 Coeff-Com:  0.149D-01-0.151D-01 0.305D-01-0.122D+00-0.283D+00 0.408D+00
 Coeff-Com:  0.951D-01 0.297D-02-0.273D+00-0.595D-01-0.986D-02 0.386D+00
 Coeff-Com: -0.101D-01 0.812D+00 0.229D-01
 Coeff:      0.149D-01-0.151D-01 0.305D-01-0.122D+00-0.283D+00 0.408D+00
 Coeff:      0.951D-01 0.297D-02-0.273D+00-0.595D-01-0.986D-02 0.386D+00
 Coeff:     -0.101D-01 0.812D+00 0.229D-01
 Gap=     0.086 Goal=   None    Shift=    0.200
 RMSDP=5.38D-09 MaxDP=1.44D-06 DE=-5.97D-13 OVMax= 1.22D-07

 Cycle  23  Pass 1  IDiag  1:
 E= -226.093884070912     Delta-E=        0.000000000000 Rises=F Damp=F
 DIIS: error= 4.57D-09 at cycle  23 NSaved=  16.
 NSaved=16 IEnMin=15 EnMin= -226.093884070913     IErMin=16 ErrMin= 4.57D-09
 ErrMax= 4.57D-09  0.00D+00 EMaxC= 1.00D-01 BMatC= 2.88D-15 BMatP= 1.29D-14
 IDIUse=1 WtCom= 1.00D+00 WtEn= 0.00D+00
 Large coefficients: NSaved= 16 BigCof=    0.00 CofMax=   10.00 Det=-9.57D-16
 Inversion failed.  Reducing to 15 matrices.
 Coeff-Com:  0.538D-02 0.124D-01-0.463D-01-0.137D+00 0.177D+00 0.467D-01
 Coeff-Com:  0.291D-02-0.135D+00-0.201D-01-0.128D-01 0.103D+00-0.448D-02
 Coeff-Com:  0.360D+00 0.888D-02 0.640D+00
 Coeff:      0.538D-02 0.124D-01-0.463D-01-0.137D+00 0.177D+00 0.467D-01
 Coeff:      0.291D-02-0.135D+00-0.201D-01-0.128D-01 0.103D+00-0.448D-02
 Coeff:      0.360D+00 0.888D-02 0.640D+00
 Gap=     0.086 Goal=   None    Shift=    0.200
 RMSDP=4.57D-09 MaxDP=8.62D-07 DE= 2.84D-13 OVMax= 7.39D-08

 SCF Done:  E(ROHF) =  -226.093884071     A.U. after   23 cycles
            NFock= 23  Conv=0.46D-08     -V/T= 2.5048
 <Sx>= 0.0000 <Sy>= 0.0000 <Sz>= 0.5000 <S**2>= 0.7500 S= 0.5000
 <L.S>=  0.00000000000    
 KE= 1.502500803747D+02 PE=-5.749386105365D+02 EE= 1.897750259089D+02
 Annihilation of the first spin contaminant:
 S**2 before annihilation     0.7500,   after     0.7500
 Leave Link  502 at Sat Apr 28 21:44:50 2018, MaxMem= 10737418240 cpu:            5980.9 elap:             218.7
 (Enter /home1/apps/gaussian/16rA.03/g16/l801.exe)
 Windowed orbitals will be sorted by symmetry type.
 GenMOA:  NOpAll=  4 NOp2=4 NOpUse=  4 JSym2X=1
 FoFJK:  IHMeth= 1 ICntrl=       0 DoSepK=F KAlg= 0 I1Cent=           0 FoldK=F
 IRaf=         0 NMat=       1 IRICut=       1 DoRegI=T DoRafI=F ISym2E= 1 IDoP0=0 IntGTp=1.
 FoFCou: FMM=F IPFlag=           8 FMFlag=      100000 FMFlg1=           0
         NFxFlg=           0 DoJE=F BraDBF=F KetDBF=F FulRan=T
         wScrn=  0.000000 ICntrl=         0 IOpCl=  1 I1Cent=           0 NGrid=           0
         NMat0=    1 NMatS0=      1 NMatT0=    0 NMatD0=    1 NMtDS0=    0 NMtDT0=    0
 Petite list used in FoFCou.
 <Sx>= 0.0000 <Sy>= 0.0000 <Sz>= 0.5000 <S**2>= 0.7500 S= 0.5000
 Range of M.O.s used for correlation:     1   424
 NBasis=   428 NAE=    11 NBE=    10 NFC=     0 NFV=     0
 NROrb=    424 NOA=    11 NOB=    10 NVA=   413 NVB=   414

 **** Warning!!: The largest alpha MO coefficient is  0.33037614D+03


 **** Warning!!: The largest beta MO coefficient is  0.33038102D+03

 Singles contribution to E2=   -0.7703005634D-03
 Leave Link  801 at Sat Apr 28 21:45:50 2018, MaxMem= 10737418240 cpu:            1883.9 elap:              58.9
 (Enter /home1/apps/gaussian/16rA.03/g16/l804.exe)
 Open-shell transformation, MDV= 10737418240 ITran=4 ISComp=2.
 Unit  1 TFree=       5552142 TCopy=       2552274.
 Semi-Direct transformation.
 ModeAB=           2 MOrb=            11 LenV=   10731954922
 LASXX=    104488099 LTotXX=   104488099 LenRXX=   104488099
 LTotAB=   105441286 MaxLAS=   843722264 LenRXY=   843722264
 NonZer=   858539792 LenScr=  1292860416 LnRSAI=           0
 LnScr1=           0 LExtra=    31418709 Total=   2272489488
 MaxDsk= 67108864000 SrtSym=           F ITran=            4
 DoSDTr:  NPSUse= 32
 JobTyp=1 Pass  1:  I=   1 to  11.
 (rs|ai) integrals will be sorted in core.
 Complete sort for first half transformation.
 First half transformation complete.
 Begin second half transformation for I=  10.
 Begin second half transformation for I=  10.
 Complete sort for second half transformation.
 Second half transformation complete.
 ModeAB=           2 MOrb=            10 LenV=   10731954922
 LASXX=     94955716 LTotXX=    94955716 LenRXX=   767020240
 LTotAB=    90848451 MaxLAS=   767020240 LenRXY=    90848451
 NonZer=   780490720 LenScr=  1175327744 LnRSAI=           0
 LnScr1=           0 LExtra=   979629072 Total=   3012825507
 MaxDsk= 67108864000 SrtSym=           F ITran=            4
 DoSDTr:  NPSUse= 32
 JobTyp=2 Pass  1:  I=   1 to  10.
 (rs|ai) integrals will be sorted in core.
 Complete sort for first half transformation.
 First half transformation complete.
 Begin second half transformation for I=  10.
 Begin second half transformation for I=  10.
 Complete sort for second half transformation.
 Second half transformation complete.
 Spin components of T(2) and E(2):
     alpha-alpha T2 =       0.1895562771D-01 E2=     -0.1709801295D+00
     alpha-beta  T2 =       0.7893054692D-01 E2=     -0.7871606219D+00
     beta-beta   T2 =       0.1640524678D-01 E2=     -0.1626198888D+00
 ANorm=    0.1055927693D+01
 E2 =    -0.1121530941D+01 EUMP2 =    -0.22721541501169D+03
 (S**2,0)=  0.75000D+00           (S**2,1)=  0.75000D+00
 E(PUHF)=      -0.22609388407D+03        E(PMP2)=      -0.22721541501D+03
 Leave Link  804 at Sat Apr 28 22:22:51 2018, MaxMem= 10737418240 cpu:           71042.0 elap:            2220.4
 (Enter /home1/apps/gaussian/16rA.03/g16/l913.exe)
 CIDS:  MDV= 10737418240.
 IFCWin=0 IBDFC=1 NFBD=     0     0 NFCmp=     0     0 NFFFC=     0     0
 Using original routines for 1st iteration.
 Using DD4UQ or CC4UQ for 2nd and later iterations.
 Keep R2 and R3 ints in memory in symmetry-blocked form, NReq=5277888631.
 FoFCou: FMM=F IPFlag=           8 FMFlag=           0 FMFlg1=           0
         NFxFlg=           0 DoJE=F BraDBF=F KetDBF=F FulRan=T
         wScrn=  0.000000 ICntrl=       600 IOpCl=  0 I1Cent=           0 NGrid=           0
         NMat0=    1 NMatS0=  91806 NMatT0=    0 NMatD0=    1 NMtDS0=    0 NMtDT0=    0
 Petite list used in FoFCou.
 CIDS: In Core Option IDoMem=           1.
 CCSD(T)
 =======
 Iterations= 150 Convergence= 0.100D-06
 Produce multiple copies of IABC intergrals
 Iteration Nr.   1
 **********************
 DD1Dir will call FoFMem   1 times, MxPair=       320
 NAB=   110 NAA=    55 NBB=    45.
 DD1Dir will call FoFMem   1 times, MxPair=       320
 NAB=   110 NAA=    55 NBB=    45.
 MP4(R+Q)= -0.13634913D+00
 Maximum subspace dimension=  5
 A-vector RMS=  7.0126281D-05 Max=  1.2297139D-03 conv= 1.00D-05.
 RLE energy=       -1.1255311794
 E3=        0.13231297D+00        EROMP3=      -0.22708310204D+03
 E4(SDQ)=  -0.78386072D-01        ROMP4(SDQ)=  -0.22716148811D+03
 VARIATIONAL ENERGIES WITH THE FIRST-ORDER WAVEFUNCTION:
 DE(Corr)=  -1.1255171     E(Corr)=     -227.21940117    
 NORM(A)=   0.10558556D+01
 Iteration Nr.   2
 **********************
 DD1Dir will call FoFMem   1 times, MxPair=       320
 NAB=   110 NAA=    55 NBB=    45.
 A-vector RMS=  2.2854122D-03 Max=  2.4479599D-02 conv= 1.00D-05.
 RLE energy=       -1.1049955505
 DE(Corr)= -0.98782175     E(CORR)=     -227.08170582     Delta= 1.38D-01
 NORM(A)=   0.10532582D+01
 Iteration Nr.   3
 **********************
 DD1Dir will call FoFMem   1 times, MxPair=       320
 NAB=   110 NAA=    55 NBB=    45.
 A-vector RMS=  1.8384849D-03 Max=  2.1694370D-02 conv= 1.00D-05.
 RLE energy=       -1.0649471161
 DE(Corr)= -0.99667996     E(CORR)=     -227.09056403     Delta=-8.86D-03
 NORM(A)=   0.10516901D+01
 Iteration Nr.   4
 **********************
 DD1Dir will call FoFMem   1 times, MxPair=       320
 NAB=   110 NAA=    55 NBB=    45.
 A-vector RMS=  1.0965581D-03 Max=  1.4774384D-02 conv= 1.00D-05.
 RLE energy=       -0.9810637360
 DE(Corr)=  -1.0171847     E(CORR)=     -227.11106878     Delta=-2.05D-02
 NORM(A)=   0.10646743D+01
 Iteration Nr.   5
 **********************
 DD1Dir will call FoFMem   1 times, MxPair=       320
 NAB=   110 NAA=    55 NBB=    45.
 A-vector RMS=  1.4022061D-03 Max=  1.3175320D-02 conv= 1.00D-05.
 RLE energy=       -1.0359344185
 DE(Corr)=  -1.0692817     E(CORR)=     -227.16316577     Delta=-5.21D-02
 NORM(A)=   0.10592170D+01
 Iteration Nr.   6
 **********************
 DD1Dir will call FoFMem   1 times, MxPair=       320
 NAB=   110 NAA=    55 NBB=    45.
 A-vector RMS=  9.8769007D-05 Max=  1.7720069D-03 conv= 1.00D-05.
 RLE energy=       -1.0372013652
 DE(Corr)=  -1.0380274     E(CORR)=     -227.13191144     Delta= 3.13D-02
 NORM(A)=   0.10587731D+01
 Iteration Nr.   7
 **********************
 DD1Dir will call FoFMem   1 times, MxPair=       320
 NAB=   110 NAA=    55 NBB=    45.
 A-vector RMS=  4.5947602D-05 Max=  1.2202238D-03 conv= 1.00D-05.
 RLE energy=       -1.0368513219
 DE(Corr)=  -1.0368962     E(CORR)=     -227.13078028     Delta= 1.13D-03
 NORM(A)=   0.10591736D+01
 Iteration Nr.   8
 **********************
 DD1Dir will call FoFMem   1 times, MxPair=       320
 NAB=   110 NAA=    55 NBB=    45.
 A-vector RMS=  2.8417782D-05 Max=  4.9275932D-04 conv= 1.00D-05.
 RLE energy=       -1.0369796053
 DE(Corr)=  -1.0370820     E(CORR)=     -227.13096604     Delta=-1.86D-04
 NORM(A)=   0.10592867D+01
 Iteration Nr.   9
 **********************
 DD1Dir will call FoFMem   1 times, MxPair=       320
 NAB=   110 NAA=    55 NBB=    45.
 A-vector RMS=  1.2712540D-05 Max=  1.7082778D-04 conv= 1.00D-05.
 RLE energy=       -1.0370178866
 DE(Corr)=  -1.0369944     E(CORR)=     -227.13087851     Delta= 8.75D-05
 NORM(A)=   0.10593682D+01
 Iteration Nr.  10
 **********************
 DD1Dir will call FoFMem   1 times, MxPair=       320
 NAB=   110 NAA=    55 NBB=    45.
 A-vector RMS=  5.0336687D-06 Max=  9.2349031D-05 conv= 1.00D-05.
 RLE energy=       -1.0370184841
 DE(Corr)=  -1.0370177     E(CORR)=     -227.13090178     Delta=-2.33D-05
 NORM(A)=   0.10593562D+01
 Iteration Nr.  11
 **********************
 DD1Dir will call FoFMem   1 times, MxPair=       320
 NAB=   110 NAA=    55 NBB=    45.
 A-vector RMS=  2.5534540D-06 Max=  5.1534289D-05 conv= 1.00D-05.
 RLE energy=       -1.0370077542
 DE(Corr)=  -1.0370109     E(CORR)=     -227.13089498     Delta= 6.80D-06
 NORM(A)=   0.10593388D+01
 Iteration Nr.  12
 **********************
 DD1Dir will call FoFMem   1 times, MxPair=       320
 NAB=   110 NAA=    55 NBB=    45.
 A-vector RMS=  7.6198955D-07 Max=  1.8614156D-05 conv= 1.00D-05.
 RLE energy=       -1.0370090307
 DE(Corr)=  -1.0370096     E(CORR)=     -227.13089367     Delta= 1.30D-06
 NORM(A)=   0.10593358D+01
 Iteration Nr.  13
 **********************
 DD1Dir will call FoFMem   1 times, MxPair=       320
 NAB=   110 NAA=    55 NBB=    45.
 A-vector RMS=  3.8600580D-07 Max=  6.3548894D-06 conv= 1.00D-05.
 RLE energy=       -1.0370082003
 DE(Corr)=  -1.0370083     E(CORR)=     -227.13089235     Delta= 1.33D-06
 NORM(A)=   0.10593350D+01
 Iteration Nr.  14
 **********************
 DD1Dir will call FoFMem   1 times, MxPair=       320
 NAB=   110 NAA=    55 NBB=    45.
 A-vector RMS=  2.2385264D-07 Max=  4.8650793D-06 conv= 1.00D-05.
 RLE energy=       -1.0370073503
 DE(Corr)=  -1.0370076     E(CORR)=     -227.13089170     Delta= 6.42D-07
 NORM(A)=   0.10593348D+01
 Iteration Nr.  15
 **********************
 DD1Dir will call FoFMem   1 times, MxPair=       320
 NAB=   110 NAA=    55 NBB=    45.
 A-vector RMS=  6.5550849D-08 Max=  1.0643360D-06 conv= 1.00D-05.
 RLE energy=       -1.0370078736
 DE(Corr)=  -1.0370080     E(CORR)=     -227.13089207     Delta=-3.64D-07
 NORM(A)=   0.10593352D+01
 Iteration Nr.  16
 **********************
 DD1Dir will call FoFMem   1 times, MxPair=       320
 NAB=   110 NAA=    55 NBB=    45.
 A-vector RMS=  4.4378033D-08 Max=  8.6990315D-07 conv= 1.00D-05.
 RLE energy=       -1.0370079657
 DE(Corr)=  -1.0370080     E(CORR)=     -227.13089202     Delta= 4.41D-08
 NORM(A)=   0.10593355D+01
 CI/CC converged in   16 iterations to DelEn= 4.41D-08 Conv= 1.00D-07 ErrA1= 4.44D-08 Conv= 1.00D-05
 Wavefunction amplitudes converged. E(Corr)=     -227.13089202    
 Largest amplitude= 5.91D-02
 Time for triples=   213492.70 seconds.
 T4(CCSD)= -0.32642518D-01
 T5(CCSD)=  0.30978069D-02
 CCSD(T)= -0.22716043674D+03
 Discarding MO integrals.
 Leave Link  913 at Sun Apr 29 00:35:42 2018, MaxMem= 10737418240 cpu:          253703.3 elap:            7970.5
 (Enter /home1/apps/gaussian/16rA.03/g16/l601.exe)
 Copying SCF densities to generalized density rwf, IOpCl= 0 IROHF=1.

 **********************************************************************

            Population analysis using the SCF density.

 **********************************************************************

 Orbital symmetries:
       Occupied  (SG) (SG) (PI) (PI) (SG) (DLTA) (DLTA) (PI) (PI)
                 (SG) (SG)
       Virtual   (SG) (PI) (PI) (SG) (PI) (PI) (SG) (SG) (SG) (PI)
                 (PI) (DLTA) (DLTA) (SG) (PI) (PI) (SG) (PI) (PI)
                 (SG) (SG) (SG) (PI) (PI) (DLTA) (DLTA) (DLTA)
                 (DLTA) (SG) (SG) (PI) (PI) (PI) (PI) (PHI) (PHI)
                 (PI) (PI) (DLTA) (DLTA) (SG) (SG) (SG) (PI) (PI)
                 (SG) (DLTA) (DLTA) (PHI) (PHI) (SG) (PI) (PI)
                 (DLTA) (DLTA) (PI) (PI) (SG) (SG) (DLTA) (DLTA)
                 (PI) (PI) (?A) (?A) (PI) (PI) (SG) (PHI) (PHI)
                 (PI) (PI) (DLTA) (DLTA) (PHI) (PHI) (SG) (SG)
                 (SG) (PI) (PI) (DLTA) (DLTA) (DLTA) (DLTA) (?A)
                 (?A) (PI) (PI) (SG) (PI) (PI) (SG) (PHI) (PHI)
                 (DLTA) (DLTA) (SG) (PI) (PI) (SG) (PHI) (PHI)
                 (SG) (DLTA) (DLTA) (PI) (PI) (SG) (PI) (PI) (DLTA)
                 (DLTA) (PHI) (PHI) (PI) (PI) (SG) (?B) (?B) (?A)
                 (?A) (DLTA) (DLTA) (SG) (?A) (?A) (PI) (PI) (PHI)
                 (PHI) (DLTA) (DLTA) (SG) (PI) (PI) (DLTA) (DLTA)
                 (PHI) (PHI) (SG) (PI) (PI) (SG) (PI) (PI) (DLTA)
                 (DLTA) (SG) (PI) (PI) (SG) (SG) (SG) (PI) (PI)
                 (DLTA) (DLTA) (PHI) (PHI) (PI) (PI) (SG) (?A)
                 (?A) (PHI) (PHI) (SG) (DLTA) (DLTA) (PI) (PI)
                 (PHI) (PHI) (DLTA) (DLTA) (SG) (PI) (PI) (DLTA)
                 (DLTA) (DLTA) (DLTA) (PI) (PI) (SG) (?A) (?A)
                 (PHI) (PHI) (?B) (?B) (?A) (?A) (PI) (PI) (SG)
                 (PHI) (PHI) (DLTA) (DLTA) (DLTA) (DLTA) (SG) (PI)
                 (PI) (SG) (PI) (PI) (PI) (PI) (SG) (SG) (?B) (?B)
                 (?A) (?A) (PHI) (PHI) (SG) (DLTA) (DLTA) (SG)
                 (SG) (PI) (PI) (SG) (DLTA) (DLTA) (PI) (PI) (SG)
                 (PI) (PI) (SG) (PHI) (PHI) (DLTA) (DLTA) (PI)
                 (PI) (SG) (?A) (?A) (PHI) (PHI) (DLTA) (DLTA)
                 (PI) (PI) (SG) (?B) (?B) (?A) (?A) (PHI) (PHI)
                 (DLTA) (DLTA) (SG) (PI) (PI) (SG) (SG) (SG) (SG)
                 (?B) (?B) (?A) (?A) (PHI) (PHI) (DLTA) (DLTA)
                 (PI) (PI) (SG) (DLTA) (DLTA) (PI) (PI) (SG) (PI)
                 (PI) (SG) (?A) (?A) (PHI) (PHI) (DLTA) (DLTA)
                 (PI) (PI) (SG) (PHI) (PHI) (DLTA) (DLTA) (SG)
                 (PI) (PI) (?B) (?B) (SG) (?A) (?A) (PHI) (PHI)
                 (DLTA) (DLTA) (PI) (PI) (SG) (DLTA) (DLTA) (PI)
                 (PI) (SG) (SG) (SG) (?B) (?B) (?A) (?A) (PHI)
                 (PHI) (DLTA) (DLTA) (PI) (PI) (SG) (PI) (PI) (SG)
                 (DLTA) (DLTA) (PI) (PI) (SG) (SG) (SG) (PI) (PI)
                 (SG) (DLTA) (DLTA) (PI) (PI) (SG) (SG) (PI) (PI)
                 (SG) (SG) (DLTA) (DLTA) (PI) (PI) (SG) (PI) (PI)
                 (SG) (SG) (SG) (PI) (PI) (SG) (DLTA) (DLTA) (PI)
                 (PI) (SG) (SG) (PI) (PI) (SG) (SG) (PI) (PI) (SG)
                 (DLTA) (DLTA) (PI) (PI) (SG) (SG) (PI) (PI) (SG)
                 (SG) (SG) (PI) (PI) (SG) (SG) (PI) (PI) (SG) (SG)
                 (PI) (PI) (SG) (SG) (SG) (PI) (PI) (SG) (SG) (SG)
                 (SG) (SG) (SG) (SG)
 The electronic state is 2-SG.
 Alpha  occ. eigenvalues --   -5.89604  -4.01676  -4.00903  -4.00903  -0.83430
 Alpha  occ. eigenvalues --   -0.80717  -0.80717  -0.80648  -0.80648  -0.48974
 Alpha  occ. eigenvalues --   -0.26684
 Alpha virt. eigenvalues --    0.01969   0.01969   0.02107   0.03393   0.06387
 Alpha virt. eigenvalues --    0.06387   0.06966   0.11892   0.13988   0.15315
 Alpha virt. eigenvalues --    0.15315   0.15550   0.15550   0.19204   0.20421
 Alpha virt. eigenvalues --    0.20421   0.24213   0.26931   0.26931   0.36534
 Alpha virt. eigenvalues --    0.38024   0.44458   0.44540   0.44540   0.47160
 Alpha virt. eigenvalues --    0.47160   0.54581   0.54581   0.56811   0.60947
 Alpha virt. eigenvalues --    0.63328   0.63328   0.66110   0.66110   0.75624
 Alpha virt. eigenvalues --    0.75624   0.87423   0.87423   0.89672   0.89672
 Alpha virt. eigenvalues --    0.90000   0.98454   1.04996   1.05190   1.05190
 Alpha virt. eigenvalues --    1.15989   1.20866   1.20866   1.25756   1.25756
 Alpha virt. eigenvalues --    1.29392   1.37647   1.37647   1.44386   1.44386
 Alpha virt. eigenvalues --    1.46760   1.46760   1.48876   1.82127   1.89477
 Alpha virt. eigenvalues --    1.89477   1.95113   1.95113   2.16918   2.16918
 Alpha virt. eigenvalues --    2.18473   2.18473   2.19618   2.26568   2.26568
 Alpha virt. eigenvalues --    2.34386   2.34386   2.36223   2.36223   2.40426
 Alpha virt. eigenvalues --    2.40426   2.40914   2.57575   2.69349   2.83117
 Alpha virt. eigenvalues --    2.83117   2.86104   2.86104   3.00470   3.00470
 Alpha virt. eigenvalues --    3.01052   3.01052   3.02143   3.02143   3.03951
 Alpha virt. eigenvalues --    3.26254   3.26254   3.43894   3.46075   3.46075
 Alpha virt. eigenvalues --    3.47832   3.47832   3.65007   3.90398   3.90398
 Alpha virt. eigenvalues --    3.91585   4.22036   4.22036   4.55203   4.84582
 Alpha virt. eigenvalues --    4.84582   5.11357   5.11357   5.20013   5.48900
 Alpha virt. eigenvalues --    5.48900   5.57587   5.57587   5.84856   5.84856
 Alpha virt. eigenvalues --    5.88499   5.88499   5.92053   5.95702   5.95702
 Alpha virt. eigenvalues --    6.08071   6.08071   6.08305   6.08305   6.10152
 Alpha virt. eigenvalues --    6.14791   6.14791   6.22166   6.22166   6.24656
 Alpha virt. eigenvalues --    6.24656   6.36849   6.36849   6.41619   6.45343
 Alpha virt. eigenvalues --    6.45343   6.57808   6.57808   6.71902   6.71902
 Alpha virt. eigenvalues --    6.79091   6.80866   6.80866   7.46964   7.60195
 Alpha virt. eigenvalues --    7.60195   7.79466   7.79466   8.09687   8.90563
 Alpha virt. eigenvalues --    8.90563   9.13747   9.69311  11.38393  12.82103
 Alpha virt. eigenvalues --   12.82103  12.88760  12.88760  12.90516  12.90516
 Alpha virt. eigenvalues --   12.97176  12.97176  13.07760  13.14555  13.14555
 Alpha virt. eigenvalues --   13.25373  13.25373  13.28535  13.39598  13.39598
 Alpha virt. eigenvalues --   13.47702  13.47702  13.56401  13.56401  13.68229
 Alpha virt. eigenvalues --   13.68229  13.84404  14.03519  14.03519  14.03886
 Alpha virt. eigenvalues --   14.03886  14.30066  14.30066  14.41427  14.41427
 Alpha virt. eigenvalues --   14.46628  14.98271  14.98271  15.08847  15.08847
 Alpha virt. eigenvalues --   15.11910  15.11910  15.18322  15.18322  15.32434
 Alpha virt. eigenvalues --   15.32434  15.36188  15.45576  15.45576  15.53526
 Alpha virt. eigenvalues --   15.53526  15.84271  15.84271  16.00868  16.15165
 Alpha virt. eigenvalues --   16.15165  16.33044  17.30624  17.30624  17.75696
 Alpha virt. eigenvalues --   17.75696  17.78598  17.78598  17.78822  17.78822
 Alpha virt. eigenvalues --   17.79988  17.79988  18.00970  18.00970  18.13556
 Alpha virt. eigenvalues --   19.13257  19.13257  19.25310  20.34307  20.86383
 Alpha virt. eigenvalues --   20.86383  21.92105  26.05395  26.05395  26.15922
 Alpha virt. eigenvalues --   26.15922  26.35706  26.55354  26.55354  28.05701
 Alpha virt. eigenvalues --   31.04343  31.04343  31.19081  31.19081  31.96503
 Alpha virt. eigenvalues --   31.96503  32.77933  32.85517  32.85517  32.91226
 Alpha virt. eigenvalues --   32.91226  33.18127  33.18127  33.77537  33.77537
 Alpha virt. eigenvalues --   34.17631  34.28337  34.28337  34.32105  34.32105
 Alpha virt. eigenvalues --   34.48120  34.48120  34.64468  34.64468  34.84038
 Alpha virt. eigenvalues --   34.94937  34.94937  36.59590  38.00421  40.87223
 Alpha virt. eigenvalues --   40.87223  40.87449  40.87449  40.87992  40.87992
 Alpha virt. eigenvalues --   40.94470  40.94470  41.30695  41.30695  41.87205
 Alpha virt. eigenvalues --   41.87205  42.04851  47.19332  47.19332  47.33691
 Alpha virt. eigenvalues --   47.33691  47.70377  50.03710  50.03710  51.56339
 Alpha virt. eigenvalues --   69.50451  69.50451  69.54700  69.54700  69.74460
 Alpha virt. eigenvalues --   69.74460  70.13566  70.13566  70.49746  72.72968
 Alpha virt. eigenvalues --   72.72968  72.83533  72.83533  73.09082  73.37248
 Alpha virt. eigenvalues --   73.37248  74.05186  74.05186  74.05319  74.07817
 Alpha virt. eigenvalues --   74.07817  74.18288  74.18288  74.28997  74.28997
 Alpha virt. eigenvalues --   74.48088  74.48088  75.12620  80.71862  80.71862
 Alpha virt. eigenvalues --   80.85818  80.85818  81.29715  86.34420  86.34420
 Alpha virt. eigenvalues --   86.34838  86.34838  86.35321  86.35321  86.38788
 Alpha virt. eigenvalues --   86.38788  86.58312  86.58312  86.90187  86.90187
 Alpha virt. eigenvalues --   86.94776  91.15759  91.15759  92.75784 134.02305
 Alpha virt. eigenvalues --  134.02305 134.15168 134.15168 134.54267 140.54246
 Alpha virt. eigenvalues --  142.29928 165.68453 165.68453 167.28414 234.07697
 Alpha virt. eigenvalues --  234.07697 234.19402 234.19402 234.55560 262.38127
 Alpha virt. eigenvalues --  298.71720 298.71720 300.23691 434.60003 477.95547
 Alpha virt. eigenvalues --  477.95547 478.05304 478.05304 478.35700 530.20237
 Alpha virt. eigenvalues --  530.20237 531.66336 706.84912 817.99072 945.89913
 Alpha virt. eigenvalues --  945.89913 947.331761181.181891181.181891181.25683
 Alpha virt. eigenvalues -- 1181.256831181.499641191.484281732.045601732.04560
 Alpha virt. eigenvalues -- 1733.444002079.534323307.437963307.437963308.76791
 Alpha virt. eigenvalues -- 3676.970643676.970643677.020543677.020543677.18391
 Alpha virt. eigenvalues -- 3764.900756686.871066686.871066688.104057080.66558
 Alpha virt. eigenvalues -- **************************************************
 Alpha virt. eigenvalues -- **************************************************
 Alpha virt. eigenvalues -- **************************************************
 Alpha virt. eigenvalues -- **************************************************
 Alpha virt. eigenvalues -- ******************************
     Molecular Orbital Coefficients:
                           6         7         8         9        10
                           O         O         O         O         O
     Eigenvalues --    -0.80717  -0.80717  -0.80648  -0.80648  -0.48974
   1 1   Zn 1S          0.00000   0.00000   0.00000   0.00000  -0.00000
   2        2S          0.00000  -0.00000   0.00000   0.00000   0.00000
   3        3S          0.00000   0.00000   0.00000   0.00000  -0.00000
   4        4S          0.00000  -0.00000   0.00000   0.00000   0.00000
   5        5S          0.00000   0.00000   0.00000   0.00000  -0.00000
   6        6S          0.00000  -0.00000   0.00000   0.00000   0.00000
   7        7S          0.00000   0.00000   0.00000   0.00000  -0.00000
   8        8S          0.00000  -0.00000   0.00000   0.00000   0.00000
   9        9S          0.00000   0.00000   0.00000   0.00000  -0.00000
  10       10S          0.00000  -0.00000   0.00000   0.00000   0.00000
  11       11S          0.00000   0.00000   0.00000   0.00000  -0.00001
  12       12S          0.00000  -0.00000   0.00000   0.00000   0.00003
  13       13S          0.00000   0.00000   0.00000   0.00000  -0.00007
  14       14S          0.00000  -0.00000   0.00000   0.00000   0.00017
  15       15S          0.00000   0.00000   0.00000   0.00000  -0.00043
  16       16S          0.00000  -0.00000   0.00000   0.00000   0.00111
  17       17S          0.00000   0.00000   0.00000   0.00000  -0.00088
  18       18S          0.00000   0.00000   0.00000   0.00000  -0.01516
  19       19S          0.00000  -0.00000   0.00000   0.00000   0.02497
  20       20S          0.00000  -0.00000   0.00000   0.00000   0.03437
  21       21S          0.00000   0.00000   0.00000   0.00000   0.00426
  22       22S          0.00000   0.00000   0.00000   0.00000  -0.09313
  23       23S          0.00000   0.00000   0.00000   0.00000  -0.18001
  24       24S          0.00000   0.00000   0.00000   0.00000  -0.11034
  25       25S          0.00000  -0.00000   0.00000   0.00000   0.11582
  26       26S          0.00000  -0.00000   0.00000   0.00000   0.23594
  27       27S          0.00000  -0.00000   0.00000   0.00000   0.14025
  28       28S          0.00000   0.00000   0.00000   0.00000   0.00139
  29       29S          0.00000  -0.00000   0.00000   0.00000   0.03663
  30       30S          0.00000  -0.00000   0.00000   0.00000  -0.02283
  31       31S          0.00000  -0.00000   0.00000   0.00000  -0.00024
  32       32PX         0.00000   0.00000   0.00000  -0.00000   0.00000
  33       32PY         0.00000   0.00000  -0.00000   0.00000   0.00000
  34       32PZ         0.00000  -0.00000   0.00000   0.00000   0.00000
  35       33PX         0.00000   0.00000   0.00000   0.00000   0.00000
  36       33PY         0.00000   0.00000   0.00000   0.00000   0.00000
  37       33PZ         0.00000   0.00000   0.00000   0.00000  -0.00000
  38       34PX         0.00000   0.00000   0.00000  -0.00000   0.00000
  39       34PY         0.00000   0.00000  -0.00000   0.00000   0.00000
  40       34PZ         0.00000  -0.00000   0.00000   0.00000   0.00000
  41       35PX         0.00000   0.00000   0.00000   0.00000   0.00000
  42       35PY         0.00000   0.00000   0.00000   0.00000   0.00000
  43       35PZ         0.00000   0.00000   0.00000   0.00000  -0.00000
  44       36PX         0.00000   0.00000   0.00000  -0.00000   0.00000
  45       36PY         0.00000   0.00000  -0.00000   0.00000   0.00000
  46       36PZ         0.00000  -0.00000   0.00000   0.00000   0.00000
  47       37PX         0.00000   0.00000   0.00000   0.00000   0.00000
  48       37PY         0.00000   0.00000   0.00000   0.00000   0.00000
  49       37PZ         0.00000   0.00000   0.00000   0.00000  -0.00002
  50       38PX         0.00000   0.00000   0.00000  -0.00000   0.00000
  51       38PY         0.00000   0.00000  -0.00000   0.00000   0.00000
  52       38PZ         0.00000  -0.00000   0.00000   0.00000   0.00005
  53       39PX         0.00000   0.00000   0.00000   0.00000   0.00000
  54       39PY         0.00000   0.00000   0.00000   0.00000   0.00000
  55       39PZ         0.00000   0.00000   0.00000   0.00000  -0.00017
  56       40PX         0.00000   0.00000   0.00000  -0.00000   0.00000
  57       40PY         0.00000   0.00000  -0.00000   0.00000   0.00000
  58       40PZ         0.00000  -0.00000   0.00000   0.00000   0.00058
  59       41PX         0.00000   0.00000   0.00000   0.00001   0.00000
  60       41PY         0.00000   0.00000   0.00001   0.00000   0.00000
  61       41PZ         0.00000   0.00000   0.00000   0.00000  -0.00059
  62       42PX         0.00000   0.00000   0.00000  -0.00013   0.00000
  63       42PY         0.00000   0.00000  -0.00013   0.00000   0.00000
  64       42PZ         0.00000   0.00000   0.00000   0.00000  -0.00449
  65       43PX         0.00000   0.00000   0.00000  -0.00084   0.00000
  66       43PY         0.00000   0.00000  -0.00084   0.00000   0.00000
  67       43PZ         0.00000   0.00000   0.00000   0.00000  -0.00022
  68       44PX         0.00000   0.00000   0.00000   0.00013   0.00000
  69       44PY         0.00000   0.00000   0.00013   0.00000   0.00000
  70       44PZ         0.00000  -0.00000   0.00000   0.00000   0.00758
  71       45PX         0.00000   0.00000   0.00000  -0.00116   0.00000
  72       45PY         0.00000   0.00000  -0.00116   0.00000   0.00000
  73       45PZ         0.00000  -0.00000   0.00000   0.00000   0.02926
  74       46PX         0.00000   0.00000   0.00000   0.00102   0.00000
  75       46PY         0.00000   0.00000   0.00102   0.00000   0.00000
  76       46PZ         0.00000  -0.00000   0.00000   0.00000   0.05427
  77       47PX         0.00000   0.00000   0.00000   0.00000   0.00000
  78       47PY         0.00000   0.00000   0.00000   0.00000   0.00000
  79       47PZ         0.00000  -0.00000   0.00000   0.00000   0.04091
  80       48PX         0.00000   0.00000   0.00000   0.00024   0.00000
  81       48PY         0.00000   0.00000   0.00024   0.00000   0.00000
  82       48PZ         0.00000   0.00000   0.00000   0.00000  -0.00536
  83       49PX         0.00000   0.00000   0.00000  -0.00158   0.00000
  84       49PY         0.00000   0.00000  -0.00158   0.00000   0.00000
  85       49PZ         0.00000   0.00000   0.00000   0.00000  -0.07786
  86       50PX         0.00000   0.00000   0.00000  -0.00015   0.00000
  87       50PY         0.00000   0.00000  -0.00015   0.00000   0.00000
  88       50PZ         0.00000   0.00000   0.00000   0.00000  -0.06293
  89       51PX         0.00000   0.00000   0.00000   0.00041   0.00000
  90       51PY         0.00000   0.00000   0.00041   0.00000   0.00000
  91       51PZ         0.00000  -0.00000   0.00000   0.00000  -0.00737
  92       52PX         0.00000   0.00000   0.00000   0.00079   0.00000
  93       52PY         0.00000   0.00000   0.00079   0.00000   0.00000
  94       52PZ         0.00000   0.00000   0.00000   0.00000  -0.00665
  95       53PX         0.00000   0.00000   0.00000   0.00141   0.00000
  96       53PY         0.00000   0.00000   0.00141   0.00000   0.00000
  97       53PZ         0.00000  -0.00000   0.00000   0.00000   0.01334
  98       54PX         0.00000   0.00000   0.00000  -0.00007   0.00000
  99       54PY         0.00000   0.00000  -0.00007   0.00000   0.00000
 100       54PZ         0.00000   0.00000   0.00000   0.00000   0.00021
 101       55D 0        0.00000  -0.00000   0.00000   0.00000  -0.00000
 102       55D+1        0.00000   0.00000   0.00000   0.00000   0.00000
 103       55D-1        0.00000   0.00000   0.00000   0.00000   0.00000
 104       55D+2        0.00000   0.00000   0.00000   0.00000  -0.00000
 105       55D-2        0.00000   0.00000   0.00000   0.00000   0.00000
 106       56D 0        0.00000   0.00000   0.00000   0.00000   0.00000
 107       56D+1        0.00000   0.00000   0.00000  -0.00001   0.00000
 108       56D-1        0.00000   0.00000  -0.00001   0.00000   0.00000
 109       56D+2        0.00000  -0.00001   0.00000   0.00000   0.00000
 110       56D-2       -0.00001   0.00000   0.00000   0.00000   0.00000
 111       57D 0        0.00000  -0.00000   0.00000   0.00000  -0.00016
 112       57D+1        0.00000   0.00000   0.00000   0.00059   0.00000
 113       57D-1        0.00000   0.00000   0.00059   0.00000   0.00000
 114       57D+2        0.00000   0.00059   0.00000   0.00000  -0.00000
 115       57D-2        0.00059   0.00000   0.00000   0.00000   0.00000
 116       58D 0        0.00000  -0.00000   0.00000   0.00000  -0.00376
 117       58D+1        0.00000   0.00000   0.00000   0.01343   0.00000
 118       58D-1        0.00000   0.00000   0.01343   0.00000   0.00000
 119       58D+2        0.00000   0.01348   0.00000   0.00000  -0.00000
 120       58D-2        0.01348   0.00000   0.00000   0.00000   0.00000
 121       59D 0        0.00000  -0.00000   0.00000   0.00000  -0.01997
 122       59D+1        0.00000   0.00000   0.00000   0.07184   0.00000
 123       59D-1        0.00000   0.00000   0.07184   0.00000   0.00000
 124       59D+2        0.00000   0.07203   0.00000   0.00000  -0.00000
 125       59D-2        0.07203   0.00000   0.00000   0.00000   0.00000
 126       60D 0        0.00000  -0.00000   0.00000   0.00000  -0.04516
 127       60D+1        0.00000   0.00000   0.00000   0.17017   0.00000
 128       60D-1        0.00000   0.00000   0.17017   0.00000   0.00000
 129       60D+2        0.00000   0.16958   0.00000   0.00000  -0.00000
 130       60D-2        0.16958   0.00000   0.00000   0.00000   0.00000
 131       61D 0        0.00000  -0.00000   0.00000   0.00000  -0.06841
 132       61D+1        0.00000   0.00000   0.00000   0.24898   0.00000
 133       61D-1        0.00000   0.00000   0.24898   0.00000   0.00000
 134       61D+2        0.00000   0.24924   0.00000   0.00000  -0.00000
 135       61D-2        0.24924   0.00000   0.00000   0.00000   0.00000
 136       62D 0        0.00000  -0.00001   0.00000   0.00000  -0.08120
 137       62D+1        0.00000   0.00000   0.00000   0.29000   0.00000
 138       62D-1        0.00000   0.00000   0.29000   0.00000   0.00000
 139       62D+2        0.00000   0.29111   0.00000   0.00000  -0.00000
 140       62D-2        0.29111   0.00000   0.00000   0.00000   0.00000
 141       63D 0        0.00000  -0.00001   0.00000   0.00000  -0.07293
 142       63D+1        0.00000   0.00000   0.00000   0.27087   0.00000
 143       63D-1        0.00000   0.00000   0.27087   0.00000   0.00000
 144       63D+2        0.00000   0.27108   0.00000   0.00000  -0.00000
 145       63D-2        0.27108   0.00000   0.00000   0.00000   0.00000
 146       64D 0        0.00000  -0.00000   0.00000   0.00000  -0.05524
 147       64D+1        0.00000   0.00000   0.00000   0.19247   0.00000
 148       64D-1        0.00000   0.00000   0.19247   0.00000   0.00000
 149       64D+2        0.00000   0.19409   0.00000   0.00000  -0.00000
 150       64D-2        0.19409   0.00000   0.00000   0.00000   0.00000
 151       65D 0        0.00000  -0.00000   0.00000   0.00000  -0.02460
 152       65D+1        0.00000   0.00000   0.00000   0.09175   0.00000
 153       65D-1        0.00000   0.00000   0.09175   0.00000   0.00000
 154       65D+2        0.00000   0.09244   0.00000   0.00000  -0.00000
 155       65D-2        0.09244   0.00000   0.00000   0.00000   0.00000
 156       66D 0        0.00000  -0.00000   0.00000   0.00000  -0.00275
 157       66D+1        0.00000   0.00000   0.00000   0.01910   0.00000
 158       66D-1        0.00000   0.00000   0.01910   0.00000   0.00000
 159       66D+2        0.00000   0.01771   0.00000   0.00000  -0.00000
 160       66D-2        0.01771   0.00000   0.00000   0.00000   0.00000
 161       67D 0        0.00000   0.00000   0.00000   0.00000   0.00156
 162       67D+1        0.00000   0.00000   0.00000  -0.01112   0.00000
 163       67D-1        0.00000   0.00000  -0.01112   0.00000   0.00000
 164       67D+2        0.00000  -0.01042   0.00000   0.00000   0.00000
 165       67D-2       -0.01042   0.00000   0.00000   0.00000   0.00000
 166       68D 0        0.00000   0.00000   0.00000   0.00000   0.00036
 167       68D+1        0.00000   0.00000   0.00000  -0.00699   0.00000
 168       68D-1        0.00000   0.00000  -0.00699   0.00000   0.00000
 169       68D+2        0.00000  -0.00623   0.00000   0.00000   0.00000
 170       68D-2       -0.00623   0.00000   0.00000   0.00000   0.00000
 171       69D 0        0.00000  -0.00000   0.00000   0.00000   0.00368
 172       69D+1        0.00000   0.00000   0.00000   0.00019   0.00000
 173       69D-1        0.00000   0.00000   0.00019   0.00000   0.00000
 174       69D+2        0.00000  -0.00001   0.00000   0.00000   0.00000
 175       69D-2       -0.00001   0.00000   0.00000   0.00000   0.00000
 176       70F 0        0.00000  -0.00000   0.00000   0.00000  -0.00005
 177       70F+1        0.00000   0.00000   0.00000   0.00003   0.00000
 178       70F-1        0.00000   0.00000   0.00003   0.00000   0.00000
 179       70F+2        0.00000   0.00002   0.00000   0.00000   0.00000
 180       70F-2        0.00002   0.00000   0.00000   0.00000   0.00000
 181       70F+3        0.00000   0.00000   0.00000   0.00000   0.00000
 182       70F-3        0.00000   0.00000   0.00000   0.00000   0.00000
 183       71F 0        0.00000   0.00000   0.00000   0.00000  -0.00026
 184       71F+1        0.00000   0.00000   0.00000   0.00006   0.00000
 185       71F-1        0.00000   0.00000   0.00006   0.00000   0.00000
 186       71F+2        0.00000   0.00009   0.00000   0.00000  -0.00000
 187       71F-2        0.00009   0.00000   0.00000   0.00000   0.00000
 188       71F+3        0.00000   0.00000   0.00000   0.00000   0.00000
 189       71F-3        0.00000   0.00000   0.00000   0.00000   0.00000
 190       72F 0        0.00000   0.00000   0.00000   0.00000  -0.00058
 191       72F+1        0.00000   0.00000   0.00000   0.00024   0.00000
 192       72F-1        0.00000   0.00000   0.00024   0.00000   0.00000
 193       72F+2        0.00000   0.00017   0.00000   0.00000   0.00000
 194       72F-2        0.00017   0.00000   0.00000   0.00000   0.00000
 195       72F+3        0.00000   0.00000   0.00000   0.00000   0.00000
 196       72F-3        0.00000   0.00000   0.00000   0.00000   0.00000
 197       73F 0        0.00000   0.00000   0.00000   0.00000  -0.00224
 198       73F+1        0.00000   0.00000   0.00000  -0.00003   0.00000
 199       73F-1        0.00000   0.00000  -0.00003   0.00000   0.00000
 200       73F+2        0.00000   0.00040   0.00000   0.00000  -0.00000
 201       73F-2        0.00040   0.00000   0.00000   0.00000   0.00000
 202       73F+3        0.00000   0.00000   0.00000  -0.00000   0.00000
 203       73F-3        0.00000   0.00000  -0.00000   0.00000   0.00000
 204       74F 0        0.00000   0.00000   0.00000   0.00000  -0.00189
 205       74F+1        0.00000   0.00000   0.00000   0.00031   0.00000
 206       74F-1        0.00000   0.00000   0.00031   0.00000   0.00000
 207       74F+2        0.00000   0.00066   0.00000   0.00000   0.00000
 208       74F-2        0.00066   0.00000   0.00000   0.00000   0.00000
 209       74F+3        0.00000   0.00000   0.00000  -0.00000   0.00000
 210       74F-3        0.00000   0.00000   0.00000   0.00000   0.00000
 211       75F 0        0.00000   0.00000   0.00000   0.00000  -0.00099
 212       75F+1        0.00000   0.00000   0.00000  -0.00022   0.00000
 213       75F-1        0.00000   0.00000  -0.00022   0.00000   0.00000
 214       75F+2        0.00000  -0.00001   0.00000   0.00000   0.00000
 215       75F-2       -0.00001   0.00000   0.00000   0.00000   0.00000
 216       75F+3        0.00000   0.00000   0.00000   0.00000   0.00000
 217       75F-3        0.00000   0.00000   0.00000   0.00000   0.00000
 218       76G 0        0.00000   0.00000   0.00000   0.00000   0.00002
 219       76G+1        0.00000   0.00000   0.00000  -0.00002   0.00000
 220       76G-1        0.00000   0.00000  -0.00002   0.00000   0.00000
 221       76G+2        0.00000  -0.00001   0.00000   0.00000  -0.00000
 222       76G-2       -0.00001   0.00000   0.00000   0.00000   0.00000
 223       76G+3        0.00000   0.00000   0.00000  -0.00000   0.00000
 224       76G-3        0.00000   0.00000  -0.00000   0.00000   0.00000
 225       76G+4        0.00000   0.00000   0.00000   0.00000   0.00000
 226       76G-4       -0.00000   0.00000   0.00000   0.00000   0.00000
 227       77G 0        0.00000   0.00000   0.00000   0.00000  -0.00000
 228       77G+1        0.00000   0.00000   0.00000  -0.00007   0.00000
[...]
 207       74F+2        0.00000   0.00000   0.00000  -0.00000
 208       74F-2        0.00000   0.00000   0.00000   0.00000
 209       74F+3        0.00000   0.00000   0.00000   0.00000
 210       74F-3        0.00000   0.00000   0.00000   0.00000
 211       75F 0        0.00039   0.00016   0.00023  -0.00007
 212       75F+1        0.00000   0.00000   0.00000   0.00000
 213       75F-1        0.00000   0.00000   0.00000   0.00000
 214       75F+2       -0.00000  -0.00000  -0.00000   0.00000
 215       75F-2       -0.00000  -0.00000  -0.00000   0.00000
 216       75F+3        0.00000   0.00000   0.00000   0.00000
 217       75F-3        0.00000   0.00000   0.00000   0.00000
 218       76G 0        0.00000   0.00000   0.00000   0.00000
 219       76G+1        0.00000   0.00000   0.00000   0.00000
 220       76G-1        0.00000   0.00000   0.00000   0.00000
 221       76G+2        0.00000   0.00000   0.00000   0.00000
 222       76G-2        0.00000   0.00000   0.00000   0.00000
 223       76G+3        0.00000   0.00000   0.00000   0.00000
 224       76G-3        0.00000   0.00000   0.00000   0.00000
 225       76G+4        0.00000   0.00000   0.00000   0.00000
 226       76G-4        0.00000   0.00000   0.00000   0.00000
 227       77G 0       -0.00000  -0.00000  -0.00000  -0.00000
 228       77G+1       -0.00000  -0.00000  -0.00000   0.00000
 229       77G-1       -0.00000  -0.00000  -0.00000   0.00000
 230       77G+2        0.00000   0.00000   0.00000   0.00000
 231       77G-2        0.00000   0.00000   0.00000   0.00000
 232       77G+3        0.00000   0.00000   0.00000   0.00000
 233       77G-3        0.00000   0.00000   0.00000   0.00000
 234       77G+4       -0.00000  -0.00000  -0.00000  -0.00000
 235       77G-4        0.00000   0.00000   0.00000   0.00000
 236       78G 0        0.00000   0.00000   0.00000   0.00000
 237       78G+1        0.00000   0.00000   0.00000   0.00000
 238       78G-1        0.00000   0.00000   0.00000   0.00000
 239       78G+2       -0.00000  -0.00000  -0.00000  -0.00000
 240       78G-2       -0.00000  -0.00000  -0.00000   0.00000
 241       78G+3        0.00000   0.00000   0.00000   0.00000
 242       78G-3       -0.00000  -0.00000  -0.00000   0.00000
 243       78G+4        0.00000   0.00000   0.00000  -0.00000
 244       78G-4       -0.00000  -0.00000  -0.00000   0.00000
 245       79G 0        0.00003   0.00002   0.00002  -0.00000
 246       79G+1        0.00000   0.00000   0.00000   0.00000
 247       79G-1        0.00000   0.00000   0.00000   0.00000
 248       79G+2        0.00000   0.00000   0.00000   0.00000
 249       79G-2        0.00000   0.00000   0.00000   0.00000
 250       79G+3        0.00000   0.00000   0.00000   0.00000
 251       79G-3        0.00000   0.00000   0.00000   0.00000
 252       79G+4        0.00000   0.00000   0.00000   0.00000
 253       79G-4        0.00000   0.00000   0.00000   0.00000
 254       80G 0       -0.00004  -0.00003  -0.00000  -0.00003
 255       80G+1       -0.00001  -0.00000  -0.00000   0.00000
 256       80G-1       -0.00001  -0.00000  -0.00000   0.00000
 257       80G+2        0.00000   0.00000   0.00000   0.00000
 258       80G-2        0.00000   0.00000   0.00000   0.00000
 259       80G+3        0.00000   0.00000   0.00000   0.00000
 260       80G-3        0.00000   0.00000   0.00000   0.00000
 261       80G+4        0.00000   0.00000   0.00000  -0.00000
 262       80G-4        0.00000   0.00000   0.00000   0.00000
 263       81H 0        0.00000   0.00000   0.00000  -0.00000
 264       81H+1        0.00000   0.00000   0.00000   0.00000
 265       81H-1        0.00000   0.00000   0.00000   0.00000
 266       81H+2        0.00000   0.00000   0.00000   0.00000
 267       81H-2        0.00000   0.00000   0.00000   0.00000
 268       81H+3        0.00000   0.00000   0.00000   0.00000
 269       81H-3        0.00000   0.00000   0.00000   0.00000
 270       81H+4       -0.00000  -0.00000  -0.00000   0.00000
 271       81H-4        0.00000   0.00000   0.00000   0.00000
 272       81H+5        0.00000   0.00000   0.00000   0.00000
 273       81H-5        0.00000   0.00000   0.00000   0.00000
 274       82H 0       -0.00000  -0.00000  -0.00000   0.00000
 275       82H+1       -0.00000  -0.00000  -0.00000   0.00000
 276       82H-1       -0.00000  -0.00000  -0.00000   0.00000
 277       82H+2       -0.00000  -0.00000  -0.00000  -0.00000
 278       82H-2       -0.00000  -0.00000  -0.00000   0.00000
 279       82H+3        0.00000   0.00000   0.00000   0.00000
 280       82H-3        0.00000   0.00000   0.00000   0.00000
 281       82H+4        0.00000   0.00000   0.00000   0.00000
 282       82H-4        0.00000   0.00000   0.00000   0.00000
 283       82H+5       -0.00000  -0.00000  -0.00000   0.00000
 284       82H-5       -0.00000  -0.00000  -0.00000   0.00000
 285       83H 0        0.00000   0.00000   0.00000   0.00000
 286       83H+1        0.00000   0.00000   0.00000   0.00000
 287       83H-1        0.00000   0.00000   0.00000   0.00000
 288       83H+2        0.00000   0.00000   0.00000   0.00000
 289       83H-2        0.00000   0.00000   0.00000   0.00000
 290       83H+3        0.00000   0.00000   0.00000   0.00000
 291       83H-3        0.00000   0.00000   0.00000   0.00000
 292       83H+4       -0.00000  -0.00000  -0.00000   0.00000
 293       83H-4        0.00000   0.00000   0.00000   0.00000
 294       83H+5        0.00000   0.00000   0.00000   0.00000
 295       83H-5        0.00000   0.00000   0.00000   0.00000
 296       84H 0        0.00000   0.00000   0.00000  -0.00000
 297       84H+1        0.00000   0.00000   0.00000   0.00000
 298       84H-1        0.00000   0.00000   0.00000   0.00000
 299       84H+2        0.00000   0.00000   0.00000   0.00000
 300       84H-2        0.00000   0.00000   0.00000   0.00000
 301       84H+3        0.00000   0.00000   0.00000   0.00000
 302       84H-3        0.00000   0.00000   0.00000   0.00000
 303       84H+4        0.00000   0.00000   0.00000   0.00000
 304       84H-4        0.00000   0.00000   0.00000   0.00000
 305       84H+5        0.00000   0.00000   0.00000   0.00000
 306       84H-5        0.00000   0.00000   0.00000   0.00000
 307       85I 0        0.00000   0.00000   0.00000  -0.00000
 308       85I+1        0.00000   0.00000   0.00000   0.00000
 309       85I-1        0.00000   0.00000   0.00000   0.00000
 310       85I+2        0.00000   0.00000   0.00000   0.00000
 311       85I-2        0.00000   0.00000   0.00000   0.00000
 312       85I+3        0.00000   0.00000   0.00000   0.00000
 313       85I-3        0.00000   0.00000   0.00000   0.00000
 314       85I+4        0.00000   0.00000   0.00000   0.00000
 315       85I-4        0.00000   0.00000   0.00000   0.00000
 316       85I+5        0.00000   0.00000   0.00000   0.00000
 317       85I-5        0.00000   0.00000   0.00000   0.00000
 318       85I+6        0.00000   0.00000   0.00000   0.00000
 319       85I-6        0.00000   0.00000   0.00000   0.00000
 320       86I 0       -0.00000  -0.00000  -0.00000   0.00000
 321       86I+1       -0.00000  -0.00000  -0.00000   0.00000
 322       86I-1       -0.00000  -0.00000  -0.00000   0.00000
 323       86I+2       -0.00000  -0.00000  -0.00000  -0.00000
 324       86I-2       -0.00000  -0.00000  -0.00000   0.00000
 325       86I+3        0.00000   0.00000   0.00000   0.00000
 326       86I-3        0.00000   0.00000   0.00000   0.00000
 327       86I+4       -0.00000  -0.00000  -0.00000  -0.00000
 328       86I-4        0.00000   0.00000   0.00000   0.00000
 329       86I+5        0.00000   0.00000   0.00000   0.00000
 330       86I-5        0.00000   0.00000   0.00000   0.00000
 331       86I+6       -0.00000  -0.00000  -0.00000  -0.00000
 332       86I-6        0.00000   0.00000   0.00000   0.00000
 333       87I 0        0.00000   0.00000   0.00000  -0.00000
 334       87I+1        0.00000   0.00000   0.00000   0.00000
 335       87I-1        0.00000   0.00000   0.00000   0.00000
 336       87I+2        0.00000   0.00000   0.00000   0.00000
 337       87I-2        0.00000   0.00000   0.00000   0.00000
 338       87I+3        0.00000   0.00000   0.00000   0.00000
 339       87I-3        0.00000   0.00000   0.00000   0.00000
 340       87I+4        0.00000   0.00000   0.00000   0.00000
 341       87I-4        0.00000   0.00000   0.00000   0.00000
 342       87I+5        0.00000   0.00000   0.00000   0.00000
 343       87I-5        0.00000   0.00000   0.00000   0.00000
 344       87I+6        0.00000   0.00000   0.00000   0.00000
 345       87I-6        0.00000   0.00000   0.00000   0.00000
 346 2   H  1S         -0.00000  -0.00000  -0.00000  -0.00000
 347        2S          0.00009   0.00005   0.00004   0.00001
 348        3S          0.00459   0.00244   0.00215   0.00028
 349        4S          0.03243   0.01721   0.01522   0.00199
 350        5S          0.15889   0.08408   0.07482   0.00926
 351        6S          0.44476   0.23618   0.20857   0.02761
 352        7S          0.53146   0.28124   0.25021   0.03103
 353        8S          0.12185   0.05296   0.06889  -0.01593
 354        9S          0.00555   0.00402   0.00153   0.00248
 355       10PX         0.00003   0.00002   0.00002   0.00000
 356       10PY         0.00003   0.00002   0.00002   0.00000
 357       10PZ         0.00017   0.00008   0.00008   0.00000
 358       11PX         0.00045   0.00023   0.00023   0.00000
 359       11PY         0.00045   0.00023   0.00023   0.00000
 360       11PZ         0.00188   0.00095   0.00094   0.00001
 361       12PX         0.00278   0.00139   0.00139   0.00000
 362       12PY         0.00278   0.00139   0.00139   0.00000
 363       12PZ         0.00441   0.00181   0.00260  -0.00078
 364       13PX         0.00150   0.00075   0.00075   0.00000
 365       13PY         0.00150   0.00075   0.00075   0.00000
 366       13PZ         0.00023  -0.00200   0.00224  -0.00424
 367       14PX         0.00007   0.00004   0.00004   0.00000
 368       14PY         0.00007   0.00004   0.00004   0.00000
 369       14PZ        -0.00218  -0.00253   0.00035  -0.00288
 370       15D 0        0.00012   0.00006   0.00006   0.00000
 371       15D+1        0.00004   0.00002   0.00002   0.00000
 372       15D-1        0.00004   0.00002   0.00002   0.00000
 373       15D+2        0.00000   0.00000   0.00000   0.00000
 374       15D-2        0.00000   0.00000   0.00000   0.00000
 375       16D 0        0.00049   0.00023   0.00027  -0.00004
 376       16D+1        0.00063   0.00032   0.00032   0.00000
 377       16D-1        0.00063   0.00032   0.00032   0.00000
 378       16D+2        0.00005   0.00002   0.00002  -0.00000
 379       16D-2        0.00005   0.00002   0.00002   0.00000
 380       17D 0       -0.00107  -0.00059  -0.00047  -0.00012
 381       17D+1        0.00075   0.00038   0.00038   0.00000
 382       17D-1        0.00075   0.00038   0.00038   0.00000
 383       17D+2        0.00016   0.00008   0.00008  -0.00000
 384       17D-2        0.00016   0.00008   0.00008   0.00000
 385       18D 0        0.00151   0.00152  -0.00001   0.00153
 386       18D+1       -0.00003  -0.00002  -0.00002   0.00000
 387       18D-1       -0.00003  -0.00002  -0.00002   0.00000
 388       18D+2       -0.00002  -0.00001  -0.00001  -0.00000
 389       18D-2       -0.00002  -0.00001  -0.00001   0.00000
 390       19F 0        0.00007   0.00003   0.00003  -0.00000
 391       19F+1        0.00005   0.00002   0.00002   0.00000
 392       19F-1        0.00005   0.00002   0.00002   0.00000
 393       19F+2        0.00000   0.00000   0.00000   0.00000
 394       19F-2        0.00000   0.00000   0.00000   0.00000
 395       19F+3        0.00000   0.00000   0.00000   0.00000
 396       19F-3        0.00000   0.00000   0.00000   0.00000
 397       20F 0        0.00026   0.00013   0.00013  -0.00000
 398       20F+1        0.00025   0.00013   0.00013   0.00000
 399       20F-1        0.00025   0.00013   0.00013   0.00000
 400       20F+2        0.00010   0.00005   0.00005  -0.00000
 401       20F-2        0.00010   0.00005   0.00005   0.00000
 402       20F+3       -0.00000  -0.00000  -0.00000   0.00000
 403       20F-3        0.00000   0.00000   0.00000   0.00000
 404       21F 0        0.00005   0.00006  -0.00001   0.00007
 405       21F+1       -0.00012  -0.00006  -0.00006   0.00000
 406       21F-1       -0.00012  -0.00006  -0.00006   0.00000
 407       21F+2        0.00001   0.00000   0.00000  -0.00000
 408       21F-2        0.00001   0.00000   0.00000   0.00000
 409       21F+3        0.00000   0.00000   0.00000   0.00000
 410       21F-3        0.00000   0.00000   0.00000   0.00000
 411       22G 0        0.00004   0.00002   0.00002  -0.00000
 412       22G+1        0.00002   0.00001   0.00001   0.00000
 413       22G-1        0.00002   0.00001   0.00001   0.00000
 414       22G+2        0.00000   0.00000   0.00000   0.00000
 415       22G-2        0.00000   0.00000   0.00000   0.00000
 416       22G+3       -0.00000  -0.00000  -0.00000   0.00000
 417       22G-3        0.00000   0.00000   0.00000   0.00000
 418       22G+4        0.00000   0.00000   0.00000   0.00000
 419       22G-4       -0.00000  -0.00000  -0.00000   0.00000
 420       23G 0        0.00006   0.00002   0.00004  -0.00002
 421       23G+1       -0.00001  -0.00001  -0.00001   0.00000
 422       23G-1       -0.00001  -0.00001  -0.00001   0.00000
 423       23G+2        0.00003   0.00001   0.00001  -0.00000
 424       23G-2        0.00003   0.00001   0.00001   0.00000
 425       23G+3        0.00000   0.00000   0.00000   0.00000
 426       23G-3        0.00000   0.00000   0.00000   0.00000
 427       23G+4       -0.00000  -0.00000  -0.00000   0.00000
 428       23G-4        0.00000   0.00000   0.00000   0.00000
          Condensed to atoms (all electrons):
               1          2
     1  Zn  19.458266   0.222593
     2  H    0.222593   1.096549
          Atomic-Atomic Spin Densities.
               1          2
     1  Zn   1.123914  -0.174166
     2  H   -0.174166   0.224417
 Mulliken charges and spin densities:
               1          2
     1  Zn   0.319141   0.949749
     2  H   -0.319141   0.050251
 Sum of Mulliken charges =  -0.00000   1.00000
 Mulliken charges and spin densities with hydrogens summed into heavy atoms:
               1          2
     1  Zn  -0.000000   1.000000
 Electronic spatial extent (au):  <R**2>=             41.5679
 Charge=             -0.0000 electrons
 Dipole moment (field-independent basis, Debye):
    X=              0.0000    Y=              0.0000    Z=             -0.2584  Tot=              0.2584
 Quadrupole moment (field-independent basis, Debye-Ang):
   XX=            -14.4068   YY=            -14.4068   ZZ=            -20.4752
   XY=              0.0000   XZ=              0.0000   YZ=              0.0000
 Traceless Quadrupole moment (field-independent basis, Debye-Ang):
   XX=              2.0228   YY=              2.0228   ZZ=             -4.0456
   XY=              0.0000   XZ=              0.0000   YZ=              0.0000
 Octapole moment (field-independent basis, Debye-Ang**2):
  XXX=              0.0000  YYY=              0.0000  ZZZ=             -2.7074  XYY=              0.0000
  XXY=              0.0000  XXZ=             -1.0965  XZZ=              0.0000  YZZ=              0.0000
  YYZ=             -1.0965  XYZ=              0.0000
 Hexadecapole moment (field-independent basis, Debye-Ang**3):
 XXXX=            -19.9262 YYYY=            -19.9262 ZZZZ=            -57.3297 XXXY=              0.0000
 XXXZ=              0.0000 YYYX=              0.0000 YYYZ=              0.0000 ZZZX=              0.0000
 ZZZY=              0.0000 XXYY=             -6.6421 XXZZ=            -12.5930 YYZZ=            -12.5930
 XXYZ=              0.0000 YYXZ=              0.0000 ZZXY=              0.0000
 N-N= 8.819620182000D+00 E-N=-5.749386105587D+02  KE= 1.502500803747D+02
 Symmetry A1   KE= 6.253579854604D+01
 Symmetry A2   KE= 2.167870457561D+01
 Symmetry B1   KE= 3.301778862968D+01
 Symmetry B2   KE= 3.301778862832D+01
 Symmetry A1   SP= 1.000000000000D+00
 Symmetry A2   SP= 0.000000000000D+00
 Symmetry B1   SP= 0.000000000000D+00
 Symmetry B2   SP= 0.000000000000D+00
 Orbital energies and kinetic energies (alpha):
                                 1                 2
   6         O                -0.807166         10.839352
   7         O                -0.807166         10.839352
   8         O                -0.806479         10.781446
   9         O                -0.806479         10.781446
  10         O                -0.489737          1.452004
  11         O                -0.266839          0.581183
  12         V                 0.019689          0.032109
  13         V                 0.019689          0.057552
  14         V                 0.021070          0.057552
  15         V                 0.033934          0.047007
  16         V                 0.063868          0.190736
 Total kinetic energy from orbitals= 1.508312634847D+02
                          Isotropic Fermi Contact Couplings
        Atom                 a.u.       MegaHertz       Gauss      10(-4) cm-1
     1  Zn(67)             0.00001       0.00286       0.00102       0.00095
     2  H(1)               0.02640     117.98863      42.10128      39.35677
 --------------------------------------------------------
       Center         ----  Spin Dipole Couplings  ----
                      3XX-RR        3YY-RR        3ZZ-RR
 --------------------------------------------------------
     1   Atom       -0.028869     -0.028869      0.057738
     2   Atom       -0.005511     -0.005511      0.011023
 --------------------------------------------------------
                        XY            XZ            YZ
 --------------------------------------------------------
     1   Atom        0.000000      0.000000      0.000000
     2   Atom        0.000000      0.000000      0.000000
 --------------------------------------------------------


 ---------------------------------------------------------------------------------
              Anisotropic Spin Dipole Couplings in Principal Axis System
 ---------------------------------------------------------------------------------

       Atom             a.u.   MegaHertz   Gauss  10(-4) cm-1        Axes

              Baa    -0.0289    -0.966    -0.345    -0.322  1.0000  0.0000  0.0000
     1 Zn(67) Bbb    -0.0289    -0.966    -0.345    -0.322 -0.0000  1.0000  0.0000
              Bcc     0.0577     1.931     0.689     0.644  0.0000  0.0000  1.0000
 
              Baa    -0.0055    -2.941    -1.049    -0.981  1.0000  0.0000  0.0000
     2 H(1)   Bbb    -0.0055    -2.941    -1.049    -0.981 -0.0000  1.0000  0.0000
              Bcc     0.0110     5.881     2.099     1.962  0.0000  0.0000  1.0000
 

 ---------------------------------------------------------------------------------

 No NMR shielding tensors so no spin-rotation constants.
 Leave Link  601 at Sun Apr 29 00:35:56 2018, MaxMem= 10737418240 cpu:             419.0 elap:              13.6
 (Enter /home1/apps/gaussian/16rA.03/g16/l9999.exe)

 Test job not archived.
 1\1\GINC-C419-001\SP\ROCCSD(T)-Full\Gen\H1Zn1(2)\GWANG18\29-Apr-2018\0
 \\#P ROCCSD(T)=(MaxCyc=150, Full)/Gen SCF=(maxcycle=400, vshift=200) P
 seudo=Read Integral(NoXCTest) Pop=Regular MaxDisk=500GB Guess=Read IOp
 (5/15=2)\\ZnH\\0,2\Zn,0,0.,0.,0.\H,0,0.,0.,1.2\\Version=ES64L-G16RevA.
 03\State=2-SG\HF=-226.0938841\MP2=-227.215415\MP3=-227.083102\PUHF=-22
 6.0938841\PMP2-0=-227.215415\MP4SDQ=-227.1614881\CCSD=-227.130892\CCSD
 (T)=-227.1604367\RMSD=4.571e-09\PG=C*V [C*(H1Zn1)]\\@


 REPARTEE - WHAT YOU THINK OF AFTER YOU BECOME A DEPARTEE.
 Job cpu time:       3 days 20 hours 36 minutes 45.0 seconds.
 Elapsed time:       0 days  2 hours 54 minutes 54.3 seconds.
 File lengths (MBytes):  RWF=  29390 Int=      0 D2E=      0 Chk=     22 Scr=      1
 Normal termination of Gaussian 16 at Sun Apr 29 00:35:57 2018.
