 Entering Gaussian System, Link 0=g16
 Initial command:
 /home1/apps/gaussian/16rA.03/g16/l1.exe "/tmp/Gau-106730.inp" -scrdir="/tmp/"
 Entering Link 1 = /home1/apps/gaussian/16rA.03/g16/l1.exe PID=    106731.
  
 Copyright (c) 1988,1990,1992,1993,1995,1998,2003,2009,2016,
            Gaussian, Inc.  All Rights Reserved.
  
 This is part of the Gaussian(R) 16 program.  It is based on
 the Gaussian(R) 09 system (copyright 2009, Gaussian, Inc.),
 the Gaussian(R) 03 system (copyright 2003, Gaussian, Inc.),
 the Gaussian(R) 98 system (copyright 1998, Gaussian, Inc.),
 the Gaussian(R) 94 system (copyright 1995, Gaussian, Inc.),
 the Gaussian 92(TM) system (copyright 1992, Gaussian, Inc.),
 the Gaussian 90(TM) system (copyright 1990, Gaussian, Inc.),
 the Gaussian 88(TM) system (copyright 1988, Gaussian, Inc.),
 the Gaussian 86(TM) system (copyright 1986, Carnegie Mellon
 University), and the Gaussian 82(TM) system (copyright 1983,
 Carnegie Mellon University). Gaussian is a federally registered
 trademark of Gaussian, Inc.
  
 This software contains proprietary and confidential information,
 including trade secrets, belonging to Gaussian, Inc.
  
 This software is provided under written license and may be
 used, copied, transmitted, or stored only in accord with that
 written license.
  
 The following legend is applicable only to US Government
 contracts under FAR:
  
                    RESTRICTED RIGHTS LEGEND
  
 Use, reproduction and disclosure by the US Government is
 subject to restrictions as set forth in subparagraphs (a)
 and (c) of the Commercial Computer Software - Restricted
 Rights clause in FAR 52.227-19.
  
 Gaussian, Inc.
 340 Quinnipiac St., Bldg. 40, Wallingford CT 06492
  
  
 ---------------------------------------------------------------
 Warning -- This program may not be used in any manner that
 competes with the business of Gaussian, Inc. or will provide
 assistance to any competitor of Gaussian, Inc.  The licensee
 of this program is prohibited from giving any competitor of
 Gaussian, Inc. access to this program.  By using this program,
 the user acknowledges that Gaussian, Inc. is engaged in the
 business of creating and licensing software in the field of
 computational chemistry and represents and warrants to the
 licensee that it is not a competitor of Gaussian, Inc. and that
 it will not use this program in any manner prohibited above.
 ---------------------------------------------------------------
  

 Cite this work as:
 Gaussian 16, Revision A.03,
 M. J. Frisch, G. W. Trucks, H. B. Schlegel, G. E. Scuseria, 
 M. A. Robb, J. R. Cheeseman, G. Scalmani, V. Barone, 
 G. A. Petersson, H. Nakatsuji, X. Li, M. Caricato, A. V. Marenich, 
 J. Bloino, B. G. Janesko, R. Gomperts, B. Mennucci, H. P. Hratchian, 
 J. V. Ortiz, A. F. Izmaylov, J. L. Sonnenberg, D. Williams-Young, 
 F. Ding, F. Lipparini, F. Egidi, J. Goings, B. Peng, A. Petrone, 
 T. Henderson, D. Ranasinghe, V. G. Zakrzewski, J. Gao, N. Rega, 
 G. Zheng, W. Liang, M. Hada, M. Ehara, K. Toyota, R. Fukuda, 
 J. Hasegawa, M. Ishida, T. Nakajima, Y. Honda, O. Kitao, H. Nakai, 
 T. Vreven, K. Throssell, J. A. Montgomery, Jr., J. E. Peralta, 
 F. Ogliaro, M. J. Bearpark, J. J. Heyd, E. N. Brothers, K. N. Kudin, 
 V. N. Staroverov, T. A. Keith, R. Kobayashi, J. Normand, 
 K. Raghavachari, A. P. Rendell, J. C. Burant, S. S. Iyengar, 
 J. Tomasi, M. Cossi, J. M. Millam, M. Klene, C. Adamo, R. Cammi, 
 J. W. Ochterski, R. L. Martin, K. Morokuma, O. Farkas, 
 J. B. Foresman, and D. J. Fox, Gaussian, Inc., Wallingford CT, 2016.
 
 ******************************************
 Gaussian 16:  ES64L-G16RevA.03 25-Dec-2016
                24-Mar-2018 
 ******************************************
 %mem=80GB
 %cpu=0-31
 SetSPE:  set environment variable "MP_BIND" = "yes"
 SetSPE:  set environment variable "MP_BLIST" = "0,1,2,3,4,5,6,7,8,9,10,11,12,13,14,15,16,17,18,19,20,21,22,23,24,25,26,27,28,29,30,31"
 Will use up to   32 processors via shared memory.
 %chk=tz.chk
 %rwf=/scratch/04843/gwang18/feh/
 ----------------------------------------------------------------------
 #P ROCCSD(T)=(MaxCyc=150, Full)/Gen SCF=(maxcycle=400, vshift=200) Pse
 udo=Read Integral(NoXCTest) Pop=Regular MaxDisk=500GB Guess=Read IOp(5
 /15=2)
 ----------------------------------------------------------------------
 1/38=1,172=1/1;
 2/12=2,17=6,18=5,40=1/2;
 3/5=7,11=2,16=1,17=8,25=1,30=1,47=8,116=101/1,2,3;
 4/5=1/1;
 5/5=2,7=400,10=200,15=2,38=6/2;
 8/5=-1,6=4,9=120000,10=90/1,4;
 9/5=7,6=150,14=2/13;
 6//1;
 99/5=1,9=1/99;
 Leave Link    1 at Sat Mar 24 00:22:52 2018, MaxMem= 10737418240 cpu:              10.1 elap:               0.3
 (Enter /home1/apps/gaussian/16rA.03/g16/l101.exe)
 ---
 FeH
 ---
 Symbolic Z-matrix:
 Charge =  0 Multiplicity = 4
 Fe                    0.        0.        0. 
 H                     0.        0.        1.6 
 
 ITRead=  0  0
 MicOpt= -1 -1
 NAtoms=      2 NQM=        2 NQMF=       0 NMMI=      0 NMMIF=      0
                NMic=       0 NMicF=      0.
                    Isotopes and Nuclear Properties:
 (Nuclear quadrupole moments (NQMom) in fm**2, nuclear magnetic moments (NMagM)
  in nuclear magnetons)

  Atom         1           2
 IAtWgt=          56           1
 AtmWgt=  55.9349393   1.0078250
 NucSpn=           0           1
 AtZEff=  -0.0000000  -0.0000000
 NQMom=    0.0000000   0.0000000
 NMagM=    0.0000000   2.7928460
 AtZNuc=  26.0000000   1.0000000
 Leave Link  101 at Sat Mar 24 00:22:53 2018, MaxMem= 10737418240 cpu:               3.6 elap:               0.7
 (Enter /home1/apps/gaussian/16rA.03/g16/l202.exe)
                          Input orientation:                          
 ---------------------------------------------------------------------
 Center     Atomic      Atomic             Coordinates (Angstroms)
 Number     Number       Type             X           Y           Z
 ---------------------------------------------------------------------
      1         26           0        0.000000    0.000000    0.000000
      2          1           0        0.000000    0.000000    1.600000
 ---------------------------------------------------------------------
 Stoichiometry    FeH(4)
 Framework group  C*V[C*(HFe)]
 Deg. of freedom     1
 Full point group                 C*V     NOp   4
 Largest Abelian subgroup         C2V     NOp   4
 Largest concise Abelian subgroup C1      NOp   1
                         Standard orientation:                         
 ---------------------------------------------------------------------
 Center     Atomic      Atomic             Coordinates (Angstroms)
 Number     Number       Type             X           Y           Z
 ---------------------------------------------------------------------
      1         26           0        0.000000    0.000000    0.059259
      2          1           0        0.000000    0.000000   -1.540741
 ---------------------------------------------------------------------
 Rotational constants (GHZ):           0.0000000         199.4102448         199.4102448
 Leave Link  202 at Sat Mar 24 00:22:54 2018, MaxMem= 10737418240 cpu:               0.8 elap:               0.1
 (Enter /home1/apps/gaussian/16rA.03/g16/l301.exe)
 General basis read from cards:  (5D, 7F)
 Centers:       1
 S 1 1.00
     Exponent=  4.3162650000D+06 Coefficients=  1.0000000000D+00
 S 1 1.00
     Exponent=  6.4634240000D+05 Coefficients=  1.0000000000D+00
 S 1 1.00
     Exponent=  1.4708970000D+05 Coefficients=  1.0000000000D+00
 S 1 1.00
     Exponent=  4.1661520000D+04 Coefficients=  1.0000000000D+00
 S 1 1.00
     Exponent=  1.3590770000D+04 Coefficients=  1.0000000000D+00
 S 1 1.00
     Exponent=  4.9057500000D+03 Coefficients=  1.0000000000D+00
 S 1 1.00
     Exponent=  1.9127460000D+03 Coefficients=  1.0000000000D+00
 S 1 1.00
     Exponent=  7.9260430000D+02 Coefficients=  1.0000000000D+00
 S 1 1.00
     Exponent=  3.4480650000D+02 Coefficients=  1.0000000000D+00
 S 1 1.00
     Exponent=  1.5589990000D+02 Coefficients=  1.0000000000D+00
 S 1 1.00
     Exponent=  7.2230910000D+01 Coefficients=  1.0000000000D+00
 S 1 1.00
     Exponent=  3.2725060000D+01 Coefficients=  1.0000000000D+00
 S 1 1.00
     Exponent=  1.5667620000D+01 Coefficients=  1.0000000000D+00
 S 1 1.00
     Exponent=  7.5034830000D+00 Coefficients=  1.0000000000D+00
 S 1 1.00
     Exponent=  3.3122230000D+00 Coefficients=  1.0000000000D+00
 S 1 1.00
     Exponent=  1.5584710000D+00 Coefficients=  1.0000000000D+00
 S 1 1.00
     Exponent=  6.8391400000D-01 Coefficients=  1.0000000000D+00
 S 1 1.00
     Exponent=  1.4675700000D-01 Coefficients=  1.0000000000D+00
 S 1 1.00
     Exponent=  7.0583000000D-02 Coefficients=  1.0000000000D+00
 S 1 1.00
     Exponent=  3.1449000000D-02 Coefficients=  1.0000000000D+00
 S 1 1.00
     Exponent=  4.6844000000D+00 Coefficients=  1.0000000000D+00
 S 1 1.00
     Exponent=  1.2204000000D+00 Coefficients=  1.0000000000D+00
 S 1 1.00
     Exponent=  1.4010000000D-02 Coefficients=  1.0000000000D+00
 P 1 1.00
     Exponent=  1.7745690000D+04 Coefficients=  1.0000000000D+00
 P 1 1.00
     Exponent=  4.2007210000D+03 Coefficients=  1.0000000000D+00
 P 1 1.00
     Exponent=  1.3644290000D+03 Coefficients=  1.0000000000D+00
 P 1 1.00
     Exponent=  5.2208060000D+02 Coefficients=  1.0000000000D+00
 P 1 1.00
     Exponent=  2.2145950000D+02 Coefficients=  1.0000000000D+00
 P 1 1.00
     Exponent=  1.0090960000D+02 Coefficients=  1.0000000000D+00
 P 1 1.00
     Exponent=  4.8401150000D+01 Coefficients=  1.0000000000D+00
 P 1 1.00
     Exponent=  2.3985360000D+01 Coefficients=  1.0000000000D+00
 P 1 1.00
     Exponent=  1.2182500000D+01 Coefficients=  1.0000000000D+00
 P 1 1.00
     Exponent=  6.2422980000D+00 Coefficients=  1.0000000000D+00
 P 1 1.00
     Exponent=  3.1109440000D+00 Coefficients=  1.0000000000D+00
 P 1 1.00
     Exponent=  1.5099580000D+00 Coefficients=  1.0000000000D+00
 P 1 1.00
     Exponent=  7.1084500000D-01 Coefficients=  1.0000000000D+00
 P 1 1.00
     Exponent=  2.7259800000D-01 Coefficients=  1.0000000000D+00
 P 1 1.00
     Exponent=  1.0397200000D-01 Coefficients=  1.0000000000D+00
 P 1 1.00
     Exponent=  3.8166000000D-02 Coefficients=  1.0000000000D+00
 P 1 1.00
     Exponent=  6.8788000000D+00 Coefficients=  1.0000000000D+00
 P 1 1.00
     Exponent=  1.5748000000D+00 Coefficients=  1.0000000000D+00
 P 1 1.00
     Exponent=  1.4010000000D-02 Coefficients=  1.0000000000D+00
 D 1 1.00
     Exponent=  1.1488400000D+02 Coefficients=  1.0000000000D+00
 D 1 1.00
     Exponent=  3.3887800000D+01 Coefficients=  1.0000000000D+00
 D 1 1.00
     Exponent=  1.2373000000D+01 Coefficients=  1.0000000000D+00
 D 1 1.00
     Exponent=  4.9992500000D+00 Coefficients=  1.0000000000D+00
 D 1 1.00
     Exponent=  2.0704300000D+00 Coefficients=  1.0000000000D+00
 D 1 1.00
     Exponent=  8.2818300000D-01 Coefficients=  1.0000000000D+00
 D 1 1.00
     Exponent=  3.0754700000D-01 Coefficients=  1.0000000000D+00
 D 1 1.00
     Exponent=  9.9455000000D-02 Coefficients=  1.0000000000D+00
 D 1 1.00
     Exponent=  4.5305000000D+00 Coefficients=  1.0000000000D+00
 D 1 1.00
     Exponent=  2.1205000000D+00 Coefficients=  1.0000000000D+00
 D 1 1.00
     Exponent=  3.2160000000D-02 Coefficients=  1.0000000000D+00
 F 1 1.00
     Exponent=  6.0066000000D+00 Coefficients=  1.0000000000D+00
 F 1 1.00
     Exponent=  2.2522000000D+00 Coefficients=  1.0000000000D+00
 F 1 1.00
     Exponent=  7.7580000000D-01 Coefficients=  1.0000000000D+00
 F 1 1.00
     Exponent=  2.6723000000D-01 Coefficients=  1.0000000000D+00
 G 1 1.00
     Exponent=  5.5068000000D+00 Coefficients=  1.0000000000D+00
 G 1 1.00
     Exponent=  2.0515000000D+00 Coefficients=  1.0000000000D+00
 G 1 1.00
     Exponent=  7.6426000000D-01 Coefficients=  1.0000000000D+00
 ****
 Centers:       2
 S 1 1.00
     Exponent=  3.3870000000D+01 Coefficients=  1.0000000000D+00
 S 1 1.00
     Exponent=  5.0950000000D+00 Coefficients=  1.0000000000D+00
 S 1 1.00
     Exponent=  1.1590000000D+00 Coefficients=  1.0000000000D+00
 S 1 1.00
     Exponent=  3.2580000000D-01 Coefficients=  1.0000000000D+00
 S 1 1.00
     Exponent=  1.0270000000D-01 Coefficients=  1.0000000000D+00
 S 1 1.00
     Exponent=  2.5260000000D-02 Coefficients=  1.0000000000D+00
 P 1 1.00
     Exponent=  1.4070000000D+00 Coefficients=  1.0000000000D+00
 P 1 1.00
     Exponent=  3.8800000000D-01 Coefficients=  1.0000000000D+00
 P 1 1.00
     Exponent=  1.0200000000D-01 Coefficients=  1.0000000000D+00
 D 1 1.00
     Exponent=  1.0570000000D+00 Coefficients=  1.0000000000D+00
 D 1 1.00
     Exponent=  2.4700000000D-01 Coefficients=  1.0000000000D+00
 ****
 ======================================================================================================
                                       Pseudopotential Parameters
 ======================================================================================================
  Center     Atomic      Valence      Angular      Power
  Number     Number     Electrons     Momentum     of R      Exponent        Coefficient   SO-Coeffient
 ======================================================================================================
    1         26           16
                                      D and up 
                                                     1       14.4907932       16.00000000    0.00000000
                                                     3       14.7508039      231.85269156    0.00000000
                                                     2       13.5133204     -125.71036365    0.00000000
                                                     2        8.1349995        1.26697878    0.00000000
                                      S - D
                                                     2       24.6419614      286.34993515    0.00000000
                                                     2        8.4088679       45.10829178    0.00000000
                                      P - D
                                                     2        8.2748563       28.52519211    0.00000000
                                                     2       23.8323272      181.13542019    0.00000000
    2          1            1
                                      P and up 
                                                     2       21.7769666      -10.85192405    0.00000000
                                                     1       21.2435951        1.00000000    0.00000000
                                                     3       21.2435951       21.24359508    0.00000000
                                      S - P
                                                     2        1.0000000        0.00000000    0.00000000
 ======================================================================================================
 Ernie: Thresh=  0.10000D-02 Tol=  0.10000D-05 Strict=F.
 There are   120 symmetry adapted cartesian basis functions of A1  symmetry.
 There are    26 symmetry adapted cartesian basis functions of A2  symmetry.
 There are    56 symmetry adapted cartesian basis functions of B1  symmetry.
 There are    56 symmetry adapted cartesian basis functions of B2  symmetry.
 There are    94 symmetry adapted basis functions of A1  symmetry.
 There are    23 symmetry adapted basis functions of A2  symmetry.
 There are    49 symmetry adapted basis functions of B1  symmetry.
 There are    49 symmetry adapted basis functions of B2  symmetry.
   215 basis functions,   258 primitive gaussians,   258 cartesian basis functions
    10 alpha electrons        7 beta electrons
       nuclear repulsion energy         5.2917721092 Hartrees.
 IExCor=    0 DFT=F Ex=HF Corr=None ExCW=0 ScaHFX=  1.000000
 ScaDFX=  1.000000  1.000000  1.000000  1.000000 ScalE2=  1.000000  1.000000
 IRadAn=      5 IRanWt=     -1 IRanGd=            0 ICorTp=0 IEmpDi=  4
 NAtoms=    2 NActive=    2 NUniq=    2 SFac= 1.00D+00 NAtFMM=   60 NAOKFM=F Big=F
 Integral buffers will be    131072 words long.
 Raffenetti 2 integral format.
 Two-electron integral symmetry is turned on.
 Leave Link  301 at Sat Mar 24 00:22:54 2018, MaxMem= 10737418240 cpu:               7.3 elap:               0.3
 (Enter /home1/apps/gaussian/16rA.03/g16/l302.exe)
 NPDir=0 NMtPBC=     1 NCelOv=     1 NCel=       1 NClECP=     1 NCelD=      1
         NCelK=      1 NCelE2=     1 NClLst=     1 CellRange=     0.0.
 One-electron integrals computed using PRISM.
 One-electron integral symmetry used in STVInt
   4 Symmetry operations used in ECPInt.
 ECPInt:  NShTT=    2556 NPrTT=    2556 LenC2=    2532 LenP2D=    2531.
 LDataN:  DoStor=T MaxTD1= 8 Len=  415
 NBasis=   215 RedAO= T EigKep=  2.44D-06  NBF=    94    23    49    49
 NBsUse=   212 1.00D-06 EigRej=  9.68D-07 NBFU=    93    23    48    48
 Leave Link  302 at Sat Mar 24 00:22:56 2018, MaxMem= 10737418240 cpu:              29.2 elap:               1.0
 (Enter /home1/apps/gaussian/16rA.03/g16/l303.exe)
 DipDrv:  MaxL=1.
 Leave Link  303 at Sat Mar 24 00:22:56 2018, MaxMem= 10737418240 cpu:               2.0 elap:               0.1
 (Enter /home1/apps/gaussian/16rA.03/g16/l401.exe)
 Initial guess from the checkpoint file:  "tz.chk"
 B after Tr=     0.000000    0.000000   -0.000000
         Rot=    1.000000    0.000000    0.000000    0.000000 Ang=   0.00 deg.
 Guess basis will be translated and rotated to current coordinates.
 JPrj=2 DoOrth=T DoCkMO=T.
 Initial guess orbital symmetries:
       Occupied  (SG) (SG) (PI) (PI) (SG) (?A) (SG) (PI) (PI) (?A)
       Virtual   (SG) (PI) (PI) (SG) (SG) (PI) (PI) (SG) (DLTA)
                 (DLTA) (PI) (PI) (SG) (SG) (SG) (PI) (PI) (SG)
                 (PI) (PI) (?A) (?A) (SG) (PI) (PI) (SG) (SG) (SG)
                 (DLTA) (DLTA) (PI) (PI) (SG) (PHI) (PHI) (PI)
                 (PI) (SG) (PI) (PI) (?A) (?A) (PI) (PI) (SG) (?A)
                 (?A) (SG) (PI) (PI) (SG) (SG) (SG) (?B) (?B) (?B)
                 (?B) (DLTA) (?B) (?B) (DLTA) (SG) (SG) (PI) (PI)
                 (SG) (DLTA) (DLTA) (DLTA) (DLTA) (PHI) (PHI) (?C)
                 (?C) (PI) (PI) (DLTA) (DLTA) (SG) (PI) (PI) (PI)
                 (PI) (SG) (SG) (SG) (?D) (?D) (DLTA) (DLTA) (PI)
                 (PI) (SG) (DLTA) (DLTA) (?D) (?D) (PI) (PI) (SG)
                 (SG) (?D) (?D) (?E) (?E) (DLTA) (DLTA) (?D) (?D)
                 (?E) (SG) (SG) (DLTA) (DLTA) (PI) (PI) (SG) (PI)
                 (PI) (SG) (?D) (?D) (DLTA) (DLTA) (?D) (?D) (SG)
                 (?D) (?D) (?F) (?F) (DLTA) (DLTA) (?D) (?D) (?F)
                 (SG) (DLTA) (DLTA) (PI) (PI) (SG) (PI) (PI) (SG)
                 (DLTA) (DLTA) (PI) (PI) (SG) (SG) (SG) (PI) (PI)
                 (SG) (SG) (DLTA) (DLTA) (PI) (PI) (SG) (PI) (PI)
                 (SG) (SG) (PI) (PI) (SG) (SG) (DLTA) (DLTA) (PI)
                 (PI) (SG) (PI) (PI) (SG) (SG) (PI) (PI) (SG) (SG)
                 (PI) (PI) (SG) (SG) (PI) (PI) (SG) (SG) (PI) (PI)
                 (SG) (SG) (SG) (PI) (PI) (SG) (SG) (SG) (SG) (SG)
 Leave Link  401 at Sat Mar 24 00:22:57 2018, MaxMem= 10737418240 cpu:              10.3 elap:               0.4
 (Enter /home1/apps/gaussian/16rA.03/g16/l502.exe)
 Keep R1 and R2 ints in memory in symmetry-blocked form, NReq=338797193.
 FoFCou: FMM=F IPFlag=           8 FMFlag=           0 FMFlg1=           0
         NFxFlg=           0 DoJE=F BraDBF=F KetDBF=F FulRan=T
         wScrn=  0.000000 ICntrl=       600 IOpCl=  0 I1Cent=           0 NGrid=           0
         NMat0=    1 NMatS0=  23220 NMatT0=    0 NMatD0=    1 NMtDS0=    0 NMtDT0=    0
 Petite list used in FoFCou.
 Restricted open shell SCF:
 Using DIIS extrapolation, IDIIS=  1040.
 NGot= 10737418240 LenX= 10598929943 LenY= 10598862938
 Requested convergence on RMS density matrix=1.00D-08 within 400 cycles.
 Requested convergence on MAX density matrix=1.00D-06.
 Requested convergence on             energy=1.00D-06.
 Virtual orbitals will be shifted by   0.200 hartree.
 No special actions if energy rises.

 Cycle   1  Pass 1  IDiag  1:
 E= -123.290553157303    
 DIIS: error= 3.21D-02 at cycle   1 NSaved=   1.
 NSaved= 1 IEnMin= 1 EnMin= -123.290553157303     IErMin= 1 ErrMin= 3.21D-02
 ErrMax= 3.21D-02  0.00D+00 EMaxC= 1.00D-01 BMatC= 1.60D-02 BMatP= 1.60D-02
 IDIUse=3 WtCom= 6.79D-01 WtEn= 3.21D-01
 Coeff-Com:  0.100D+01
 Coeff-En:   0.100D+01
 Coeff:      0.100D+01
 Gap=     0.043 Goal=   None    Shift=    0.200
 GapD=    0.043 DampG=0.250 DampE=0.250 DampFc=0.1250 IDamp=-1.
 Damping current iteration by 1.25D-01
 RMSDP=1.17D-04 MaxDP=6.22D-03              OVMax= 1.00D-02

 Cycle   2  Pass 1  IDiag  1:
 E= -123.290641979870     Delta-E=       -0.000088822568 Rises=F Damp=T
 DIIS: error= 2.81D-02 at cycle   2 NSaved=   2.
 NSaved= 2 IEnMin= 2 EnMin= -123.290641979870     IErMin= 2 ErrMin= 2.81D-02
 ErrMax= 2.81D-02  0.00D+00 EMaxC= 1.00D-01 BMatC= 1.22D-02 BMatP= 1.60D-02
 IDIUse=3 WtCom= 7.19D-01 WtEn= 2.81D-01
 Coeff-Com: -0.682D+01 0.782D+01
 Coeff-En:   0.000D+00 0.100D+01
 Coeff:     -0.491D+01 0.591D+01
 Gap=     0.013 Goal=   None    Shift=    0.200
 RMSDP=1.32D-04 MaxDP=5.83D-03 DE=-8.88D-05 OVMax= 1.91D-02

 Cycle   3  Pass 1  IDiag  1:
 E= -123.291113339003     Delta-E=       -0.000471359133 Rises=F Damp=F
 DIIS: error= 2.52D-03 at cycle   3 NSaved=   3.
 NSaved= 3 IEnMin= 3 EnMin= -123.291113339003     IErMin= 3 ErrMin= 2.52D-03
 ErrMax= 2.52D-03  0.00D+00 EMaxC= 1.00D-01 BMatC= 1.90D-04 BMatP= 1.22D-02
 IDIUse=3 WtCom= 9.75D-01 WtEn= 2.52D-02
 Coeff-Com: -0.282D+01 0.322D+01 0.603D+00
 Coeff-En:   0.000D+00 0.000D+00 0.100D+01
 Coeff:     -0.275D+01 0.314D+01 0.613D+00
 Gap=     0.014 Goal=   None    Shift=    0.200
 RMSDP=3.61D-05 MaxDP=1.97D-03 DE=-4.71D-04 OVMax= 4.29D-03

 Cycle   4  Pass 1  IDiag  1:
 E= -123.291285219075     Delta-E=       -0.000171880071 Rises=F Damp=F
 DIIS: error= 1.67D-03 at cycle   4 NSaved=   4.
 NSaved= 4 IEnMin= 4 EnMin= -123.291285219075     IErMin= 4 ErrMin= 1.67D-03
 ErrMax= 1.67D-03  0.00D+00 EMaxC= 1.00D-01 BMatC= 7.69D-05 BMatP= 1.90D-04
 IDIUse=3 WtCom= 9.83D-01 WtEn= 1.67D-02
 Coeff-Com: -0.235D+01 0.268D+01 0.325D+00 0.344D+00
 Coeff-En:   0.000D+00 0.000D+00 0.000D+00 0.100D+01
 Coeff:     -0.231D+01 0.264D+01 0.319D+00 0.355D+00
 Gap=     0.013 Goal=   None    Shift=    0.200
 RMSDP=1.84D-05 MaxDP=9.81D-04 DE=-1.72D-04 OVMax= 3.70D-03

 Cycle   5  Pass 1  IDiag  1:
 E= -123.291366146002     Delta-E=       -0.000080926927 Rises=F Damp=F
 DIIS: error= 1.29D-03 at cycle   5 NSaved=   5.
 NSaved= 5 IEnMin= 5 EnMin= -123.291366146002     IErMin= 5 ErrMin= 1.29D-03
 ErrMax= 1.29D-03  0.00D+00 EMaxC= 1.00D-01 BMatC= 4.67D-05 BMatP= 7.69D-05
 IDIUse=3 WtCom= 9.87D-01 WtEn= 1.29D-02
 Coeff-Com: -0.117D+01 0.133D+01 0.606D-01-0.132D+01 0.210D+01
 Coeff-En:   0.000D+00 0.000D+00 0.000D+00 0.000D+00 0.100D+01
 Coeff:     -0.115D+01 0.131D+01 0.598D-01-0.131D+01 0.208D+01
 Gap=     0.013 Goal=   None    Shift=    0.200
 RMSDP=3.17D-05 MaxDP=1.88D-03 DE=-8.09D-05 OVMax= 3.74D-03

 Cycle   6  Pass 1  IDiag  1:
 E= -123.291431487765     Delta-E=       -0.000065341763 Rises=F Damp=F
 DIIS: error= 9.85D-04 at cycle   6 NSaved=   6.
 NSaved= 6 IEnMin= 6 EnMin= -123.291431487765     IErMin= 6 ErrMin= 9.85D-04
 ErrMax= 9.85D-04  0.00D+00 EMaxC= 1.00D-01 BMatC= 2.50D-05 BMatP= 4.67D-05
 IDIUse=3 WtCom= 9.90D-01 WtEn= 9.85D-03
 Coeff-Com: -0.379D+00 0.433D+00-0.503D-01-0.137D+01 0.126D+01 0.110D+01
 Coeff-En:   0.000D+00 0.000D+00 0.000D+00 0.000D+00 0.000D+00 0.100D+01
 Coeff:     -0.375D+00 0.428D+00-0.499D-01-0.136D+01 0.125D+01 0.110D+01
 Gap=     0.012 Goal=   None    Shift=    0.200
 RMSDP=2.84D-05 MaxDP=1.41D-03 DE=-6.53D-05 OVMax= 4.29D-03

 Cycle   7  Pass 1  IDiag  1:
 E= -123.291496607285     Delta-E=       -0.000065119520 Rises=F Damp=F
 DIIS: error= 5.53D-04 at cycle   7 NSaved=   7.
 NSaved= 7 IEnMin= 7 EnMin= -123.291496607285     IErMin= 7 ErrMin= 5.53D-04
 ErrMax= 5.53D-04  0.00D+00 EMaxC= 1.00D-01 BMatC= 9.17D-06 BMatP= 2.50D-05
 IDIUse=3 WtCom= 9.94D-01 WtEn= 5.53D-03
 Coeff-Com: -0.482D-01 0.554D-01-0.435D-01-0.472D+00 0.501D+00-0.568D+00
 Coeff-Com:  0.157D+01
 Coeff-En:   0.000D+00 0.000D+00 0.000D+00 0.000D+00 0.000D+00 0.000D+00
 Coeff-En:   0.100D+01
 Coeff:     -0.479D-01 0.551D-01-0.432D-01-0.469D+00 0.498D+00-0.565D+00
 Coeff:      0.157D+01
 Gap=     0.012 Goal=   None    Shift=    0.200
 RMSDP=2.82D-05 MaxDP=1.29D-03 DE=-6.51D-05 OVMax= 4.13D-03

 Cycle   8  Pass 1  IDiag  1:
 E= -123.291531782886     Delta-E=       -0.000035175601 Rises=F Damp=F
 DIIS: error= 2.79D-04 at cycle   8 NSaved=   8.
 NSaved= 8 IEnMin= 8 EnMin= -123.291531782886     IErMin= 8 ErrMin= 2.79D-04
 ErrMax= 2.79D-04  0.00D+00 EMaxC= 1.00D-01 BMatC= 3.75D-06 BMatP= 9.17D-06
 IDIUse=3 WtCom= 9.97D-01 WtEn= 2.79D-03
 Coeff-Com:  0.105D+00-0.120D+00-0.925D-02 0.174D+00 0.225D+00-0.140D+01
 Coeff-Com:  0.654D+00 0.137D+01
 Coeff-En:   0.000D+00 0.000D+00 0.000D+00 0.000D+00 0.000D+00 0.000D+00
 Coeff-En:   0.000D+00 0.100D+01
 Coeff:      0.105D+00-0.120D+00-0.923D-02 0.174D+00 0.224D+00-0.139D+01
 Coeff:      0.652D+00 0.137D+01
 Gap=     0.011 Goal=   None    Shift=    0.200
 RMSDP=2.37D-05 MaxDP=1.18D-03 DE=-3.52D-05 OVMax= 3.99D-03

 Cycle   9  Pass 1  IDiag  1:
 E= -123.291552423483     Delta-E=       -0.000020640597 Rises=F Damp=F
 DIIS: error= 2.14D-04 at cycle   9 NSaved=   9.
 NSaved= 9 IEnMin= 9 EnMin= -123.291552423483     IErMin= 9 ErrMin= 2.14D-04
 ErrMax= 2.14D-04  0.00D+00 EMaxC= 1.00D-01 BMatC= 1.88D-06 BMatP= 3.75D-06
 IDIUse=3 WtCom= 9.98D-01 WtEn= 2.14D-03
 Coeff-Com:  0.829D-01-0.946D-01-0.190D-01 0.865D-01 0.531D+00-0.860D+00
 Coeff-Com: -0.257D+00-0.378D+00 0.191D+01
 Coeff-En:   0.000D+00 0.000D+00 0.000D+00 0.000D+00 0.000D+00 0.000D+00
 Coeff-En:   0.000D+00 0.000D+00 0.100D+01
 Coeff:      0.828D-01-0.944D-01-0.190D-01 0.863D-01 0.530D+00-0.858D+00
 Coeff:     -0.256D+00-0.378D+00 0.191D+01
 Gap=     0.011 Goal=   None    Shift=    0.200
 RMSDP=1.94D-05 MaxDP=9.78D-04 DE=-2.06D-05 OVMax= 3.74D-03

 Cycle  10  Pass 1  IDiag  1:
 E= -123.291564838691     Delta-E=       -0.000012415209 Rises=F Damp=F
 DIIS: error= 1.44D-04 at cycle  10 NSaved=  10.
 NSaved=10 IEnMin=10 EnMin= -123.291564838691     IErMin=10 ErrMin= 1.44D-04
 ErrMax= 1.44D-04  0.00D+00 EMaxC= 1.00D-01 BMatC= 1.12D-06 BMatP= 1.88D-06
 IDIUse=3 WtCom= 9.99D-01 WtEn= 1.44D-03
 Coeff-Com: -0.753D-01 0.860D-01-0.604D-01 0.247D-01 0.400D+00-0.330D+00
 Coeff-Com:  0.861D-02-0.538D+00-0.340D+00 0.183D+01
 Coeff-En:   0.000D+00 0.000D+00 0.000D+00 0.000D+00 0.000D+00 0.000D+00
 Coeff-En:   0.000D+00 0.000D+00 0.000D+00 0.100D+01
 Coeff:     -0.752D-01 0.859D-01-0.603D-01 0.247D-01 0.399D+00-0.330D+00
 Coeff:      0.860D-02-0.537D+00-0.340D+00 0.182D+01
 Gap=     0.011 Goal=   None    Shift=    0.200
 RMSDP=1.30D-05 MaxDP=5.68D-04 DE=-1.24D-05 OVMax= 2.60D-03

 Cycle  11  Pass 1  IDiag  1:
 E= -123.291570417725     Delta-E=       -0.000005579034 Rises=F Damp=F
 DIIS: error= 9.59D-05 at cycle  11 NSaved=  11.
 NSaved=11 IEnMin=11 EnMin= -123.291570417725     IErMin=11 ErrMin= 9.59D-05
 ErrMax= 9.59D-05  0.00D+00 EMaxC= 1.00D-01 BMatC= 6.08D-07 BMatP= 1.12D-06
 IDIUse=1 WtCom= 1.00D+00 WtEn= 0.00D+00
 Coeff-Com: -0.941D-01 0.107D+00-0.232D-01 0.924D-01 0.540D-01-0.422D+00
 Coeff-Com:  0.436D+00-0.836D-01-0.213D+00-0.455D+00 0.160D+01
 Coeff:     -0.941D-01 0.107D+00-0.232D-01 0.924D-01 0.540D-01-0.422D+00
 Coeff:      0.436D+00-0.836D-01-0.213D+00-0.455D+00 0.160D+01
 Gap=     0.011 Goal=   None    Shift=    0.200
 RMSDP=8.06D-06 MaxDP=3.94D-04 DE=-5.58D-06 OVMax= 1.46D-03

 Cycle  12  Pass 1  IDiag  1:
 E= -123.291572374673     Delta-E=       -0.000001956948 Rises=F Damp=F
 DIIS: error= 9.52D-05 at cycle  12 NSaved=  12.
 NSaved=12 IEnMin=12 EnMin= -123.291572374673     IErMin=12 ErrMin= 9.52D-05
 ErrMax= 9.52D-05  0.00D+00 EMaxC= 1.00D-01 BMatC= 3.66D-07 BMatP= 6.08D-07
 IDIUse=1 WtCom= 1.00D+00 WtEn= 0.00D+00
 Coeff-Com: -0.471D-01 0.537D-01 0.109D-01 0.238D-01-0.322D-02-0.361D+00
 Coeff-Com:  0.412D+00-0.456D-01 0.321D+00-0.955D+00-0.682D-01 0.166D+01
 Coeff:     -0.471D-01 0.537D-01 0.109D-01 0.238D-01-0.322D-02-0.361D+00
 Coeff:      0.412D+00-0.456D-01 0.321D+00-0.955D+00-0.682D-01 0.166D+01
 Gap=     0.011 Goal=   None    Shift=    0.200
 RMSDP=6.42D-06 MaxDP=3.18D-04 DE=-1.96D-06 OVMax= 1.18D-03

 Cycle  13  Pass 1  IDiag  1:
 E= -123.291573384005     Delta-E=       -0.000001009332 Rises=F Damp=F
 DIIS: error= 7.43D-05 at cycle  13 NSaved=  13.
 NSaved=13 IEnMin=13 EnMin= -123.291573384005     IErMin=13 ErrMin= 7.43D-05
 ErrMax= 7.43D-05  0.00D+00 EMaxC= 1.00D-01 BMatC= 2.47D-07 BMatP= 3.66D-07
 IDIUse=1 WtCom= 1.00D+00 WtEn= 0.00D+00
 Coeff-Com: -0.445D-01 0.508D-01 0.503D-02 0.364D-02 0.538D-01-0.279D+00
 Coeff-Com:  0.272D+00-0.105D+00 0.374D+00-0.644D+00-0.348D+00 0.652D+00
 Coeff-Com:  0.101D+01
 Coeff:     -0.445D-01 0.508D-01 0.503D-02 0.364D-02 0.538D-01-0.279D+00
 Coeff:      0.272D+00-0.105D+00 0.374D+00-0.644D+00-0.348D+00 0.652D+00
 Coeff:      0.101D+01
 Gap=     0.011 Goal=   None    Shift=    0.200
 RMSDP=3.70D-06 MaxDP=1.88D-04 DE=-1.01D-06 OVMax= 7.11D-04

 Cycle  14  Pass 1  IDiag  1:
 E= -123.291573804740     Delta-E=       -0.000000420735 Rises=F Damp=F
 DIIS: error= 6.13D-05 at cycle  14 NSaved=  14.
 NSaved=14 IEnMin=14 EnMin= -123.291573804740     IErMin=14 ErrMin= 6.13D-05
 ErrMax= 6.13D-05  0.00D+00 EMaxC= 1.00D-01 BMatC= 1.56D-07 BMatP= 2.47D-07
 IDIUse=1 WtCom= 1.00D+00 WtEn= 0.00D+00
 Coeff-Com: -0.300D-01 0.343D-01-0.495D-02 0.151D-01 0.859D-01-0.221D+00
 Coeff-Com:  0.147D+00-0.120D+00 0.225D+00-0.831D-01-0.100D+00 0.163D-01
 Coeff-Com: -0.998D+00 0.203D+01
 Coeff:     -0.300D-01 0.343D-01-0.495D-02 0.151D-01 0.859D-01-0.221D+00
 Coeff:      0.147D+00-0.120D+00 0.225D+00-0.831D-01-0.100D+00 0.163D-01
 Coeff:     -0.998D+00 0.203D+01
 Gap=     0.010 Goal=   None    Shift=    0.200
 RMSDP=2.15D-06 MaxDP=1.07D-04 DE=-4.21D-07 OVMax= 3.99D-04

 Cycle  15  Pass 1  IDiag  1:
 E= -123.291573999887     Delta-E=       -0.000000195147 Rises=F Damp=F
 DIIS: error= 4.60D-05 at cycle  15 NSaved=  15.
 NSaved=15 IEnMin=15 EnMin= -123.291573999887     IErMin=15 ErrMin= 4.60D-05
 ErrMax= 4.60D-05  0.00D+00 EMaxC= 1.00D-01 BMatC= 9.31D-08 BMatP= 1.56D-07
 IDIUse=1 WtCom= 1.00D+00 WtEn= 0.00D+00
 Coeff-Com: -0.182D-01 0.208D-01-0.184D-02-0.273D-02 0.615D-01-0.168D+00
 Coeff-Com:  0.166D+00-0.826D-01 0.603D-01-0.741D-01 0.189D+00 0.101D+00
 Coeff-Com: -0.781D+00-0.305D+00 0.184D+01
 Coeff:     -0.182D-01 0.208D-01-0.184D-02-0.273D-02 0.615D-01-0.168D+00
 Coeff:      0.166D+00-0.826D-01 0.603D-01-0.741D-01 0.189D+00 0.101D+00
 Coeff:     -0.781D+00-0.305D+00 0.184D+01
 Gap=     0.010 Goal=   None    Shift=    0.200
 RMSDP=1.45D-06 MaxDP=9.50D-05 DE=-1.95D-07 OVMax= 1.68D-04

 Cycle  16  Pass 1  IDiag  1:
 E= -123.291574097745     Delta-E=       -0.000000097858 Rises=F Damp=F
 DIIS: error= 3.38D-05 at cycle  16 NSaved=  16.
 NSaved=16 IEnMin=16 EnMin= -123.291574097745     IErMin=16 ErrMin= 3.38D-05
 ErrMax= 3.38D-05  0.00D+00 EMaxC= 1.00D-01 BMatC= 5.70D-08 BMatP= 9.31D-08
 IDIUse=1 WtCom= 1.00D+00 WtEn= 0.00D+00
 Coeff-Com: -0.119D-01 0.136D-01 0.122D-02-0.131D-01 0.489D-01-0.142D+00
 Coeff-Com:  0.169D+00-0.724D-01 0.359D-01-0.130D+00 0.175D+00 0.202D+00
 Coeff-Com: -0.241D+00-0.894D+00 0.835D+00 0.103D+01
 Coeff:     -0.119D-01 0.136D-01 0.122D-02-0.131D-01 0.489D-01-0.142D+00
 Coeff:      0.169D+00-0.724D-01 0.359D-01-0.130D+00 0.175D+00 0.202D+00
 Coeff:     -0.241D+00-0.894D+00 0.835D+00 0.103D+01
 Gap=     0.010 Goal=   None    Shift=    0.200
 RMSDP=8.51D-07 MaxDP=6.28D-05 DE=-9.79D-08 OVMax= 9.33D-05

 Cycle  17  Pass 1  IDiag  1:
 E= -123.291574153269     Delta-E=       -0.000000055524 Rises=F Damp=F
 DIIS: error= 2.67D-05 at cycle  17 NSaved=  17.
 NSaved=17 IEnMin=17 EnMin= -123.291574153269     IErMin=17 ErrMin= 2.67D-05
 ErrMax= 2.67D-05  0.00D+00 EMaxC= 1.00D-01 BMatC= 3.66D-08 BMatP= 5.70D-08
 IDIUse=1 WtCom= 1.00D+00 WtEn= 0.00D+00
 Coeff-Com: -0.935D-02 0.107D-01 0.142D-02-0.102D-01 0.392D-01-0.117D+00
 Coeff-Com:  0.137D+00-0.647D-01 0.576D-01-0.143D+00 0.711D-01 0.175D+00
 Coeff-Com:  0.414D-01-0.419D+00 0.190D-01-0.191D+00 0.140D+01
 Coeff:     -0.935D-02 0.107D-01 0.142D-02-0.102D-01 0.392D-01-0.117D+00
 Coeff:      0.137D+00-0.647D-01 0.576D-01-0.143D+00 0.711D-01 0.175D+00
 Coeff:      0.414D-01-0.419D+00 0.190D-01-0.191D+00 0.140D+01
 Gap=     0.010 Goal=   None    Shift=    0.200
 RMSDP=5.01D-07 MaxDP=3.17D-05 DE=-5.55D-08 OVMax= 7.17D-05

 Cycle  18  Pass 1  IDiag  1:
 E= -123.291574187049     Delta-E=       -0.000000033780 Rises=F Damp=F
 DIIS: error= 2.15D-05 at cycle  18 NSaved=  18.
 NSaved=18 IEnMin=18 EnMin= -123.291574187049     IErMin=18 ErrMin= 2.15D-05
 ErrMax= 2.15D-05  0.00D+00 EMaxC= 1.00D-01 BMatC= 2.38D-08 BMatP= 3.66D-08
 IDIUse=1 WtCom= 1.00D+00 WtEn= 0.00D+00
 Coeff-Com: -0.763D-02 0.871D-02 0.545D-03-0.436D-02 0.292D-01-0.884D-01
 Coeff-Com:  0.999D-01-0.534D-01 0.582D-01-0.108D+00 0.185D-01 0.903D-01
 Coeff-Com:  0.809D-01 0.123D-01-0.260D+00-0.573D+00 0.417D+00 0.128D+01
 Coeff:     -0.763D-02 0.871D-02 0.545D-03-0.436D-02 0.292D-01-0.884D-01
 Coeff:      0.999D-01-0.534D-01 0.582D-01-0.108D+00 0.185D-01 0.903D-01
 Coeff:      0.809D-01 0.123D-01-0.260D+00-0.573D+00 0.417D+00 0.128D+01
 Gap=     0.010 Goal=   None    Shift=    0.200
 RMSDP=3.28D-07 MaxDP=2.60D-05 DE=-3.38D-08 OVMax= 5.76D-05

 Cycle  19  Pass 1  IDiag  1:
 E= -123.291574208713     Delta-E=       -0.000000021664 Rises=F Damp=F
 DIIS: error= 1.72D-05 at cycle  19 NSaved=  19.
 NSaved=19 IEnMin=19 EnMin= -123.291574208713     IErMin=19 ErrMin= 1.72D-05
 ErrMax= 1.72D-05  0.00D+00 EMaxC= 1.00D-01 BMatC= 1.56D-08 BMatP= 2.38D-08
 IDIUse=1 WtCom= 1.00D+00 WtEn= 0.00D+00
 Coeff-Com: -0.516D-02 0.589D-02-0.522D-03 0.278D-03 0.173D-01-0.545D-01
 Coeff-Com:  0.630D-01-0.349D-01 0.183D-01-0.271D-01 0.604D-01-0.241D-02
 Coeff-Com: -0.135D+00-0.353D-01 0.305D+00 0.197D+00-0.664D+00-0.167D+01
 Coeff-Com:  0.297D+01
 Coeff:     -0.516D-02 0.589D-02-0.522D-03 0.278D-03 0.173D-01-0.545D-01
 Coeff:      0.630D-01-0.349D-01 0.183D-01-0.271D-01 0.604D-01-0.241D-02
 Coeff:     -0.135D+00-0.353D-01 0.305D+00 0.197D+00-0.664D+00-0.167D+01
 Coeff:      0.297D+01
 Gap=     0.010 Goal=   None    Shift=    0.200
 RMSDP=3.15D-07 MaxDP=2.55D-05 DE=-2.17D-08 OVMax= 4.38D-05

 Cycle  20  Pass 1  IDiag  1:
 E= -123.291574222170     Delta-E=       -0.000000013457 Rises=F Damp=F
 DIIS: error= 1.41D-05 at cycle  20 NSaved=  20.
 NSaved=20 IEnMin=20 EnMin= -123.291574222170     IErMin=20 ErrMin= 1.41D-05
 ErrMax= 1.41D-05  0.00D+00 EMaxC= 1.00D-01 BMatC= 1.03D-08 BMatP= 1.56D-08
 IDIUse=1 WtCom= 1.00D+00 WtEn= 0.00D+00
 Coeff-Com: -0.371D-02 0.423D-02-0.171D-03-0.116D-02 0.156D-01-0.462D-01
 Coeff-Com:  0.552D-01-0.323D-01 0.117D-01-0.153D-01 0.545D-01 0.606D-04
 Coeff-Com: -0.120D+00-0.889D-01 0.325D+00 0.370D+00-0.574D+00-0.206D+01
 Coeff-Com:  0.226D+01 0.842D+00
 Coeff:     -0.371D-02 0.423D-02-0.171D-03-0.116D-02 0.156D-01-0.462D-01
 Coeff:      0.552D-01-0.323D-01 0.117D-01-0.153D-01 0.545D-01 0.606D-04
 Coeff:     -0.120D+00-0.889D-01 0.325D+00 0.370D+00-0.574D+00-0.206D+01
 Coeff:      0.226D+01 0.842D+00
 Gap=     0.010 Goal=   None    Shift=    0.200
 RMSDP=1.98D-07 MaxDP=1.80D-05 DE=-1.35D-08 OVMax= 3.53D-05

 Cycle  21  Pass 1  IDiag  1:
 E= -123.291574231055     Delta-E=       -0.000000008884 Rises=F Damp=F
 DIIS: error= 1.14D-05 at cycle  21 NSaved=  20.
 NSaved=20 IEnMin=20 EnMin= -123.291574231055     IErMin=20 ErrMin= 1.14D-05
 ErrMax= 1.14D-05  0.00D+00 EMaxC= 1.00D-01 BMatC= 6.88D-09 BMatP= 1.03D-08
 IDIUse=1 WtCom= 1.00D+00 WtEn= 0.00D+00
 Coeff-Com:  0.114D-05-0.413D-03 0.871D-03 0.508D-02-0.220D-01 0.285D-01
 Coeff-Com: -0.151D-01 0.927D-02-0.251D-01 0.322D-01 0.253D-01-0.412D-01
 Coeff-Com: -0.918D-01 0.812D-02 0.256D+00 0.339D+00-0.115D+01 0.868D+00
 Coeff-Com: -0.332D+01 0.410D+01
 Coeff:      0.114D-05-0.413D-03 0.871D-03 0.508D-02-0.220D-01 0.285D-01
 Coeff:     -0.151D-01 0.927D-02-0.251D-01 0.322D-01 0.253D-01-0.412D-01
 Coeff:     -0.918D-01 0.812D-02 0.256D+00 0.339D+00-0.115D+01 0.868D+00
 Coeff:     -0.332D+01 0.410D+01
 Gap=     0.010 Goal=   None    Shift=    0.200
 RMSDP=2.96D-07 MaxDP=2.96D-05 DE=-8.88D-09 OVMax= 3.06D-05

 Cycle  22  Pass 1  IDiag  1:
 E= -123.291574236925     Delta-E=       -0.000000005871 Rises=F Damp=F
 DIIS: error= 9.53D-06 at cycle  22 NSaved=  20.
 NSaved=20 IEnMin=20 EnMin= -123.291574236925     IErMin=20 ErrMin= 9.53D-06
 ErrMax= 9.53D-06  0.00D+00 EMaxC= 1.00D-01 BMatC= 4.62D-09 BMatP= 6.88D-09
 IDIUse=1 WtCom= 1.00D+00 WtEn= 0.00D+00
 Coeff-Com: -0.608D-03 0.201D-02 0.316D-02-0.167D-01 0.216D-01-0.111D-01
 Coeff-Com:  0.994D-02-0.329D-01 0.269D-01 0.300D-01-0.136D-01-0.518D-01
 Coeff-Com: -0.984D-01 0.121D+00 0.487D+00-0.656D+00 0.862D+00-0.434D+01
 Coeff-Com:  0.376D+01 0.896D+00
 Coeff:     -0.608D-03 0.201D-02 0.316D-02-0.167D-01 0.216D-01-0.111D-01
 Coeff:      0.994D-02-0.329D-01 0.269D-01 0.300D-01-0.136D-01-0.518D-01
 Coeff:     -0.984D-01 0.121D+00 0.487D+00-0.656D+00 0.862D+00-0.434D+01
 Coeff:      0.376D+01 0.896D+00
 Gap=     0.010 Goal=   None    Shift=    0.200
 RMSDP=1.29D-07 MaxDP=1.21D-05 DE=-5.87D-09 OVMax= 2.34D-05

 Cycle  23  Pass 1  IDiag  1:
 E= -123.291574240799     Delta-E=       -0.000000003873 Rises=F Damp=F
 DIIS: error= 7.71D-06 at cycle  23 NSaved=  20.
 NSaved=20 IEnMin=20 EnMin= -123.291574240799     IErMin=20 ErrMin= 7.71D-06
 ErrMax= 7.71D-06  0.00D+00 EMaxC= 1.00D-01 BMatC= 3.10D-09 BMatP= 4.62D-09
 IDIUse=1 WtCom= 1.00D+00 WtEn= 0.00D+00
 Coeff-Com:  0.473D-03 0.444D-02-0.172D-01 0.215D-01-0.122D-01 0.955D-02
 Coeff-Com: -0.162D-01 0.472D-02 0.159D-01 0.131D-01-0.560D-01-0.202D-01
 Coeff-Com:  0.139D+00 0.714D-01-0.670D+00 0.123D+01-0.192D+01 0.142D+01
 Coeff-Com: -0.200D+01 0.279D+01
 Coeff:      0.473D-03 0.444D-02-0.172D-01 0.215D-01-0.122D-01 0.955D-02
 Coeff:     -0.162D-01 0.472D-02 0.159D-01 0.131D-01-0.560D-01-0.202D-01
 Coeff:      0.139D+00 0.714D-01-0.670D+00 0.123D+01-0.192D+01 0.142D+01
 Coeff:     -0.200D+01 0.279D+01
 Gap=     0.010 Goal=   None    Shift=    0.200
 RMSDP=1.50D-07 MaxDP=1.01D-05 DE=-3.87D-09 OVMax= 1.87D-05

 Cycle  24  Pass 1  IDiag  1:
 E= -123.291574243361     Delta-E=       -0.000000002563 Rises=F Damp=F
 DIIS: error= 6.25D-06 at cycle  24 NSaved=  20.
 NSaved=20 IEnMin=20 EnMin= -123.291574243361     IErMin=20 ErrMin= 6.25D-06
 ErrMax= 6.25D-06  0.00D+00 EMaxC= 1.00D-01 BMatC= 2.08D-09 BMatP= 3.10D-09
 IDIUse=1 WtCom= 1.00D+00 WtEn= 0.00D+00
 Coeff-Com:  0.437D-02-0.146D-01 0.190D-01-0.122D-01 0.553D-02-0.395D-02
 Coeff-Com:  0.259D-02 0.391D-02-0.509D-03-0.306D-01 0.735D-02 0.145D+00
 Coeff-Com: -0.198D-01-0.718D+00 0.104D+01-0.897D+00 0.876D+00-0.202D+01
 Coeff-Com:  0.138D+01 0.124D+01
 Coeff:      0.437D-02-0.146D-01 0.190D-01-0.122D-01 0.553D-02-0.395D-02
 Coeff:      0.259D-02 0.391D-02-0.509D-03-0.306D-01 0.735D-02 0.145D+00
 Coeff:     -0.198D-01-0.718D+00 0.104D+01-0.897D+00 0.876D+00-0.202D+01
 Coeff:      0.138D+01 0.124D+01
 Gap=     0.010 Goal=   None    Shift=    0.200
 RMSDP=9.00D-08 MaxDP=8.39D-06 DE=-2.56D-09 OVMax= 1.51D-05

 Cycle  25  Pass 1  IDiag  1:
 E= -123.291574245074     Delta-E=       -0.000000001712 Rises=F Damp=F
 DIIS: error= 5.08D-06 at cycle  25 NSaved=  20.
 NSaved=20 IEnMin=20 EnMin= -123.291574245074     IErMin=20 ErrMin= 5.08D-06
 ErrMax= 5.08D-06  0.00D+00 EMaxC= 1.00D-01 BMatC= 1.39D-09 BMatP= 2.08D-09
 IDIUse=1 WtCom= 1.00D+00 WtEn= 0.00D+00
 Coeff-Com: -0.313D-02 0.834D-02-0.563D-02-0.174D-02-0.701D-03 0.626D-02
 Coeff-Com: -0.331D-03-0.359D-02 0.603D-03-0.500D-01 0.723D-01 0.168D+00
 Coeff-Com: -0.356D+00 0.503D-01-0.514D+00 0.107D+01-0.213D+00-0.100D+01
 Coeff-Com: -0.156D+01 0.333D+01
 Coeff:     -0.313D-02 0.834D-02-0.563D-02-0.174D-02-0.701D-03 0.626D-02
 Coeff:     -0.331D-03-0.359D-02 0.603D-03-0.500D-01 0.723D-01 0.168D+00
 Coeff:     -0.356D+00 0.503D-01-0.514D+00 0.107D+01-0.213D+00-0.100D+01
 Coeff:     -0.156D+01 0.333D+01
 Gap=     0.010 Goal=   None    Shift=    0.200
 RMSDP=1.30D-07 MaxDP=1.21D-05 DE=-1.71D-09 OVMax= 1.23D-05

 Cycle  26  Pass 1  IDiag  1:
 E= -123.291574246198     Delta-E=       -0.000000001124 Rises=F Damp=F
 DIIS: error= 4.17D-06 at cycle  26 NSaved=  20.
 NSaved=20 IEnMin=20 EnMin= -123.291574246198     IErMin=20 ErrMin= 4.17D-06
 ErrMax= 4.17D-06  0.00D+00 EMaxC= 1.00D-01 BMatC= 9.37D-10 BMatP= 1.39D-09
 IDIUse=1 WtCom= 1.00D+00 WtEn= 0.00D+00
 Coeff-Com:  0.227D-02-0.398D-02-0.345D-03 0.336D-02 0.120D-02-0.858D-02
 Coeff-Com: -0.603D-02 0.511D-01-0.796D-01 0.686D-02 0.155D+00-0.123D+00
 Coeff-Com: -0.129D+00-0.232D+00 0.565D+00 0.329D+00-0.813D+00-0.255D+01
 Coeff-Com:  0.215D+01 0.168D+01
 Coeff:      0.227D-02-0.398D-02-0.345D-03 0.336D-02 0.120D-02-0.858D-02
 Coeff:     -0.603D-02 0.511D-01-0.796D-01 0.686D-02 0.155D+00-0.123D+00
 Coeff:     -0.129D+00-0.232D+00 0.565D+00 0.329D+00-0.813D+00-0.255D+01
 Coeff:      0.215D+01 0.168D+01
 Gap=     0.010 Goal=   None    Shift=    0.200
 RMSDP=6.26D-08 MaxDP=6.03D-06 DE=-1.12D-09 OVMax= 1.00D-05

 Cycle  27  Pass 1  IDiag  1:
 E= -123.291574246952     Delta-E=       -0.000000000753 Rises=F Damp=F
 DIIS: error= 3.41D-06 at cycle  27 NSaved=  20.
 NSaved=20 IEnMin=20 EnMin= -123.291574246952     IErMin=20 ErrMin= 3.41D-06
 ErrMax= 3.41D-06  0.00D+00 EMaxC= 1.00D-01 BMatC= 6.31D-10 BMatP= 9.37D-10
 IDIUse=1 WtCom= 1.00D+00 WtEn= 0.00D+00
 Coeff-Com: -0.839D-03 0.296D-02-0.400D-02 0.516D-03-0.203D-02-0.623D-02
 Coeff-Com:  0.551D-01-0.825D-01-0.334D-01 0.180D+00 0.932D-01-0.298D+00
 Coeff-Com: -0.180D+00 0.199D+00 0.825D+00-0.439D+00-0.256D+01 0.956D+00
 Coeff-Com: -0.127D+00 0.243D+01
 Coeff:     -0.839D-03 0.296D-02-0.400D-02 0.516D-03-0.203D-02-0.623D-02
 Coeff:      0.551D-01-0.825D-01-0.334D-01 0.180D+00 0.932D-01-0.298D+00
 Coeff:     -0.180D+00 0.199D+00 0.825D+00-0.439D+00-0.256D+01 0.956D+00
 Coeff:     -0.127D+00 0.243D+01
 Gap=     0.010 Goal=   None    Shift=    0.200
 RMSDP=5.99D-08 MaxDP=5.90D-06 DE=-7.53D-10 OVMax= 8.96D-06

 Cycle  28  Pass 1  IDiag  1:
 E= -123.291574247467     Delta-E=       -0.000000000515 Rises=F Damp=F
 DIIS: error= 2.79D-06 at cycle  28 NSaved=  20.
 NSaved=20 IEnMin=20 EnMin= -123.291574247467     IErMin=20 ErrMin= 2.79D-06
 ErrMax= 2.79D-06  0.00D+00 EMaxC= 1.00D-01 BMatC= 4.20D-10 BMatP= 6.31D-10
 IDIUse=1 WtCom= 1.00D+00 WtEn= 0.00D+00
 Coeff-Com:  0.157D-02-0.312D-02-0.497D-03 0.160D-02 0.202D-02 0.503D-02
 Coeff-Com: -0.276D-01 0.132D-01 0.672D-01-0.340D-01 0.178D-01-0.209D+00
 Coeff-Com:  0.438D-01 0.208D+00 0.420D+00-0.950D+00-0.203D+00-0.200D+01
 Coeff-Com:  0.225D+01 0.140D+01
 Coeff:      0.157D-02-0.312D-02-0.497D-03 0.160D-02 0.202D-02 0.503D-02
 Coeff:     -0.276D-01 0.132D-01 0.672D-01-0.340D-01 0.178D-01-0.209D+00
 Coeff:      0.438D-01 0.208D+00 0.420D+00-0.950D+00-0.203D+00-0.200D+01
 Coeff:      0.225D+01 0.140D+01
 Gap=     0.010 Goal=   None    Shift=    0.200
 RMSDP=4.61D-08 MaxDP=4.30D-06 DE=-5.15D-10 OVMax= 6.80D-06

 Cycle  29  Pass 1  IDiag  1:
 E= -123.291574247806     Delta-E=       -0.000000000339 Rises=F Damp=F
 DIIS: error= 2.26D-06 at cycle  29 NSaved=  20.
 NSaved=20 IEnMin=20 EnMin= -123.291574247806     IErMin=20 ErrMin= 2.26D-06
 ErrMax= 2.26D-06  0.00D+00 EMaxC= 1.00D-01 BMatC= 2.82D-10 BMatP= 4.20D-10
 IDIUse=1 WtCom= 1.00D+00 WtEn= 0.00D+00
 Coeff-Com:  0.138D-02-0.172D-02-0.114D-02 0.805D-03-0.814D-02 0.820D-02
 Coeff-Com:  0.337D-01-0.217D-01-0.108D+00 0.136D+00 0.127D-01-0.151D-01
 Coeff-Com: -0.172D+00 0.170D+00-0.166D+00 0.202D+00-0.156D+01 0.892D+00
 Coeff-Com: -0.669D+00 0.227D+01
 Coeff:      0.138D-02-0.172D-02-0.114D-02 0.805D-03-0.814D-02 0.820D-02
 Coeff:      0.337D-01-0.217D-01-0.108D+00 0.136D+00 0.127D-01-0.151D-01
 Coeff:     -0.172D+00 0.170D+00-0.166D+00 0.202D+00-0.156D+01 0.892D+00
 Coeff:     -0.669D+00 0.227D+01
 Gap=     0.010 Goal=   None    Shift=    0.200
 RMSDP=3.30D-08 MaxDP=3.42D-06 DE=-3.39D-10 OVMax= 5.48D-06

 Cycle  30  Pass 1  IDiag  1:
 E= -123.291574248031     Delta-E=       -0.000000000225 Rises=F Damp=F
 DIIS: error= 1.87D-06 at cycle  30 NSaved=  20.
 NSaved=20 IEnMin=20 EnMin= -123.291574248031     IErMin=20 ErrMin= 1.87D-06
 ErrMax= 1.87D-06  0.00D+00 EMaxC= 1.00D-01 BMatC= 1.89D-10 BMatP= 2.82D-10
 IDIUse=1 WtCom= 1.00D+00 WtEn= 0.00D+00
 Coeff-Com: -0.267D-03 0.642D-03 0.246D-02-0.117D-01-0.171D-02 0.273D-01
 Coeff-Com:  0.177D-01-0.749D-01 0.777D-01-0.116D+00 0.113D+00-0.564D-01
 Coeff-Com:  0.896D-02-0.223D+00 0.362D+00-0.948D+00 0.404D+00-0.889D+00
 Coeff-Com:  0.113D+01 0.118D+01
 Coeff:     -0.267D-03 0.642D-03 0.246D-02-0.117D-01-0.171D-02 0.273D-01
 Coeff:      0.177D-01-0.749D-01 0.777D-01-0.116D+00 0.113D+00-0.564D-01
 Coeff:      0.896D-02-0.223D+00 0.362D+00-0.948D+00 0.404D+00-0.889D+00
 Coeff:      0.113D+01 0.118D+01
 Gap=     0.010 Goal=   None    Shift=    0.200
 RMSDP=4.01D-08 MaxDP=3.62D-06 DE=-2.25D-10 OVMax= 4.58D-06

 Cycle  31  Pass 1  IDiag  1:
 E= -123.291574248183     Delta-E=       -0.000000000151 Rises=F Damp=F
 DIIS: error= 1.52D-06 at cycle  31 NSaved=  20.
 NSaved=20 IEnMin=20 EnMin= -123.291574248183     IErMin=20 ErrMin= 1.52D-06
 ErrMax= 1.52D-06  0.00D+00 EMaxC= 1.00D-01 BMatC= 1.27D-10 BMatP= 1.89D-10
 IDIUse=1 WtCom= 1.00D+00 WtEn= 0.00D+00
 Coeff-Com: -0.234D-03 0.343D-03 0.159D-03-0.112D-01 0.197D-01 0.308D-01
 Coeff-Com: -0.675D-01-0.107D-01 0.180D-01 0.480D-01 0.773D-01-0.161D+00
 Coeff-Com: -0.461D+00 0.474D+00-0.343D+00 0.238D+00 0.162D+00-0.499D+00
 Coeff-Com: -0.606D+00 0.209D+01
 Coeff:     -0.234D-03 0.343D-03 0.159D-03-0.112D-01 0.197D-01 0.308D-01
 Coeff:     -0.675D-01-0.107D-01 0.180D-01 0.480D-01 0.773D-01-0.161D+00
 Coeff:     -0.461D+00 0.474D+00-0.343D+00 0.238D+00 0.162D+00-0.499D+00
 Coeff:     -0.606D+00 0.209D+01
 Gap=     0.010 Goal=   None    Shift=    0.200
 RMSDP=2.37D-08 MaxDP=2.21D-06 DE=-1.51D-10 OVMax= 3.59D-06

 Cycle  32  Pass 1  IDiag  1:
 E= -123.291574248283     Delta-E=       -0.000000000101 Rises=F Damp=F
 DIIS: error= 1.25D-06 at cycle  32 NSaved=  20.
 NSaved=20 IEnMin=20 EnMin= -123.291574248283     IErMin=20 ErrMin= 1.25D-06
 ErrMax= 1.25D-06  0.00D+00 EMaxC= 1.00D-01 BMatC= 8.57D-11 BMatP= 1.27D-10
 IDIUse=1 WtCom= 1.00D+00 WtEn= 0.00D+00
 Large coefficients: NSaved= 20 BigCof=    0.00 CofMax=   10.00 Det=-7.85D-15
 Inversion failed.  Reducing to 19 matrices.
 Large coefficients: NSaved= 19 BigCof=    0.00 CofMax=   10.00 Det=-8.00D-15
 Inversion failed.  Reducing to 18 matrices.
 Large coefficients: NSaved= 18 BigCof=    0.00 CofMax=   10.00 Det=-8.00D-15
 Inversion failed.  Reducing to 17 matrices.
 Large coefficients: NSaved= 17 BigCof=    0.00 CofMax=   10.00 Det=-8.13D-15
 Inversion failed.  Reducing to 16 matrices.
 Large coefficients: NSaved= 16 BigCof=    0.00 CofMax=   10.00 Det=-8.30D-15
 Inversion failed.  Reducing to 15 matrices.
 Coeff-Com: -0.324D-01 0.288D-01 0.936D-01-0.110D+00 0.471D-01-0.203D-02
 Coeff-Com: -0.235D+00 0.137D+00-0.597D+00 0.431D+00 0.172D+00 0.256D-01
 Coeff-Com: -0.316D+00-0.572D+00 0.193D+01
 Coeff:     -0.324D-01 0.288D-01 0.936D-01-0.110D+00 0.471D-01-0.203D-02
 Coeff:     -0.235D+00 0.137D+00-0.597D+00 0.431D+00 0.172D+00 0.256D-01
 Coeff:     -0.316D+00-0.572D+00 0.193D+01
 Gap=     0.010 Goal=   None    Shift=    0.200
 RMSDP=2.42D-08 MaxDP=2.00D-06 DE=-1.01D-10 OVMax= 2.98D-06

 Cycle  33  Pass 1  IDiag  1:
 E= -123.291574248352     Delta-E=       -0.000000000068 Rises=F Damp=F
 DIIS: error= 1.02D-06 at cycle  33 NSaved=  16.
 NSaved=16 IEnMin=16 EnMin= -123.291574248352     IErMin=16 ErrMin= 1.02D-06
 ErrMax= 1.02D-06  0.00D+00 EMaxC= 1.00D-01 BMatC= 5.77D-11 BMatP= 8.57D-11
 IDIUse=1 WtCom= 1.00D+00 WtEn= 0.00D+00
 Large coefficients: NSaved= 16 BigCof=    0.00 CofMax=   10.00 Det=-8.13D-15
 Inversion failed.  Reducing to 15 matrices.
 Coeff-Com: -0.107D-02 0.594D-01-0.900D-01 0.275D-01 0.523D-01-0.214D+00
 Coeff-Com:  0.772D-01-0.546D+00 0.420D+00 0.322D-02 0.369D+00-0.374D-02
 Coeff-Com: -0.134D+01 0.129D+01 0.889D+00
 Coeff:     -0.107D-02 0.594D-01-0.900D-01 0.275D-01 0.523D-01-0.214D+00
 Coeff:      0.772D-01-0.546D+00 0.420D+00 0.322D-02 0.369D+00-0.374D-02
 Coeff:     -0.134D+01 0.129D+01 0.889D+00
 Gap=     0.010 Goal=   None    Shift=    0.200
 RMSDP=2.12D-08 MaxDP=1.61D-06 DE=-6.85D-11 OVMax= 2.47D-06

 Cycle  34  Pass 1  IDiag  1:
 E= -123.291574248399     Delta-E=       -0.000000000047 Rises=F Damp=F
 DIIS: error= 8.35D-07 at cycle  34 NSaved=  16.
 NSaved=16 IEnMin=16 EnMin= -123.291574248399     IErMin=16 ErrMin= 8.35D-07
 ErrMax= 8.35D-07  0.00D+00 EMaxC= 1.00D-01 BMatC= 3.88D-11 BMatP= 5.77D-11
 IDIUse=1 WtCom= 1.00D+00 WtEn= 0.00D+00
 Large coefficients: NSaved= 16 BigCof=    0.00 CofMax=   10.00 Det=-8.28D-15
 Inversion failed.  Reducing to 15 matrices.
 Coeff-Com:  0.887D-02-0.295D-01 0.333D-01 0.510D-01-0.128D+00 0.127D-01
 Coeff-Com: -0.446D+00 0.293D+00-0.185D+00 0.677D+00 0.358D+00-0.177D+01
 Coeff-Com:  0.820D+00-0.111D+00 0.141D+01
 Coeff:      0.887D-02-0.295D-01 0.333D-01 0.510D-01-0.128D+00 0.127D-01
 Coeff:     -0.446D+00 0.293D+00-0.185D+00 0.677D+00 0.358D+00-0.177D+01
 Coeff:      0.820D+00-0.111D+00 0.141D+01
 Gap=     0.010 Goal=   None    Shift=    0.200
 RMSDP=1.67D-08 MaxDP=1.35D-06 DE=-4.70D-11 OVMax= 2.04D-06

 Cycle  35  Pass 1  IDiag  1:
 E= -123.291574248431     Delta-E=       -0.000000000032 Rises=F Damp=F
 DIIS: error= 6.91D-07 at cycle  35 NSaved=  16.
 NSaved=16 IEnMin=16 EnMin= -123.291574248431     IErMin=16 ErrMin= 6.91D-07
 ErrMax= 6.91D-07  0.00D+00 EMaxC= 1.00D-01 BMatC= 2.60D-11 BMatP= 3.88D-11
 IDIUse=1 WtCom= 1.00D+00 WtEn= 0.00D+00
 Large coefficients: NSaved= 16 BigCof=    0.00 CofMax=   10.00 Det=-8.85D-15
 Inversion failed.  Reducing to 15 matrices.
 Coeff-Com: -0.694D-02 0.276D-01 0.289D-01-0.126D+00 0.804D-01-0.332D+00
 Coeff-Com:  0.210D+00 0.585D-01 0.242D+00 0.335D+00-0.344D+00-0.584D+00
 Coeff-Com: -0.138D+01 0.352D+00 0.244D+01
 Coeff:     -0.694D-02 0.276D-01 0.289D-01-0.126D+00 0.804D-01-0.332D+00
 Coeff:      0.210D+00 0.585D-01 0.242D+00 0.335D+00-0.344D+00-0.584D+00
 Coeff:     -0.138D+01 0.352D+00 0.244D+01
 Gap=     0.010 Goal=   None    Shift=    0.200
 RMSDP=2.02D-08 MaxDP=1.75D-06 DE=-3.22D-11 OVMax= 1.70D-06

 Cycle  36  Pass 1  IDiag  1:
 E= -123.291574248455     Delta-E=       -0.000000000024 Rises=F Damp=F
 DIIS: error= 5.72D-07 at cycle  36 NSaved=  16.
 NSaved=16 IEnMin=16 EnMin= -123.291574248455     IErMin=16 ErrMin= 5.72D-07
 ErrMax= 5.72D-07  0.00D+00 EMaxC= 1.00D-01 BMatC= 1.76D-11 BMatP= 2.60D-11
 IDIUse=1 WtCom= 1.00D+00 WtEn= 0.00D+00
 Large coefficients: NSaved= 16 BigCof=    0.00 CofMax=   10.00 Det=-7.36D-15
 Inversion failed.  Reducing to 15 matrices.
 Coeff-Com:  0.412D-01-0.800D-01-0.132D+00 0.298D+00-0.148D+00 0.327D-01
 Coeff-Com: -0.765D-01-0.300D+00 0.110D+00 0.153D+01-0.139D+01-0.121D+01
 Coeff-Com: -0.181D+00 0.862D+00 0.164D+01
 Coeff:      0.412D-01-0.800D-01-0.132D+00 0.298D+00-0.148D+00 0.327D-01
 Coeff:     -0.765D-01-0.300D+00 0.110D+00 0.153D+01-0.139D+01-0.121D+01
 Coeff:     -0.181D+00 0.862D+00 0.164D+01
 Gap=     0.010 Goal=   None    Shift=    0.200
 RMSDP=1.57D-08 MaxDP=1.16D-06 DE=-2.38D-11 OVMax= 1.38D-06

 Cycle  37  Pass 1  IDiag  1:
 E= -123.291574248471     Delta-E=       -0.000000000016 Rises=F Damp=F
 DIIS: error= 4.73D-07 at cycle  37 NSaved=  16.
 NSaved=16 IEnMin=16 EnMin= -123.291574248471     IErMin=16 ErrMin= 4.73D-07
 ErrMax= 4.73D-07  0.00D+00 EMaxC= 1.00D-01 BMatC= 1.19D-11 BMatP= 1.76D-11
 IDIUse=1 WtCom= 1.00D+00 WtEn= 0.00D+00
 Large coefficients: NSaved= 16 BigCof=    0.00 CofMax=   10.00 Det=-5.11D-15
 Inversion failed.  Reducing to 15 matrices.
 Coeff-Com:  0.285D-01-0.111D+00 0.414D-01-0.246D+00 0.211D+00 0.335D+00
 Coeff-Com: -0.438D+00-0.374D+00 0.732D-02 0.712D+00 0.318D+00 0.232D+00
 Coeff-Com: -0.402D+00-0.144D+01 0.213D+01
 Coeff:      0.285D-01-0.111D+00 0.414D-01-0.246D+00 0.211D+00 0.335D+00
 Coeff:     -0.438D+00-0.374D+00 0.732D-02 0.712D+00 0.318D+00 0.232D+00
 Coeff:     -0.402D+00-0.144D+01 0.213D+01
 Gap=     0.010 Goal=   None    Shift=    0.200
 RMSDP=8.86D-09 MaxDP=6.62D-07 DE=-1.60D-11 OVMax= 1.12D-06

 SCF Done:  E(ROHF) =  -123.291574248     A.U. after   37 cycles
            NFock= 37  Conv=0.89D-08     -V/T= 2.6978
 <Sx>= 0.0000 <Sy>= 0.0000 <Sz>= 1.5000 <S**2>= 3.7500 S= 1.5000
 <L.S>=  0.00000000000    
 KE= 7.261734787244D+01 PE=-3.022257621994D+02 EE= 1.010250679693D+02
 Annihilation of the first spin contaminant:
 S**2 before annihilation     3.7500,   after     3.7500
 Leave Link  502 at Sat Mar 24 00:23:17 2018, MaxMem= 10737418240 cpu:             516.6 elap:              19.6
 (Enter /home1/apps/gaussian/16rA.03/g16/l801.exe)
 Windowed orbitals will be sorted by symmetry type.
 GenMOA:  NOpAll=  4 NOp2=4 NOpUse=  4 JSym2X=1
 FoFJK:  IHMeth= 1 ICntrl=       0 DoSepK=F KAlg= 0 I1Cent=           0 FoldK=F
 IRaf=         0 NMat=       1 IRICut=       1 DoRegI=T DoRafI=F ISym2E= 1 IDoP0=0 IntGTp=1.
 FoFCou: FMM=F IPFlag=           8 FMFlag=      100000 FMFlg1=           0
         NFxFlg=           0 DoJE=F BraDBF=F KetDBF=F FulRan=T
         wScrn=  0.000000 ICntrl=         0 IOpCl=  1 I1Cent=           0 NGrid=           0
         NMat0=    1 NMatS0=      1 NMatT0=    0 NMatD0=    1 NMtDS0=    0 NMtDT0=    0
 Petite list used in FoFCou.
 <Sx>= 0.0000 <Sy>= 0.0000 <Sz>= 1.5000 <S**2>= 3.7500 S= 1.5000
 Range of M.O.s used for correlation:     1   212
 NBasis=   215 NAE=    10 NBE=     7 NFC=     0 NFV=     0
 NROrb=    212 NOA=    10 NOB=     7 NVA=   202 NVB=   205

 **** Warning!!: The largest alpha MO coefficient is  0.24730405D+03


 **** Warning!!: The largest beta MO coefficient is  0.24717038D+03

 Singles contribution to E2=   -0.7140695067D-02
 Leave Link  801 at Sat Mar 24 00:23:21 2018, MaxMem= 10737418240 cpu:              98.4 elap:               3.2
 (Enter /home1/apps/gaussian/16rA.03/g16/l804.exe)
 Open-shell transformation, MDV= 10737418240 ITran=4 ISComp=2.
 Unit  1 TFree=       1395097 TCopy=       1089051.
 Semi-Direct transformation.
 ModeAB=           2 MOrb=            10 LenV=   10735935324
 LASXX=     11836819 LTotXX=    11836819 LenRXX=    11836819
 LTotAB=    12069633 MaxLAS=    70831320 LenRXY=    70831320
 NonZer=    72285640 LenScr=   109171712 LnRSAI=           0
 LnScr1=           0 LExtra=     5450651 Total=    197290502
 MaxDsk= 67108864000 SrtSym=           F ITran=            4
 DoSDTr:  NPSUse= 32
 JobTyp=1 Pass  1:  I=   1 to  10.
 (rs|ai) integrals will be sorted in core.
 Complete sort for first half transformation.
 First half transformation complete.
 Begin second half transformation for I=  10.
 Begin second half transformation for I=  10.
 Complete sort for second half transformation.
 Second half transformation complete.
 ModeAB=           2 MOrb=             7 LenV=   10735935324
 LASXX=      8371498 LTotXX=     8371498 LenRXX=    49581924
 LTotAB=     7741007 MaxLAS=    49581924 LenRXY=     7741007
 NonZer=    50599948 LenScr=    76668928 LnRSAI=           0
 LnScr1=           0 LExtra=    88118790 Total=    222110649
 MaxDsk= 67108864000 SrtSym=           F ITran=            4
 DoSDTr:  NPSUse= 32
 JobTyp=2 Pass  1:  I=   1 to   7.
 (rs|ai) integrals will be sorted in core.
 Complete sort for first half transformation.
 First half transformation complete.
 Complete sort for second half transformation.
 Second half transformation complete.
 Spin components of T(2) and E(2):
     alpha-alpha T2 =       0.2896667142D-01 E2=     -0.1621848218D+00
     alpha-beta  T2 =       0.9126094837D-01 E2=     -0.5320265192D+00
     beta-beta   T2 =       0.1098171114D-01 E2=     -0.6866760748D-01
 ANorm=    0.1064951298D+01
 E2 =    -0.7700196436D+00 EUMP2 =    -0.12406159389206D+03
 (S**2,0)=  0.37500D+01           (S**2,1)=  0.37500D+01
 E(PUHF)=      -0.12329157425D+03        E(PMP2)=      -0.12406159389D+03
 Leave Link  804 at Sat Mar 24 00:24:57 2018, MaxMem= 10737418240 cpu:            3078.3 elap:              96.3
 (Enter /home1/apps/gaussian/16rA.03/g16/l913.exe)
 CIDS:  MDV= 10737418240.
 IFCWin=0 IBDFC=1 NFBD=     0     0 NFCmp=     0     0 NFFFC=     0     0
 Using original routines for 1st iteration.
 Using DD4UQ or CC4UQ for 2nd and later iterations.
 Keep R2 and R3 ints in memory in symmetry-blocked form, NReq=338808259.
 FoFCou: FMM=F IPFlag=           8 FMFlag=           0 FMFlg1=           0
         NFxFlg=           0 DoJE=F BraDBF=F KetDBF=F FulRan=T
         wScrn=  0.000000 ICntrl=       600 IOpCl=  0 I1Cent=           0 NGrid=           0
         NMat0=    1 NMatS0=  23220 NMatT0=    0 NMatD0=    1 NMtDS0=    0 NMtDT0=    0
 Petite list used in FoFCou.
 CIDS: In Core Option IDoMem=           1.
 CCSD(T)
 =======
 Iterations= 150 Convergence= 0.100D-06
 Produce multiple copies of IABC intergrals
 Iteration Nr.   1
 **********************
 DD1Dir will call FoFMem   1 times, MxPair=       206
 NAB=    70 NAA=    45 NBB=    21.
 DD1Dir will call FoFMem   1 times, MxPair=       206
 NAB=    70 NAA=    45 NBB=    21.
 MP4(R+Q)= -0.50352390D-01
 Maximum subspace dimension=  5
 A-vector RMS=  4.9074812D-04 Max=  5.0555803D-03 conv= 1.00D-05.
 RLE energy=       -0.7631861098
 E3=        0.56914743D-01        EROMP3=      -0.12400467915D+03
 E4(SDQ)=  -0.39830990D-01        ROMP4(SDQ)=  -0.12404451014D+03
 VARIATIONAL ENERGIES WITH THE FIRST-ORDER WAVEFUNCTION:
 DE(Corr)= -0.76312365     E(Corr)=     -124.05469790    
 NORM(A)=   0.10613622D+01
 Iteration Nr.   2
 **********************
 DD1Dir will call FoFMem   1 times, MxPair=       206
 NAB=    70 NAA=    45 NBB=    21.
 A-vector RMS=  4.5744914D-03 Max=  4.1829484D-02 conv= 1.00D-05.
 RLE energy=       -0.7499816901
 DE(Corr)= -0.70407291     E(CORR)=     -123.99564716     Delta= 5.91D-02
 NORM(A)=   0.10590819D+01
 Iteration Nr.   3
 **********************
 DD1Dir will call FoFMem   1 times, MxPair=       206
 NAB=    70 NAA=    45 NBB=    21.
 A-vector RMS=  3.3330638D-03 Max=  3.2558982D-02 conv= 1.00D-05.
 RLE energy=       -0.7482717083
 DE(Corr)= -0.71264949     E(CORR)=     -124.00422374     Delta=-8.58D-03
 NORM(A)=   0.10620765D+01
 Iteration Nr.   4
 **********************
 DD1Dir will call FoFMem   1 times, MxPair=       206
 NAB=    70 NAA=    45 NBB=    21.
 A-vector RMS=  3.1568556D-03 Max=  3.4629960D-02 conv= 1.00D-05.
 RLE energy=       -0.7303855825
 DE(Corr)= -0.71845051     E(CORR)=     -124.01002476     Delta=-5.80D-03
 NORM(A)=   0.10934522D+01
 Iteration Nr.   5
 **********************
 DD1Dir will call FoFMem   1 times, MxPair=       206
 NAB=    70 NAA=    45 NBB=    21.
 A-vector RMS=  1.6957445D-03 Max=  1.4565491D-02 conv= 1.00D-05.
 RLE energy=       -0.7440778243
 DE(Corr)= -0.74976148     E(CORR)=     -124.04133573     Delta=-3.13D-02
 NORM(A)=   0.10897444D+01
 Iteration Nr.   6
 **********************
 DD1Dir will call FoFMem   1 times, MxPair=       206
 NAB=    70 NAA=    45 NBB=    21.
 A-vector RMS=  1.3874412D-03 Max=  2.5162801D-02 conv= 1.00D-05.
 RLE energy=       -0.7417619923
 DE(Corr)= -0.73509366     E(CORR)=     -124.02666790     Delta= 1.47D-02
 NORM(A)=   0.11267603D+01
 Iteration Nr.   7
 **********************
 DD1Dir will call FoFMem   1 times, MxPair=       206
 NAB=    70 NAA=    45 NBB=    21.
 A-vector RMS=  7.8618006D-04 Max=  1.1260072D-02 conv= 1.00D-05.
 RLE energy=       -0.7427697964
 DE(Corr)= -0.74206399     E(CORR)=     -124.03363824     Delta=-6.97D-03
 NORM(A)=   0.11603179D+01
 Iteration Nr.   8
 **********************
 DD1Dir will call FoFMem   1 times, MxPair=       206
 NAB=    70 NAA=    45 NBB=    21.
 A-vector RMS=  7.8992238D-04 Max=  1.2632434D-02 conv= 1.00D-05.
 RLE energy=       -0.7439994023
 DE(Corr)= -0.74373404     E(CORR)=     -124.03530829     Delta=-1.67D-03
 NORM(A)=   0.11922856D+01
 Iteration Nr.   9
 **********************
 DD1Dir will call FoFMem   1 times, MxPair=       206
 NAB=    70 NAA=    45 NBB=    21.
 A-vector RMS=  5.4241556D-04 Max=  7.6334953D-03 conv= 1.00D-05.
 RLE energy=       -0.7448719206
 DE(Corr)= -0.74336422     E(CORR)=     -124.03493847     Delta= 3.70D-04
 NORM(A)=   0.12167498D+01
 Iteration Nr.  10
 **********************
 DD1Dir will call FoFMem   1 times, MxPair=       206
 NAB=    70 NAA=    45 NBB=    21.
 A-vector RMS=  4.1489531D-04 Max=  5.4577529D-03 conv= 1.00D-05.
 RLE energy=       -0.7437687591
 DE(Corr)= -0.74464953     E(CORR)=     -124.03622377     Delta=-1.29D-03
 NORM(A)=   0.12159092D+01
 Iteration Nr.  11
 **********************
 DD1Dir will call FoFMem   1 times, MxPair=       206
 NAB=    70 NAA=    45 NBB=    21.
 A-vector RMS=  2.4334803D-04 Max=  3.6501991D-03 conv= 1.00D-05.
 RLE energy=       -0.7447312077
 DE(Corr)= -0.74443430     E(CORR)=     -124.03600855     Delta= 2.15D-04
 NORM(A)=   0.12217734D+01
 Iteration Nr.  12
 **********************
 DD1Dir will call FoFMem   1 times, MxPair=       206
 NAB=    70 NAA=    45 NBB=    21.
 A-vector RMS=  2.2383909D-04 Max=  2.4321068D-03 conv= 1.00D-05.
 RLE energy=       -0.7442680327
 DE(Corr)= -0.74419497     E(CORR)=     -124.03576922     Delta= 2.39D-04
 NORM(A)=   0.12285323D+01
 Iteration Nr.  13
 **********************
 DD1Dir will call FoFMem   1 times, MxPair=       206
 NAB=    70 NAA=    45 NBB=    21.
 A-vector RMS=  2.1892478D-04 Max=  3.9038051D-03 conv= 1.00D-05.
 RLE energy=       -0.7445392445
 DE(Corr)= -0.74480526     E(CORR)=     -124.03637951     Delta=-6.10D-04
 NORM(A)=   0.12292475D+01
 Iteration Nr.  14
 **********************
 DD1Dir will call FoFMem   1 times, MxPair=       206
 NAB=    70 NAA=    45 NBB=    21.
 A-vector RMS=  1.9459735D-04 Max=  2.7364332D-03 conv= 1.00D-05.
 RLE energy=       -0.7450028096
 DE(Corr)= -0.74469689     E(CORR)=     -124.03627113     Delta= 1.08D-04
 NORM(A)=   0.12336795D+01
 Iteration Nr.  15
 **********************
 DD1Dir will call FoFMem   1 times, MxPair=       206
 NAB=    70 NAA=    45 NBB=    21.
 A-vector RMS=  1.2055257D-04 Max=  1.3461762D-03 conv= 1.00D-05.
 RLE energy=       -0.7448430248
 DE(Corr)= -0.74473012     E(CORR)=     -124.03630437     Delta=-3.32D-05
 NORM(A)=   0.12360791D+01
 Iteration Nr.  16
 **********************
 DD1Dir will call FoFMem   1 times, MxPair=       206
 NAB=    70 NAA=    45 NBB=    21.
 A-vector RMS=  7.6064467D-05 Max=  8.5346127D-04 conv= 1.00D-05.
 RLE energy=       -0.7449986799
 DE(Corr)= -0.74507920     E(CORR)=     -124.03665345     Delta=-3.49D-04
 NORM(A)=   0.12361256D+01
 Iteration Nr.  17
 **********************
 DD1Dir will call FoFMem   1 times, MxPair=       206
 NAB=    70 NAA=    45 NBB=    21.
 A-vector RMS=  5.6201105D-05 Max=  6.4839660D-04 conv= 1.00D-05.
 RLE energy=       -0.7450585566
 DE(Corr)= -0.74498954     E(CORR)=     -124.03656378     Delta= 8.97D-05
 NORM(A)=   0.12370804D+01
 Iteration Nr.  18
 **********************
 DD1Dir will call FoFMem   1 times, MxPair=       206
 NAB=    70 NAA=    45 NBB=    21.
 A-vector RMS=  3.0778531D-05 Max=  4.2398477D-04 conv= 1.00D-05.
 RLE energy=       -0.7450331937
 DE(Corr)= -0.74503469     E(CORR)=     -124.03660894     Delta=-4.52D-05
 NORM(A)=   0.12376779D+01
 Iteration Nr.  19
 **********************
 DD1Dir will call FoFMem   1 times, MxPair=       206
 NAB=    70 NAA=    45 NBB=    21.
 A-vector RMS=  1.8697491D-05 Max=  2.0721804D-04 conv= 1.00D-05.
 RLE energy=       -0.7450788421
 DE(Corr)= -0.74510771     E(CORR)=     -124.03668196     Delta=-7.30D-05
 NORM(A)=   0.12379296D+01
 Iteration Nr.  20
 **********************
 DD1Dir will call FoFMem   1 times, MxPair=       206
 NAB=    70 NAA=    45 NBB=    21.
 A-vector RMS=  1.6601954D-05 Max=  2.3319435D-04 conv= 1.00D-05.
 RLE energy=       -0.7451051482
 DE(Corr)= -0.74509443     E(CORR)=     -124.03666868     Delta= 1.33D-05
 NORM(A)=   0.12382449D+01
 Iteration Nr.  21
 **********************
 DD1Dir will call FoFMem   1 times, MxPair=       206
 NAB=    70 NAA=    45 NBB=    21.
 A-vector RMS=  1.1140886D-05 Max=  1.2810614D-04 conv= 1.00D-05.
 RLE energy=       -0.7450969284
 DE(Corr)= -0.74510163     E(CORR)=     -124.03667588     Delta=-7.20D-06
 NORM(A)=   0.12384854D+01
 Iteration Nr.  22
 **********************
 DD1Dir will call FoFMem   1 times, MxPair=       206
 NAB=    70 NAA=    45 NBB=    21.
 A-vector RMS=  7.1180131D-06 Max=  6.5437570D-05 conv= 1.00D-05.
 RLE energy=       -0.7451219065
 DE(Corr)= -0.74511976     E(CORR)=     -124.03669400     Delta=-1.81D-05
 NORM(A)=   0.12386580D+01
 Iteration Nr.  23
 **********************
 DD1Dir will call FoFMem   1 times, MxPair=       206
 NAB=    70 NAA=    45 NBB=    21.
 A-vector RMS=  9.6509522D-06 Max=  1.2331314D-04 conv= 1.00D-05.
 RLE energy=       -0.7451189696
 DE(Corr)= -0.74510762     E(CORR)=     -124.03668187     Delta= 1.21D-05
 NORM(A)=   0.12387874D+01
 Iteration Nr.  24
 **********************
 DD1Dir will call FoFMem   1 times, MxPair=       206
 NAB=    70 NAA=    45 NBB=    21.
 A-vector RMS=  3.9275467D-06 Max=  5.1356494D-05 conv= 1.00D-05.
 RLE energy=       -0.7451144988
 DE(Corr)= -0.74511646     E(CORR)=     -124.03669071     Delta=-8.84D-06
 NORM(A)=   0.12388630D+01
 Iteration Nr.  25
 **********************
 DD1Dir will call FoFMem   1 times, MxPair=       206
 NAB=    70 NAA=    45 NBB=    21.
 A-vector RMS=  2.8779609D-06 Max=  3.2301557D-05 conv= 1.00D-05.
 RLE energy=       -0.7451191138
 DE(Corr)= -0.74512034     E(CORR)=     -124.03669459     Delta=-3.88D-06
 NORM(A)=   0.12388956D+01
 Iteration Nr.  26
 **********************
 DD1Dir will call FoFMem   1 times, MxPair=       206
 NAB=    70 NAA=    45 NBB=    21.
 A-vector RMS=  1.9124093D-06 Max=  3.2666133D-05 conv= 1.00D-05.
 RLE energy=       -0.7451187223
 DE(Corr)= -0.74511698     E(CORR)=     -124.03669123     Delta= 3.36D-06
 NORM(A)=   0.12388985D+01
 Iteration Nr.  27
 **********************
 DD1Dir will call FoFMem   1 times, MxPair=       206
 NAB=    70 NAA=    45 NBB=    21.
 A-vector RMS=  1.1640659D-06 Max=  1.1201706D-05 conv= 1.00D-05.
 RLE energy=       -0.7451166611
 DE(Corr)= -0.74511678     E(CORR)=     -124.03669103     Delta= 1.99D-07
 NORM(A)=   0.12389108D+01
 Iteration Nr.  28
 **********************
 DD1Dir will call FoFMem   1 times, MxPair=       206
 NAB=    70 NAA=    45 NBB=    21.
 A-vector RMS=  9.5313871D-07 Max=  1.1545288D-05 conv= 1.00D-05.
 RLE energy=       -0.7451172764
 DE(Corr)= -0.74511757     E(CORR)=     -124.03669182     Delta=-7.88D-07
 NORM(A)=   0.12389002D+01
 Iteration Nr.  29
 **********************
 DD1Dir will call FoFMem   1 times, MxPair=       206
 NAB=    70 NAA=    45 NBB=    21.
 A-vector RMS=  5.7066292D-07 Max=  6.8965734D-06 conv= 1.00D-05.
 RLE energy=       -0.7451164083
 DE(Corr)= -0.74511607     E(CORR)=     -124.03669032     Delta= 1.50D-06
 NORM(A)=   0.12388953D+01
 Iteration Nr.  30
 **********************
 DD1Dir will call FoFMem   1 times, MxPair=       206
 NAB=    70 NAA=    45 NBB=    21.
 A-vector RMS=  5.7638836D-07 Max=  7.9420105D-06 conv= 1.00D-05.
 RLE energy=       -0.7451158672
 DE(Corr)= -0.74511641     E(CORR)=     -124.03669066     Delta=-3.38D-07
 NORM(A)=   0.12388864D+01
 Iteration Nr.  31
 **********************
 DD1Dir will call FoFMem   1 times, MxPair=       206
 NAB=    70 NAA=    45 NBB=    21.
 A-vector RMS=  4.0789545D-07 Max=  6.0377429D-06 conv= 1.00D-05.
 RLE energy=       -0.7451158714
 DE(Corr)= -0.74511613     E(CORR)=     -124.03669038     Delta= 2.81D-07
 NORM(A)=   0.12388753D+01
 Iteration Nr.  32
 **********************
 DD1Dir will call FoFMem   1 times, MxPair=       206
 NAB=    70 NAA=    45 NBB=    21.
 A-vector RMS=  2.6064885D-07 Max=  3.4450419D-06 conv= 1.00D-05.
 RLE energy=       -0.7451155323
 DE(Corr)= -0.74511556     E(CORR)=     -124.03668981     Delta= 5.72D-07
 NORM(A)=   0.12388654D+01
 Iteration Nr.  33
 **********************
 DD1Dir will call FoFMem   1 times, MxPair=       206
 NAB=    70 NAA=    45 NBB=    21.
 A-vector RMS=  2.5619842D-07 Max=  3.9795640D-06 conv= 1.00D-05.
 RLE energy=       -0.7451152385
 DE(Corr)= -0.74511538     E(CORR)=     -124.03668962     Delta= 1.80D-07
 NORM(A)=   0.12388601D+01
 Iteration Nr.  34
 **********************
 DD1Dir will call FoFMem   1 times, MxPair=       206
 NAB=    70 NAA=    45 NBB=    21.
 A-vector RMS=  1.8048154D-07 Max=  2.9526170D-06 conv= 1.00D-05.
 RLE energy=       -0.7451150907
 DE(Corr)= -0.74511530     E(CORR)=     -124.03668955     Delta= 7.56D-08
 NORM(A)=   0.12388492D+01
 CI/CC converged in   34 iterations to DelEn= 7.56D-08 Conv= 1.00D-07 ErrA1= 1.80D-07 Conv= 1.00D-05
 Wavefunction amplitudes converged. E(Corr)=     -124.03668955    
 Dominant configurations:
 ***********************
 Spin Case        I    J    A    B          Value
    BB            5         8           -0.152110D+00
    BB            5        12           -0.141496D+00
    BB            7         8           -0.360130D+00
    BB            7        12           -0.335009D+00
    BB            7        21            0.192550D+00
 Largest amplitude= 3.60D-01
 Time for triples=    14631.65 seconds.
 T4(CCSD)= -0.41296086D-01
 T5(CCSD)=  0.13584833D-01
 CCSD(T)= -0.12406440080D+03
 Discarding MO integrals.
 Leave Link  913 at Sat Mar 24 00:37:32 2018, MaxMem= 10737418240 cpu:           24102.1 elap:             753.6
 (Enter /home1/apps/gaussian/16rA.03/g16/l601.exe)
 Copying SCF densities to generalized density rwf, IOpCl= 0 IROHF=1.

 **********************************************************************

            Population analysis using the SCF density.

 **********************************************************************

 Orbital symmetries:
       Occupied  (SG) (SG) (PI) (PI) (SG) (?A) (SG) (PI) (PI) (?A)
       Virtual   (SG) (PI) (PI) (SG) (SG) (PI) (PI) (SG) (DLTA)
                 (DLTA) (PI) (PI) (SG) (SG) (SG) (PI) (PI) (SG)
                 (PI) (PI) (?A) (?A) (SG) (PI) (PI) (SG) (SG) (SG)
                 (DLTA) (DLTA) (PI) (PI) (SG) (PHI) (PHI) (PI)
                 (PI) (SG) (PI) (PI) (?A) (?A) (PI) (PI) (SG) (?A)
                 (?A) (SG) (PI) (PI) (SG) (SG) (SG) (?B) (?B) (SG)
                 (?B) (?B) (?B) (?B) (DLTA) (DLTA) (SG) (SG) (PI)
                 (PI) (DLTA) (DLTA) (DLTA) (PHI) (PHI) (DLTA) (?C)
                 (?C) (PI) (PI) (DLTA) (DLTA) (SG) (PI) (PI) (PI)
                 (PI) (SG) (SG) (SG) (?D) (?D) (DLTA) (DLTA) (PI)
                 (PI) (SG) (DLTA) (DLTA) (?D) (?D) (PI) (PI) (SG)
                 (SG) (?D) (?D) (?E) (?E) (DLTA) (DLTA) (?D) (?D)
                 (?E) (SG) (SG) (DLTA) (DLTA) (PI) (PI) (SG) (PI)
                 (PI) (SG) (?D) (?D) (DLTA) (DLTA) (?D) (?D) (SG)
                 (?D) (?D) (DLTA) (?F) (?F) (DLTA) (?D) (?D) (?F)
                 (SG) (DLTA) (DLTA) (PI) (PI) (SG) (PI) (PI) (SG)
                 (DLTA) (DLTA) (PI) (PI) (SG) (SG) (SG) (PI) (PI)
                 (SG) (SG) (DLTA) (DLTA) (PI) (PI) (SG) (PI) (PI)
                 (SG) (SG) (PI) (PI) (SG) (SG) (DLTA) (DLTA) (PI)
                 (PI) (SG) (PI) (PI) (SG) (SG) (PI) (PI) (SG) (SG)
                 (PI) (PI) (SG) (SG) (PI) (PI) (SG) (SG) (PI) (PI)
                 (SG) (SG) (SG) (PI) (PI) (SG) (SG) (SG) (SG) (SG)
 Unable to determine electronic state:  an orbital has unidentified symmetry.
 Alpha  occ. eigenvalues --   -4.16893  -2.79003  -2.78393  -2.78393  -0.49866
 Alpha  occ. eigenvalues --   -0.49866  -0.49157  -0.44696  -0.44202  -0.31861
 Alpha virt. eigenvalues --   -0.00456   0.02430   0.02430   0.03222   0.04163
 Alpha virt. eigenvalues --    0.08432   0.08432   0.09577   0.10216   0.10255
 Alpha virt. eigenvalues --    0.10397   0.10397   0.10774   0.17154   0.23719
 Alpha virt. eigenvalues --    0.27646   0.27646   0.29360   0.35339   0.35339
 Alpha virt. eigenvalues --    0.37201   0.37655   0.39097   0.39097   0.39125
 Alpha virt. eigenvalues --    0.49575   0.59870   0.70376   0.87127   0.87254
 Alpha virt. eigenvalues --    0.91066   0.91066   0.96230   0.99550   0.99550
 Alpha virt. eigenvalues --    1.02195   1.02195   1.10477   1.11754   1.11754
 Alpha virt. eigenvalues --    1.14125   1.14704   1.16690   1.16690   1.17875
 Alpha virt. eigenvalues --    1.23978   1.25244   1.52949   1.73107   1.73107
 Alpha virt. eigenvalues --    1.98497   2.07109   2.69038   2.90861   2.90861
 Alpha virt. eigenvalues --    2.93386   2.93386   2.93813   2.93870   2.95412
 Alpha virt. eigenvalues --    2.95420   2.95420   3.26204   3.34288   3.34288
 Alpha virt. eigenvalues --    3.36008   3.40899   3.43365   3.52429   3.52688
 Alpha virt. eigenvalues --    3.52688   3.53405   3.54275   3.54278   3.74077
 Alpha virt. eigenvalues --    3.74077   4.06342   4.06510   4.14714   4.39266
 Alpha virt. eigenvalues --    4.39266   4.71433   4.71433   4.98730   5.38783
 Alpha virt. eigenvalues --    6.06290   7.73071   7.74993   7.74993   7.75920
 Alpha virt. eigenvalues --    7.82183   7.82183   7.88228   7.88754   7.91891
 Alpha virt. eigenvalues --    7.93644   7.93644   8.09447   8.09447   8.19719
 Alpha virt. eigenvalues --    8.69193  10.01406  10.01406  10.04061  10.04384
 Alpha virt. eigenvalues --   10.04403  10.06300  10.26930  10.26930  10.28666
 Alpha virt. eigenvalues --   10.67091  13.48982  15.82567  15.86055  15.88705
 Alpha virt. eigenvalues --   15.88705  16.02459  18.66170  18.66170  19.00107
 Alpha virt. eigenvalues --   20.40103  20.42290  20.42290  20.42948  20.48205
 Alpha virt. eigenvalues --   20.48205  20.75275  26.12528  26.12528  26.13728
 Alpha virt. eigenvalues --   26.15501  26.15551  26.16428  26.27224  26.27224
 Alpha virt. eigenvalues --   26.42196  27.95807  29.49950  29.53722  29.56083
 Alpha virt. eigenvalues --   29.56083  29.69950  38.27669  38.27669  38.72776
 Alpha virt. eigenvalues --   54.27766  54.31190  54.33712  54.33712  54.45340
 Alpha virt. eigenvalues --   56.97757  64.00218  74.63790  74.63790  75.21073
 Alpha virt. eigenvalues --  119.01040 124.61835 124.63720 124.66697 124.66697
 Alpha virt. eigenvalues --  124.74877 144.99409 144.99409 145.56989 227.23939
 Alpha virt. eigenvalues --  278.88748 278.88748 279.41608 401.47722 431.38702
 Alpha virt. eigenvalues --  431.39147 431.41768 431.41768 431.46656 540.97086
 Alpha virt. eigenvalues --  540.97086 541.47111 742.041781092.723301092.72330
 Alpha virt. eigenvalues -- 1093.187381458.456582366.577122366.577122366.99507
 Alpha virt. eigenvalues -- 3055.848455672.678755672.678755673.041386847.14450
 Alpha virt. eigenvalues -- **************************************************
 Alpha virt. eigenvalues -- **************************************************
 Alpha virt. eigenvalues -- ********************
     Molecular Orbital Coefficients:
                           3         4         5         6         7
                           O         O         O         O         O
     Eigenvalues --    -2.78393  -2.78393  -0.49866  -0.49866  -0.49157
   1 1   Fe 1S          0.00000   0.00000   0.00000   0.00000  -0.00000
   2        2S          0.00000   0.00000  -0.00000   0.00000   0.00000
   3        3S          0.00000   0.00000   0.00000   0.00000  -0.00000
   4        4S          0.00000   0.00000  -0.00000   0.00000   0.00000
   5        5S          0.00000   0.00000   0.00000   0.00000  -0.00000
   6        6S          0.00000   0.00000  -0.00000   0.00000   0.00000
   7        7S          0.00000   0.00000   0.00000   0.00000  -0.00001
   8        8S          0.00000   0.00000  -0.00001   0.00000   0.00003
   9        9S          0.00000   0.00000   0.00004   0.00000  -0.00008
  10       10S          0.00000   0.00000  -0.00012   0.00000   0.00027
  11       11S          0.00000   0.00000   0.00051   0.00000  -0.00120
  12       12S          0.00000   0.00000  -0.00329   0.00000   0.00789
  13       13S          0.00000   0.00000   0.00470   0.00000  -0.01118
  14       14S          0.00000   0.00000   0.02116   0.00000  -0.05517
  15       15S          0.00000   0.00000  -0.02075   0.00000   0.03915
  16       16S          0.00000   0.00000  -0.03764   0.00000   0.14484
  17       17S          0.00000   0.00000  -0.05012   0.00000   0.15250
  18       18S          0.00000   0.00000   0.02285   0.00000  -0.18340
  19       19S          0.00000   0.00000   0.04304   0.00000  -0.23812
  20       20S          0.00000   0.00000   0.01090   0.00000  -0.09906
  21       21S          0.00000   0.00000   0.01064   0.00000  -0.01580
  22       22S          0.00000   0.00000  -0.02362   0.00000   0.00455
  23       23S          0.00000   0.00000  -0.00681   0.00000   0.01479
  24       24PX         0.00000   0.00000   0.00000   0.00000   0.00000
  25       24PY         0.00000   0.00000   0.00000   0.00000   0.00000
  26       24PZ         0.00000   0.00000   0.00000   0.00000  -0.00000
  27       25PX         0.00000  -0.00000   0.00000   0.00000   0.00000
  28       25PY        -0.00000   0.00000   0.00000   0.00000   0.00000
  29       25PZ         0.00000   0.00000  -0.00000   0.00000   0.00000
  30       26PX         0.00000   0.00002   0.00000   0.00000   0.00000
  31       26PY         0.00002   0.00000   0.00000   0.00000   0.00000
  32       26PZ         0.00000   0.00000   0.00000   0.00000  -0.00000
  33       27PX         0.00000  -0.00007   0.00000   0.00000   0.00000
  34       27PY        -0.00007   0.00000   0.00000   0.00000   0.00000
  35       27PZ         0.00000   0.00000  -0.00001   0.00000   0.00000
  36       28PX         0.00000   0.00028   0.00000   0.00000   0.00000
  37       28PY         0.00028   0.00000   0.00000   0.00000   0.00000
  38       28PZ         0.00000   0.00000   0.00003   0.00000  -0.00002
  39       29PX         0.00000  -0.00112   0.00000   0.00000   0.00000
  40       29PY        -0.00112   0.00000   0.00000   0.00000   0.00000
  41       29PZ         0.00000   0.00000  -0.00010   0.00000   0.00007
  42       30PX         0.00000   0.00591   0.00000   0.00000   0.00000
  43       30PY         0.00591   0.00000   0.00000   0.00000   0.00000
  44       30PZ         0.00000   0.00000   0.00050   0.00000  -0.00039
  45       31PX         0.00000  -0.02011   0.00000   0.00000   0.00000
  46       31PY        -0.02011   0.00000   0.00000   0.00000   0.00000
  47       31PZ         0.00000   0.00000  -0.00173   0.00000   0.00139
  48       32PX         0.00000  -0.06243   0.00000   0.00000   0.00000
  49       32PY        -0.06243   0.00000   0.00000   0.00000   0.00000
  50       32PZ         0.00000   0.00000  -0.00385   0.00000   0.00517
  51       33PX         0.00000   0.05485   0.00000   0.00000   0.00000
  52       33PY         0.05485   0.00000   0.00000   0.00000   0.00000
  53       33PZ         0.00000   0.00000   0.01494   0.00000  -0.00117
  54       34PX         0.00000   0.31974   0.00000   0.00000   0.00000
  55       34PY         0.31974   0.00000   0.00000   0.00000   0.00000
  56       34PZ         0.00000   0.00000   0.02371   0.00000  -0.02585
  57       35PX         0.00000   0.23289   0.00000   0.00000   0.00000
  58       35PY         0.23289   0.00000   0.00000   0.00000   0.00000
  59       35PZ         0.00000   0.00000   0.04040   0.00000  -0.00077
  60       36PX         0.00000   0.28937   0.00000   0.00000   0.00000
  61       36PY         0.28937   0.00000   0.00000   0.00000   0.00000
  62       36PZ         0.00000   0.00000   0.02189   0.00000  -0.02850
  63       37PX         0.00000   0.04535   0.00000   0.00000   0.00000
  64       37PY         0.04535   0.00000   0.00000   0.00000   0.00000
  65       37PZ         0.00000   0.00000  -0.02236   0.00000   0.03590
  66       38PX         0.00000  -0.00216   0.00000   0.00000   0.00000
  67       38PY        -0.00216   0.00000   0.00000   0.00000   0.00000
  68       38PZ         0.00000   0.00000  -0.04788   0.00000   0.02165
  69       39PX         0.00000   0.00152   0.00000   0.00000   0.00000
  70       39PY         0.00152   0.00000   0.00000   0.00000   0.00000
  71       39PZ         0.00000   0.00000  -0.01599   0.00000   0.00897
  72       40PX         0.00000  -0.01606   0.00000   0.00000   0.00000
  73       40PY        -0.01606   0.00000   0.00000   0.00000   0.00000
  74       40PZ         0.00000   0.00000  -0.01086   0.00000  -0.00229
  75       41PX         0.00000   0.21944   0.00000   0.00000   0.00000
  76       41PY         0.21944   0.00000   0.00000   0.00000   0.00000
[...]
 212       11D+1        0.00000   0.00000
 213       11D-1        0.00000   0.00000   0.00000
 214       11D+2        0.00000   0.00000   0.00000   0.00000
 215       11D-2        0.00000   0.00000   0.00000   0.00000   0.00000
     Gross orbital populations:
                         Total     Alpha     Beta      Spin
   1 1   Fe 1S         -0.00000  -0.00000  -0.00000   0.00000
   2        2S          0.00000   0.00000   0.00000   0.00000
   3        3S         -0.00000  -0.00000  -0.00000  -0.00000
   4        4S          0.00000   0.00000   0.00000   0.00000
   5        5S         -0.00000  -0.00000  -0.00000  -0.00000
   6        6S          0.00000   0.00000   0.00000   0.00000
   7        7S         -0.00000  -0.00000  -0.00000  -0.00000
   8        8S          0.00000   0.00000   0.00000  -0.00000
   9        9S         -0.00000  -0.00000  -0.00000  -0.00000
  10       10S          0.00002   0.00001   0.00001   0.00000
  11       11S         -0.00022  -0.00011  -0.00011  -0.00000
  12       12S          0.00493   0.00246   0.00246   0.00000
  13       13S         -0.02003  -0.01001  -0.01001  -0.00000
  14       14S         -0.22036  -0.11018  -0.11018  -0.00000
  15       15S          0.30356   0.15178   0.15178   0.00000
  16       16S          1.24806   0.62403   0.62403  -0.00000
  17       17S          0.73356   0.36678   0.36678   0.00000
  18       18S          0.23420   0.11710   0.11710   0.00000
  19       19S          0.33683   0.16841   0.16841   0.00000
  20       20S          0.13352   0.06676   0.06676  -0.00000
  21       21S         -0.14200  -0.07100  -0.07100  -0.00000
  22       22S          0.06864   0.03432   0.03432   0.00000
  23       23S         -0.01699  -0.00849  -0.00849   0.00000
  24       24PX         0.00000   0.00000   0.00000   0.00000
  25       24PY         0.00000   0.00000   0.00000   0.00000
  26       24PZ         0.00000   0.00000   0.00000   0.00000
  27       25PX        -0.00000  -0.00000  -0.00000  -0.00000
  28       25PY        -0.00000  -0.00000  -0.00000  -0.00000
  29       25PZ        -0.00000  -0.00000  -0.00000  -0.00000
  30       26PX         0.00000   0.00000   0.00000   0.00000
  31       26PY         0.00000   0.00000   0.00000   0.00000
  32       26PZ         0.00000   0.00000   0.00000   0.00000
  33       27PX        -0.00000  -0.00000  -0.00000  -0.00000
  34       27PY        -0.00000  -0.00000  -0.00000  -0.00000
  35       27PZ        -0.00000  -0.00000  -0.00000  -0.00000
  36       28PX         0.00000   0.00000   0.00000   0.00000
  37       28PY         0.00000   0.00000   0.00000   0.00000
  38       28PZ         0.00000   0.00000   0.00000   0.00000
  39       29PX        -0.00004  -0.00002  -0.00002  -0.00000
  40       29PY        -0.00004  -0.00002  -0.00002  -0.00000
  41       29PZ        -0.00004  -0.00002  -0.00002  -0.00000
  42       30PX         0.00064   0.00032   0.00032   0.00000
  43       30PY         0.00064   0.00032   0.00032   0.00000
  44       30PZ         0.00065   0.00033   0.00033   0.00000
  45       31PX        -0.00590  -0.00295  -0.00295  -0.00000
  46       31PY        -0.00590  -0.00295  -0.00295  -0.00000
  47       31PZ        -0.00599  -0.00299  -0.00299  -0.00000
  48       32PX        -0.04104  -0.02052  -0.02051  -0.00001
  49       32PY        -0.04104  -0.02052  -0.02051  -0.00001
  50       32PZ        -0.04161  -0.02081  -0.02081  -0.00000
  51       33PX         0.06515   0.03259   0.03256   0.00003
  52       33PY         0.06515   0.03259   0.03256   0.00003
  53       33PZ         0.06620   0.03310   0.03310   0.00000
  54       34PX         0.55325   0.27667   0.27658   0.00009
  55       34PY         0.55325   0.27667   0.27658   0.00009
  56       34PZ         0.55979   0.27989   0.27989   0.00000
  57       35PX         0.46015   0.23007   0.23007  -0.00000
  58       35PY         0.46015   0.23007   0.23007  -0.00000
  59       35PZ         0.46583   0.23292   0.23292   0.00000
  60       36PX         0.50486   0.25243   0.25244  -0.00001
  61       36PY         0.50486   0.25243   0.25244  -0.00001
  62       36PZ         0.49730   0.24865   0.24865  -0.00000
  63       37PX         0.04838   0.02436   0.02403   0.00033
  64       37PY         0.04838   0.02436   0.02403   0.00033
  65       37PZ         0.06991   0.03496   0.03496   0.00000
  66       38PX        -0.00079  -0.00027  -0.00051   0.00024
  67       38PY        -0.00079  -0.00027  -0.00051   0.00024
  68       38PZ         0.04429   0.02215   0.02215  -0.00000
  69       39PX         0.00023   0.00011   0.00013  -0.00002
  70       39PY         0.00023   0.00011   0.00013  -0.00002
  71       39PZ         0.01401   0.00700   0.00700   0.00000
  72       40PX        -0.01775  -0.00888  -0.00887  -0.00001
  73       40PY        -0.01775  -0.00888  -0.00887  -0.00001
  74       40PZ        -0.01809  -0.00905  -0.00905  -0.00000
  75       41PX         0.43337   0.21674   0.21663   0.00012
  76       41PY         0.43337   0.21674   0.21663   0.00012
  77       41PZ         0.43546   0.21773   0.21773   0.00000
  78       42PX        -0.00002  -0.00001  -0.00001   0.00000
  79       42PY        -0.00002  -0.00001  -0.00001   0.00000
  80       42PZ        -0.00208  -0.00104  -0.00104   0.00000
  81       43D 0       -0.00002  -0.00001  -0.00001  -0.00000
  82       43D+1       -0.00001  -0.00001  -0.00000  -0.00001
  83       43D-1       -0.00001  -0.00001  -0.00000  -0.00001
  84       43D+2       -0.00001  -0.00001  -0.00000  -0.00001
  85       43D-2       -0.00003  -0.00001  -0.00001  -0.00000
  86       44D 0        0.00340   0.00170   0.00170   0.00000
  87       44D+1        0.00211   0.00211   0.00000   0.00211
  88       44D-1        0.00211   0.00211   0.00000   0.00211
  89       44D+2        0.00213   0.00213   0.00000   0.00213
  90       44D-2        0.00402   0.00201   0.00201   0.00000
  91       45D 0        0.06997   0.03498   0.03498   0.00000
  92       45D+1        0.04345   0.04345   0.00000   0.04345
  93       45D-1        0.04345   0.04345   0.00000   0.04345
  94       45D+2        0.04372   0.04372   0.00000   0.04372
  95       45D-2        0.08280   0.04140   0.04140   0.00000
  96       46D 0        0.20953   0.10477   0.10477   0.00000
  97       46D+1        0.12756   0.12755   0.00001   0.12754
  98       46D-1        0.12756   0.12755   0.00001   0.12754
  99       46D+2        0.12735   0.12735   0.00000   0.12735
 100       46D-2        0.23947   0.11973   0.11973   0.00000
 101       47D 0        0.74226   0.37113   0.37113   0.00000
 102       47D+1        0.49466   0.49468  -0.00002   0.49470
 103       47D-1        0.49466   0.49468  -0.00002   0.49470
 104       47D+2        0.50929   0.50929   0.00000   0.50929
 105       47D-2        0.99537   0.49768   0.49768   0.00000
 106       48D 0        0.55624   0.27812   0.27812   0.00000
 107       48D+1        0.30931   0.30928   0.00003   0.30925
 108       48D-1        0.30931   0.30928   0.00003   0.30925
 109       48D+2        0.30934   0.30934   0.00000   0.30934
 110       48D-2        0.60842   0.30421   0.30421   0.00000
 111       49D 0        0.34211   0.17106   0.17106   0.00000
 112       49D+1        0.14774   0.14773   0.00001   0.14773
 113       49D-1        0.14774   0.14773   0.00001   0.14773
 114       49D+2        0.14745   0.14745   0.00000   0.14745
 115       49D-2        0.33796   0.16898   0.16898   0.00000
 116       50D 0        0.06851   0.03426   0.03426   0.00000
 117       50D+1        0.01700   0.01700  -0.00000   0.01700
 118       50D-1        0.01700   0.01700  -0.00000   0.01700
 119       50D+2        0.01620   0.01620   0.00000   0.01620
 120       50D-2        0.05423   0.02712   0.02712   0.00000
 121       51D 0        0.06680   0.03340   0.03340   0.00000
 122       51D+1        0.04418   0.04418  -0.00000   0.04419
 123       51D-1        0.04418   0.04418  -0.00000   0.04419
 124       51D+2        0.04562   0.04562   0.00000   0.04562
 125       51D-2        0.08814   0.04407   0.04407   0.00000
 126       52D 0       -0.23830  -0.11915  -0.11915  -0.00000
 127       52D+1       -0.18761  -0.18765   0.00004  -0.18768
 128       52D-1       -0.18761  -0.18765   0.00004  -0.18768
 129       52D+2       -0.20107  -0.20107  -0.00000  -0.20107
 130       52D-2       -0.41030  -0.20515  -0.20515   0.00000
 131       53D 0       -0.00014  -0.00007  -0.00007  -0.00000
 132       53D+1       -0.00016  -0.00016   0.00000  -0.00016
 133       53D-1       -0.00016  -0.00016   0.00000  -0.00016
 134       53D+2       -0.00022  -0.00022   0.00000  -0.00022
 135       53D-2       -0.00038  -0.00019  -0.00019  -0.00000
 136       54F 0        0.00001   0.00001   0.00001   0.00000
 137       54F+1        0.00000   0.00000   0.00000   0.00000
 138       54F-1        0.00000   0.00000   0.00000   0.00000
 139       54F+2        0.00000   0.00000   0.00000   0.00000
 140       54F-2        0.00000   0.00000   0.00000   0.00000
 141       54F+3        0.00001   0.00000   0.00000   0.00000
 142       54F-3        0.00001   0.00000   0.00000   0.00000
 143       55F 0        0.00006   0.00003   0.00003   0.00000
 144       55F+1        0.00001   0.00001   0.00000   0.00001
 145       55F-1        0.00001   0.00001   0.00000   0.00001
 146       55F+2        0.00000   0.00000   0.00000   0.00000
 147       55F-2        0.00001   0.00000   0.00000   0.00000
 148       55F+3        0.00003   0.00001   0.00001   0.00000
 149       55F-3        0.00003   0.00001   0.00001   0.00000
 150       56F 0        0.00082   0.00041   0.00041   0.00000
 151       56F+1        0.00006   0.00005   0.00000   0.00005
 152       56F-1        0.00006   0.00005   0.00000   0.00005
 153       56F+2        0.00004   0.00004   0.00000   0.00004
 154       56F-2        0.00008   0.00004   0.00004   0.00000
 155       56F+3        0.00003   0.00002   0.00002  -0.00000
 156       56F-3        0.00003   0.00002   0.00002  -0.00000
 157       57F 0        0.00184   0.00092   0.00092  -0.00000
 158       57F+1        0.00007   0.00007   0.00000   0.00006
 159       57F-1        0.00007   0.00007   0.00000   0.00006
 160       57F+2        0.00009   0.00009   0.00000   0.00009
 161       57F-2        0.00023   0.00011   0.00011   0.00000
 162       57F+3        0.00001   0.00000   0.00000   0.00000
 163       57F-3        0.00001   0.00000   0.00000   0.00000
 164       58G 0        0.00000   0.00000   0.00000   0.00000
 165       58G+1        0.00000  -0.00000   0.00000  -0.00000
 166       58G-1        0.00000  -0.00000   0.00000  -0.00000
 167       58G+2        0.00000   0.00000   0.00000   0.00000
 168       58G-2        0.00000   0.00000   0.00000   0.00000
 169       58G+3        0.00000   0.00000   0.00000   0.00000
 170       58G-3        0.00000   0.00000   0.00000   0.00000
 171       58G+4        0.00000   0.00000   0.00000   0.00000
 172       58G-4        0.00000   0.00000   0.00000   0.00000
 173       59G 0        0.00001   0.00000   0.00000   0.00000
 174       59G+1       -0.00000  -0.00000  -0.00000  -0.00000
 175       59G-1       -0.00000  -0.00000  -0.00000  -0.00000
 176       59G+2        0.00000   0.00000  -0.00000   0.00000
 177       59G-2        0.00000   0.00000   0.00000   0.00000
 178       59G+3        0.00000   0.00000   0.00000   0.00000
 179       59G-3        0.00000   0.00000   0.00000   0.00000
 180       59G+4        0.00000   0.00000   0.00000   0.00000
 181       59G-4       -0.00000  -0.00000  -0.00000   0.00000
 182       60G 0        0.00023   0.00012   0.00012   0.00000
 183       60G+1        0.00000   0.00000   0.00000   0.00000
 184       60G-1        0.00000   0.00000   0.00000   0.00000
 185       60G+2        0.00000   0.00000   0.00000   0.00000
 186       60G-2        0.00000   0.00000   0.00000   0.00000
 187       60G+3        0.00000   0.00000   0.00000   0.00000
 188       60G-3        0.00000   0.00000   0.00000   0.00000
 189       60G+4        0.00000   0.00000   0.00000   0.00000
 190       60G-4        0.00000   0.00000   0.00000   0.00000
 191 2   H  1S          0.00067   0.00034   0.00034   0.00000
 192        2S          0.02318   0.01159   0.01159   0.00000
 193        3S          0.17849   0.08925   0.08925   0.00000
 194        4S          0.57727   0.28864   0.28864   0.00000
 195        5S          0.56783   0.28391   0.28391   0.00000
 196        6S          0.06395   0.03198   0.03198  -0.00000
 197        7PX         0.00012   0.00012   0.00000   0.00012
 198        7PY         0.00012   0.00012   0.00000   0.00012
 199        7PZ         0.00154   0.00077   0.00077   0.00000
 200        8PX         0.00127   0.00125   0.00002   0.00124
 201        8PY         0.00127   0.00125   0.00002   0.00124
 202        8PZ         0.00752   0.00376   0.00376  -0.00000
 203        9PX        -0.00042  -0.00042   0.00001  -0.00043
 204        9PY        -0.00042  -0.00042   0.00001  -0.00043
 205        9PZ         0.00544   0.00272   0.00272  -0.00000
 206       10D 0        0.00069   0.00034   0.00034   0.00000
 207       10D+1        0.00014   0.00014   0.00001   0.00013
 208       10D-1        0.00014   0.00014   0.00001   0.00013
 209       10D+2        0.00001   0.00001   0.00000   0.00001
 210       10D-2        0.00002   0.00001   0.00001   0.00000
 211       11D 0        0.00072   0.00036   0.00036  -0.00000
 212       11D+1       -0.00007  -0.00006  -0.00001  -0.00004
 213       11D-1       -0.00007  -0.00006  -0.00001  -0.00004
 214       11D+2        0.00005   0.00005   0.00000   0.00005
 215       11D-2       -0.00005  -0.00003  -0.00003  -0.00000
          Condensed to atoms (all electrons):
               1          2
     1  Fe  15.206531   0.364027
     2  H    0.364027   1.065416
          Atomic-Atomic Spin Densities.
               1          2
     1  Fe   2.995933   0.001975
     2  H    0.001975   0.000117
 Mulliken charges and spin densities:
               1          2
     1  Fe   0.429443   2.997908
     2  H   -0.429443   0.002092
 Sum of Mulliken charges =  -0.00000   3.00000
 Mulliken charges and spin densities with hydrogens summed into heavy atoms:
               1          2
     1  Fe  -0.000000   3.000000
 Electronic spatial extent (au):  <R**2>=             44.9103
 Charge=             -0.0000 electrons
 Dipole moment (field-independent basis, Debye):
    X=              0.0000    Y=              0.0000    Z=              4.4503  Tot=              4.4503
 Quadrupole moment (field-independent basis, Debye-Ang):
   XX=            -15.6042   YY=            -15.6042   ZZ=            -17.5254
   XY=              0.0000   XZ=              0.0000   YZ=              0.0000
 Traceless Quadrupole moment (field-independent basis, Debye-Ang):
   XX=              0.6404   YY=              0.6404   ZZ=             -1.2808
   XY=              0.0000   XZ=              0.0000   YZ=              0.0000
 Octapole moment (field-independent basis, Debye-Ang**2):
  XXX=              0.0000  YYY=              0.0000  ZZZ=             17.3058  XYY=              0.0000
  XXY=              0.0000  XXZ=              4.2218  XZZ=              0.0000  YZZ=              0.0000
  YYZ=              4.2218  XYZ=              0.0000
 Hexadecapole moment (field-independent basis, Debye-Ang**3):
 XXXX=            -24.1182 YYYY=            -24.1183 ZZZZ=            -55.3875 XXXY=              0.0000
 XXXZ=              0.0000 YYYX=              0.0000 YYYZ=              0.0000 ZZZX=              0.0000
 ZZZY=              0.0000 XXYY=             -8.3783 XXZZ=            -12.4285 YYZZ=            -12.4285
 XXYZ=              0.0000 YYXZ=              0.0000 ZZXY=              0.0000
 N-N= 5.291772109200D+00 E-N=-3.022257612485D+02  KE= 7.261734787244D+01
 Symmetry A1   KE= 3.089035319106D+01
 Symmetry A2   KE= 1.282258315564D+01
 Symmetry B1   KE= 1.445220576588D+01
 Symmetry B2   KE= 1.445220576004D+01
 Symmetry A1   SP= 1.000000000000D+00
 Symmetry A2   SP= 2.359436190873D-16
 Symmetry B1   SP= 1.000000000000D+00
 Symmetry B2   SP= 1.000000000000D+00
 Orbital energies and kinetic energies (alpha):
                                 1                 2
   3         O                -2.783935          3.875147
   4         O                -2.783935          3.875147
   5         O                -0.498662          3.303036
   6         O                -0.498662          6.411292
   7         O                -0.491570          2.699393
   8         O                -0.446961          6.701911
   9         O                -0.442022          6.701911
  10         O                -0.318608          6.732525
  11         V                -0.004563          0.225309
  12         V                 0.024302          0.043872
  13         V                 0.024302          0.043872
  14         V                 0.032215          0.036706
  15         V                 0.041633          0.251767
 Total kinetic energy from orbitals= 9.275369512338D+01
                          Isotropic Fermi Contact Couplings
        Atom                 a.u.       MegaHertz       Gauss      10(-4) cm-1
     1  Fe(57)            -0.00000      -0.00000      -0.00000      -0.00000
     2  H(1)               0.00000       0.00000       0.00000       0.00000
 --------------------------------------------------------
       Center         ----  Spin Dipole Couplings  ----
                      3XX-RR        3YY-RR        3ZZ-RR
 --------------------------------------------------------
     1   Atom        0.005522      0.005518     -0.011040
     2   Atom       -0.095439     -0.095439      0.190878
 --------------------------------------------------------
                        XY            XZ            YZ
 --------------------------------------------------------
     1   Atom        0.000000      0.000000      0.000000
     2   Atom        0.000000      0.000000      0.000000
 --------------------------------------------------------


 ---------------------------------------------------------------------------------
              Anisotropic Spin Dipole Couplings in Principal Axis System
 ---------------------------------------------------------------------------------

       Atom             a.u.   MegaHertz   Gauss  10(-4) cm-1        Axes

              Baa    -0.0110    -0.191    -0.068    -0.064  0.0000  0.0000  1.0000
     1 Fe(57) Bbb     0.0055     0.096     0.034     0.032 -0.0000  1.0000  0.0000
              Bcc     0.0055     0.096     0.034     0.032  1.0000  0.0000  0.0000
 
              Baa    -0.0954   -50.922   -18.170   -16.986 -0.0000  1.0000  0.0000
     2 H(1)   Bbb    -0.0954   -50.922   -18.170   -16.986  1.0000  0.0000  0.0000
              Bcc     0.1909   101.843    36.340    33.971  0.0000  0.0000  1.0000
 

 ---------------------------------------------------------------------------------

 No NMR shielding tensors so no spin-rotation constants.
 Leave Link  601 at Sat Mar 24 00:37:35 2018, MaxMem= 10737418240 cpu:              89.3 elap:               2.9
 (Enter /home1/apps/gaussian/16rA.03/g16/l9999.exe)

 Test job not archived.
 1\1\GINC-C435-001\SP\ROCCSD(T)-Full\Gen\Fe1H1(4)\GWANG18\24-Mar-2018\0
 \\#P ROCCSD(T)=(MaxCyc=150, Full)/Gen SCF=(maxcycle=400, vshift=200) P
 seudo=Read Integral(NoXCTest) Pop=Regular MaxDisk=500GB Guess=Read IOp
 (5/15=2)\\FeH\\0,4\Fe,0,0.,0.,0.\H,0,0.,0.,1.6\\Version=ES64L-G16RevA.
 03\HF=-123.2915742\MP2=-124.0615939\MP3=-124.0046791\PUHF=-123.2915742
 \PMP2-0=-124.0615939\MP4SDQ=-124.0445101\CCSD=-124.0366895\CCSD(T)=-12
 4.0644008\RMSD=8.864e-09\PG=C*V [C*(H1Fe1)]\\@


 NATURE WILL TELL YOU A DIRECT LIE IF SHE CAN.

                                -- CHARLES DARWIN
 Job cpu time:       0 days  7 hours 45 minutes 55.6 seconds.
 Elapsed time:       0 days  0 hours 14 minutes 38.6 seconds.
 File lengths (MBytes):  RWF=   2673 Int=      0 D2E=      0 Chk=      6 Scr=      1
 Normal termination of Gaussian 16 at Sat Mar 24 00:37:36 2018.
