 Entering Gaussian System, Link 0=g16
 Initial command:
 /home1/apps/gaussian/16rA.03/g16/l1.exe "/tmp/Gau-188389.inp" -scrdir="/tmp/"
 Entering Link 1 = /home1/apps/gaussian/16rA.03/g16/l1.exe PID=    188390.
  
 Copyright (c) 1988,1990,1992,1993,1995,1998,2003,2009,2016,
            Gaussian, Inc.  All Rights Reserved.
  
 This is part of the Gaussian(R) 16 program.  It is based on
 the Gaussian(R) 09 system (copyright 2009, Gaussian, Inc.),
 the Gaussian(R) 03 system (copyright 2003, Gaussian, Inc.),
 the Gaussian(R) 98 system (copyright 1998, Gaussian, Inc.),
 the Gaussian(R) 94 system (copyright 1995, Gaussian, Inc.),
 the Gaussian 92(TM) system (copyright 1992, Gaussian, Inc.),
 the Gaussian 90(TM) system (copyright 1990, Gaussian, Inc.),
 the Gaussian 88(TM) system (copyright 1988, Gaussian, Inc.),
 the Gaussian 86(TM) system (copyright 1986, Carnegie Mellon
 University), and the Gaussian 82(TM) system (copyright 1983,
 Carnegie Mellon University). Gaussian is a federally registered
 trademark of Gaussian, Inc.
  
 This software contains proprietary and confidential information,
 including trade secrets, belonging to Gaussian, Inc.
  
 This software is provided under written license and may be
 used, copied, transmitted, or stored only in accord with that
 written license.
  
 The following legend is applicable only to US Government
 contracts under FAR:
  
                    RESTRICTED RIGHTS LEGEND
  
 Use, reproduction and disclosure by the US Government is
 subject to restrictions as set forth in subparagraphs (a)
 and (c) of the Commercial Computer Software - Restricted
 Rights clause in FAR 52.227-19.
  
 Gaussian, Inc.
 340 Quinnipiac St., Bldg. 40, Wallingford CT 06492
  
  
 ---------------------------------------------------------------
 Warning -- This program may not be used in any manner that
 competes with the business of Gaussian, Inc. or will provide
 assistance to any competitor of Gaussian, Inc.  The licensee
 of this program is prohibited from giving any competitor of
 Gaussian, Inc. access to this program.  By using this program,
 the user acknowledges that Gaussian, Inc. is engaged in the
 business of creating and licensing software in the field of
 computational chemistry and represents and warrants to the
 licensee that it is not a competitor of Gaussian, Inc. and that
 it will not use this program in any manner prohibited above.
 ---------------------------------------------------------------
  

 Cite this work as:
 Gaussian 16, Revision A.03,
 M. J. Frisch, G. W. Trucks, H. B. Schlegel, G. E. Scuseria, 
 M. A. Robb, J. R. Cheeseman, G. Scalmani, V. Barone, 
 G. A. Petersson, H. Nakatsuji, X. Li, M. Caricato, A. V. Marenich, 
 J. Bloino, B. G. Janesko, R. Gomperts, B. Mennucci, H. P. Hratchian, 
 J. V. Ortiz, A. F. Izmaylov, J. L. Sonnenberg, D. Williams-Young, 
 F. Ding, F. Lipparini, F. Egidi, J. Goings, B. Peng, A. Petrone, 
 T. Henderson, D. Ranasinghe, V. G. Zakrzewski, J. Gao, N. Rega, 
 G. Zheng, W. Liang, M. Hada, M. Ehara, K. Toyota, R. Fukuda, 
 J. Hasegawa, M. Ishida, T. Nakajima, Y. Honda, O. Kitao, H. Nakai, 
 T. Vreven, K. Throssell, J. A. Montgomery, Jr., J. E. Peralta, 
 F. Ogliaro, M. J. Bearpark, J. J. Heyd, E. N. Brothers, K. N. Kudin, 
 V. N. Staroverov, T. A. Keith, R. Kobayashi, J. Normand, 
 K. Raghavachari, A. P. Rendell, J. C. Burant, S. S. Iyengar, 
 J. Tomasi, M. Cossi, J. M. Millam, M. Klene, C. Adamo, R. Cammi, 
 J. W. Ochterski, R. L. Martin, K. Morokuma, O. Farkas, 
 J. B. Foresman, and D. J. Fox, Gaussian, Inc., Wallingford CT, 2016.
 
 ******************************************
 Gaussian 16:  ES64L-G16RevA.03 25-Dec-2016
                26-Mar-2018 
 ******************************************
 %mem=80GB
 %cpu=0-31
 SetSPE:  set environment variable "MP_BIND" = "yes"
 SetSPE:  set environment variable "MP_BLIST" = "0,1,2,3,4,5,6,7,8,9,10,11,12,13,14,15,16,17,18,19,20,21,22,23,24,25,26,27,28,29,30,31"
 Will use up to   32 processors via shared memory.
 %chk=tz.chk
 %rwf=/scratch/04843/gwang18/cuo/
 ----------------------------------------------------------------------
 #P ROCCSD(T)=(MaxCyc=150, Full)/Gen SCF=(maxcycle=400) Pseudo=Read Int
 egral(NoXCTest) Pop=Regular MaxDisk=500GB Guess=Read IOp(5/15=2)
 ----------------------------------------------------------------------
 1/38=1,172=1/1;
 2/12=2,17=6,18=5,40=1/2;
 3/5=7,11=2,16=1,17=8,25=1,30=1,47=8,116=101/1,2,3;
 4/5=1/1;
 5/5=2,7=400,15=2,38=6/2;
 8/5=-1,6=4,9=120000,10=90/1,4;
 9/5=7,6=150,14=2/13;
 6//1;
 99/5=1,9=1/99;
 Leave Link    1 at Mon Mar 26 09:44:27 2018, MaxMem= 10737418240 cpu:               8.7 elap:               0.3
 (Enter /home1/apps/gaussian/16rA.03/g16/l101.exe)
 ---
 CuO
 ---
 Symbolic Z-matrix:
 Charge =  0 Multiplicity = 2
 Cu                    0.        0.        0. 
 O                     0.        0.        1.8 
 
 ITRead=  0  0
 MicOpt= -1 -1
 NAtoms=      2 NQM=        2 NQMF=       0 NMMI=      0 NMMIF=      0
                NMic=       0 NMicF=      0.
                    Isotopes and Nuclear Properties:
 (Nuclear quadrupole moments (NQMom) in fm**2, nuclear magnetic moments (NMagM)
  in nuclear magnetons)

  Atom         1           2
 IAtWgt=          63          16
 AtmWgt=  62.9295992  15.9949146
 NucSpn=           3           0
 AtZEff=  -0.0000000  -0.0000000
 NQMom=  -22.0000000   0.0000000
 NMagM=    2.2233000   0.0000000
 AtZNuc=  29.0000000   8.0000000
 Leave Link  101 at Mon Mar 26 09:44:27 2018, MaxMem= 10737418240 cpu:               3.6 elap:               0.2
 (Enter /home1/apps/gaussian/16rA.03/g16/l202.exe)
                          Input orientation:                          
 ---------------------------------------------------------------------
 Center     Atomic      Atomic             Coordinates (Angstroms)
 Number     Number       Type             X           Y           Z
 ---------------------------------------------------------------------
      1         29           0        0.000000    0.000000    0.000000
      2          8           0        0.000000    0.000000    1.800000
 ---------------------------------------------------------------------
 Stoichiometry    CuO(2)
 Framework group  C*V[C*(OCu)]
 Deg. of freedom     1
 Full point group                 C*V     NOp   4
 Largest Abelian subgroup         C2V     NOp   4
 Largest concise Abelian subgroup C1      NOp   1
                         Standard orientation:                         
 ---------------------------------------------------------------------
 Center     Atomic      Atomic             Coordinates (Angstroms)
 Number     Number       Type             X           Y           Z
 ---------------------------------------------------------------------
      1         29           0        0.000000    0.000000    0.389189
      2          8           0        0.000000    0.000000   -1.410811
 ---------------------------------------------------------------------
 Rotational constants (GHZ):           0.0000000          12.2305845          12.2305845
 Leave Link  202 at Mon Mar 26 09:44:28 2018, MaxMem= 10737418240 cpu:               0.8 elap:               0.1
 (Enter /home1/apps/gaussian/16rA.03/g16/l301.exe)
 General basis read from cards:  (5D, 7F)
 Centers:       1
 S 1 1.00
     Exponent=  5.4303210000D+06 Coefficients=  1.0000000000D+00
 S 1 1.00
     Exponent=  8.1316650000D+05 Coefficients=  1.0000000000D+00
 S 1 1.00
     Exponent=  1.8505440000D+05 Coefficients=  1.0000000000D+00
 S 1 1.00
     Exponent=  5.2414660000D+04 Coefficients=  1.0000000000D+00
 S 1 1.00
     Exponent=  1.7098680000D+04 Coefficients=  1.0000000000D+00
 S 1 1.00
     Exponent=  6.1719940000D+03 Coefficients=  1.0000000000D+00
 S 1 1.00
     Exponent=  2.4064810000D+03 Coefficients=  1.0000000000D+00
 S 1 1.00
     Exponent=  9.9725840000D+02 Coefficients=  1.0000000000D+00
 S 1 1.00
     Exponent=  4.3392890000D+02 Coefficients=  1.0000000000D+00
 S 1 1.00
     Exponent=  1.9628690000D+02 Coefficients=  1.0000000000D+00
 S 1 1.00
     Exponent=  9.1042800000D+01 Coefficients=  1.0000000000D+00
 S 1 1.00
     Exponent=  4.1384250000D+01 Coefficients=  1.0000000000D+00
 S 1 1.00
     Exponent=  1.9932780000D+01 Coefficients=  1.0000000000D+00
 S 1 1.00
     Exponent=  9.5818910000D+00 Coefficients=  1.0000000000D+00
 S 1 1.00
     Exponent=  4.2345160000D+00 Coefficients=  1.0000000000D+00
 S 1 1.00
     Exponent=  1.9858140000D+00 Coefficients=  1.0000000000D+00
 S 1 1.00
     Exponent=  8.6708300000D-01 Coefficients=  1.0000000000D+00
 S 1 1.00
     Exponent=  1.8133900000D-01 Coefficients=  1.0000000000D+00
 S 1 1.00
     Exponent=  8.3657000000D-02 Coefficients=  1.0000000000D+00
 S 1 1.00
     Exponent=  3.6267000000D-02 Coefficients=  1.0000000000D+00
 S 1 1.00
     Exponent=  6.3233000000D+00 Coefficients=  1.0000000000D+00
 S 1 1.00
     Exponent=  1.6459000000D+00 Coefficients=  1.0000000000D+00
 S 1 1.00
     Exponent=  1.5720000000D-02 Coefficients=  1.0000000000D+00
 P 1 1.00
     Exponent=  2.2760570000D+04 Coefficients=  1.0000000000D+00
 P 1 1.00
     Exponent=  5.3876790000D+03 Coefficients=  1.0000000000D+00
 P 1 1.00
     Exponent=  1.7499450000D+03 Coefficients=  1.0000000000D+00
 P 1 1.00
     Exponent=  6.6966530000D+02 Coefficients=  1.0000000000D+00
 P 1 1.00
     Exponent=  2.8419480000D+02 Coefficients=  1.0000000000D+00
 P 1 1.00
     Exponent=  1.2960770000D+02 Coefficients=  1.0000000000D+00
 P 1 1.00
     Exponent=  6.2254150000D+01 Coefficients=  1.0000000000D+00
 P 1 1.00
     Exponent=  3.0929640000D+01 Coefficients=  1.0000000000D+00
 P 1 1.00
     Exponent=  1.5758270000D+01 Coefficients=  1.0000000000D+00
 P 1 1.00
     Exponent=  8.0942110000D+00 Coefficients=  1.0000000000D+00
 P 1 1.00
     Exponent=  4.0469210000D+00 Coefficients=  1.0000000000D+00
 P 1 1.00
     Exponent=  1.9678690000D+00 Coefficients=  1.0000000000D+00
 P 1 1.00
     Exponent=  9.2529500000D-01 Coefficients=  1.0000000000D+00
 P 1 1.00
     Exponent=  3.5299200000D-01 Coefficients=  1.0000000000D+00
 P 1 1.00
     Exponent=  1.2730700000D-01 Coefficients=  1.0000000000D+00
 P 1 1.00
     Exponent=  4.4356000000D-02 Coefficients=  1.0000000000D+00
 P 1 1.00
     Exponent=  9.6845000000D+00 Coefficients=  1.0000000000D+00
 P 1 1.00
     Exponent=  2.2065000000D+00 Coefficients=  1.0000000000D+00
 P 1 1.00
     Exponent=  1.5450000000D-02 Coefficients=  1.0000000000D+00
 D 1 1.00
     Exponent=  1.7389700000D+02 Coefficients=  1.0000000000D+00
 D 1 1.00
     Exponent=  5.1886900000D+01 Coefficients=  1.0000000000D+00
 D 1 1.00
     Exponent=  1.9341900000D+01 Coefficients=  1.0000000000D+00
 D 1 1.00
     Exponent=  7.9757200000D+00 Coefficients=  1.0000000000D+00
 D 1 1.00
     Exponent=  3.3982300000D+00 Coefficients=  1.0000000000D+00
 D 1 1.00
     Exponent=  1.4093200000D+00 Coefficients=  1.0000000000D+00
 D 1 1.00
     Exponent=  5.4885800000D-01 Coefficients=  1.0000000000D+00
 D 1 1.00
     Exponent=  1.9019900000D-01 Coefficients=  1.0000000000D+00
 D 1 1.00
     Exponent=  6.9242000000D+00 Coefficients=  1.0000000000D+00
 D 1 1.00
     Exponent=  3.3410000000D+00 Coefficients=  1.0000000000D+00
 D 1 1.00
     Exponent=  6.5910000000D-02 Coefficients=  1.0000000000D+00
 F 1 1.00
     Exponent=  9.2215000000D+00 Coefficients=  1.0000000000D+00
 F 1 1.00
     Exponent=  3.5468000000D+00 Coefficients=  1.0000000000D+00
 F 1 1.00
     Exponent=  1.2797000000D+00 Coefficients=  1.0000000000D+00
 F 1 1.00
     Exponent=  4.6172000000D-01 Coefficients=  1.0000000000D+00
 G 1 1.00
     Exponent=  8.3127000000D+00 Coefficients=  1.0000000000D+00
 G 1 1.00
     Exponent=  3.4835000000D+00 Coefficients=  1.0000000000D+00
 G 1 1.00
     Exponent=  1.4597900000D+00 Coefficients=  1.0000000000D+00
 ****
 Centers:       2
 S 1 1.00
     Exponent=  1.5330000000D+04 Coefficients=  1.0000000000D+00
 S 1 1.00
     Exponent=  2.2990000000D+03 Coefficients=  1.0000000000D+00
 S 1 1.00
     Exponent=  5.2240000000D+02 Coefficients=  1.0000000000D+00
 S 1 1.00
     Exponent=  1.4730000000D+02 Coefficients=  1.0000000000D+00
 S 1 1.00
     Exponent=  4.7550000000D+01 Coefficients=  1.0000000000D+00
 S 1 1.00
     Exponent=  1.6760000000D+01 Coefficients=  1.0000000000D+00
 S 1 1.00
     Exponent=  6.2070000000D+00 Coefficients=  1.0000000000D+00
 S 1 1.00
     Exponent=  6.8820000000D-01 Coefficients=  1.0000000000D+00
 S 1 1.00
     Exponent=  1.7520000000D+00 Coefficients=  1.0000000000D+00
 S 1 1.00
     Exponent=  2.3840000000D-01 Coefficients=  1.0000000000D+00
 S 1 1.00
     Exponent=  7.8450000000D+00 Coefficients=  1.0000000000D+00
 S 1 1.00
     Exponent=  2.1032000000D+01 Coefficients=  1.0000000000D+00
 S 1 1.00
     Exponent=  7.3760000000D-02 Coefficients=  1.0000000000D+00
 P 1 1.00
     Exponent=  3.4460000000D+01 Coefficients=  1.0000000000D+00
 P 1 1.00
     Exponent=  7.7490000000D+00 Coefficients=  1.0000000000D+00
 P 1 1.00
     Exponent=  2.2800000000D+00 Coefficients=  1.0000000000D+00
 P 1 1.00
     Exponent=  7.1560000000D-01 Coefficients=  1.0000000000D+00
 P 1 1.00
     Exponent=  2.1400000000D-01 Coefficients=  1.0000000000D+00
 P 1 1.00
     Exponent=  1.5159000000D+01 Coefficients=  1.0000000000D+00
 P 1 1.00
     Exponent=  5.7437000000D+01 Coefficients=  1.0000000000D+00
 P 1 1.00
     Exponent=  5.9740000000D-02 Coefficients=  1.0000000000D+00
 D 1 1.00
     Exponent=  2.3140000000D+00 Coefficients=  1.0000000000D+00
 D 1 1.00
     Exponent=  6.4500000000D-01 Coefficients=  1.0000000000D+00
 D 1 1.00
     Exponent=  1.5858000000D+01 Coefficients=  1.0000000000D+00
 D 1 1.00
     Exponent=  2.1400000000D-01 Coefficients=  1.0000000000D+00
 F 1 1.00
     Exponent=  1.4280000000D+00 Coefficients=  1.0000000000D+00
 F 1 1.00
     Exponent=  5.0000000000D-01 Coefficients=  1.0000000000D+00
 ****
 ======================================================================================================
                                       Pseudopotential Parameters
 ======================================================================================================
  Center     Atomic      Valence      Angular      Power
  Number     Number     Electrons     Momentum     of R      Exponent        Coefficient   SO-Coeffient
 ======================================================================================================
    1         29           19
                                      D and up 
                                                     1       36.5168770       19.00000000    0.00000000
                                                     3       54.8220139      693.82066249    0.00000000
                                                     2       32.4816959     -155.75952044    0.00000000
                                                     2       17.0147179        1.10887002    0.00000000
                                      S - D
                                                     2       14.8670251       94.86836555    0.00000000
                                                     2       29.4178044      376.04038354    0.00000000
                                      P - D
                                                     2       11.7570899       64.21861970    0.00000000
                                                     2       50.1191443      255.82988430    0.00000000
    2          8            6
                                      P and up 
                                                     1       12.3099744        6.00000000    0.00000000
                                                     3       14.7696229       73.85984616    0.00000000
                                                     2       13.7141954      -47.87600504    0.00000000
                                      S - P
                                                     2       13.6551200       85.86406526    0.00000000
 ======================================================================================================
 Ernie: Thresh=  0.10000D-02 Tol=  0.10000D-05 Strict=F.
 There are   144 symmetry adapted cartesian basis functions of A1  symmetry.
 There are    30 symmetry adapted cartesian basis functions of A2  symmetry.
 There are    69 symmetry adapted cartesian basis functions of B1  symmetry.
 There are    69 symmetry adapted cartesian basis functions of B2  symmetry.
 There are   114 symmetry adapted basis functions of A1  symmetry.
 There are    27 symmetry adapted basis functions of A2  symmetry.
 There are    60 symmetry adapted basis functions of B1  symmetry.
 There are    60 symmetry adapted basis functions of B2  symmetry.
   261 basis functions,   312 primitive gaussians,   312 cartesian basis functions
    13 alpha electrons       12 beta electrons
       nuclear repulsion energy        33.5145566916 Hartrees.
 IExCor=    0 DFT=F Ex=HF Corr=None ExCW=0 ScaHFX=  1.000000
 ScaDFX=  1.000000  1.000000  1.000000  1.000000 ScalE2=  1.000000  1.000000
 IRadAn=      5 IRanWt=     -1 IRanGd=            0 ICorTp=0 IEmpDi=  4
 NAtoms=    2 NActive=    2 NUniq=    2 SFac= 1.00D+00 NAtFMM=   60 NAOKFM=F Big=F
 Integral buffers will be    131072 words long.
 Raffenetti 2 integral format.
 Two-electron integral symmetry is turned on.
 Leave Link  301 at Mon Mar 26 09:44:29 2018, MaxMem= 10737418240 cpu:               8.2 elap:               0.3
 (Enter /home1/apps/gaussian/16rA.03/g16/l302.exe)
 NPDir=0 NMtPBC=     1 NCelOv=     1 NCel=       1 NClECP=     1 NCelD=      1
         NCelK=      1 NCelE2=     1 NClLst=     1 CellRange=     0.0.
 One-electron integrals computed using PRISM.
 One-electron integral symmetry used in STVInt
   4 Symmetry operations used in ECPInt.
 ECPInt:  NShTT=    3828 NPrTT=    3828 LenC2=    3452 LenP2D=    3451.
 LDataN:  DoStor=T MaxTD1= 8 Len=  415
 NBasis=   261 RedAO= T EigKep=  4.32D-06  NBF=   114    27    60    60
 NBsUse=   256 1.00D-06 EigRej=  9.81D-07 NBFU=   112    26    59    59
 Leave Link  302 at Mon Mar 26 09:44:30 2018, MaxMem= 10737418240 cpu:              31.1 elap:               1.1
 (Enter /home1/apps/gaussian/16rA.03/g16/l303.exe)
 DipDrv:  MaxL=1.
 Leave Link  303 at Mon Mar 26 09:44:30 2018, MaxMem= 10737418240 cpu:               2.4 elap:               0.1
 (Enter /home1/apps/gaussian/16rA.03/g16/l401.exe)
 Initial guess from the checkpoint file:  "tz.chk"
 B after Tr=     0.000000    0.000000    0.000000
         Rot=    1.000000    0.000000    0.000000    0.000000 Ang=   0.00 deg.
 Guess basis will be translated and rotated to current coordinates.
 JPrj=2 DoOrth=T DoCkMO=T.
 Initial guess orbital symmetries:
       Occupied  (SG) (SG) (PI) (PI) (SG) (?A) (SG) (?A) (DLTA)
                 (DLTA) (?A) (SG) (?A)
       Virtual   (SG) (PI) (PI) (SG) (SG) (PI) (PI) (?B) (?B) (?B)
                 (?B) (SG) (PI) (PI) (PI) (SG) (PI) (PI) (PI) (SG)
                 (SG) (?C) (?C) (?C) (?C) (?C) (PI) (?C) (PI) (PI)
                 (PI) (SG) (?A) (?A) (?A) (?A) (SG) (SG) (PHI)
                 (PHI) (?D) (?D) (?D) (PI) (PI) (SG) (PHI) (PHI)
                 (?E) (PI) (PI) (?E) (?E) (?E) (?E) (?E) (?E) (PI)
                 (?E) (PI) (SG) (PI) (PI) (PI) (PI) (SG) (SG) (PI)
                 (PI) (SG) (PHI) (PHI) (?F) (?F) (?F) (PI) (PI)
                 (SG) (?G) (?H) (?H) (?H) (?H) (?G) (?G) (?G) (?G)
                 (DLTA) (DLTA) (?H) (?H) (?H) (?H) (?G) (?G) (PI)
                 (PI) (?G) (?I) (?I) (?I) (PI) (PI) (SG) (PI) (PI)
                 (SG) (SG) (PHI) (PHI) (DLTA) (DLTA) (PI) (PI)
                 (SG) (SG) (PI) (PI) (SG) (SG) (PI) (PI) (SG) (DLTA)
                 (DLTA) (PI) (PI) (?J) (?J) (PHI) (PHI) (DLTA)
                 (DLTA) (SG) (PI) (PI) (SG) (SG) (PHI) (PHI) (DLTA)
                 (DLTA) (PI) (PI) (SG) (PI) (PI) (SG) (SG) (DLTA)
                 (DLTA) (PI) (PI) (SG) (?J) (?J) (PHI) (PHI) (DLTA)
                 (DLTA) (PI) (PI) (SG) (?K) (?K) (PI) (PI) (?K)
                 (PI) (PI) (SG) (PI) (PI) (SG) (SG) (SG) (DLTA)
                 (DLTA) (PI) (PI) (SG) (PI) (PI) (SG) (SG) (PI)
                 (PI) (SG) (SG) (PI) (PI) (SG) (SG) (DLTA) (DLTA)
                 (PI) (PI) (SG) (SG) (PI) (PI) (SG) (PI) (PI) (SG)
                 (SG) (SG) (PI) (PI) (SG) (DLTA) (DLTA) (PI) (PI)
                 (SG) (SG) (PI) (PI) (SG) (SG) (SG) (PI) (PI) (SG)
                 (SG) (SG) (PI) (PI) (SG) (SG) (PI) (PI) (SG) (SG)
                 (SG) (SG) (PI) (PI) (SG) (SG) (SG) (SG) (SG)
 Leave Link  401 at Mon Mar 26 09:44:31 2018, MaxMem= 10737418240 cpu:              13.6 elap:               0.5
 (Enter /home1/apps/gaussian/16rA.03/g16/l502.exe)
 Keep R1 and R2 ints in memory in symmetry-blocked form, NReq=734602573.
 FoFCou: FMM=F IPFlag=           8 FMFlag=           0 FMFlg1=           0
         NFxFlg=           0 DoJE=F BraDBF=F KetDBF=F FulRan=T
         wScrn=  0.000000 ICntrl=       600 IOpCl=  0 I1Cent=           0 NGrid=           0
         NMat0=    1 NMatS0=  34191 NMatT0=    0 NMatD0=    1 NMtDS0=    0 NMtDT0=    0
 Petite list used in FoFCou.
 Restricted open shell SCF:
 Using DIIS extrapolation, IDIIS=  1040.
 NGot= 10737418240 LenX= 10437146893 LenY= 10437049108
 Requested convergence on RMS density matrix=1.00D-08 within 400 cycles.
 Requested convergence on MAX density matrix=1.00D-06.
 Requested convergence on             energy=1.00D-06.
 No special actions if energy rises.

 Cycle   1  Pass 1  IDiag  1:
 E= -209.417170628559    
 DIIS: error= 1.85D+00 at cycle   1 NSaved=   1.
 NSaved= 1 IEnMin= 1 EnMin= -209.417170628559     IErMin= 1 ErrMin= 1.85D+00
 ErrMax= 1.85D+00  0.00D+00 EMaxC= 1.00D-01 BMatC= 1.64D+02 BMatP= 1.64D+02
 IDIUse=3 WtCom= 0.00D+00 WtEn= 1.00D+00
 Coeff-Com:  0.100D+01
 Coeff-En:   0.100D+01
 Coeff:      0.100D+01
 Gap=     0.094 Goal=   None    Shift=    0.000
 GapD=    0.094 DampG=0.500 DampE=0.125 DampFc=0.1250 IDamp=-1.
 Damping current iteration by 1.25D-01
 RMSDP=3.12D-03 MaxDP=2.65D-01              OVMax= 7.35D-02

 Cycle   2  Pass 1  IDiag  1:
 E= -209.698199817803     Delta-E=       -0.281029189244 Rises=F Damp=T
 DIIS: error= 1.62D+00 at cycle   2 NSaved=   2.
 NSaved= 2 IEnMin= 2 EnMin= -209.698199817803     IErMin= 2 ErrMin= 1.62D+00
 ErrMax= 1.62D+00  0.00D+00 EMaxC= 1.00D-01 BMatC= 1.26D+02 BMatP= 1.64D+02
 IDIUse=3 WtCom= 0.00D+00 WtEn= 1.00D+00
 Coeff-Com: -0.706D+01 0.806D+01
 Coeff-En:   0.000D+00 0.100D+01
 Coeff:      0.000D+00 0.100D+01
 Gap=     0.071 Goal=   None    Shift=    0.000
 RMSDP=2.72D-03 MaxDP=2.31D-01 DE=-2.81D-01 OVMax= 3.40D-02

 Cycle   3  Pass 1  IDiag  1:
 E= -211.682930883807     Delta-E=       -1.984731066004 Rises=F Damp=F
 DIIS: error= 2.59D-02 at cycle   3 NSaved=   3.
 NSaved= 3 IEnMin= 3 EnMin= -211.682930883807     IErMin= 3 ErrMin= 2.59D-02
 ErrMax= 2.59D-02  0.00D+00 EMaxC= 1.00D-01 BMatC= 5.04D-02 BMatP= 1.26D+02
 IDIUse=3 WtCom= 7.41D-01 WtEn= 2.59D-01
 Coeff-Com:  0.800D+01-0.915D+01 0.215D+01
 Coeff-En:   0.000D+00 0.000D+00 0.100D+01
 Coeff:      0.592D+01-0.678D+01 0.185D+01
 Gap=     0.063 Goal=   None    Shift=    0.000
 RMSDP=7.06D-04 MaxDP=9.21D-02 DE=-1.98D+00 OVMax= 3.04D-01

 Cycle   4  Pass 1  IDiag  1:
 E= -211.643391382657     Delta-E=        0.039539501150 Rises=F Damp=F
 DIIS: error= 2.18D-02 at cycle   4 NSaved=   4.
 NSaved= 4 IEnMin= 3 EnMin= -211.682930883807     IErMin= 4 ErrMin= 2.18D-02
 ErrMax= 2.18D-02  0.00D+00 EMaxC= 1.00D-01 BMatC= 4.93D-02 BMatP= 5.04D-02
 IDIUse=3 WtCom= 7.82D-01 WtEn= 2.18D-01
 Coeff-Com:  0.364D+01-0.417D+01 0.112D+01 0.401D+00
 Coeff-En:   0.000D+00 0.000D+00 0.849D+00 0.151D+00
 Coeff:      0.285D+01-0.326D+01 0.106D+01 0.347D+00
 Gap=     0.087 Goal=   None    Shift=    0.000
 RMSDP=6.79D-04 MaxDP=1.09D-01 DE= 3.95D-02 OVMax= 2.85D-01

 Cycle   5  Pass 1  IDiag  1:
 E= -211.689132122987     Delta-E=       -0.045740740331 Rises=F Damp=F
 DIIS: error= 5.50D-03 at cycle   5 NSaved=   5.
 NSaved= 5 IEnMin= 5 EnMin= -211.689132122987     IErMin= 5 ErrMin= 5.50D-03
 ErrMax= 5.50D-03  0.00D+00 EMaxC= 1.00D-01 BMatC= 3.22D-03 BMatP= 4.93D-02
 IDIUse=3 WtCom= 9.45D-01 WtEn= 5.50D-02
 EnCoef did     1 forward-backward iterations
 Coeff-Com:  0.748D+00-0.858D+00 0.358D+00 0.602D-01 0.692D+00
 Coeff-En:   0.000D+00 0.000D+00 0.761D-01 0.702D-02 0.917D+00
 Coeff:      0.707D+00-0.810D+00 0.342D+00 0.573D-01 0.704D+00
 Gap=     0.078 Goal=   None    Shift=    0.000
 RMSDP=4.43D-04 MaxDP=5.94D-02 DE=-4.57D-02 OVMax= 9.70D-02

 Cycle   6  Pass 1  IDiag  1:
 E= -211.690953201179     Delta-E=       -0.001821078192 Rises=F Damp=F
 DIIS: error= 2.96D-03 at cycle   6 NSaved=   6.
 NSaved= 6 IEnMin= 6 EnMin= -211.690953201179     IErMin= 6 ErrMin= 2.96D-03
 ErrMax= 2.96D-03  0.00D+00 EMaxC= 1.00D-01 BMatC= 8.39D-04 BMatP= 3.22D-03
 IDIUse=3 WtCom= 9.70D-01 WtEn= 2.96D-02
 Coeff-Com:  0.601D+00-0.687D+00 0.144D+00-0.312D-01 0.345D+00 0.629D+00
 Coeff-En:   0.000D+00 0.000D+00 0.000D+00 0.000D+00 0.349D+00 0.651D+00
 Coeff:      0.583D+00-0.667D+00 0.140D+00-0.303D-01 0.345D+00 0.629D+00
 Gap=     0.073 Goal=   None    Shift=    0.000
 RMSDP=4.18D-04 MaxDP=6.08D-02 DE=-1.82D-03 OVMax= 9.79D-02

 Cycle   7  Pass 1  IDiag  1:
 E= -211.691897618413     Delta-E=       -0.000944417234 Rises=F Damp=F
 DIIS: error= 1.98D-03 at cycle   7 NSaved=   7.
 NSaved= 7 IEnMin= 7 EnMin= -211.691897618413     IErMin= 7 ErrMin= 1.98D-03
 ErrMax= 1.98D-03  0.00D+00 EMaxC= 1.00D-01 BMatC= 4.08D-04 BMatP= 8.39D-04
 IDIUse=3 WtCom= 9.80D-01 WtEn= 1.98D-02
 Coeff-Com:  0.504D+00-0.576D+00 0.785D-01-0.825D-02 0.434D-01 0.447D+00
 Coeff-Com:  0.511D+00
 Coeff-En:   0.000D+00 0.000D+00 0.000D+00 0.000D+00 0.000D+00 0.423D+00
 Coeff-En:   0.577D+00
 Coeff:      0.494D+00-0.565D+00 0.770D-01-0.809D-02 0.426D-01 0.447D+00
 Coeff:      0.512D+00
 Gap=     0.077 Goal=   None    Shift=    0.000
 RMSDP=1.72D-04 MaxDP=2.60D-02 DE=-9.44D-04 OVMax= 4.16D-02

 Cycle   8  Pass 1  IDiag  1:
 E= -211.692622679607     Delta-E=       -0.000725061194 Rises=F Damp=F
 DIIS: error= 8.16D-04 at cycle   8 NSaved=   8.
 NSaved= 8 IEnMin= 8 EnMin= -211.692622679607     IErMin= 8 ErrMin= 8.16D-04
 ErrMax= 8.16D-04  0.00D+00 EMaxC= 1.00D-01 BMatC= 3.29D-05 BMatP= 4.08D-04
 IDIUse=3 WtCom= 9.92D-01 WtEn= 8.16D-03
 Rare condition: small coef for last iteration:  0.000D+00
 Coeff-Com:  0.331D+00-0.378D+00 0.529D-01-0.149D-02-0.806D-01-0.139D+00
 Coeff-Com: -0.123D+00 0.134D+01
 Coeff-En:   0.000D+00 0.000D+00 0.000D+00 0.000D+00 0.000D+00 0.168D+00
 Coeff-En:   0.146D+00 0.686D+00
 Coeff:      0.331D+00-0.378D+00 0.529D-01-0.149D-02-0.806D-01-0.139D+00
 Coeff:     -0.123D+00 0.134D+01
 Gap=     0.076 Goal=   None    Shift=    0.000
 RMSDP=2.38D-05 MaxDP=1.93D-03 DE=-7.25D-04 OVMax= 6.76D-03

 Cycle   9  Pass 1  IDiag  1:
 E= -211.692702819506     Delta-E=       -0.000080139899 Rises=F Damp=F
 DIIS: error= 3.85D-04 at cycle   9 NSaved=   9.
 NSaved= 9 IEnMin= 9 EnMin= -211.692702819506     IErMin= 9 ErrMin= 3.85D-04
 ErrMax= 3.85D-04  0.00D+00 EMaxC= 1.00D-01 BMatC= 9.86D-06 BMatP= 3.29D-05
 IDIUse=3 WtCom= 9.96D-01 WtEn= 3.85D-03
 EnCoef did   100 forward-backward iterations
 Coeff-Com:  0.147D+00-0.169D+00 0.245D-01-0.459D-02-0.319D-01-0.114D+00
 Coeff-Com: -0.160D+00 0.305D+00 0.100D+01
 Coeff-En:   0.000D+00 0.000D+00 0.000D+00 0.000D+00 0.000D+00 0.415D+00
 Coeff-En:   0.564D+00 0.000D+00 0.211D-01
 Coeff:      0.147D+00-0.168D+00 0.244D-01-0.458D-02-0.318D-01-0.112D+00
 Coeff:     -0.157D+00 0.304D+00 0.998D+00
 Gap=     0.076 Goal=   None    Shift=    0.000
 RMSDP=1.76D-05 MaxDP=1.90D-03 DE=-8.01D-05 OVMax= 5.22D-03

 Cycle  10  Pass 1  IDiag  1:
 E= -211.692736571649     Delta-E=       -0.000033752143 Rises=F Damp=F
 DIIS: error= 1.55D-04 at cycle  10 NSaved=  10.
 NSaved=10 IEnMin=10 EnMin= -211.692736571649     IErMin=10 ErrMin= 1.55D-04
 ErrMax= 1.55D-04  0.00D+00 EMaxC= 1.00D-01 BMatC= 1.90D-06 BMatP= 9.86D-06
 IDIUse=3 WtCom= 9.98D-01 WtEn= 1.55D-03
 EnCoef did   100 forward-backward iterations
 Rare condition: small coef for last iteration:  0.502D-15
 Coeff-Com:  0.437D-01-0.499D-01 0.768D-02-0.180D-02-0.352D-02-0.320D-01
 Coeff-Com: -0.691D-01-0.125D+00 0.513D+00 0.716D+00
 Coeff-En:   0.000D+00 0.000D+00 0.000D+00 0.000D+00 0.000D+00 0.931D-01
 Coeff-En:   0.223D-01 0.000D+00 0.000D+00 0.885D+00
 Coeff:      0.437D-01-0.499D-01 0.768D-02-0.180D-02-0.352D-02-0.320D-01
 Coeff:     -0.691D-01-0.125D+00 0.513D+00 0.716D+00
 Gap=     0.076 Goal=   None    Shift=    0.000
 RMSDP=1.22D-05 MaxDP=1.28D-03 DE=-3.38D-05 OVMax= 2.16D-03

 Cycle  11  Pass 1  IDiag  1:
 E= -211.692744131708     Delta-E=       -0.000007560059 Rises=F Damp=F
 DIIS: error= 8.54D-05 at cycle  11 NSaved=  11.
 NSaved=11 IEnMin=11 EnMin= -211.692744131708     IErMin=11 ErrMin= 8.54D-05
 ErrMax= 8.54D-05  0.00D+00 EMaxC= 1.00D-01 BMatC= 3.83D-07 BMatP= 1.90D-06
 IDIUse=1 WtCom= 1.00D+00 WtEn= 0.00D+00
 Coeff-Com: -0.280D-01 0.320D-01-0.487D-02 0.111D-02 0.104D-01 0.349D-01
 Coeff-Com:  0.398D-01-0.176D+00-0.189D+00 0.214D+00 0.107D+01
 Coeff:     -0.280D-01 0.320D-01-0.487D-02 0.111D-02 0.104D-01 0.349D-01
 Coeff:      0.398D-01-0.176D+00-0.189D+00 0.214D+00 0.107D+01
 Gap=     0.077 Goal=   None    Shift=    0.000
 RMSDP=7.58D-06 MaxDP=7.33D-04 DE=-7.56D-06 OVMax= 9.90D-04

 Cycle  12  Pass 1  IDiag  1:
 E= -211.692746066104     Delta-E=       -0.000001934395 Rises=F Damp=F
 DIIS: error= 5.24D-05 at cycle  12 NSaved=  12.
 NSaved=12 IEnMin=12 EnMin= -211.692746066104     IErMin=12 ErrMin= 5.24D-05
 ErrMax= 5.24D-05  0.00D+00 EMaxC= 1.00D-01 BMatC= 2.31D-07 BMatP= 3.83D-07
 IDIUse=1 WtCom= 1.00D+00 WtEn= 0.00D+00
 Coeff-Com: -0.574D-01 0.656D-01-0.882D-02 0.767D-03 0.112D-02 0.164D-02
 Coeff-Com:  0.172D-01-0.453D-01-0.461D-01-0.553D-01-0.255D+00 0.138D+01
 Coeff:     -0.574D-01 0.656D-01-0.882D-02 0.767D-03 0.112D-02 0.164D-02
 Coeff:      0.172D-01-0.453D-01-0.461D-01-0.553D-01-0.255D+00 0.138D+01
 Gap=     0.077 Goal=   None    Shift=    0.000
 RMSDP=5.04D-06 MaxDP=3.97D-04 DE=-1.93D-06 OVMax= 7.69D-04

 Cycle  13  Pass 1  IDiag  1:
 E= -211.692746094505     Delta-E=       -0.000000028401 Rises=F Damp=F
 DIIS: error= 6.36D-05 at cycle  13 NSaved=  13.
 NSaved=13 IEnMin=13 EnMin= -211.692746094505     IErMin=12 ErrMin= 5.24D-05
 ErrMax= 6.36D-05  0.00D+00 EMaxC= 1.00D-01 BMatC= 2.44D-07 BMatP= 2.31D-07
 IDIUse=1 WtCom= 1.00D+00 WtEn= 0.00D+00
 Coeff-Com: -0.412D-01 0.471D-01-0.640D-02 0.430D-03 0.202D-02-0.368D-04
 Coeff-Com:  0.498D-02-0.102D-01 0.155D-01 0.695D-02-0.225D+00 0.289D+00
 Coeff-Com:  0.917D+00
 Coeff:     -0.412D-01 0.471D-01-0.640D-02 0.430D-03 0.202D-02-0.368D-04
 Coeff:      0.498D-02-0.102D-01 0.155D-01 0.695D-02-0.225D+00 0.289D+00
 Coeff:      0.917D+00
 Gap=     0.076 Goal=   None    Shift=    0.000
 RMSDP=2.35D-06 MaxDP=2.76D-04 DE=-2.84D-08 OVMax= 2.97D-04

 Cycle  14  Pass 1  IDiag  1:
 E= -211.692746511423     Delta-E=       -0.000000416918 Rises=F Damp=F
 DIIS: error= 4.69D-05 at cycle  14 NSaved=  14.
 NSaved=14 IEnMin=14 EnMin= -211.692746511423     IErMin=14 ErrMin= 4.69D-05
 ErrMax= 4.69D-05  0.00D+00 EMaxC= 1.00D-01 BMatC= 1.14D-07 BMatP= 2.31D-07
 IDIUse=1 WtCom= 1.00D+00 WtEn= 0.00D+00
 Coeff-Com: -0.129D-01 0.148D-01-0.228D-02 0.160D-03 0.318D-02 0.838D-02
 Coeff-Com:  0.783D-02-0.104D-02-0.397D-01 0.260D-01 0.150D+00-0.408D+00
 Coeff-Com: -0.295D+00 0.155D+01
 Coeff:     -0.129D-01 0.148D-01-0.228D-02 0.160D-03 0.318D-02 0.838D-02
 Coeff:      0.783D-02-0.104D-02-0.397D-01 0.260D-01 0.150D+00-0.408D+00
 Coeff:     -0.295D+00 0.155D+01
 Gap=     0.076 Goal=   None    Shift=    0.000
 RMSDP=1.27D-06 MaxDP=1.12D-04 DE=-4.17D-07 OVMax= 4.54D-04

 Cycle  15  Pass 1  IDiag  1:
 E= -211.692746892779     Delta-E=       -0.000000381356 Rises=F Damp=F
 DIIS: error= 1.18D-05 at cycle  15 NSaved=  15.
 NSaved=15 IEnMin=15 EnMin= -211.692746892779     IErMin=15 ErrMin= 1.18D-05
 ErrMax= 1.18D-05  0.00D+00 EMaxC= 1.00D-01 BMatC= 1.53D-08 BMatP= 1.14D-07
 IDIUse=1 WtCom= 1.00D+00 WtEn= 0.00D+00
 Coeff-Com: -0.118D-02 0.135D-02-0.213D-03-0.125D-03-0.553D-03 0.925D-03
 Coeff-Com:  0.216D-02-0.436D-02-0.228D-01 0.876D-03 0.636D-01 0.237D-01
 Coeff-Com: -0.252D+00-0.220D+00 0.141D+01
 Coeff:     -0.118D-02 0.135D-02-0.213D-03-0.125D-03-0.553D-03 0.925D-03
 Coeff:      0.216D-02-0.436D-02-0.228D-01 0.876D-03 0.636D-01 0.237D-01
 Coeff:     -0.252D+00-0.220D+00 0.141D+01
 Gap=     0.076 Goal=   None    Shift=    0.000
 RMSDP=7.05D-07 MaxDP=8.63D-05 DE=-3.81D-07 OVMax= 1.33D-04

 Cycle  16  Pass 1  IDiag  1:
 E= -211.692746935560     Delta-E=       -0.000000042781 Rises=F Damp=F
 DIIS: error= 3.45D-06 at cycle  16 NSaved=  16.
 NSaved=16 IEnMin=16 EnMin= -211.692746935560     IErMin=16 ErrMin= 3.45D-06
 ErrMax= 3.45D-06  0.00D+00 EMaxC= 1.00D-01 BMatC= 7.04D-10 BMatP= 1.53D-08
 IDIUse=1 WtCom= 1.00D+00 WtEn= 0.00D+00
 Coeff-Com: -0.421D-03 0.480D-03-0.231D-04 0.311D-04-0.889D-03-0.141D-02
 Coeff-Com: -0.299D-03-0.476D-03-0.248D-02-0.151D-01-0.257D-01 0.149D+00
 Coeff-Com:  0.608D-01-0.445D+00 0.170D+00 0.111D+01
 Coeff:     -0.421D-03 0.480D-03-0.231D-04 0.311D-04-0.889D-03-0.141D-02
 Coeff:     -0.299D-03-0.476D-03-0.248D-02-0.151D-01-0.257D-01 0.149D+00
 Coeff:      0.608D-01-0.445D+00 0.170D+00 0.111D+01
 Gap=     0.076 Goal=   None    Shift=    0.000
 RMSDP=2.12D-07 MaxDP=1.20D-05 DE=-4.28D-08 OVMax= 4.68D-05

 Cycle  17  Pass 1  IDiag  1:
 E= -211.692746937834     Delta-E=       -0.000000002274 Rises=F Damp=F
 DIIS: error= 1.00D-06 at cycle  17 NSaved=  17.
 NSaved=17 IEnMin=17 EnMin= -211.692746937834     IErMin=17 ErrMin= 1.00D-06
 ErrMax= 1.00D-06  0.00D+00 EMaxC= 1.00D-01 BMatC= 7.70D-11 BMatP= 7.04D-10
 IDIUse=1 WtCom= 1.00D+00 WtEn= 0.00D+00
 Coeff-Com: -0.196D-03 0.224D-03-0.305D-04 0.226D-04 0.492D-04-0.200D-03
 Coeff-Com: -0.968D-04 0.892D-03 0.275D-02-0.150D-02-0.174D-01 0.173D-01
 Coeff-Com:  0.399D-01-0.163D-01-0.143D+00 0.437D-01 0.107D+01
 Coeff:     -0.196D-03 0.224D-03-0.305D-04 0.226D-04 0.492D-04-0.200D-03
 Coeff:     -0.968D-04 0.892D-03 0.275D-02-0.150D-02-0.174D-01 0.173D-01
 Coeff:      0.399D-01-0.163D-01-0.143D+00 0.437D-01 0.107D+01
 Gap=     0.076 Goal=   None    Shift=    0.000
 RMSDP=6.15D-08 MaxDP=5.86D-06 DE=-2.27D-09 OVMax= 9.33D-06

 Cycle  18  Pass 1  IDiag  1:
 E= -211.692746937996     Delta-E=       -0.000000000161 Rises=F Damp=F
 DIIS: error= 4.68D-07 at cycle  18 NSaved=  18.
 NSaved=18 IEnMin=18 EnMin= -211.692746937996     IErMin=18 ErrMin= 4.68D-07
 ErrMax= 4.68D-07  0.00D+00 EMaxC= 1.00D-01 BMatC= 7.16D-12 BMatP= 7.70D-11
 IDIUse=1 WtCom= 1.00D+00 WtEn= 0.00D+00
 Coeff-Com: -0.102D-03 0.116D-03-0.180D-04-0.788D-05 0.769D-04 0.927D-04
 Coeff-Com:  0.295D-04-0.328D-03 0.677D-03 0.213D-02 0.893D-03-0.131D-01
 Coeff-Com: -0.429D-02 0.325D-01-0.112D-02-0.798D-01-0.107D+00 0.117D+01
 Coeff:     -0.102D-03 0.116D-03-0.180D-04-0.788D-05 0.769D-04 0.927D-04
 Coeff:      0.295D-04-0.328D-03 0.677D-03 0.213D-02 0.893D-03-0.131D-01
 Coeff:     -0.429D-02 0.325D-01-0.112D-02-0.798D-01-0.107D+00 0.117D+01
 Gap=     0.076 Goal=   None    Shift=    0.000
 RMSDP=1.90D-08 MaxDP=2.10D-06 DE=-1.61D-10 OVMax= 4.43D-06

 Cycle  19  Pass 1  IDiag  1:
 E= -211.692746938013     Delta-E=       -0.000000000018 Rises=F Damp=F
 DIIS: error= 1.64D-07 at cycle  19 NSaved=  19.
 NSaved=19 IEnMin=19 EnMin= -211.692746938013     IErMin=19 ErrMin= 1.64D-07
 ErrMax= 1.64D-07  0.00D+00 EMaxC= 1.00D-01 BMatC= 1.77D-12 BMatP= 7.16D-12
 IDIUse=1 WtCom= 1.00D+00 WtEn= 0.00D+00
 Coeff-Com: -0.217D-04 0.248D-04-0.328D-05 0.191D-06-0.137D-04 0.226D-04
 Coeff-Com:  0.439D-06 0.670D-05-0.461D-03-0.188D-03 0.213D-02-0.494D-03
 Coeff-Com: -0.407D-02-0.170D-02 0.138D-01 0.171D-02-0.108D+00-0.154D+00
 Coeff-Com:  0.125D+01
 Coeff:     -0.217D-04 0.248D-04-0.328D-05 0.191D-06-0.137D-04 0.226D-04
 Coeff:      0.439D-06 0.670D-05-0.461D-03-0.188D-03 0.213D-02-0.494D-03
 Coeff:     -0.407D-02-0.170D-02 0.138D-01 0.171D-02-0.108D+00-0.154D+00
 Coeff:      0.125D+01
 Gap=     0.076 Goal=   None    Shift=    0.000
 RMSDP=7.01D-09 MaxDP=7.34D-07 DE=-1.77D-11 OVMax= 2.30D-06

 SCF Done:  E(ROHF) =  -211.692746938     A.U. after   19 cycles
            NFock= 19  Conv=0.70D-08     -V/T= 2.4990
 <Sx>= 0.0000 <Sy>= 0.0000 <Sz>= 0.5000 <S**2>= 0.7500 S= 0.5000
 <L.S>=  0.00000000000    
 KE= 1.412260383728D+02 PE=-5.911449682487D+02 EE= 2.047116262463D+02
 Annihilation of the first spin contaminant:
 S**2 before annihilation     0.7500,   after     0.7500
 Leave Link  502 at Mon Mar 26 09:44:53 2018, MaxMem= 10737418240 cpu:             548.3 elap:              21.0
 (Enter /home1/apps/gaussian/16rA.03/g16/l801.exe)
 Windowed orbitals will be sorted by symmetry type.
 GenMOA:  NOpAll=  4 NOp2=4 NOpUse=  4 JSym2X=1
 FoFJK:  IHMeth= 1 ICntrl=       0 DoSepK=F KAlg= 0 I1Cent=           0 FoldK=F
 IRaf=         0 NMat=       1 IRICut=       1 DoRegI=T DoRafI=F ISym2E= 1 IDoP0=0 IntGTp=1.
 FoFCou: FMM=F IPFlag=           8 FMFlag=      100000 FMFlg1=           0
         NFxFlg=           0 DoJE=F BraDBF=F KetDBF=F FulRan=T
         wScrn=  0.000000 ICntrl=         0 IOpCl=  1 I1Cent=           0 NGrid=           0
         NMat0=    1 NMatS0=      1 NMatT0=    0 NMatD0=    1 NMtDS0=    0 NMtDT0=    0
 Petite list used in FoFCou.
 <Sx>= 0.0000 <Sy>= 0.0000 <Sz>= 0.5000 <S**2>= 0.7500 S= 0.5000
 Range of M.O.s used for correlation:     1   256
 NBasis=   261 NAE=    13 NBE=    12 NFC=     0 NFV=     0
 NROrb=    256 NOA=    13 NOB=    12 NVA=   243 NVB=   244

 **** Warning!!: The largest alpha MO coefficient is  0.14518581D+03


 **** Warning!!: The largest beta MO coefficient is  0.14518571D+03

 Singles contribution to E2=   -0.3503492760D-02
 Leave Link  801 at Mon Mar 26 09:44:57 2018, MaxMem= 10737418240 cpu:             135.2 elap:               4.3
 (Enter /home1/apps/gaussian/16rA.03/g16/l804.exe)
 Open-shell transformation, MDV= 10737418240 ITran=4 ISComp=2.
 Unit  1 TFree=       2056238 TCopy=        911956.
 Semi-Direct transformation.
 ModeAB=           4 MOrb=            13 LenV=   10735386082
 LASXX=     27084267 LTotXX=    27084267 LenRXX=    54625511
 LTotAB=    27541244 MaxLAS=   156921856 LenRXY=           0
 NonZer=    81709778 LenScr=   123333120 LnRSAI=   156921856
 LnScr1=   236306432 LExtra=    15157823 Total=    586344742
 MaxDsk= 67108864000 SrtSym=           T ITran=            4
 DoSDTr:  NPSUse= 32
 JobTyp=1 Pass  1:  I=   1 to  13.
 (rs|ai) integrals will be sorted in core.
 Complete sort for first half transformation.
 First half transformation complete.
 Begin second half transformation for I=  10.
 Complete sort for second half transformation.
 Second half transformation complete.
 ModeAB=           4 MOrb=            12 LenV=   10735386082
 LASXX=     25114839 LTotXX=    25114839 LenRXX=    48116653
 LTotAB=    23001814 MaxLAS=   144850944 LenRXY=           0
 NonZer=    73231492 LenScr=   110598144 LnRSAI=   144850944
 LnScr1=   218129408 LExtra=    69783334 Total=    591478483
 MaxDsk= 67108864000 SrtSym=           T ITran=            4
 DoSDTr:  NPSUse= 32
 JobTyp=2 Pass  1:  I=   1 to  12.
 (rs|ai) integrals will be sorted in core.
 Complete sort for first half transformation.
 First half transformation complete.
 Begin second half transformation for I=  10.
 Complete sort for second half transformation.
 Second half transformation complete.
 Spin components of T(2) and E(2):
     alpha-alpha T2 =       0.3223817095D-01 E2=     -0.2037160489D+00
     alpha-beta  T2 =       0.1291867059D+00 E2=     -0.8937002767D+00
     beta-beta   T2 =       0.2833253094D-01 E2=     -0.1864822527D+00
 ANorm=    0.1091438985D+01
 E2 =    -0.1287402071D+01 EUMP2 =    -0.21298014900907D+03
 (S**2,0)=  0.75000D+00           (S**2,1)=  0.75000D+00
 E(PUHF)=      -0.21169274694D+03        E(PMP2)=      -0.21298014901D+03
 Leave Link  804 at Mon Mar 26 09:47:01 2018, MaxMem= 10737418240 cpu:            3935.3 elap:             123.1
 (Enter /home1/apps/gaussian/16rA.03/g16/l913.exe)
 CIDS:  MDV= 10737418240.
 IFCWin=0 IBDFC=1 NFBD=     0     0 NFCmp=     0     0 NFFFC=     0     0
 Using original routines for 1st iteration.
 Using DD4UQ or CC4UQ for 2nd and later iterations.
 Keep R2 and R3 ints in memory in symmetry-blocked form, NReq=734619877.
 FoFCou: FMM=F IPFlag=           8 FMFlag=           0 FMFlg1=           0
         NFxFlg=           0 DoJE=F BraDBF=F KetDBF=F FulRan=T
         wScrn=  0.000000 ICntrl=       600 IOpCl=  0 I1Cent=           0 NGrid=           0
         NMat0=    1 NMatS0=  34191 NMatT0=    0 NMatD0=    1 NMtDS0=    0 NMtDT0=    0
 Petite list used in FoFCou.
 CIDS: In Core Option IDoMem=           1.
 CCSD(T)
 =======
 Iterations= 150 Convergence= 0.100D-06
 Produce multiple copies of IABC intergrals
 Iteration Nr.   1
 **********************
 DD1Dir will call FoFMem   1 times, MxPair=       456
 NAB=   156 NAA=    78 NBB=    66.
 DD1Dir will call FoFMem   1 times, MxPair=       456
 NAB=   156 NAA=    78 NBB=    66.
 MP4(R+Q)= -0.21301629D+00
 Maximum subspace dimension=  5
 A-vector RMS=  1.3182624D-04 Max=  2.4608608D-03 conv= 1.00D-05.
 RLE energy=       -1.3004741804
 E3=        0.20001241D+00        EROMP3=      -0.21278013660D+03
 E4(SDQ)=  -0.16317391D+00        ROMP4(SDQ)=  -0.21294331050D+03
 VARIATIONAL ENERGIES WITH THE FIRST-ORDER WAVEFUNCTION:
 DE(Corr)=  -1.3003437     E(Corr)=     -212.99309069    
 NORM(A)=   0.10931094D+01
 Iteration Nr.   2
 **********************
 DD1Dir will call FoFMem   1 times, MxPair=       456
 NAB=   156 NAA=    78 NBB=    66.
 A-vector RMS=  5.3170383D-03 Max=  5.1924572D-02 conv= 1.00D-05.
 RLE energy=       -1.2652768067
 DE(Corr)=  -1.0849752     E(CORR)=     -212.77772215     Delta= 2.15D-01
 NORM(A)=   0.10865157D+01
 Iteration Nr.   3
 **********************
 DD1Dir will call FoFMem   1 times, MxPair=       456
 NAB=   156 NAA=    78 NBB=    66.
 A-vector RMS=  3.9165810D-03 Max=  4.1306838D-02 conv= 1.00D-05.
 RLE energy=       -1.2182268353
 DE(Corr)=  -1.1042730     E(CORR)=     -212.79701991     Delta=-1.93D-02
 NORM(A)=   0.10827147D+01
 Iteration Nr.   4
 **********************
 DD1Dir will call FoFMem   1 times, MxPair=       456
 NAB=   156 NAA=    78 NBB=    66.
 A-vector RMS=  2.8523160D-03 Max=  3.3359914D-02 conv= 1.00D-05.
 RLE energy=       -1.0700208241
 DE(Corr)=  -1.1334374     E(CORR)=     -212.82618430     Delta=-2.92D-02
 NORM(A)=   0.11195010D+01
 Iteration Nr.   5
 **********************
 DD1Dir will call FoFMem   1 times, MxPair=       456
 NAB=   156 NAA=    78 NBB=    66.
 A-vector RMS=  4.3577661D-03 Max=  3.7837368D-02 conv= 1.00D-05.
 RLE energy=       -1.1699952624
 DE(Corr)=  -1.2529631     E(CORR)=     -212.94571002     Delta=-1.20D-01
 NORM(A)=   0.11148734D+01
 Iteration Nr.   6
 **********************
 DD1Dir will call FoFMem   1 times, MxPair=       456
 NAB=   156 NAA=    78 NBB=    66.
 A-vector RMS=  9.4715360D-04 Max=  1.5056808D-02 conv= 1.00D-05.
 RLE energy=       -1.1806993893
 DE(Corr)=  -1.1813246     E(CORR)=     -212.87407153     Delta= 7.16D-02
 NORM(A)=   0.11117535D+01
 Iteration Nr.   7
 **********************
 DD1Dir will call FoFMem   1 times, MxPair=       456
 NAB=   156 NAA=    78 NBB=    66.
 A-vector RMS=  3.6640568D-04 Max=  5.3884745D-03 conv= 1.00D-05.
 RLE energy=       -1.1749687588
 DE(Corr)=  -1.1725295     E(CORR)=     -212.86527642     Delta= 8.80D-03
 NORM(A)=   0.11168038D+01
 Iteration Nr.   8
 **********************
 DD1Dir will call FoFMem   1 times, MxPair=       456
 NAB=   156 NAA=    78 NBB=    66.
 A-vector RMS=  3.4295905D-04 Max=  6.0079747D-03 conv= 1.00D-05.
 RLE energy=       -1.1753630150
 DE(Corr)=  -1.1763143     E(CORR)=     -212.86906120     Delta=-3.78D-03
 NORM(A)=   0.11210364D+01
 Iteration Nr.   9
 **********************
 DD1Dir will call FoFMem   1 times, MxPair=       456
 NAB=   156 NAA=    78 NBB=    66.
 A-vector RMS=  1.7735758D-04 Max=  2.4764497D-03 conv= 1.00D-05.
 RLE energy=       -1.1759105565
 DE(Corr)=  -1.1757540     E(CORR)=     -212.86850097     Delta= 5.60D-04
 NORM(A)=   0.11253691D+01
 Iteration Nr.  10
 **********************
 DD1Dir will call FoFMem   1 times, MxPair=       456
 NAB=   156 NAA=    78 NBB=    66.
 A-vector RMS=  1.1496173D-04 Max=  1.8728902D-03 conv= 1.00D-05.
 RLE energy=       -1.1761027724
 DE(Corr)=  -1.1759758     E(CORR)=     -212.86872274     Delta=-2.22D-04
 NORM(A)=   0.11263958D+01
 Iteration Nr.  11
 **********************
 DD1Dir will call FoFMem   1 times, MxPair=       456
 NAB=   156 NAA=    78 NBB=    66.
 A-vector RMS=  7.6017432D-05 Max=  1.1648991D-03 conv= 1.00D-05.
 RLE energy=       -1.1757085991
 DE(Corr)=  -1.1759546     E(CORR)=     -212.86870159     Delta= 2.12D-05
 NORM(A)=   0.11266671D+01
 Iteration Nr.  12
 **********************
 DD1Dir will call FoFMem   1 times, MxPair=       456
 NAB=   156 NAA=    78 NBB=    66.
 A-vector RMS=  4.8463759D-05 Max=  7.4854347D-04 conv= 1.00D-05.
 RLE energy=       -1.1762076356
 DE(Corr)=  -1.1761308     E(CORR)=     -212.86887775     Delta=-1.76D-04
 NORM(A)=   0.11264744D+01
 Iteration Nr.  13
 **********************
 DD1Dir will call FoFMem   1 times, MxPair=       456
 NAB=   156 NAA=    78 NBB=    66.
 A-vector RMS=  4.5227734D-05 Max=  7.4447656D-04 conv= 1.00D-05.
 RLE energy=       -1.1758237636
 DE(Corr)=  -1.1756928     E(CORR)=     -212.86843977     Delta= 4.38D-04
 NORM(A)=   0.11266385D+01
 Iteration Nr.  14
 **********************
 DD1Dir will call FoFMem   1 times, MxPair=       456
 NAB=   156 NAA=    78 NBB=    66.
 A-vector RMS=  1.9205686D-05 Max=  2.9888298D-04 conv= 1.00D-05.
 RLE energy=       -1.1759107228
 DE(Corr)=  -1.1759789     E(CORR)=     -212.86872585     Delta=-2.86D-04
 NORM(A)=   0.11265963D+01
 Iteration Nr.  15
 **********************
 DD1Dir will call FoFMem   1 times, MxPair=       456
 NAB=   156 NAA=    78 NBB=    66.
 A-vector RMS=  1.6072474D-05 Max=  1.9692715D-04 conv= 1.00D-05.
 RLE energy=       -1.1758602932
 DE(Corr)=  -1.1758532     E(CORR)=     -212.86860012     Delta= 1.26D-04
 NORM(A)=   0.11266260D+01
 Iteration Nr.  16
 **********************
 DD1Dir will call FoFMem   1 times, MxPair=       456
 NAB=   156 NAA=    78 NBB=    66.
 A-vector RMS=  1.4712368D-05 Max=  2.0308554D-04 conv= 1.00D-05.
 RLE energy=       -1.1758631997
 DE(Corr)=  -1.1758859     E(CORR)=     -212.86863286     Delta=-3.27D-05
 NORM(A)=   0.11266648D+01
 Iteration Nr.  17
 **********************
 DD1Dir will call FoFMem   1 times, MxPair=       456
 NAB=   156 NAA=    78 NBB=    66.
 A-vector RMS=  1.1063139D-05 Max=  1.1239329D-04 conv= 1.00D-05.
 RLE energy=       -1.1758572503
 DE(Corr)=  -1.1758745     E(CORR)=     -212.86862149     Delta= 1.14D-05
 NORM(A)=   0.11266894D+01
 Iteration Nr.  18
 **********************
 DD1Dir will call FoFMem   1 times, MxPair=       456
 NAB=   156 NAA=    78 NBB=    66.
 A-vector RMS=  6.9269905D-06 Max=  6.9274790D-05 conv= 1.00D-05.
 RLE energy=       -1.1758805707
 DE(Corr)=  -1.1758757     E(CORR)=     -212.86862266     Delta=-1.18D-06
 NORM(A)=   0.11266976D+01
 Iteration Nr.  19
 **********************
 DD1Dir will call FoFMem   1 times, MxPair=       456
 NAB=   156 NAA=    78 NBB=    66.
 A-vector RMS=  4.8639651D-06 Max=  7.9474185D-05 conv= 1.00D-05.
 RLE energy=       -1.1758513063
 DE(Corr)=  -1.1758536     E(CORR)=     -212.86860053     Delta= 2.21D-05
 NORM(A)=   0.11267157D+01
 Iteration Nr.  20
 **********************
 DD1Dir will call FoFMem   1 times, MxPair=       456
 NAB=   156 NAA=    78 NBB=    66.
 A-vector RMS=  3.9310517D-06 Max=  7.2632717D-05 conv= 1.00D-05.
 RLE energy=       -1.1758792561
 DE(Corr)=  -1.1758844     E(CORR)=     -212.86863129     Delta=-3.08D-05
 NORM(A)=   0.11267098D+01
 Iteration Nr.  21
 **********************
 DD1Dir will call FoFMem   1 times, MxPair=       456
 NAB=   156 NAA=    78 NBB=    66.
 A-vector RMS=  2.4240039D-06 Max=  2.6727982D-05 conv= 1.00D-05.
 RLE energy=       -1.1758684516
 DE(Corr)=  -1.1758612     E(CORR)=     -212.86860810     Delta= 2.32D-05
 NORM(A)=   0.11267086D+01
 Iteration Nr.  22
 **********************
 DD1Dir will call FoFMem   1 times, MxPair=       456
 NAB=   156 NAA=    78 NBB=    66.
 A-vector RMS=  2.0739344D-06 Max=  2.6162262D-05 conv= 1.00D-05.
 RLE energy=       -1.1758697013
 DE(Corr)=  -1.1758716     E(CORR)=     -212.86861852     Delta=-1.04D-05
 NORM(A)=   0.11267036D+01
 Iteration Nr.  23
 **********************
 DD1Dir will call FoFMem   1 times, MxPair=       456
 NAB=   156 NAA=    78 NBB=    66.
 A-vector RMS=  1.7721054D-06 Max=  3.4348129D-05 conv= 1.00D-05.
 RLE energy=       -1.1758705537
 DE(Corr)=  -1.1758709     E(CORR)=     -212.86861789     Delta= 6.33D-07
 NORM(A)=   0.11266978D+01
 Iteration Nr.  24
 **********************
 DD1Dir will call FoFMem   1 times, MxPair=       456
 NAB=   156 NAA=    78 NBB=    66.
 A-vector RMS=  1.2294616D-06 Max=  1.5866749D-05 conv= 1.00D-05.
 RLE energy=       -1.1758732780
 DE(Corr)=  -1.1758705     E(CORR)=     -212.86861745     Delta= 4.39D-07
 NORM(A)=   0.11266860D+01
 Iteration Nr.  25
 **********************
 DD1Dir will call FoFMem   1 times, MxPair=       456
 NAB=   156 NAA=    78 NBB=    66.
 A-vector RMS=  8.2388702D-07 Max=  1.0774173D-05 conv= 1.00D-05.
 RLE energy=       -1.1758674088
 DE(Corr)=  -1.1758677     E(CORR)=     -212.86861464     Delta= 2.81D-06
 NORM(A)=   0.11266802D+01
 Iteration Nr.  26
 **********************
 DD1Dir will call FoFMem   1 times, MxPair=       456
 NAB=   156 NAA=    78 NBB=    66.
 A-vector RMS=  1.0523470D-06 Max=  1.7316086D-05 conv= 1.00D-05.
 RLE energy=       -1.1758719745
 DE(Corr)=  -1.1758731     E(CORR)=     -212.86862007     Delta=-5.43D-06
 NORM(A)=   0.11266682D+01
 Iteration Nr.  27
 **********************
 DD1Dir will call FoFMem   1 times, MxPair=       456
 NAB=   156 NAA=    78 NBB=    66.
 A-vector RMS=  5.8089183D-07 Max=  8.9608839D-06 conv= 1.00D-05.
 RLE energy=       -1.1758693542
 DE(Corr)=  -1.1758683     E(CORR)=     -212.86861521     Delta= 4.86D-06
 NORM(A)=   0.11266649D+01
 Iteration Nr.  28
 **********************
 DD1Dir will call FoFMem   1 times, MxPair=       456
 NAB=   156 NAA=    78 NBB=    66.
 A-vector RMS=  4.2983260D-07 Max=  4.5188430D-06 conv= 1.00D-05.
 RLE energy=       -1.1758697996
 DE(Corr)=  -1.1758706     E(CORR)=     -212.86861757     Delta=-2.36D-06
 NORM(A)=   0.11266619D+01
 Iteration Nr.  29
 **********************
 DD1Dir will call FoFMem   1 times, MxPair=       456
 NAB=   156 NAA=    78 NBB=    66.
 A-vector RMS=  4.3475529D-07 Max=  6.7654986D-06 conv= 1.00D-05.
 RLE energy=       -1.1758699328
 DE(Corr)=  -1.1758700     E(CORR)=     -212.86861692     Delta= 6.44D-07
 NORM(A)=   0.11266605D+01
 Iteration Nr.  30
 **********************
 DD1Dir will call FoFMem   1 times, MxPair=       456
 NAB=   156 NAA=    78 NBB=    66.
 A-vector RMS=  3.1043102D-07 Max=  3.4902801D-06 conv= 1.00D-05.
 RLE energy=       -1.1758702388
 DE(Corr)=  -1.1758698     E(CORR)=     -212.86861674     Delta= 1.82D-07
 NORM(A)=   0.11266596D+01
 Iteration Nr.  31
 **********************
 DD1Dir will call FoFMem   1 times, MxPair=       456
 NAB=   156 NAA=    78 NBB=    66.
 A-vector RMS=  1.9070408D-07 Max=  3.6966746D-06 conv= 1.00D-05.
 RLE energy=       -1.1758695230
 DE(Corr)=  -1.1758695     E(CORR)=     -212.86861642     Delta= 3.17D-07
 NORM(A)=   0.11266601D+01
 Iteration Nr.  32
 **********************
 DD1Dir will call FoFMem   1 times, MxPair=       456
 NAB=   156 NAA=    78 NBB=    66.
 A-vector RMS=  1.1246771D-07 Max=  1.6536826D-06 conv= 1.00D-05.
 RLE energy=       -1.1758700918
 DE(Corr)=  -1.1758703     E(CORR)=     -212.86861719     Delta=-7.69D-07
 NORM(A)=   0.11266602D+01
 Iteration Nr.  33
 **********************
 DD1Dir will call FoFMem   1 times, MxPair=       456
 NAB=   156 NAA=    78 NBB=    66.
 A-vector RMS=  1.0955081D-07 Max=  2.3736942D-06 conv= 1.00D-05.
 RLE energy=       -1.1758698243
 DE(Corr)=  -1.1758697     E(CORR)=     -212.86861668     Delta= 5.09D-07
 NORM(A)=   0.11266612D+01
 Iteration Nr.  34
 **********************
 DD1Dir will call FoFMem   1 times, MxPair=       456
 NAB=   156 NAA=    78 NBB=    66.
 A-vector RMS=  9.9470208D-08 Max=  1.6308328D-06 conv= 1.00D-05.
 RLE energy=       -1.1758700128
 DE(Corr)=  -1.1758702     E(CORR)=     -212.86861709     Delta=-4.07D-07
 NORM(A)=   0.11266619D+01
 Iteration Nr.  35
 **********************
 DD1Dir will call FoFMem   1 times, MxPair=       456
 NAB=   156 NAA=    78 NBB=    66.
 A-vector RMS=  9.0376495D-08 Max=  1.3701386D-06 conv= 1.00D-05.
 RLE energy=       -1.1758700819
 DE(Corr)=  -1.1758701     E(CORR)=     -212.86861701     Delta= 8.05D-08
 NORM(A)=   0.11266623D+01
 CI/CC converged in   35 iterations to DelEn= 8.05D-08 Conv= 1.00D-07 ErrA1= 9.04D-08 Conv= 1.00D-05
 Wavefunction amplitudes converged. E(Corr)=     -212.86861701    
 Dominant configurations:
 ***********************
 Spin Case        I    J    A    B          Value
    AA           13        14            0.102393D+00
    BB           12        13            0.146281D+00
 Largest amplitude= 1.46D-01
 Time for triples=    55945.39 seconds.
 T4(CCSD)= -0.59492524D-01
 T5(CCSD)=  0.14585745D-01
 CCSD(T)= -0.21291352379D+03
 Discarding MO integrals.
 Leave Link  913 at Mon Mar 26 10:32:15 2018, MaxMem= 10737418240 cpu:           86354.7 elap:            2713.6
 (Enter /home1/apps/gaussian/16rA.03/g16/l601.exe)
 Copying SCF densities to generalized density rwf, IOpCl= 0 IROHF=1.

 **********************************************************************

            Population analysis using the SCF density.

 **********************************************************************

 Orbital symmetries:
       Occupied  (SG) (SG) (PI) (PI) (SG) (?A) (?B) (?A) (?B) (?B)
                 (?A) (SG) (?A)
       Virtual   (SG) (PI) (PI) (SG) (SG) (PI) (PI) (?C) (?C) (?C)
                 (?C) (?C) (PI) (PI) (PI) (SG) (PI) (PI) (PI) (SG)
                 (SG) (?D) (?D) (?D) (?D) (?D) (PI) (PI) (?D) (PI)
                 (PI) (SG) (?A) (?A) (?A) (?A) (SG) (SG) (PHI)
                 (PHI) (?E) (?E) (?E) (PI) (PI) (SG) (PHI) (PHI)
                 (?F) (PI) (PI) (?F) (?F) (?G) (?G) (?G) (?G) (?G)
                 (PI) (PI) (SG) (PI) (PI) (PI) (PI) (SG) (SG) (PI)
                 (PI) (SG) (PHI) (PHI) (DLTA) (DLTA) (PI) (PI)
                 (SG) (SG) (?H) (?H) (?H) (PHI) (PHI) (?I) (?I)
                 (?I) (?I) (PI) (PI) (?J) (?J) (PI) (PI) (?H) (?H)
                 (?H) (?J) (?J) (?K) (?K) (?K) (PI) (PI) (SG) (PI)
                 (PI) (SG) (SG) (PHI) (PHI) (DLTA) (DLTA) (PI)
                 (PI) (SG) (PI) (PI) (SG) (SG) (DLTA) (DLTA) (PI)
                 (PI) (SG) (PI) (PI) (?L) (?L) (PHI) (PHI) (DLTA)
                 (DLTA) (SG) (PI) (PI) (SG) (SG) (PHI) (PHI) (DLTA)
                 (DLTA) (PI) (PI) (SG) (PI) (PI) (SG) (DLTA) (DLTA)
                 (PI) (PI) (SG) (SG) (SG) (?L) (?L) (PHI) (PHI)
                 (DLTA) (DLTA) (PI) (PI) (SG) (?L) (?L) (PI) (PI)
                 (?L) (PI) (PI) (SG) (PI) (PI) (SG) (SG) (DLTA)
                 (DLTA) (PI) (PI) (SG) (SG) (PI) (PI) (SG) (PI)
                 (PI) (SG) (SG) (SG) (DLTA) (DLTA) (PI) (PI) (SG)
                 (PI) (PI) (SG) (SG) (PI) (PI) (SG) (SG) (PI) (PI)
                 (SG) (SG) (SG) (DLTA) (DLTA) (PI) (PI) (SG) (PI)
                 (PI) (SG) (SG) (PI) (PI) (SG) (SG) (SG) (PI) (PI)
                 (SG) (SG) (SG) (PI) (PI) (SG) (SG) (PI) (PI) (SG)
                 (SG) (SG) (SG) (PI) (PI) (SG) (SG) (SG) (SG) (SG)
 Unable to determine electronic state:  an orbital has unidentified symmetry.
 Alpha  occ. eigenvalues --   -5.26689  -3.38728  -3.38552  -3.38356  -1.22552
 Alpha  occ. eigenvalues --   -0.56452  -0.53829  -0.53417  -0.52007  -0.52006
 Alpha  occ. eigenvalues --   -0.48070  -0.41578  -0.40660
 Alpha virt. eigenvalues --   -0.01457   0.02790   0.02947   0.03920   0.04609
 Alpha virt. eigenvalues --    0.10210   0.10520   0.13552   0.19370   0.19404
 Alpha virt. eigenvalues --    0.19477   0.20496   0.21621   0.22701   0.26000
 Alpha virt. eigenvalues --    0.26208   0.26328   0.33112   0.33566   0.38782
 Alpha virt. eigenvalues --    0.54129   0.66511   0.69966   0.69991   0.75634
 Alpha virt. eigenvalues --    0.75785   0.76092   0.77090   0.78603   0.87807
 Alpha virt. eigenvalues --    0.89665   0.90647   1.07084   1.09709   1.11695
 Alpha virt. eigenvalues --    1.13580   1.18834   1.31004   1.64108   1.64108
 Alpha virt. eigenvalues --    1.66542   1.66556   1.77295   1.86780   1.88457
 Alpha virt. eigenvalues --    2.01374   2.13578   2.13580   2.17851   2.21840
 Alpha virt. eigenvalues --    2.22307   2.22364   2.22452   2.27377   2.27404
 Alpha virt. eigenvalues --    2.38860   2.39229   2.40508   2.41335   2.44249
 Alpha virt. eigenvalues --    2.78200   2.96442   2.98711   3.38314   3.38832
 Alpha virt. eigenvalues --    3.43150   3.67635   3.94466   4.01558   4.50434
 Alpha virt. eigenvalues --    4.77998   4.77998   4.84739   4.84739   4.99806
 Alpha virt. eigenvalues --    5.00109   5.05870   5.17400   6.40603   6.43480
 Alpha virt. eigenvalues --    6.43682   6.45291   6.45293   6.46975   6.46977
 Alpha virt. eigenvalues --    6.47121   6.47121   6.48980   6.49373   6.56274
 Alpha virt. eigenvalues --    6.56289   6.61940   6.63631   6.70189   6.71281
 Alpha virt. eigenvalues --    6.73999   6.78443   6.83329   7.05559   7.05774
 Alpha virt. eigenvalues --    7.37076   7.37240   7.41931   7.57462   8.25735
 Alpha virt. eigenvalues --    8.26072   8.26819   8.60327  12.27126  12.27126
 Alpha virt. eigenvalues --   12.31693  12.31694  12.43424  12.43643  12.52482
 Alpha virt. eigenvalues --   14.68038  14.74993  15.16471  15.89658  16.33236
 Alpha virt. eigenvalues --   16.33236  16.41390  16.41645  16.64964  17.08787
 Alpha virt. eigenvalues --   17.09076  17.18100  17.18100  17.18285  17.18285
 Alpha virt. eigenvalues --   17.20891  17.20892  17.31959  17.32860  17.33109
 Alpha virt. eigenvalues --   17.75597  17.94901  31.68960  31.68960  31.72515
 Alpha virt. eigenvalues --   31.72516  31.80914  31.81126  31.86195  32.53684
 Alpha virt. eigenvalues --   32.53952  32.74760  36.35573  36.35574  36.43436
 Alpha virt. eigenvalues --   36.43681  36.75967  37.46758  38.13286  41.33713
 Alpha virt. eigenvalues --   41.33713  41.34339  41.34339  41.36076  41.36078
 Alpha virt. eigenvalues --   41.41702  41.41939  41.51424  43.68895  43.69058
 Alpha virt. eigenvalues --   43.73860  43.77584  43.95241  45.38334  45.43944
 Alpha virt. eigenvalues --   45.93451  59.78219  59.78487  59.98839  74.32660
 Alpha virt. eigenvalues --   76.16186  76.16186  76.23623  76.23848  76.54018
 Alpha virt. eigenvalues --   77.92553 108.06734 108.06991 108.26455 118.80006
 Alpha virt. eigenvalues --  118.83936 119.20440 136.53959 167.77101 193.80676
 Alpha virt. eigenvalues --  193.80676 193.86330 193.86468 194.08383 198.59852
 Alpha virt. eigenvalues --  198.60063 198.78986 257.30604 286.11891 286.14108
 Alpha virt. eigenvalues --  286.46329 322.69662 375.66024 375.66163 375.81083
 Alpha virt. eigenvalues --  551.46217 554.79404 676.25732 676.25732 676.29214
 Alpha virt. eigenvalues --  676.29262 676.44208 722.95465 722.95550 723.09042
 Alpha virt. eigenvalues --  986.411771444.531691444.532161444.655891529.33331
 Alpha virt. eigenvalues -- 1893.791483091.306183091.306423091.418583907.16749
 Alpha virt. eigenvalues -- 5659.516447339.740157339.740257339.837998678.55605
 Alpha virt. eigenvalues -- **************************************************
 Alpha virt. eigenvalues -- **************************************************
 Alpha virt. eigenvalues -- ******************************
     Molecular Orbital Coefficients:
                           8         9        10        11        12
                           O         O         O         O         O
     Eigenvalues --    -0.53417  -0.52007  -0.52006  -0.48070  -0.41578
   1 1   Cu 1S          0.00000   0.00000   0.00000   0.00000   0.00000
   2        2S          0.00000   0.00000  -0.00000   0.00000  -0.00000
   3        3S          0.00000   0.00000   0.00000   0.00000   0.00000
   4        4S          0.00000   0.00000  -0.00000   0.00000  -0.00000
   5        5S          0.00000   0.00000   0.00000   0.00000   0.00000
   6        6S          0.00000   0.00000  -0.00000   0.00000  -0.00000
   7        7S          0.00000   0.00000   0.00000   0.00000   0.00002
   8        8S          0.00000   0.00000  -0.00000   0.00000  -0.00005
   9        9S          0.00000   0.00000   0.00000   0.00000   0.00015
  10       10S          0.00000   0.00000  -0.00001   0.00000  -0.00046
  11       11S          0.00000   0.00000   0.00003   0.00000   0.00161
  12       12S          0.00000   0.00000  -0.00012   0.00000  -0.00685
  13       13S          0.00000   0.00000   0.00001   0.00000   0.00132
  14       14S          0.00000   0.00000   0.00128   0.00000   0.07195
  15       15S          0.00000   0.00000  -0.00009   0.00000  -0.01636
  16       16S          0.00000   0.00000  -0.00221   0.00000  -0.09927
  17       17S          0.00000   0.00000  -0.00197   0.00000  -0.09783
  18       18S          0.00000   0.00000   0.00136   0.00000   0.14894
  19       19S          0.00000   0.00000   0.00208   0.00000   0.11051
  20       20S          0.00000   0.00000  -0.00052   0.00000  -0.00030
  21       21S          0.00000   0.00000  -0.00047   0.00000  -0.02116
  22       22S          0.00000   0.00000   0.00030   0.00000  -0.02582
  23       23S          0.00000   0.00000   0.00015   0.00000   0.00543
  24       24PX         0.00000   0.00000   0.00000   0.00000   0.00000
  25       24PY         0.00000   0.00000   0.00000   0.00000   0.00000
  26       24PZ         0.00000   0.00000  -0.00000   0.00000  -0.00000
  27       25PX        -0.00000   0.00000   0.00000   0.00000   0.00000
  28       25PY         0.00000   0.00000   0.00000  -0.00000   0.00000
  29       25PZ         0.00000   0.00000   0.00000   0.00000   0.00000
  30       26PX         0.00000   0.00000   0.00000   0.00000   0.00000
  31       26PY         0.00000   0.00000   0.00000   0.00000   0.00000
  32       26PZ         0.00000   0.00000  -0.00000   0.00000  -0.00000
  33       27PX        -0.00000   0.00000   0.00000   0.00000   0.00000
  34       27PY         0.00000   0.00000   0.00000  -0.00001   0.00000
  35       27PZ         0.00000   0.00000   0.00000   0.00000   0.00001
  36       28PX         0.00001   0.00000   0.00000   0.00000   0.00000
  37       28PY         0.00000   0.00000   0.00000   0.00003   0.00000
  38       28PZ         0.00000   0.00000  -0.00000   0.00000  -0.00005
  39       29PX        -0.00003   0.00000   0.00000   0.00000   0.00000
  40       29PY         0.00000   0.00000   0.00000  -0.00011   0.00000
  41       29PZ         0.00000   0.00000   0.00001   0.00000   0.00020
  42       30PX         0.00005   0.00000   0.00000   0.00000   0.00000
  43       30PY         0.00000   0.00000   0.00000   0.00023   0.00000
  44       30PZ         0.00000   0.00000  -0.00001   0.00000  -0.00041
  45       31PX         0.00050   0.00000   0.00000   0.00000   0.00000
  46       31PY         0.00000   0.00000   0.00000   0.00139   0.00000
  47       31PZ         0.00000   0.00000  -0.00005   0.00000  -0.00273
  48       32PX        -0.00098   0.00000   0.00000   0.00000   0.00000
  49       32PY         0.00000   0.00000   0.00000  -0.00195   0.00000
  50       32PZ         0.00000   0.00000   0.00004   0.00000   0.00406
  51       33PX        -0.00616   0.00000   0.00000   0.00000   0.00000
  52       33PY         0.00000   0.00000   0.00000  -0.01277   0.00000
  53       33PZ         0.00000   0.00000   0.00030   0.00000   0.02667
  54       34PX        -0.00207   0.00000   0.00000   0.00000   0.00000
  55       34PY         0.00000   0.00000   0.00000  -0.01228   0.00000
  56       34PZ         0.00000   0.00000   0.00073   0.00000   0.02186
  57       35PX         0.00486   0.00000   0.00000   0.00000   0.00000
  58       35PY         0.00000   0.00000   0.00000  -0.00829   0.00000
  59       35PZ         0.00000   0.00000   0.00142   0.00000   0.01368
  60       36PX        -0.00559   0.00000   0.00000   0.00000   0.00000
  61       36PY         0.00000   0.00000   0.00000  -0.01640   0.00000
  62       36PZ         0.00000   0.00000   0.00049   0.00000   0.02978
  63       37PX         0.01214   0.00000   0.00000   0.00000   0.00000
  64       37PY         0.00000   0.00000   0.00000   0.02097   0.00000
  65       37PZ         0.00000   0.00000  -0.00066   0.00000  -0.04013
  66       38PX         0.01174   0.00000   0.00000   0.00000   0.00000
  67       38PY         0.00000   0.00000   0.00000   0.04351   0.00000
  68       38PZ         0.00000   0.00000  -0.00175   0.00000  -0.02641
  69       39PX         0.00083   0.00000   0.00000   0.00000   0.00000
  70       39PY         0.00000   0.00000   0.00000   0.01133   0.00000
  71       39PZ         0.00000   0.00000  -0.00014   0.00000   0.01264
  72       40PX         0.00565   0.00000   0.00000   0.00000   0.00000
  73       40PY         0.00000   0.00000   0.00000   0.01169   0.00000
  74       40PZ         0.00000   0.00000  -0.00027   0.00000  -0.02430
  75       41PX        -0.01263   0.00000   0.00000   0.00000   0.00000
  76       41PY         0.00000   0.00000   0.00000  -0.01442   0.00000
  77       41PZ         0.00000   0.00000  -0.00045   0.00000   0.03175
  78       42PX        -0.00030   0.00000   0.00000   0.00000   0.00000
  79       42PY         0.00000   0.00000   0.00000  -0.00378   0.00000
  80       42PZ         0.00000   0.00000  -0.00001   0.00000  -0.00395
  81       43D 0        0.00000   0.00000  -0.00001   0.00000   0.00016
  82       43D+1       -0.00032   0.00000   0.00000   0.00000   0.00000
  83       43D-1        0.00000   0.00000   0.00000  -0.00011   0.00000
  84       43D+2        0.00000   0.00000  -0.00032   0.00000   0.00000
  85       43D-2        0.00000  -0.00032   0.00000   0.00000   0.00000
  86       44D 0        0.00000   0.00000   0.00016   0.00000  -0.00228
  87       44D+1        0.00450   0.00000   0.00000   0.00000   0.00000
  88       44D-1        0.00000   0.00000   0.00000   0.00163   0.00000
  89       44D+2        0.00000   0.00000   0.00453   0.00000  -0.00003
  90       44D-2        0.00000   0.00453   0.00000   0.00000   0.00000
  91       45D 0        0.00000   0.00000   0.00336   0.00000  -0.04684
  92       45D+1        0.09210   0.00000   0.00000   0.00000   0.00000
  93       45D-1        0.00000   0.00000   0.00000   0.03349   0.00000
  94       45D+2        0.00000   0.00000   0.09264   0.00000  -0.00069
  95       45D-2        0.00000   0.09275   0.00000   0.00000   0.00000
  96       46D 0        0.00000   0.00000   0.00623   0.00000  -0.08605
  97       46D+1        0.17134   0.00000   0.00000   0.00000   0.00000
  98       46D-1        0.00000   0.00000   0.00000   0.06115   0.00000
  99       46D+2        0.00000   0.00000   0.17242   0.00000  -0.00131
 100       46D-2        0.00000   0.17262   0.00000   0.00000   0.00000
 101       47D 0        0.00000   0.00000   0.00553   0.00000  -0.07631
 102       47D+1        0.15171   0.00000   0.00000   0.00000   0.00000
 103       47D-1        0.00000   0.00000   0.00000   0.05476   0.00000
 104       47D+2        0.00000   0.00000   0.15257   0.00000  -0.00114
 105       47D-2        0.00000   0.15275   0.00000   0.00000   0.00000
 106       48D 0        0.00000   0.00000   0.01280   0.00000  -0.17797
 107       48D+1        0.34850   0.00000   0.00000   0.00000   0.00000
 108       48D-1        0.00000   0.00000   0.00000   0.12702   0.00000
 109       48D+2        0.00000   0.00000   0.35002   0.00000  -0.00256
 110       48D-2        0.00000   0.35042   0.00000   0.00000   0.00000
 111       49D 0        0.00000   0.00000   0.01030   0.00000  -0.12989
 112       49D+1        0.27381   0.00000   0.00000   0.00000   0.00000
 113       49D-1        0.00000   0.00000   0.00000   0.09279   0.00000
 114       49D+2        0.00000   0.00000   0.27521   0.00000  -0.00206
 115       49D-2        0.00000   0.27553   0.00000   0.00000   0.00000
 116       50D 0        0.00000   0.00000   0.00484   0.00000  -0.07820
 117       50D+1        0.12469   0.00000   0.00000   0.00000   0.00000
 118       50D-1        0.00000   0.00000   0.00000   0.04407   0.00000
 119       50D+2        0.00000   0.00000   0.12169   0.00000   0.00027
 120       50D-2        0.00000   0.12182   0.00000   0.00000   0.00000
 121       51D 0        0.00000   0.00000   0.00153   0.00000  -0.02223
 122       51D+1        0.04132   0.00000   0.00000   0.00000   0.00000
 123       51D-1        0.00000   0.00000   0.00000   0.01636   0.00000
 124       51D+2        0.00000   0.00000   0.04153   0.00000  -0.00028
 125       51D-2        0.00000   0.04158   0.00000   0.00000   0.00000
 126       52D 0        0.00000   0.00000   0.00612   0.00000  -0.08534
 127       52D+1        0.16772   0.00000   0.00000   0.00000   0.00000
 128       52D-1        0.00000   0.00000   0.00000   0.06037   0.00000
 129       52D+2        0.00000   0.00000   0.16869   0.00000  -0.00127
 130       52D-2        0.00000   0.16888   0.00000   0.00000   0.00000
 131       53D 0        0.00000   0.00000   0.00043   0.00000  -0.01910
 132       53D+1        0.00859   0.00000   0.00000   0.00000   0.00000
 133       53D-1        0.00000   0.00000   0.00000   0.00054   0.00000
 134       53D+2        0.00000   0.00000   0.00750   0.00000   0.00018
 135       53D-2        0.00000   0.00751   0.00000   0.00000   0.00000
 136       54F 0        0.00000   0.00000   0.00001   0.00000  -0.00039
 137       54F+1        0.00044   0.00000   0.00000   0.00000   0.00000
 138       54F-1        0.00000   0.00000   0.00000   0.00028   0.00000
 139       54F+2        0.00000   0.00000   0.00035   0.00000  -0.00000
 140       54F-2        0.00000   0.00035   0.00000   0.00000   0.00000
 141       54F+3       -0.00000   0.00000   0.00000   0.00000   0.00000
 142       54F-3        0.00000   0.00000   0.00000  -0.00000   0.00000
 143       55F 0        0.00000   0.00000   0.00004   0.00000  -0.00111
 144       55F+1        0.00120   0.00000   0.00000   0.00000   0.00000
 145       55F-1        0.00000   0.00000   0.00000   0.00074   0.00000
 146       55F+2        0.00000   0.00000   0.00102   0.00000  -0.00007
 147       55F-2        0.00000   0.00103   0.00000   0.00000   0.00000
 148       55F+3       -0.00001   0.00000   0.00000   0.00000   0.00000
 149       55F-3        0.00000   0.00000   0.00000   0.00001   0.00000
 150       56F 0        0.00000   0.00000   0.00007   0.00000  -0.00402
 151       56F+1        0.00267   0.00000   0.00000   0.00000   0.00000
 152       56F-1        0.00000   0.00000   0.00000   0.00267   0.00000
 153       56F+2        0.00000   0.00000   0.00197   0.00000   0.00002
 154       56F-2        0.00000   0.00197   0.00000   0.00000   0.00000
 155       56F+3        0.00001   0.00000   0.00000   0.00000   0.00000
 156       56F-3        0.00000   0.00000   0.00000  -0.00003   0.00000
 157       57F 0        0.00000   0.00000   0.00027   0.00000  -0.01092
 158       57F+1        0.00644   0.00000   0.00000   0.00000   0.00000
 159       57F-1        0.00000   0.00000   0.00000   0.00867   0.00000
 160       57F+2        0.00000   0.00000   0.00650   0.00000  -0.00064
 161       57F-2        0.00000   0.00652   0.00000   0.00000   0.00000
 162       57F+3       -0.00028   0.00000   0.00000   0.00000   0.00000
 163       57F-3        0.00000   0.00000   0.00000   0.00007   0.00000
 164       58G 0        0.00000   0.00000   0.00000   0.00000   0.00006
 165       58G+1       -0.00006   0.00000   0.00000   0.00000   0.00000
 166       58G-1        0.00000   0.00000   0.00000  -0.00011   0.00000
 167       58G+2        0.00000   0.00000  -0.00005   0.00000  -0.00001
 168       58G-2        0.00000  -0.00005   0.00000   0.00000   0.00000
 169       58G+3        0.00002   0.00000   0.00000   0.00000   0.00000
 170       58G-3        0.00000   0.00000   0.00000   0.00001   0.00000
 171       58G+4        0.00000   0.00000   0.00002   0.00000  -0.00000
 172       58G-4        0.00000   0.00002   0.00000   0.00000   0.00000
 173       59G 0        0.00000   0.00000   0.00001   0.00000   0.00004
 174       59G+1       -0.00012   0.00000   0.00000   0.00000   0.00000
 175       59G-1        0.00000   0.00000   0.00000   0.00026   0.00000
 176       59G+2        0.00000   0.00000  -0.00002   0.00000  -0.00000
 177       59G-2        0.00000  -0.00001   0.00000   0.00000   0.00000
 178       59G+3       -0.00001   0.00000   0.00000   0.00000   0.00000
 179       59G-3        0.00000   0.00000   0.00000   0.00000   0.00000
 180       59G+4        0.00000   0.00000   0.00000   0.00000  -0.00000
 181       59G-4        0.00000   0.00000   0.00000   0.00000   0.00000
 182       60G 0        0.00000   0.00000   0.00003   0.00000   0.00051
 183       60G+1        0.00043   0.00000   0.00000   0.00000   0.00000
 184       60G-1        0.00000   0.00000   0.00000  -0.00109   0.00000
 185       60G+2        0.00000   0.00000   0.00019   0.00000  -0.00003
 186       60G-2        0.00000   0.00019   0.00000   0.00000   0.00000
 187       60G+3        0.00015   0.00000   0.00000   0.00000   0.00000
 188       60G-3        0.00000   0.00000   0.00000   0.00003   0.00000
 189       60G+4        0.00000   0.00000   0.00015   0.00000  -0.00000
 190       60G-4        0.00000   0.00015   0.00000   0.00000   0.00000
 191 2   O  1S          0.00000   0.00000   0.00000   0.00000   0.00000
 192        2S          0.00000   0.00000  -0.00000   0.00000  -0.00000
 193        3S          0.00000   0.00000   0.00000   0.00000   0.00000
 194        4S          0.00000   0.00000  -0.00000   0.00000  -0.00002
 195        5S          0.00000   0.00000   0.00003   0.00000   0.00024
 196        6S          0.00000   0.00000   0.00048   0.00000   0.00379
 197        7S          0.00000   0.00000   0.00134   0.00000   0.01214
 198        8S          0.00000   0.00000  -0.00369   0.00000  -0.04862
 199        9S          0.00000   0.00000  -0.00124   0.00000  -0.01256
 200       10S          0.00000   0.00000  -0.00532   0.00000  -0.01531
 201       11S          0.00000   0.00000  -0.00026   0.00000  -0.00048
 202       12S          0.00000   0.00000  -0.00042   0.00000  -0.00353
 203       13S          0.00000   0.00000  -0.00160   0.00000   0.03938
 204       14PX        -0.00059   0.00000   0.00000   0.00000   0.00000
 205       14PY         0.00000   0.00000   0.00000   0.00796   0.00000
 206       14PZ         0.00000   0.00000   0.00024   0.00000   0.00657
 207       15PX        -0.00569   0.00000   0.00000   0.00000   0.00000
 208       15PY         0.00000   0.00000   0.00000   0.08306   0.00000
 209       15PZ         0.00000   0.00000   0.00249   0.00000   0.06827
 210       16PX        -0.01677   0.00000   0.00000   0.00000   0.00000
 211       16PY         0.00000   0.00000   0.00000   0.26853   0.00000
 212       16PZ         0.00000   0.00000   0.00801   0.00000   0.21945
 213       17PX        -0.03035   0.00000   0.00000   0.00000   0.00000
 214       17PY         0.00000   0.00000   0.00000   0.42152   0.00000
 215       17PZ         0.00000   0.00000   0.01270   0.00000   0.34904
 216       18PX        -0.00567   0.00000   0.00000   0.00000   0.00000
 217       18PY         0.00000   0.00000   0.00000   0.36794   0.00000
 218       18PZ         0.00000   0.00000   0.00904   0.00000   0.31366
 219       19PX        -0.00017   0.00000   0.00000   0.00000   0.00000
 220       19PY         0.00000   0.00000   0.00000   0.00468   0.00000
 221       19PZ         0.00000   0.00000   0.00014   0.00000   0.00376
 222       20PX         0.00016   0.00000   0.00000   0.00000   0.00000
 223       20PY         0.00000   0.00000   0.00000  -0.00210   0.00000
 224       20PZ         0.00000   0.00000  -0.00006   0.00000  -0.00173
 225       21PX         0.00468   0.00000   0.00000   0.00000   0.00000
 226       21PY         0.00000   0.00000   0.00000   0.06963   0.00000
 227       21PZ         0.00000   0.00000   0.00094   0.00000   0.06388
 228       22D 0        0.00000   0.00000   0.00022   0.00000   0.00198
 229       22D+1       -0.00165   0.00000   0.00000   0.00000   0.00000
 230       22D-1        0.00000   0.00000   0.00000   0.00185   0.00000
 231       22D+2        0.00000   0.00000   0.00028   0.00000  -0.00008
 232       22D-2        0.00000   0.00028   0.00000   0.00000   0.00000
 233       23D 0        0.00000   0.00000   0.00072   0.00000   0.00839
 234       23D+1       -0.00798   0.00000   0.00000   0.00000   0.00000
 235       23D-1        0.00000   0.00000   0.00000   0.00918   0.00000
 236       23D+2        0.00000   0.00000   0.00200   0.00000  -0.00033
 237       23D-2        0.00000   0.00200   0.00000   0.00000   0.00000
 238       24D 0        0.00000   0.00000   0.00001   0.00000   0.00011
 239       24D+1       -0.00010   0.00000   0.00000   0.00000   0.00000
 240       24D-1        0.00000   0.00000   0.00000   0.00012   0.00000
 241       24D+2        0.00000   0.00000   0.00002   0.00000   0.00000
 242       24D-2        0.00000   0.00002   0.00000   0.00000   0.00000
 243       25D 0        0.00000   0.00000   0.00076   0.00000   0.01590
 244       25D+1        0.00182   0.00000   0.00000   0.00000   0.00000
 245       25D-1        0.00000   0.00000   0.00000   0.02041   0.00000
 246       25D+2        0.00000   0.00000  -0.00172   0.00000   0.00017
 247       25D-2        0.00000  -0.00175   0.00000   0.00000   0.00000
 248       26F 0        0.00000   0.00000   0.00005   0.00000  -0.00017
 249       26F+1       -0.00088   0.00000   0.00000   0.00000   0.00000
 250       26F-1        0.00000   0.00000   0.00000   0.00008   0.00000
 251       26F+2        0.00000   0.00000   0.00046   0.00000   0.00129
 252       26F-2        0.00000   0.00041   0.00000   0.00000   0.00000
 253       26F+3       -0.00010   0.00000   0.00000   0.00000   0.00000
 254       26F-3        0.00000   0.00000   0.00000   0.00196   0.00000
 255       27F 0        0.00000   0.00000   0.00014   0.00000   0.00064
 256       27F+1       -0.00219   0.00000   0.00000   0.00000   0.00000
 257       27F-1        0.00000   0.00000   0.00000   0.00407   0.00000
 258       27F+2        0.00000   0.00000   0.00035   0.00000   0.00183
 259       27F-2        0.00000   0.00028   0.00000   0.00000   0.00000
 260       27F+3       -0.00031   0.00000   0.00000   0.00000   0.00000
 261       27F-3        0.00000   0.00000   0.00000   0.00261   0.00000
                          13        14        15        16        17
                           O         V         V         V         V
     Eigenvalues --    -0.40660  -0.01457   0.02790   0.02947   0.03920
   1 1   Cu 1S          0.00000   0.00000   0.00000   0.00000   0.00000
   2        2S          0.00000  -0.00000   0.00000   0.00000  -0.00000
   3        3S          0.00000   0.00000   0.00000   0.00000   0.00000
   4        4S          0.00000  -0.00000   0.00000   0.00000  -0.00000
   5        5S          0.00000   0.00000   0.00000   0.00000   0.00000
   6        6S          0.00000  -0.00000   0.00000   0.00000  -0.00000
   7        7S          0.00000   0.00001   0.00000   0.00000   0.00000
   8        8S          0.00000  -0.00003   0.00000   0.00000  -0.00001
   9        9S          0.00000   0.00010   0.00000   0.00000   0.00002
  10       10S          0.00000  -0.00031   0.00000   0.00000  -0.00004
  11       11S          0.00000   0.00107   0.00000   0.00000  -0.00006
  12       12S          0.00000  -0.00445   0.00000   0.00000   0.00105
  13       13S          0.00000   0.00149   0.00000   0.00000   0.00607
  14       14S          0.00000   0.04071   0.00000   0.00000  -0.06886
  15       15S          0.00000  -0.02190   0.00000   0.00000  -0.11424
  16       16S          0.00000  -0.03094   0.00000   0.00000   0.42288
  17       17S          0.00000  -0.05444   0.00000   0.00000   0.14725
  18       18S          0.00000  -0.03615   0.00000   0.00000  -0.20725
[...]
  42       30PX        -0.00069  -0.00035  -0.00035  -0.00000
  43       30PY        -0.00070  -0.00035  -0.00035   0.00000
  44       30PZ        -0.00071  -0.00035  -0.00035   0.00000
  45       31PX        -0.01064  -0.00532  -0.00532  -0.00001
  46       31PY        -0.01066  -0.00533  -0.00533   0.00000
  47       31PZ        -0.01078  -0.00539  -0.00539   0.00000
  48       32PX         0.02998   0.01500   0.01498   0.00002
  49       32PY         0.03002   0.01501   0.01501   0.00000
  50       32PZ         0.03024   0.01512   0.01512  -0.00000
  51       33PX         0.29267   0.14642   0.14625   0.00018
  52       33PY         0.29309   0.14654   0.14654  -0.00000
  53       33PZ         0.29554   0.14777   0.14777  -0.00000
  54       34PX         0.47937   0.23979   0.23958   0.00021
  55       34PY         0.48021   0.24010   0.24010  -0.00000
  56       34PZ         0.48610   0.24305   0.24305  -0.00000
  57       35PX         0.53792   0.26900   0.26892   0.00009
  58       35PY         0.53950   0.26975   0.26975  -0.00000
  59       35PZ         0.55138   0.27569   0.27569  -0.00000
  60       36PX         0.49847   0.24909   0.24938  -0.00029
  61       36PY         0.49746   0.24873   0.24873   0.00000
  62       36PZ         0.49075   0.24538   0.24538  -0.00000
  63       37PX         0.04746   0.02463   0.02283   0.00179
  64       37PY         0.05127   0.02563   0.02563  -0.00000
  65       37PZ         0.06512   0.03256   0.03256   0.00000
  66       38PX         0.00456   0.00478  -0.00022   0.00501
  67       38PY         0.02441   0.01221   0.01221  -0.00000
  68       38PZ         0.00314   0.00157   0.00157  -0.00000
  69       39PX         0.00177   0.00168   0.00009   0.00158
  70       39PY         0.00613   0.00307   0.00307  -0.00000
  71       39PZ        -0.00049  -0.00024  -0.00024   0.00000
  72       40PX        -0.25074  -0.12544  -0.12530  -0.00015
  73       40PY        -0.25107  -0.12554  -0.12554   0.00000
  74       40PZ        -0.25314  -0.12657  -0.12657   0.00000
  75       41PX         0.37907   0.18962   0.18945   0.00017
  76       41PY         0.37831   0.18916   0.18916  -0.00000
  77       41PZ         0.37327   0.18664   0.18664  -0.00000
  78       42PX        -0.00026  -0.00026  -0.00001  -0.00025
  79       42PY        -0.00100  -0.00050  -0.00050   0.00000
  80       42PZ        -0.00056  -0.00028  -0.00028   0.00000
  81       43D 0       -0.00002  -0.00001  -0.00001   0.00000
  82       43D+1       -0.00002  -0.00001  -0.00001  -0.00000
  83       43D-1       -0.00002  -0.00001  -0.00001   0.00000
  84       43D+2       -0.00002  -0.00001  -0.00001   0.00000
  85       43D-2       -0.00002  -0.00001  -0.00001   0.00000
  86       44D 0        0.00129   0.00065   0.00065  -0.00000
  87       44D+1        0.00137   0.00069   0.00068   0.00001
  88       44D-1        0.00139   0.00069   0.00069   0.00000
  89       44D+2        0.00137   0.00069   0.00069  -0.00000
  90       44D-2        0.00137   0.00069   0.00069  -0.00000
  91       45D 0        0.06657   0.03328   0.03328  -0.00000
  92       45D+1        0.07033   0.03546   0.03487   0.00059
  93       45D-1        0.07132   0.03566   0.03566  -0.00000
  94       45D+2        0.07071   0.03535   0.03535  -0.00000
  95       45D-2        0.07071   0.03535   0.03535  -0.00000
  96       46D 0        0.20977   0.10488   0.10488  -0.00000
  97       46D+1        0.22263   0.11219   0.11044   0.00175
  98       46D-1        0.22539   0.11269   0.11269  -0.00000
  99       46D+2        0.22398   0.11199   0.11199  -0.00000
 100       46D-2        0.22399   0.11199   0.11199  -0.00000
 101       47D 0        0.24151   0.12076   0.12076  -0.00000
 102       47D+1        0.25724   0.12963   0.12762   0.00201
 103       47D-1        0.26026   0.13013   0.13013  -0.00000
 104       47D+2        0.25850   0.12925   0.12925  -0.00000
 105       47D-2        0.25851   0.12925   0.12925  -0.00000
 106       48D 0        0.58638   0.29319   0.29319  -0.00000
 107       48D+1        0.61245   0.30822   0.30423   0.00399
 108       48D-1        0.61751   0.30875   0.30875  -0.00000
 109       48D+2        0.61429   0.30715   0.30715  -0.00000
 110       48D-2        0.61430   0.30715   0.30715  -0.00000
 111       49D 0        0.37947   0.18973   0.18973  -0.00000
 112       49D+1        0.38641   0.19279   0.19362  -0.00084
 113       49D-1        0.38222   0.19111   0.19111  -0.00000
 114       49D+2        0.38785   0.19392   0.19392  -0.00000
 115       49D-2        0.38785   0.19392   0.19392  -0.00000
 116       50D 0        0.09282   0.04641   0.04641  -0.00000
 117       50D+1        0.09706   0.04565   0.05141  -0.00576
 118       50D-1        0.09031   0.04515   0.04515  -0.00000
 119       50D+2        0.09705   0.04853   0.04853  -0.00000
 120       50D-2        0.09704   0.04852   0.04852  -0.00000
 121       51D 0        0.05546   0.02773   0.02773  -0.00000
 122       51D+1        0.05720   0.02890   0.02830   0.00060
 123       51D-1        0.05829   0.02914   0.02914  -0.00000
 124       51D+2        0.05731   0.02865   0.02865   0.00000
 125       51D-2        0.05731   0.02865   0.02865  -0.00000
 126       52D 0        0.27265   0.13633   0.13633  -0.00000
 127       52D+1        0.28521   0.14371   0.14150   0.00221
 128       52D-1        0.28853   0.14427   0.14427  -0.00000
 129       52D+2        0.28664   0.14332   0.14332  -0.00000
 130       52D-2        0.28664   0.14332   0.14332  -0.00000
 131       53D 0        0.00836   0.00418   0.00418   0.00000
 132       53D+1        0.00299   0.00158   0.00141   0.00017
 133       53D-1        0.00352   0.00176   0.00176  -0.00000
 134       53D+2        0.00232   0.00116   0.00116  -0.00000
 135       53D-2        0.00232   0.00116   0.00116   0.00000
 136       54F 0        0.00000   0.00000   0.00000  -0.00000
 137       54F+1        0.00000   0.00000   0.00000   0.00000
 138       54F-1        0.00000   0.00000   0.00000  -0.00000
 139       54F+2        0.00000   0.00000   0.00000  -0.00000
 140       54F-2        0.00000   0.00000   0.00000   0.00000
 141       54F+3        0.00000   0.00000   0.00000  -0.00000
 142       54F-3        0.00000   0.00000   0.00000  -0.00000
 143       55F 0        0.00002   0.00001   0.00001   0.00000
 144       55F+1        0.00001   0.00001   0.00000   0.00000
 145       55F-1        0.00002   0.00001   0.00001   0.00000
 146       55F+2        0.00001   0.00000   0.00000  -0.00000
 147       55F-2        0.00001   0.00000   0.00000  -0.00000
 148       55F+3        0.00000   0.00000   0.00000   0.00000
 149       55F-3        0.00000   0.00000   0.00000  -0.00000
 150       56F 0        0.00043   0.00022   0.00022  -0.00000
 151       56F+1        0.00010   0.00008   0.00001   0.00007
 152       56F-1        0.00017   0.00009   0.00009  -0.00000
 153       56F+2        0.00002   0.00001   0.00001  -0.00000
 154       56F-2        0.00002   0.00001   0.00001  -0.00000
 155       56F+3        0.00000   0.00000   0.00000  -0.00000
 156       56F-3        0.00000   0.00000   0.00000  -0.00000
 157       57F 0        0.00380   0.00190   0.00190  -0.00000
 158       57F+1        0.00113   0.00114  -0.00002   0.00116
 159       57F-1        0.00278   0.00139   0.00139  -0.00000
 160       57F+2        0.00010   0.00005   0.00005  -0.00000
 161       57F-2        0.00010   0.00005   0.00005  -0.00000
 162       57F+3        0.00000   0.00000   0.00000   0.00000
 163       57F-3        0.00000   0.00000   0.00000  -0.00000
 164       58G 0        0.00000   0.00000   0.00000  -0.00000
 165       58G+1        0.00000   0.00000   0.00000   0.00000
 166       58G-1        0.00000   0.00000   0.00000  -0.00000
 167       58G+2        0.00000   0.00000   0.00000  -0.00000
 168       58G-2        0.00000   0.00000   0.00000   0.00000
 169       58G+3        0.00000   0.00000   0.00000   0.00000
 170       58G-3        0.00000   0.00000   0.00000   0.00000
 171       58G+4        0.00000   0.00000   0.00000  -0.00000
 172       58G-4        0.00000   0.00000   0.00000  -0.00000
 173       59G 0       -0.00000  -0.00000  -0.00000   0.00000
 174       59G+1       -0.00000  -0.00000  -0.00000  -0.00000
 175       59G-1       -0.00000  -0.00000  -0.00000   0.00000
 176       59G+2       -0.00000  -0.00000  -0.00000   0.00000
 177       59G-2       -0.00000  -0.00000  -0.00000   0.00000
 178       59G+3       -0.00000  -0.00000  -0.00000  -0.00000
 179       59G-3       -0.00000  -0.00000  -0.00000  -0.00000
 180       59G+4        0.00000   0.00000   0.00000  -0.00000
 181       59G-4        0.00000   0.00000   0.00000  -0.00000
 182       60G 0        0.00007   0.00003   0.00003  -0.00000
 183       60G+1        0.00002   0.00002   0.00000   0.00002
 184       60G-1        0.00004   0.00002   0.00002  -0.00000
 185       60G+2        0.00000   0.00000   0.00000  -0.00000
 186       60G-2        0.00000   0.00000   0.00000  -0.00000
 187       60G+3        0.00000   0.00000   0.00000   0.00000
 188       60G-3        0.00000   0.00000   0.00000  -0.00000
 189       60G+4        0.00000   0.00000   0.00000  -0.00000
 190       60G-4        0.00000   0.00000   0.00000  -0.00000
 191 2   O  1S         -0.00000  -0.00000  -0.00000   0.00000
 192        2S          0.00000   0.00000   0.00000   0.00000
 193        3S         -0.00000  -0.00000  -0.00000   0.00000
 194        4S          0.00001   0.00000   0.00000  -0.00000
 195        5S         -0.00024  -0.00012  -0.00012   0.00000
 196        6S         -0.01104  -0.00552  -0.00552   0.00000
 197        7S         -0.10127  -0.05063  -0.05063   0.00000
 198        8S          1.09663   0.54831   0.54831  -0.00000
 199        9S          0.23456   0.11728   0.11728  -0.00000
 200       10S          0.74122   0.37061   0.37061   0.00000
 201       11S         -0.00174  -0.00087  -0.00087   0.00000
 202       12S          0.00831   0.00416   0.00416  -0.00000
 203       13S          0.05430   0.02715   0.02715  -0.00000
 204       14PX         0.00114   0.00114   0.00000   0.00113
 205       14PY         0.00209   0.00104   0.00104  -0.00000
 206       14PZ         0.00185   0.00093   0.00093  -0.00000
 207       15PX         0.03843   0.03828   0.00015   0.03812
 208       15PY         0.07014   0.03507   0.03507   0.00000
 209       15PZ         0.06235   0.03117   0.03117  -0.00000
 210       16PX         0.22704   0.22612   0.00092   0.22520
 211       16PY         0.41205   0.20603   0.20603  -0.00000
 212       16PZ         0.36817   0.18408   0.18408  -0.00000
 213       17PX         0.44324   0.44022   0.00302   0.43720
 214       17PY         0.81393   0.40696   0.40696  -0.00000
 215       17PZ         0.75598   0.37799   0.37799  -0.00000
 216       18PX         0.27068   0.26979   0.00089   0.26891
 217       18PY         0.59829   0.29914   0.29914  -0.00000
 218       18PZ         0.56732   0.28366   0.28366  -0.00000
 219       19PX         0.00137   0.00136   0.00000   0.00136
 220       19PY         0.00244   0.00122   0.00122   0.00000
 221       19PZ         0.00213   0.00106   0.00106  -0.00000
 222       20PX        -0.00018  -0.00018  -0.00000  -0.00018
 223       20PY        -0.00033  -0.00017  -0.00017   0.00000
 224       20PZ        -0.00030  -0.00015  -0.00015   0.00000
 225       21PX         0.01270   0.01300  -0.00031   0.01331
 226       21PY         0.05980   0.02990   0.02990  -0.00000
 227       21PZ         0.06702   0.03351   0.03351  -0.00000
 228       22D 0        0.00024   0.00012   0.00012  -0.00000
 229       22D+1        0.00008   0.00005   0.00003   0.00002
 230       22D-1        0.00010   0.00005   0.00005  -0.00000
 231       22D+2        0.00000   0.00000   0.00000  -0.00000
 232       22D-2        0.00000   0.00000   0.00000  -0.00000
 233       23D 0        0.00330   0.00165   0.00165  -0.00000
 234       23D+1        0.00183   0.00101   0.00082   0.00020
 235       23D-1        0.00200   0.00100   0.00100  -0.00000
 236       23D+2        0.00010   0.00005   0.00005  -0.00000
 237       23D-2        0.00009   0.00005   0.00005  -0.00000
 238       24D 0        0.00000   0.00000   0.00000   0.00000
 239       24D+1        0.00000   0.00000   0.00000   0.00000
 240       24D-1        0.00000   0.00000   0.00000  -0.00000
 241       24D+2        0.00000   0.00000   0.00000  -0.00000
 242       24D-2        0.00000   0.00000   0.00000  -0.00000
 243       25D 0        0.00124   0.00062   0.00062  -0.00000
 244       25D+1       -0.00030   0.00002  -0.00032   0.00034
 245       25D-1        0.00010   0.00005   0.00005  -0.00000
 246       25D+2       -0.00026  -0.00013  -0.00013   0.00000
 247       25D-2       -0.00029  -0.00015  -0.00015   0.00000
 248       26F 0        0.00009   0.00004   0.00004   0.00000
 249       26F+1        0.00006   0.00004   0.00003   0.00001
 250       26F-1        0.00006   0.00003   0.00003  -0.00000
 251       26F+2        0.00002   0.00001   0.00001  -0.00000
 252       26F-2        0.00001   0.00000   0.00000  -0.00000
 253       26F+3        0.00004   0.00004   0.00000   0.00004
 254       26F-3        0.00001   0.00001   0.00001  -0.00000
 255       27F 0        0.00055   0.00028   0.00028  -0.00000
 256       27F+1        0.00068   0.00033   0.00035  -0.00002
 257       27F-1        0.00052   0.00026   0.00026  -0.00000
 258       27F+2        0.00005   0.00003   0.00003   0.00000
 259       27F-2        0.00004   0.00002   0.00002  -0.00000
 260       27F+3        0.00004   0.00004   0.00000   0.00004
 261       27F-3        0.00002   0.00001   0.00001  -0.00000
          Condensed to atoms (all electrons):
               1          2
     1  Cu  18.096238   0.095259
     2  O    0.095259   6.713244
          Atomic-Atomic Spin Densities.
               1          2
     1  Cu   0.018045  -0.003713
     2  O   -0.003713   0.989381
 Mulliken charges and spin densities:
               1          2
     1  Cu   0.808503   0.014332
     2  O   -0.808503   0.985668
 Sum of Mulliken charges =   0.00000   1.00000
 Mulliken charges and spin densities with hydrogens summed into heavy atoms:
               1          2
     1  Cu   0.808503   0.014332
     2  O   -0.808503   0.985668
 Electronic spatial extent (au):  <R**2>=             92.7078
 Charge=             -0.0000 electrons
 Dipole moment (field-independent basis, Debye):
    X=              0.0000    Y=              0.0000    Z=              6.0078  Tot=              6.0078
 Quadrupole moment (field-independent basis, Debye-Ang):
   XX=            -15.5074   YY=            -17.0742   ZZ=            -20.9291
   XY=              0.0000   XZ=              0.0000   YZ=              0.0000
 Traceless Quadrupole moment (field-independent basis, Debye-Ang):
   XX=              2.3295   YY=              0.7627   ZZ=             -3.0922
   XY=              0.0000   XZ=              0.0000   YZ=              0.0000
 Octapole moment (field-independent basis, Debye-Ang**2):
  XXX=              0.0000  YYY=              0.0000  ZZZ=             26.8080  XYY=              0.0000
  XXY=              0.0000  XXZ=              4.4201  XZZ=              0.0000  YZZ=              0.0000
  YYZ=              6.4211  XYZ=              0.0000
 Hexadecapole moment (field-independent basis, Debye-Ang**3):
 XXXX=            -12.4826 YYYY=            -15.8445 ZZZZ=           -109.5217 XXXY=              0.0000
 XXXZ=              0.0000 YYYX=              0.0000 YYYZ=              0.0000 ZZZX=              0.0000
 ZZZY=              0.0000 XXYY=             -4.7216 XXZZ=            -16.5412 YYZZ=            -19.9126
 XXYZ=              0.0000 YYXZ=              0.0000 ZZXY=              0.0000
 N-N= 3.351455669160D+01 E-N=-5.911449656386D+02  KE= 1.412260383728D+02
 Symmetry A1   KE= 5.837865565909D+01
 Symmetry A2   KE= 1.850522592729D+01
 Symmetry B1   KE= 3.107700593939D+01
 Symmetry B2   KE= 3.326515084679D+01
 Symmetry A1   SP=-1.744160810053D-15
 Symmetry A2   SP=-2.340264426607D-16
 Symmetry B1   SP= 1.000000000000D+00
 Symmetry B2   SP=-7.018935280877D-16
 Orbital energies and kinetic energies (alpha):
                                 1                 2
   8         O                -0.534169          9.143264
   9         O                -0.520070          9.252613
  10         O                -0.520062          9.245611
  11         O                -0.480695          3.136678
  12         O                -0.415780          3.800394
  13         O                -0.406602          2.474487
  14         V                -0.014572          0.267926
  15         V                 0.027904          0.056185
  16         V                 0.029471          0.065220
  17         V                 0.039197          0.159238
  18         V                 0.046088          0.142610
 Total kinetic energy from orbitals= 1.437005250116D+02
                          Isotropic Fermi Contact Couplings
        Atom                 a.u.       MegaHertz       Gauss      10(-4) cm-1
     1  Cu(63)            -0.00000      -0.00000      -0.00000      -0.00000
     2  O(17)             -0.00000       0.00000       0.00000       0.00000
 --------------------------------------------------------
       Center         ----  Spin Dipole Couplings  ----
                      3XX-RR        3YY-RR        3ZZ-RR
 --------------------------------------------------------
     1   Atom        0.020007     -0.087769      0.067762
     2   Atom        3.269067     -1.636494     -1.632573
 --------------------------------------------------------
                        XY            XZ            YZ
 --------------------------------------------------------
     1   Atom        0.000000      0.000000      0.000000
     2   Atom        0.000000      0.000000      0.000000
 --------------------------------------------------------


 ---------------------------------------------------------------------------------
              Anisotropic Spin Dipole Couplings in Principal Axis System
 ---------------------------------------------------------------------------------

       Atom             a.u.   MegaHertz   Gauss  10(-4) cm-1        Axes

              Baa    -0.0878   -12.426    -4.434    -4.145 -0.0000  1.0000  0.0000
     1 Cu(63) Bbb     0.0200     2.833     1.011     0.945  1.0000  0.0000  0.0000
              Bcc     0.0678     9.594     3.423     3.200  0.0000  0.0000  1.0000
 
              Baa    -1.6365   118.416    42.254    39.499 -0.0000  1.0000  0.0000
     2 O(17)  Bbb    -1.6326   118.132    42.152    39.405  0.0000  0.0000  1.0000
              Bcc     3.2691  -236.547   -84.406   -78.904  1.0000  0.0000  0.0000
 

 ---------------------------------------------------------------------------------

 No NMR shielding tensors so no spin-rotation constants.
 Leave Link  601 at Mon Mar 26 10:32:19 2018, MaxMem= 10737418240 cpu:             114.3 elap:               3.7
 (Enter /home1/apps/gaussian/16rA.03/g16/l9999.exe)

 Test job not archived.
 1\1\GINC-C427-084\SP\ROCCSD(T)-Full\Gen\Cu1O1(2)\GWANG18\26-Mar-2018\0
 \\#P ROCCSD(T)=(MaxCyc=150, Full)/Gen SCF=(maxcycle=400) Pseudo=Read I
 ntegral(NoXCTest) Pop=Regular MaxDisk=500GB Guess=Read IOp(5/15=2)\\Cu
 O\\0,2\Cu,0,0.,0.,0.\O,0,0.,0.,1.8\\Version=ES64L-G16RevA.03\HF=-211.6
 927469\MP2=-212.980149\MP3=-212.7801366\PUHF=-211.6927469\PMP2-0=-212.
 980149\MP4SDQ=-212.9433105\CCSD=-212.868617\CCSD(T)=-212.9135238\RMSD=
 7.005e-09\PG=C*V [C*(O1Cu1)]\\@


 NO SCIENCE HAS EVER MADE MORE RAPID PROGRESS IN A
 SHORTER TIME THAN CHEMISTRY.
   -- MARTIN HEINRICH KLOPROTH, 1791
 (FIRST PROFESSOR OF CHEMISTRY AT THE UNIVERSITY OF BERLIN)
 Job cpu time:       1 days  1 hours 19 minutes 22.1 seconds.
 Elapsed time:       0 days  0 hours 47 minutes 48.3 seconds.
 File lengths (MBytes):  RWF=   4951 Int=      0 D2E=      0 Chk=      8 Scr=      1
 Normal termination of Gaussian 16 at Mon Mar 26 10:32:19 2018.
