 Entering Gaussian System, Link 0=g16
 Initial command:
 /home1/apps/gaussian/16rA.03/g16/l1.exe "/tmp/Gau-168329.inp" -scrdir="/tmp/"
 Entering Link 1 = /home1/apps/gaussian/16rA.03/g16/l1.exe PID=    168330.
  
 Copyright (c) 1988,1990,1992,1993,1995,1998,2003,2009,2016,
            Gaussian, Inc.  All Rights Reserved.
  
 This is part of the Gaussian(R) 16 program.  It is based on
 the Gaussian(R) 09 system (copyright 2009, Gaussian, Inc.),
 the Gaussian(R) 03 system (copyright 2003, Gaussian, Inc.),
 the Gaussian(R) 98 system (copyright 1998, Gaussian, Inc.),
 the Gaussian(R) 94 system (copyright 1995, Gaussian, Inc.),
 the Gaussian 92(TM) system (copyright 1992, Gaussian, Inc.),
 the Gaussian 90(TM) system (copyright 1990, Gaussian, Inc.),
 the Gaussian 88(TM) system (copyright 1988, Gaussian, Inc.),
 the Gaussian 86(TM) system (copyright 1986, Carnegie Mellon
 University), and the Gaussian 82(TM) system (copyright 1983,
 Carnegie Mellon University). Gaussian is a federally registered
 trademark of Gaussian, Inc.
  
 This software contains proprietary and confidential information,
 including trade secrets, belonging to Gaussian, Inc.
  
 This software is provided under written license and may be
 used, copied, transmitted, or stored only in accord with that
 written license.
  
 The following legend is applicable only to US Government
 contracts under FAR:
  
                    RESTRICTED RIGHTS LEGEND
  
 Use, reproduction and disclosure by the US Government is
 subject to restrictions as set forth in subparagraphs (a)
 and (c) of the Commercial Computer Software - Restricted
 Rights clause in FAR 52.227-19.
  
 Gaussian, Inc.
 340 Quinnipiac St., Bldg. 40, Wallingford CT 06492
  
  
 ---------------------------------------------------------------
 Warning -- This program may not be used in any manner that
 competes with the business of Gaussian, Inc. or will provide
 assistance to any competitor of Gaussian, Inc.  The licensee
 of this program is prohibited from giving any competitor of
 Gaussian, Inc. access to this program.  By using this program,
 the user acknowledges that Gaussian, Inc. is engaged in the
 business of creating and licensing software in the field of
 computational chemistry and represents and warrants to the
 licensee that it is not a competitor of Gaussian, Inc. and that
 it will not use this program in any manner prohibited above.
 ---------------------------------------------------------------
  

 Cite this work as:
 Gaussian 16, Revision A.03,
 M. J. Frisch, G. W. Trucks, H. B. Schlegel, G. E. Scuseria, 
 M. A. Robb, J. R. Cheeseman, G. Scalmani, V. Barone, 
 G. A. Petersson, H. Nakatsuji, X. Li, M. Caricato, A. V. Marenich, 
 J. Bloino, B. G. Janesko, R. Gomperts, B. Mennucci, H. P. Hratchian, 
 J. V. Ortiz, A. F. Izmaylov, J. L. Sonnenberg, D. Williams-Young, 
 F. Ding, F. Lipparini, F. Egidi, J. Goings, B. Peng, A. Petrone, 
 T. Henderson, D. Ranasinghe, V. G. Zakrzewski, J. Gao, N. Rega, 
 G. Zheng, W. Liang, M. Hada, M. Ehara, K. Toyota, R. Fukuda, 
 J. Hasegawa, M. Ishida, T. Nakajima, Y. Honda, O. Kitao, H. Nakai, 
 T. Vreven, K. Throssell, J. A. Montgomery, Jr., J. E. Peralta, 
 F. Ogliaro, M. J. Bearpark, J. J. Heyd, E. N. Brothers, K. N. Kudin, 
 V. N. Staroverov, T. A. Keith, R. Kobayashi, J. Normand, 
 K. Raghavachari, A. P. Rendell, J. C. Burant, S. S. Iyengar, 
 J. Tomasi, M. Cossi, J. M. Millam, M. Klene, C. Adamo, R. Cammi, 
 J. W. Ochterski, R. L. Martin, K. Morokuma, O. Farkas, 
 J. B. Foresman, and D. J. Fox, Gaussian, Inc., Wallingford CT, 2016.
 
 ******************************************
 Gaussian 16:  ES64L-G16RevA.03 25-Dec-2016
                 7-Mar-2018 
 ******************************************
 %MEM=160GB
 %CPU=0-31
 SetSPE:  set environment variable "MP_BIND" = "yes"
 SetSPE:  set environment variable "MP_BLIST" = "0,1,2,3,4,5,6,7,8,9,10,11,12,13,14,15,16,17,18,19,20,21,22,23,24,25,26,27,28,29,30,31"
 Will use up to   32 processors via shared memory.
 %RWF=/scratch/04843/aannabe/gaussian/
 %Int=/scratch/04843/aannabe/gaussian/
 %D2E=/scratch/04843/aannabe/gaussian/
 %NoSave
 %CHK=MnO
 ----------------------------------------------------------------------
 #P ROCCSD(T)=(maxcyc=150, Full, SaveAmplitudes, ReadAmplitudes)/Gen 5d
  7f SCF=(maxcycles=300) Integral(NoXCTest, DKHSO) MaxDisk=500GB Pop=Re
 gular Guess=Read IOp(5/15=2)
 ----------------------------------------------------------------------
 1/38=1,172=1/1;
 2/12=2,17=6,18=5,40=1/2;
 3/5=7,8=11,11=2,25=1,30=1,47=8,91=5,116=101/1,2,3;
 4/5=1/1;
 5/5=2,7=300,15=2,38=6/2;
 8/5=-1,6=4,9=120000,10=90,24=1/1,4;
 9/5=7,6=150,14=2,77=1/13;
 6//1;
 99/5=1,9=1/99;
 Leave Link    1 at Wed Mar  7 00:45:12 2018, MaxMem= 21474836480 cpu:               3.9 elap:               0.1
 (Enter /home1/apps/gaussian/16rA.03/g16/l101.exe)
 ---
 MnO
 ---
 Symbolic Z-matrix:
 Charge =  0 Multiplicity = 6
 Mn                    0.        0.        0. 
 O                     0.        0.        1.7 
 
 ITRead=  0  0
 MicOpt= -1 -1
 NAtoms=      2 NQM=        2 NQMF=       0 NMMI=      0 NMMIF=      0
                NMic=       0 NMicF=      0.
                    Isotopes and Nuclear Properties:
 (Nuclear quadrupole moments (NQMom) in fm**2, nuclear magnetic moments (NMagM)
  in nuclear magnetons)

  Atom         1           2
 IAtWgt=          55          16
 AtmWgt=  54.9380463  15.9949146
 NucSpn=           5           0
 AtZEff=  -0.0000000  -0.0000000
 NQMom=   33.0000000   0.0000000
 NMagM=    3.4532000   0.0000000
 AtZNuc=  25.0000000   8.0000000
 Leave Link  101 at Wed Mar  7 00:45:12 2018, MaxMem= 21474836480 cpu:               2.8 elap:               0.1
 (Enter /home1/apps/gaussian/16rA.03/g16/l202.exe)
                          Input orientation:                          
 ---------------------------------------------------------------------
 Center     Atomic      Atomic             Coordinates (Angstroms)
 Number     Number       Type             X           Y           Z
 ---------------------------------------------------------------------
      1         25           0        0.000000    0.000000    0.000000
      2          8           0        0.000000    0.000000    1.700000
 ---------------------------------------------------------------------
 Stoichiometry    MnO(6)
 Framework group  C*V[C*(OMn)]
 Deg. of freedom     1
 Full point group                 C*V     NOp   4
 Largest Abelian subgroup         C2V     NOp   4
 Largest concise Abelian subgroup C1      NOp   1
                         Standard orientation:                         
 ---------------------------------------------------------------------
 Center     Atomic      Atomic             Coordinates (Angstroms)
 Number     Number       Type             X           Y           Z
 ---------------------------------------------------------------------
      1         25           0        0.000000    0.000000    0.412121
      2          8           0        0.000000    0.000000   -1.287879
 ---------------------------------------------------------------------
 Rotational constants (GHZ):           0.0000000          14.1160214          14.1160214
 Leave Link  202 at Wed Mar  7 00:45:13 2018, MaxMem= 21474836480 cpu:               0.5 elap:               0.0
 (Enter /home1/apps/gaussian/16rA.03/g16/l301.exe)
 General basis read from cards:  (5D, 7F)
 Centers:       1
 S 1 1.00
     Exponent=  3.9608050000D+06 Coefficients=  1.0000000000D+00
 S 1 1.00
     Exponent=  5.9311550000D+05 Coefficients=  1.0000000000D+00
 S 1 1.00
     Exponent=  1.3497680000D+05 Coefficients=  1.0000000000D+00
 S 1 1.00
     Exponent=  3.8230670000D+04 Coefficients=  1.0000000000D+00
 S 1 1.00
     Exponent=  1.2471540000D+04 Coefficients=  1.0000000000D+00
 S 1 1.00
     Exponent=  4.5017430000D+03 Coefficients=  1.0000000000D+00
 S 1 1.00
     Exponent=  1.7552120000D+03 Coefficients=  1.0000000000D+00
 S 1 1.00
     Exponent=  7.2730390000D+02 Coefficients=  1.0000000000D+00
 S 1 1.00
     Exponent=  3.1636780000D+02 Coefficients=  1.0000000000D+00
 S 1 1.00
     Exponent=  1.4300980000D+02 Coefficients=  1.0000000000D+00
 S 1 1.00
     Exponent=  6.6218050000D+01 Coefficients=  1.0000000000D+00
 S 1 1.00
     Exponent=  2.9918960000D+01 Coefficients=  1.0000000000D+00
 S 1 1.00
     Exponent=  1.4303180000D+01 Coefficients=  1.0000000000D+00
 S 1 1.00
     Exponent=  6.8394510000D+00 Coefficients=  1.0000000000D+00
 S 1 1.00
     Exponent=  3.0123740000D+00 Coefficients=  1.0000000000D+00
 S 1 1.00
     Exponent=  1.4188080000D+00 Coefficients=  1.0000000000D+00
 S 1 1.00
     Exponent=  6.2362400000D-01 Coefficients=  1.0000000000D+00
 S 1 1.00
     Exponent=  1.3409800000D-01 Coefficients=  1.0000000000D+00
 S 1 1.00
     Exponent=  6.5548000000D-02 Coefficients=  1.0000000000D+00
 S 1 1.00
     Exponent=  2.9584000000D-02 Coefficients=  1.0000000000D+00
 S 1 1.00
     Exponent=  4.1714000000D+00 Coefficients=  1.0000000000D+00
 S 1 1.00
     Exponent=  1.0701000000D+00 Coefficients=  1.0000000000D+00
 S 1 1.00
     Exponent=  1.3350000000D-02 Coefficients=  1.0000000000D+00
 P 1 1.00
     Exponent=  1.6205860000D+04 Coefficients=  1.0000000000D+00
 P 1 1.00
     Exponent=  3.8362740000D+03 Coefficients=  1.0000000000D+00
 P 1 1.00
     Exponent=  1.2460480000D+03 Coefficients=  1.0000000000D+00
 P 1 1.00
     Exponent=  4.7675350000D+02 Coefficients=  1.0000000000D+00
 P 1 1.00
     Exponent=  2.0218950000D+02 Coefficients=  1.0000000000D+00
 P 1 1.00
     Exponent=  9.2094870000D+01 Coefficients=  1.0000000000D+00
 P 1 1.00
     Exponent=  4.4147200000D+01 Coefficients=  1.0000000000D+00
 P 1 1.00
     Exponent=  2.1854680000D+01 Coefficients=  1.0000000000D+00
 P 1 1.00
     Exponent=  1.1085960000D+01 Coefficients=  1.0000000000D+00
 P 1 1.00
     Exponent=  5.6741080000D+00 Coefficients=  1.0000000000D+00
 P 1 1.00
     Exponent=  2.8231700000D+00 Coefficients=  1.0000000000D+00
 P 1 1.00
     Exponent=  1.3686210000D+00 Coefficients=  1.0000000000D+00
 P 1 1.00
     Exponent=  6.4443100000D-01 Coefficients=  1.0000000000D+00
 P 1 1.00
     Exponent=  2.4834600000D-01 Coefficients=  1.0000000000D+00
 P 1 1.00
     Exponent=  9.7175000000D-02 Coefficients=  1.0000000000D+00
 P 1 1.00
     Exponent=  3.6565000000D-02 Coefficients=  1.0000000000D+00
 P 1 1.00
     Exponent=  6.0568000000D+00 Coefficients=  1.0000000000D+00
 P 1 1.00
     Exponent=  1.3911000000D+00 Coefficients=  1.0000000000D+00
 P 1 1.00
     Exponent=  1.3760000000D-02 Coefficients=  1.0000000000D+00
 D 1 1.00
     Exponent=  1.0190400000D+02 Coefficients=  1.0000000000D+00
 D 1 1.00
     Exponent=  3.0033700000D+01 Coefficients=  1.0000000000D+00
 D 1 1.00
     Exponent=  1.0923800000D+01 Coefficients=  1.0000000000D+00
 D 1 1.00
     Exponent=  4.3974000000D+00 Coefficients=  1.0000000000D+00
 D 1 1.00
     Exponent=  1.8159500000D+00 Coefficients=  1.0000000000D+00
 D 1 1.00
     Exponent=  7.2573100000D-01 Coefficients=  1.0000000000D+00
 D 1 1.00
     Exponent=  2.6996100000D-01 Coefficients=  1.0000000000D+00
 D 1 1.00
     Exponent=  8.7760000000D-02 Coefficients=  1.0000000000D+00
 D 1 1.00
     Exponent=  3.9511000000D+00 Coefficients=  1.0000000000D+00
 D 1 1.00
     Exponent=  1.8488000000D+00 Coefficients=  1.0000000000D+00
 D 1 1.00
     Exponent=  2.8530000000D-02 Coefficients=  1.0000000000D+00
 F 1 1.00
     Exponent=  5.1541000000D+00 Coefficients=  1.0000000000D+00
 F 1 1.00
     Exponent=  1.9044000000D+00 Coefficients=  1.0000000000D+00
 F 1 1.00
     Exponent=  6.4380000000D-01 Coefficients=  1.0000000000D+00
 F 1 1.00
     Exponent=  2.1764000000D-01 Coefficients=  1.0000000000D+00
 G 1 1.00
     Exponent=  4.7163000000D+00 Coefficients=  1.0000000000D+00
 G 1 1.00
     Exponent=  1.7022000000D+00 Coefficients=  1.0000000000D+00
 G 1 1.00
     Exponent=  6.1436000000D-01 Coefficients=  1.0000000000D+00
 ****
 Centers:       2
 S 1 1.00
     Exponent=  1.5330000000D+04 Coefficients=  1.0000000000D+00
 S 1 1.00
     Exponent=  2.2990000000D+03 Coefficients=  1.0000000000D+00
 S 1 1.00
     Exponent=  5.2240000000D+02 Coefficients=  1.0000000000D+00
 S 1 1.00
     Exponent=  1.4730000000D+02 Coefficients=  1.0000000000D+00
 S 1 1.00
     Exponent=  4.7550000000D+01 Coefficients=  1.0000000000D+00
 S 1 1.00
     Exponent=  1.6760000000D+01 Coefficients=  1.0000000000D+00
 S 1 1.00
     Exponent=  6.2070000000D+00 Coefficients=  1.0000000000D+00
 S 1 1.00
     Exponent=  6.8820000000D-01 Coefficients=  1.0000000000D+00
 S 1 1.00
     Exponent=  1.7520000000D+00 Coefficients=  1.0000000000D+00
 S 1 1.00
     Exponent=  2.3840000000D-01 Coefficients=  1.0000000000D+00
 S 1 1.00
     Exponent=  7.8450000000D+00 Coefficients=  1.0000000000D+00
 S 1 1.00
     Exponent=  2.1032000000D+01 Coefficients=  1.0000000000D+00
 S 1 1.00
     Exponent=  7.3760000000D-02 Coefficients=  1.0000000000D+00
 P 1 1.00
     Exponent=  3.4460000000D+01 Coefficients=  1.0000000000D+00
 P 1 1.00
     Exponent=  7.7490000000D+00 Coefficients=  1.0000000000D+00
 P 1 1.00
     Exponent=  2.2800000000D+00 Coefficients=  1.0000000000D+00
 P 1 1.00
     Exponent=  7.1560000000D-01 Coefficients=  1.0000000000D+00
 P 1 1.00
     Exponent=  2.1400000000D-01 Coefficients=  1.0000000000D+00
 P 1 1.00
     Exponent=  1.5159000000D+01 Coefficients=  1.0000000000D+00
 P 1 1.00
     Exponent=  5.7437000000D+01 Coefficients=  1.0000000000D+00
 P 1 1.00
     Exponent=  5.9740000000D-02 Coefficients=  1.0000000000D+00
 D 1 1.00
     Exponent=  2.3140000000D+00 Coefficients=  1.0000000000D+00
 D 1 1.00
     Exponent=  6.4500000000D-01 Coefficients=  1.0000000000D+00
 D 1 1.00
     Exponent=  1.5858000000D+01 Coefficients=  1.0000000000D+00
 D 1 1.00
     Exponent=  2.1400000000D-01 Coefficients=  1.0000000000D+00
 F 1 1.00
     Exponent=  1.4280000000D+00 Coefficients=  1.0000000000D+00
 F 1 1.00
     Exponent=  5.0000000000D-01 Coefficients=  1.0000000000D+00
 ****
 Ernie: Thresh=  0.10000D-02 Tol=  0.10000D-05 Strict=F.
 There are   144 symmetry adapted cartesian basis functions of A1  symmetry.
 There are    30 symmetry adapted cartesian basis functions of A2  symmetry.
 There are    69 symmetry adapted cartesian basis functions of B1  symmetry.
 There are    69 symmetry adapted cartesian basis functions of B2  symmetry.
 There are   114 symmetry adapted basis functions of A1  symmetry.
 There are    27 symmetry adapted basis functions of A2  symmetry.
 There are    60 symmetry adapted basis functions of B1  symmetry.
 There are    60 symmetry adapted basis functions of B2  symmetry.
   261 basis functions,   312 primitive gaussians,   312 cartesian basis functions
    19 alpha electrons       14 beta electrons
       nuclear repulsion energy        62.2561424612 Hartrees.
 IExCor=    0 DFT=F Ex=HF Corr=None ExCW=0 ScaHFX=  1.000000
 ScaDFX=  1.000000  1.000000  1.000000  1.000000 ScalE2=  1.000000  1.000000
 IRadAn=      5 IRanWt=     -1 IRanGd=            0 ICorTp=0 IEmpDi=  4
 NAtoms=    2 NActive=    2 NUniq=    2 SFac= 1.00D+00 NAtFMM=   60 NAOKFM=F Big=F
 Integral buffers will be    131072 words long.
 Raffenetti 2 integral format.
 Two-electron integral symmetry is turned on.
 FoFCou: FMM=F IPFlag=           8 FMFlag=           0 FMFlg1=           0
         NFxFlg=           0 DoJE=F BraDBF=T KetDBF=T FulRan=T
         wScrn=  0.000000 ICntrl=       600 IOpCl=  3 I1Cent=           6 NGrid=           0
         NMat0=    1 NMatS0=      2 NMatT0=    0 NMatD0=    1 NMtDS0=    0 NMtDT0=    0
 Symmetry not used in FoFCou.
 Finite nuclear repulsion energy        62.2561424612.
 Leave Link  301 at Wed Mar  7 00:45:14 2018, MaxMem= 21474836480 cpu:               4.6 elap:               0.2
 (Enter /home1/apps/gaussian/16rA.03/g16/l302.exe)
 Using DK4 one-electron Hamiltonian with SO, DoBoet=T.
 NPDir=0 NMtPBC=     1 NCelOv=     1 NCel=       1 NClECP=     1 NCelD=      1
         NCelK=      1 NCelE2=     1 NClLst=     1 CellRange=     0.0.
 One-electron integrals computed using PRISM.
 One-electron integral symmetry used in STVInt
 FoFCou: FMM=F IPFlag=           8 FMFlag=      100000 FMFlg1=           0
         NFxFlg=           0 DoJE=T BraDBF=F KetDBF=T FulRan=T
         wScrn=  0.000000 ICntrl=       500 IOpCl=  0 I1Cent=           4 NGrid=           0
         NMat0=    1 NMatS0=      1 NMatT0=    0 NMatD0=    1 NMtDS0=    0 NMtDT0=    0
 Symmetry not used in FoFCou.
 UnConB:  Uncontracting AO basis from    261 functions to    261 functions (excluding duplicates).
 RelInt: Using uncontracted basis, NUnBas=   261 NBsUse=   261 0.100E-13 EigKep=  1.38D-07 EigRej= -1.00D+00
 NBasis=   261 RedAO= T EigKep=  1.22D-06  NBF=   114    27    60    60
 NBsUse=   258 1.00D-06 EigRej=  1.75D-07 NBFU=   113    27    59    59
 Leave Link  302 at Wed Mar  7 00:45:16 2018, MaxMem= 21474836480 cpu:              48.4 elap:               1.9
 (Enter /home1/apps/gaussian/16rA.03/g16/l303.exe)
 DipDrv:  MaxL=1.
 Leave Link  303 at Wed Mar  7 00:45:16 2018, MaxMem= 21474836480 cpu:               1.2 elap:               0.1
 (Enter /home1/apps/gaussian/16rA.03/g16/l401.exe)
 Initial guess from the checkpoint file:  "MnO.chk"
 B after Tr=     0.000000    0.000000    0.000000
         Rot=    1.000000    0.000000    0.000000    0.000000 Ang=   0.00 deg.
 Guess basis will be translated and rotated to current coordinates.
 JPrj=2 DoOrth=T DoCkMO=T.
 Initial guess orbital symmetries:
       Occupied  (SG) (SG) (SG) (PI) (PI) (SG) (SG) (SG) (PI) (PI)
                 (SG) (SG) (PI) (PI) (DLTA) (DLTA) (SG) (PI) (PI)
       Virtual   (SG) (PI) (PI) (SG) (SG) (PI) (PI) (SG) (DLTA)
                 (DLTA) (PI) (PI) (SG) (SG) (PI) (PI) (SG) (PI)
                 (PI) (SG) (DLTA) (DLTA) (PI) (PI) (SG) (SG) (SG)
                 (DLTA) (DLTA) (PHI) (PHI) (PI) (PI) (PI) (PI)
                 (SG) (SG) (DLTA) (DLTA) (PI) (PI) (SG) (DLTA)
                 (DLTA) (PI) (PI) (SG) (PI) (PI) (SG) (SG) (SG)
                 (DLTA) (DLTA) (PHI) (PHI) (PI) (PI) (SG) (PHI)
                 (PHI) (DLTA) (DLTA) (PI) (PI) (DLTA) (DLTA) (PI)
                 (PI) (SG) (?A) (?A) (PI) (PI) (PHI) (PHI) (SG)
                 (DLTA) (DLTA) (SG) (PI) (PI) (DLTA) (DLTA) (SG)
                 (PI) (PI) (SG) (PI) (PI) (SG) (SG) (SG) (PHI)
                 (PHI) (DLTA) (DLTA) (PI) (PI) (PHI) (PHI) (SG)
                 (DLTA) (DLTA) (PI) (PI) (DLTA) (DLTA) (SG) (PI)
                 (PI) (DLTA) (DLTA) (SG) (PI) (PI) (SG) (PI) (PI)
                 (?A) (?A) (PHI) (PHI) (DLTA) (DLTA) (PI) (PI)
                 (SG) (SG) (SG) (DLTA) (DLTA) (PI) (PI) (SG) (PI)
                 (PI) (SG) (SG) (PHI) (PHI) (DLTA) (DLTA) (PI)
                 (PI) (PI) (PI) (SG) (SG) (?A) (?A) (PHI) (PHI)
                 (DLTA) (DLTA) (PI) (PI) (SG) (DLTA) (DLTA) (PI)
                 (PI) (SG) (SG) (PI) (PI) (SG) (SG) (PI) (PI) (DLTA)
                 (DLTA) (PI) (PI) (SG) (SG) (DLTA) (DLTA) (PI)
                 (PI) (SG) (SG) (PI) (PI) (SG) (SG) (DLTA) (DLTA)
                 (PI) (PI) (SG) (PI) (PI) (SG) (SG) (PI) (PI) (SG)
                 (SG) (PI) (PI) (SG) (SG) (PI) (PI) (SG) (DLTA)
                 (DLTA) (PI) (PI) (SG) (SG) (PI) (PI) (SG) (SG)
                 (SG) (PI) (PI) (SG) (SG) (PI) (PI) (SG) (SG) (SG)
                 (SG) (PI) (PI) (SG) (SG) (SG) (PI) (PI) (SG) (SG)
                 (SG) (SG) (SG)
 The electronic state of the initial guess is 6-SG.
 Leave Link  401 at Wed Mar  7 00:45:18 2018, MaxMem= 21474836480 cpu:               5.3 elap:               0.2
 (Enter /home1/apps/gaussian/16rA.03/g16/l502.exe)
 Keep R1 and R2 ints in memory in symmetry-blocked form, NReq=734602573.
 FoFCou: FMM=F IPFlag=           8 FMFlag=           0 FMFlg1=           0
         NFxFlg=           0 DoJE=F BraDBF=F KetDBF=F FulRan=T
         wScrn=  0.000000 ICntrl=       600 IOpCl=  0 I1Cent=           0 NGrid=           0
         NMat0=    1 NMatS0=  34191 NMatT0=    0 NMatD0=    1 NMtDS0=    0 NMtDT0=    0
 Petite list used in FoFCou.
 Restricted open shell SCF:
 Using DIIS extrapolation, IDIIS=  1040.
 NGot= 21474836480 LenX= 21174565133 LenY= 21174467348
 Requested convergence on RMS density matrix=1.00D-08 within 300 cycles.
 Requested convergence on MAX density matrix=1.00D-06.
 Requested convergence on             energy=1.00D-06.
 No special actions if energy rises.

 Cycle   1  Pass 1  IDiag  1:
 E= -1232.21596818437    
 DIIS: error= 5.96D-03 at cycle   1 NSaved=   1.
 NSaved= 1 IEnMin= 1 EnMin= -1232.21596818437     IErMin= 1 ErrMin= 5.96D-03
 ErrMax= 5.96D-03  0.00D+00 EMaxC= 1.00D-01 BMatC= 4.75D-03 BMatP= 4.75D-03
 IDIUse=3 WtCom= 9.40D-01 WtEn= 5.96D-02
 Coeff-Com:  0.100D+01
 Coeff-En:   0.100D+01
 Coeff:      0.100D+01
 Gap=     0.108 Goal=   None    Shift=    0.000
 GapD=    0.108 DampG=1.000 DampE=1.000 DampFc=1.0000 IDamp=-1.
 RMSDP=5.77D-04 MaxDP=2.74D-02              OVMax= 1.12D-01

 Cycle   2  Pass 1  IDiag  1:
 E= -1232.22011464053     Delta-E=       -0.004146456165 Rises=F Damp=F
 DIIS: error= 3.21D-03 at cycle   2 NSaved=   2.
 NSaved= 2 IEnMin= 2 EnMin= -1232.22011464053     IErMin= 2 ErrMin= 3.21D-03
 ErrMax= 3.21D-03  0.00D+00 EMaxC= 1.00D-01 BMatC= 1.01D-03 BMatP= 4.75D-03
 IDIUse=3 WtCom= 9.68D-01 WtEn= 3.21D-02
 Coeff-Com:  0.186D+00 0.814D+00
 Coeff-En:   0.000D+00 0.100D+01
 Coeff:      0.180D+00 0.820D+00
 Gap=     0.044 Goal=   None    Shift=    0.000
 RMSDP=4.71D-04 MaxDP=3.16D-02 DE=-4.15D-03 OVMax= 1.88D-01

 Cycle   3  Pass 1  IDiag  1:
 E= -1232.21328585835     Delta-E=        0.006828782182 Rises=F Damp=F
 DIIS: error= 8.13D-03 at cycle   3 NSaved=   3.
 NSaved= 3 IEnMin= 2 EnMin= -1232.22011464053     IErMin= 2 ErrMin= 3.21D-03
 ErrMax= 8.13D-03  0.00D+00 EMaxC= 1.00D-01 BMatC= 5.53D-03 BMatP= 1.01D-03
 IDIUse=3 WtCom= 9.98D-02 WtEn= 9.00D-01
 Coeff-Com:  0.501D-01 0.701D+00 0.249D+00
 Coeff-En:   0.000D+00 0.664D+00 0.336D+00
 Coeff:      0.501D-02 0.668D+00 0.327D+00
 Gap=     0.055 Goal=   None    Shift=    0.000
 RMSDP=5.62D-04 MaxDP=5.13D-02 DE= 6.83D-03 OVMax= 2.08D-01

 Cycle   4  Pass 1  IDiag  1:
 E= -1232.22023074657     Delta-E=       -0.006944888221 Rises=F Damp=F
 DIIS: error= 3.44D-03 at cycle   4 NSaved=   4.
 NSaved= 4 IEnMin= 4 EnMin= -1232.22023074657     IErMin= 2 ErrMin= 3.21D-03
 ErrMax= 3.44D-03  0.00D+00 EMaxC= 1.00D-01 BMatC= 1.34D-03 BMatP= 1.01D-03
 IDIUse=3 WtCom= 1.46D-01 WtEn= 8.54D-01
 Coeff-Com: -0.238D-02 0.907D-01 0.313D+00 0.599D+00
 Coeff-En:   0.000D+00 0.000D+00 0.365D+00 0.635D+00
 Coeff:     -0.346D-03 0.132D-01 0.357D+00 0.630D+00
 Gap=     0.055 Goal=   None    Shift=    0.000
 RMSDP=6.06D-04 MaxDP=4.43D-02 DE=-6.94D-03 OVMax= 4.65D-02

 Cycle   5  Pass 1  IDiag  1:
 E= -1232.22140928396     Delta-E=       -0.001178537393 Rises=F Damp=F
 DIIS: error= 2.12D-03 at cycle   5 NSaved=   5.
 NSaved= 5 IEnMin= 5 EnMin= -1232.22140928396     IErMin= 5 ErrMin= 2.12D-03
 ErrMax= 2.12D-03  0.00D+00 EMaxC= 1.00D-01 BMatC= 5.51D-04 BMatP= 1.01D-03
 IDIUse=3 WtCom= 9.79D-01 WtEn= 2.12D-02
 Rare condition: small coef for last iteration:  0.000D+00
 Coeff-Com: -0.348D-02-0.134D+00 0.272D+00 0.445D+00 0.421D+00
 Coeff-En:   0.000D+00 0.000D+00 0.290D+00 0.142D+00 0.568D+00
 Coeff:     -0.348D-02-0.134D+00 0.272D+00 0.445D+00 0.421D+00
 Gap=     0.051 Goal=   None    Shift=    0.000
 RMSDP=4.33D-04 MaxDP=3.11D-02 DE=-1.18D-03 OVMax= 3.20D-02

 Cycle   6  Pass 1  IDiag  1:
 E= -1232.22200744060     Delta-E=       -0.000598156636 Rises=F Damp=F
 DIIS: error= 1.15D-03 at cycle   6 NSaved=   6.
 NSaved= 6 IEnMin= 6 EnMin= -1232.22200744060     IErMin= 6 ErrMin= 1.15D-03
 ErrMax= 1.15D-03  0.00D+00 EMaxC= 1.00D-01 BMatC= 7.08D-05 BMatP= 5.51D-04
 IDIUse=3 WtCom= 9.89D-01 WtEn= 1.15D-02
 EnCoef did   100 forward-backward iterations
 Rare condition: small coef for last iteration:  0.000D+00
 Coeff-Com: -0.267D-02-0.219D+00 0.795D-01 0.354D-01 0.298D+00 0.808D+00
 Coeff-En:   0.000D+00 0.000D+00 0.217D+00 0.000D+00 0.883D-01 0.695D+00
 Coeff:     -0.267D-02-0.219D+00 0.795D-01 0.354D-01 0.298D+00 0.808D+00
 Gap=     0.047 Goal=   None    Shift=    0.000
 RMSDP=9.43D-05 MaxDP=6.28D-03 DE=-5.98D-04 OVMax= 1.42D-02

 Cycle   7  Pass 1  IDiag  1:
 E= -1232.22213498107     Delta-E=       -0.000127540474 Rises=F Damp=F
 DIIS: error= 5.19D-04 at cycle   7 NSaved=   7.
 NSaved= 7 IEnMin= 7 EnMin= -1232.22213498107     IErMin= 7 ErrMin= 5.19D-04
 ErrMax= 5.19D-04  0.00D+00 EMaxC= 1.00D-01 BMatC= 3.01D-05 BMatP= 7.08D-05
 IDIUse=3 WtCom= 9.95D-01 WtEn= 5.19D-03
 EnCoef did   100 forward-backward iterations
 Rare condition: small coef for last iteration:  0.000D+00
 Coeff-Com:  0.213D-02-0.142D+00-0.918D-02-0.741D-01 0.101D+00 0.612D+00
 Coeff-Com:  0.510D+00
 Coeff-En:   0.000D+00 0.000D+00 0.169D+00 0.249D-01 0.000D+00 0.217D+00
 Coeff-En:   0.589D+00
 Coeff:      0.213D-02-0.142D+00-0.918D-02-0.741D-01 0.101D+00 0.612D+00
 Coeff:      0.510D+00
 Gap=     0.045 Goal=   None    Shift=    0.000
 RMSDP=9.42D-05 MaxDP=6.52D-03 DE=-1.28D-04 OVMax= 1.19D-02

 Cycle   8  Pass 1  IDiag  1:
 E= -1232.22214703787     Delta-E=       -0.000012056801 Rises=F Damp=F
 DIIS: error= 3.99D-04 at cycle   8 NSaved=   8.
 NSaved= 8 IEnMin= 8 EnMin= -1232.22214703787     IErMin= 8 ErrMin= 3.99D-04
 ErrMax= 3.99D-04  0.00D+00 EMaxC= 1.00D-01 BMatC= 2.37D-05 BMatP= 3.01D-05
 IDIUse=3 WtCom= 9.96D-01 WtEn= 3.99D-03
 EnCoef did   100 forward-backward iterations
 Rare condition: small coef for last iteration:  0.000D+00
 Coeff-Com:  0.497D-02-0.331D-01-0.512D-01-0.102D+00-0.634D-01 0.198D+00
 Coeff-Com:  0.558D+00 0.489D+00
 Coeff-En:   0.000D+00 0.000D+00 0.156D+00 0.309D-01 0.000D+00 0.000D+00
 Coeff-En:   0.386D+00 0.427D+00
 Coeff:      0.497D-02-0.331D-01-0.512D-01-0.102D+00-0.634D-01 0.198D+00
 Coeff:      0.558D+00 0.489D+00
 Gap=     0.044 Goal=   None    Shift=    0.000
 RMSDP=8.11D-05 MaxDP=5.88D-03 DE=-1.21D-05 OVMax= 1.31D-02

 Cycle   9  Pass 1  IDiag  1:
 E= -1232.22216118612     Delta-E=       -0.000014148245 Rises=F Damp=F
 DIIS: error= 4.25D-04 at cycle   9 NSaved=   9.
 NSaved= 9 IEnMin= 9 EnMin= -1232.22216118612     IErMin= 8 ErrMin= 3.99D-04
 ErrMax= 4.25D-04  0.00D+00 EMaxC= 1.00D-01 BMatC= 1.25D-05 BMatP= 2.37D-05
 IDIUse=3 WtCom= 9.96D-01 WtEn= 3.99D-03
 EnCoef did   100 forward-backward iterations
 Coeff-Com:  0.178D-02-0.303D-02-0.888D-02-0.315D-01-0.404D-01-0.240D-01
 Coeff-Com:  0.276D+00 0.412D+00 0.419D+00
 Coeff-En:   0.000D+00 0.000D+00 0.360D+00 0.621D+00 0.000D+00 0.000D+00
 Coeff-En:   0.442D-02 0.660D-02 0.783D-02
 Coeff:      0.178D-02-0.301D-02-0.741D-02-0.289D-01-0.402D-01-0.239D-01
 Coeff:      0.274D+00 0.410D+00 0.417D+00
 Gap=     0.045 Goal=   None    Shift=    0.000
 RMSDP=3.60D-05 MaxDP=2.61D-03 DE=-1.41D-05 OVMax= 1.16D-02

 Cycle  10  Pass 1  IDiag  1:
 E= -1232.22219007101     Delta-E=       -0.000028884893 Rises=F Damp=F
 DIIS: error= 1.48D-04 at cycle  10 NSaved=  10.
 NSaved=10 IEnMin=10 EnMin= -1232.22219007101     IErMin=10 ErrMin= 1.48D-04
 ErrMax= 1.48D-04  0.00D+00 EMaxC= 1.00D-01 BMatC= 1.27D-06 BMatP= 1.25D-05
 IDIUse=3 WtCom= 9.99D-01 WtEn= 1.48D-03
 EnCoef did   100 forward-backward iterations
 Rare condition: small coef for last iteration:  0.112D-15
 Coeff-Com:  0.144D-02 0.338D-02-0.364D-04-0.899D-02-0.132D-01-0.275D-01
 Coeff-Com:  0.122D+00 0.205D+00 0.273D+00 0.445D+00
 Coeff-En:   0.000D+00 0.000D+00 0.152D+00 0.000D+00 0.000D+00 0.000D+00
 Coeff-En:   0.492D-01 0.153D+00 0.189D+00 0.457D+00
 Coeff:      0.144D-02 0.338D-02-0.364D-04-0.899D-02-0.132D-01-0.275D-01
 Coeff:      0.122D+00 0.205D+00 0.273D+00 0.445D+00
 Gap=     0.045 Goal=   None    Shift=    0.000
 RMSDP=1.51D-05 MaxDP=1.30D-03 DE=-2.89D-05 OVMax= 2.39D-03

 Cycle  11  Pass 1  IDiag  1:
 E= -1232.22219203447     Delta-E=       -0.000001963457 Rises=F Damp=F
 DIIS: error= 3.19D-05 at cycle  11 NSaved=  11.
 NSaved=11 IEnMin=11 EnMin= -1232.22219203447     IErMin=11 ErrMin= 3.19D-05
 ErrMax= 3.19D-05  0.00D+00 EMaxC= 1.00D-01 BMatC= 2.08D-07 BMatP= 1.27D-06
 IDIUse=1 WtCom= 1.00D+00 WtEn= 0.00D+00
 Coeff-Com:  0.400D-03 0.356D-02 0.134D-02 0.176D-02 0.370D-03-0.163D-01
 Coeff-Com:  0.212D-01 0.504D-01 0.102D+00 0.253D+00 0.582D+00
 Coeff:      0.400D-03 0.356D-02 0.134D-02 0.176D-02 0.370D-03-0.163D-01
 Coeff:      0.212D-01 0.504D-01 0.102D+00 0.253D+00 0.582D+00
 Gap=     0.045 Goal=   None    Shift=    0.000
 RMSDP=1.31D-05 MaxDP=1.04D-03 DE=-1.96D-06 OVMax= 8.91D-04

 Cycle  12  Pass 1  IDiag  1:
 E= -1232.22219226602     Delta-E=       -0.000000231548 Rises=F Damp=F
 DIIS: error= 3.49D-05 at cycle  12 NSaved=  12.
 NSaved=12 IEnMin=12 EnMin= -1232.22219226602     IErMin=11 ErrMin= 3.19D-05
 ErrMax= 3.49D-05  0.00D+00 EMaxC= 1.00D-01 BMatC= 9.68D-08 BMatP= 2.08D-07
 IDIUse=1 WtCom= 1.00D+00 WtEn= 0.00D+00
 Coeff-Com: -0.151D-03 0.202D-02-0.215D-02-0.918D-03-0.113D-02-0.124D-02
 Coeff-Com: -0.441D-02-0.102D-01 0.105D-01-0.287D-01 0.349D+00 0.687D+00
 Coeff:     -0.151D-03 0.202D-02-0.215D-02-0.918D-03-0.113D-02-0.124D-02
 Coeff:     -0.441D-02-0.102D-01 0.105D-01-0.287D-01 0.349D+00 0.687D+00
 Gap=     0.045 Goal=   None    Shift=    0.000
 RMSDP=6.69D-06 MaxDP=5.23D-04 DE=-2.32D-07 OVMax= 7.65D-04

 Cycle  13  Pass 1  IDiag  1:
 E= -1232.22219251874     Delta-E=       -0.000000252725 Rises=F Damp=F
 DIIS: error= 1.27D-05 at cycle  13 NSaved=  13.
 NSaved=13 IEnMin=13 EnMin= -1232.22219251874     IErMin=13 ErrMin= 1.27D-05
 ErrMax= 1.27D-05  0.00D+00 EMaxC= 1.00D-01 BMatC= 3.05D-08 BMatP= 9.68D-08
 IDIUse=1 WtCom= 1.00D+00 WtEn= 0.00D+00
 Coeff-Com: -0.122D-03-0.993D-03-0.155D-02-0.644D-04 0.114D-02 0.452D-02
 Coeff-Com: -0.111D-01-0.280D-01-0.343D-01-0.125D+00 0.580D-01 0.479D+00
 Coeff-Com:  0.658D+00
 Coeff:     -0.122D-03-0.993D-03-0.155D-02-0.644D-04 0.114D-02 0.452D-02
 Coeff:     -0.111D-01-0.280D-01-0.343D-01-0.125D+00 0.580D-01 0.479D+00
 Coeff:      0.658D+00
 Gap=     0.045 Goal=   None    Shift=    0.000
 RMSDP=3.78D-06 MaxDP=2.71D-04 DE=-2.53D-07 OVMax= 3.77D-04

 Cycle  14  Pass 1  IDiag  1:
 E= -1232.22219259661     Delta-E=       -0.000000077866 Rises=F Damp=F
 DIIS: error= 1.14D-05 at cycle  14 NSaved=  14.
 NSaved=14 IEnMin=14 EnMin= -1232.22219259661     IErMin=14 ErrMin= 1.14D-05
 ErrMax= 1.14D-05  0.00D+00 EMaxC= 1.00D-01 BMatC= 1.98D-08 BMatP= 3.05D-08
 IDIUse=1 WtCom= 1.00D+00 WtEn= 0.00D+00
 Coeff-Com: -0.301D-04-0.292D-02-0.376D-05 0.188D-02 0.352D-02 0.301D-02
 Coeff-Com: -0.864D-02-0.233D-01-0.450D-01-0.116D+00-0.138D+00 0.627D-01
 Coeff-Com:  0.575D+00 0.689D+00
 Coeff:     -0.301D-04-0.292D-02-0.376D-05 0.188D-02 0.352D-02 0.301D-02
 Coeff:     -0.864D-02-0.233D-01-0.450D-01-0.116D+00-0.138D+00 0.627D-01
 Coeff:      0.575D+00 0.689D+00
 Gap=     0.045 Goal=   None    Shift=    0.000
 RMSDP=4.35D-06 MaxDP=3.16D-04 DE=-7.79D-08 OVMax= 4.14D-04

 Cycle  15  Pass 1  IDiag  1:
 E= -1232.22219265171     Delta-E=       -0.000000055097 Rises=F Damp=F
 DIIS: error= 1.12D-05 at cycle  15 NSaved=  15.
 NSaved=15 IEnMin=15 EnMin= -1232.22219265171     IErMin=15 ErrMin= 1.12D-05
 ErrMax= 1.12D-05  0.00D+00 EMaxC= 1.00D-01 BMatC= 1.52D-08 BMatP= 1.98D-08
 IDIUse=1 WtCom= 1.00D+00 WtEn= 0.00D+00
 Coeff-Com:  0.524D-04-0.195D-02-0.595D-03 0.435D-03 0.167D-02 0.847D-04
 Coeff-Com:  0.968D-02 0.521D-02-0.127D-01-0.268D-01-0.131D+00-0.266D+00
 Coeff-Com: -0.947D-01 0.533D+00 0.984D+00
 Coeff:      0.524D-04-0.195D-02-0.595D-03 0.435D-03 0.167D-02 0.847D-04
 Coeff:      0.968D-02 0.521D-02-0.127D-01-0.268D-01-0.131D+00-0.266D+00
 Coeff:     -0.947D-01 0.533D+00 0.984D+00
 Gap=     0.045 Goal=   None    Shift=    0.000
 RMSDP=3.34D-06 MaxDP=2.37D-04 DE=-5.51D-08 OVMax= 2.49D-04

 Cycle  16  Pass 1  IDiag  1:
 E= -1232.22219269954     Delta-E=       -0.000000047830 Rises=F Damp=F
 DIIS: error= 2.90D-06 at cycle  16 NSaved=  16.
 NSaved=16 IEnMin=16 EnMin= -1232.22219269954     IErMin=16 ErrMin= 2.90D-06
 ErrMax= 2.90D-06  0.00D+00 EMaxC= 1.00D-01 BMatC= 1.87D-09 BMatP= 1.52D-08
 IDIUse=1 WtCom= 1.00D+00 WtEn= 0.00D+00
 Coeff-Com:  0.369D-04-0.578D-03 0.108D-03 0.266D-03 0.892D-03-0.108D-03
 Coeff-Com:  0.560D-02 0.713D-02 0.484D-02 0.121D-01-0.150D-01-0.125D+00
 Coeff-Com: -0.230D+00 0.361D-01 0.506D+00 0.798D+00
 Coeff:      0.369D-04-0.578D-03 0.108D-03 0.266D-03 0.892D-03-0.108D-03
 Coeff:      0.560D-02 0.713D-02 0.484D-02 0.121D-01-0.150D-01-0.125D+00
 Coeff:     -0.230D+00 0.361D-01 0.506D+00 0.798D+00
 Gap=     0.045 Goal=   None    Shift=    0.000
 RMSDP=1.19D-06 MaxDP=6.89D-05 DE=-4.78D-08 OVMax= 1.54D-04

 Cycle  17  Pass 1  IDiag  1:
 E= -1232.22219270504     Delta-E=       -0.000000005507 Rises=F Damp=F
 DIIS: error= 3.30D-06 at cycle  17 NSaved=  17.
 NSaved=17 IEnMin=17 EnMin= -1232.22219270504     IErMin=16 ErrMin= 2.90D-06
 ErrMax= 3.30D-06  0.00D+00 EMaxC= 1.00D-01 BMatC= 9.93D-10 BMatP= 1.87D-09
 IDIUse=1 WtCom= 1.00D+00 WtEn= 0.00D+00
 Coeff-Com:  0.160D-04 0.460D-04 0.260D-03 0.646D-04 0.297D-03 0.149D-03
 Coeff-Com:  0.168D-02 0.410D-02 0.804D-02 0.118D-01 0.237D-01-0.225D-01
 Coeff-Com: -0.146D+00-0.104D+00 0.125D+00 0.582D+00 0.515D+00
 Coeff:      0.160D-04 0.460D-04 0.260D-03 0.646D-04 0.297D-03 0.149D-03
 Coeff:      0.168D-02 0.410D-02 0.804D-02 0.118D-01 0.237D-01-0.225D-01
 Coeff:     -0.146D+00-0.104D+00 0.125D+00 0.582D+00 0.515D+00
 Gap=     0.045 Goal=   None    Shift=    0.000
 RMSDP=4.24D-07 MaxDP=3.17D-05 DE=-5.51D-09 OVMax= 9.34D-05

 Cycle  18  Pass 1  IDiag  1:
 E= -1232.22219270516     Delta-E=       -0.000000000120 Rises=F Damp=F
 DIIS: error= 3.76D-06 at cycle  18 NSaved=  18.
 NSaved=18 IEnMin=18 EnMin= -1232.22219270516     IErMin=16 ErrMin= 2.90D-06
 ErrMax= 3.76D-06  0.00D+00 EMaxC= 1.00D-01 BMatC= 8.89D-10 BMatP= 9.93D-10
 IDIUse=1 WtCom= 1.00D+00 WtEn= 0.00D+00
 Coeff-Com:  0.385D-05 0.228D-03 0.187D-03-0.655D-04-0.250D-04 0.194D-03
 Coeff-Com:  0.276D-03 0.232D-02 0.726D-02 0.689D-02 0.272D-01 0.110D-01
 Coeff-Com: -0.780D-01-0.106D+00-0.163D-01 0.343D+00 0.483D+00 0.319D+00
 Coeff:      0.385D-05 0.228D-03 0.187D-03-0.655D-04-0.250D-04 0.194D-03
 Coeff:      0.276D-03 0.232D-02 0.726D-02 0.689D-02 0.272D-01 0.110D-01
 Coeff:     -0.780D-01-0.106D+00-0.163D-01 0.343D+00 0.483D+00 0.319D+00
 Gap=     0.045 Goal=   None    Shift=    0.000
 RMSDP=2.95D-07 MaxDP=3.12D-05 DE=-1.20D-10 OVMax= 8.75D-05

 Cycle  19  Pass 1  IDiag  1:
 E= -1232.22219270648     Delta-E=       -0.000000001313 Rises=F Damp=F
 DIIS: error= 2.00D-06 at cycle  19 NSaved=  19.
 NSaved=19 IEnMin=19 EnMin= -1232.22219270648     IErMin=19 ErrMin= 2.00D-06
 ErrMax= 2.00D-06  0.00D+00 EMaxC= 1.00D-01 BMatC= 3.02D-10 BMatP= 8.89D-10
 IDIUse=1 WtCom= 1.00D+00 WtEn= 0.00D+00
 Coeff-Com: -0.499D-05 0.241D-03 0.566D-04-0.128D-03-0.221D-03 0.983D-04
 Coeff-Com: -0.364D-03 0.826D-03 0.474D-02 0.125D-02 0.182D-01 0.203D-01
 Coeff-Com: -0.166D-01-0.602D-01-0.740D-01 0.975D-01 0.271D+00 0.338D+00
 Coeff-Com:  0.400D+00
 Coeff:     -0.499D-05 0.241D-03 0.566D-04-0.128D-03-0.221D-03 0.983D-04
 Coeff:     -0.364D-03 0.826D-03 0.474D-02 0.125D-02 0.182D-01 0.203D-01
 Coeff:     -0.166D-01-0.602D-01-0.740D-01 0.975D-01 0.271D+00 0.338D+00
 Coeff:      0.400D+00
 Gap=     0.045 Goal=   None    Shift=    0.000
 RMSDP=1.51D-07 MaxDP=1.16D-05 DE=-1.31D-09 OVMax= 3.40D-05

 Cycle  20  Pass 1  IDiag  1:
 E= -1232.22219270713     Delta-E=       -0.000000000649 Rises=F Damp=F
 DIIS: error= 2.21D-07 at cycle  20 NSaved=  20.
 NSaved=20 IEnMin=20 EnMin= -1232.22219270713     IErMin=20 ErrMin= 2.21D-07
 ErrMax= 2.21D-07  0.00D+00 EMaxC= 1.00D-01 BMatC= 8.96D-12 BMatP= 3.02D-10
 IDIUse=1 WtCom= 1.00D+00 WtEn= 0.00D+00
 Coeff-Com: -0.252D-05 0.493D-04 0.120D-04-0.167D-05-0.759D-04-0.105D-03
 Coeff-Com: -0.273D-03 0.697D-04 0.126D-02-0.335D-03 0.287D-02 0.376D-02
 Coeff-Com:  0.346D-02-0.562D-02-0.244D-01-0.473D-02 0.333D-01 0.812D-01
 Coeff-Com:  0.169D+00 0.740D+00
 Coeff:     -0.252D-05 0.493D-04 0.120D-04-0.167D-05-0.759D-04-0.105D-03
 Coeff:     -0.273D-03 0.697D-04 0.126D-02-0.335D-03 0.287D-02 0.376D-02
 Coeff:      0.346D-02-0.562D-02-0.244D-01-0.473D-02 0.333D-01 0.812D-01
 Coeff:      0.169D+00 0.740D+00
 Gap=     0.045 Goal=   None    Shift=    0.000
 RMSDP=8.03D-08 MaxDP=6.64D-06 DE=-6.49D-10 OVMax= 5.32D-06

 Cycle  21  Pass 1  IDiag  1:
 E= -1232.22219270713     Delta-E=       -0.000000000007 Rises=F Damp=F
 DIIS: error= 2.91D-07 at cycle  21 NSaved=  20.
 NSaved=20 IEnMin=20 EnMin= -1232.22219270713     IErMin=19 ErrMin= 2.21D-07
 ErrMax= 2.91D-07  0.00D+00 EMaxC= 1.00D-01 BMatC= 6.87D-12 BMatP= 8.96D-12
 IDIUse=1 WtCom= 1.00D+00 WtEn= 0.00D+00
 Coeff-Com: -0.119D-05 0.153D-04 0.929D-05-0.428D-04-0.965D-04-0.186D-03
 Coeff-Com: -0.354D-04 0.523D-03-0.397D-03 0.440D-03 0.975D-03 0.478D-02
 Coeff-Com:  0.160D-02-0.124D-01-0.138D-01-0.967D-03 0.297D-01 0.930D-01
 Coeff-Com:  0.586D+00 0.311D+00
 Coeff:     -0.119D-05 0.153D-04 0.929D-05-0.428D-04-0.965D-04-0.186D-03
 Coeff:     -0.354D-04 0.523D-03-0.397D-03 0.440D-03 0.975D-03 0.478D-02
 Coeff:      0.160D-02-0.124D-01-0.138D-01-0.967D-03 0.297D-01 0.930D-01
 Coeff:      0.586D+00 0.311D+00
 Gap=     0.045 Goal=   None    Shift=    0.000
 RMSDP=3.02D-08 MaxDP=2.10D-06 DE=-7.05D-12 OVMax= 4.77D-06

 Cycle  22  Pass 1  IDiag  1:
 E= -1232.22219270714     Delta-E=       -0.000000000011 Rises=F Damp=F
 DIIS: error= 1.13D-07 at cycle  22 NSaved=  20.
 NSaved=20 IEnMin=20 EnMin= -1232.22219270714     IErMin=20 ErrMin= 1.13D-07
 ErrMax= 1.13D-07  0.00D+00 EMaxC= 1.00D-01 BMatC= 1.15D-12 BMatP= 6.87D-12
 IDIUse=1 WtCom= 1.00D+00 WtEn= 0.00D+00
 Coeff-Com: -0.220D-05 0.144D-04-0.816D-05-0.560D-04-0.855D-04-0.531D-04
 Coeff-Com:  0.620D-04-0.838D-04-0.438D-03-0.535D-03 0.276D-02 0.262D-02
 Coeff-Com: -0.309D-02-0.833D-02-0.102D-01-0.180D-02 0.213D-01 0.251D+00
 Coeff-Com:  0.272D+00 0.475D+00
 Coeff:     -0.220D-05 0.144D-04-0.816D-05-0.560D-04-0.855D-04-0.531D-04
 Coeff:      0.620D-04-0.838D-04-0.438D-03-0.535D-03 0.276D-02 0.262D-02
 Coeff:     -0.309D-02-0.833D-02-0.102D-01-0.180D-02 0.213D-01 0.251D+00
 Coeff:      0.272D+00 0.475D+00
 Gap=     0.045 Goal=   None    Shift=    0.000
 RMSDP=1.58D-08 MaxDP=1.03D-06 DE=-1.09D-11 OVMax= 1.85D-06

 Cycle  23  Pass 1  IDiag  1:
 E= -1232.22219270715     Delta-E=       -0.000000000002 Rises=F Damp=F
 DIIS: error= 3.76D-08 at cycle  23 NSaved=  20.
 NSaved=20 IEnMin=20 EnMin= -1232.22219270715     IErMin=20 ErrMin= 3.76D-08
 ErrMax= 3.76D-08  0.00D+00 EMaxC= 1.00D-01 BMatC= 1.99D-13 BMatP= 1.15D-12
 IDIUse=1 WtCom= 1.00D+00 WtEn= 0.00D+00
 Coeff-Com:  0.515D-05-0.141D-05-0.192D-04-0.138D-04-0.141D-04-0.281D-04
 Coeff-Com:  0.129D-03-0.145D-03-0.436D-03 0.456D-03 0.667D-03 0.109D-03
 Coeff-Com: -0.140D-02-0.486D-02-0.649D-02-0.556D-02 0.355D-01 0.116D+00
 Coeff-Com:  0.339D+00 0.528D+00
 Coeff:      0.515D-05-0.141D-05-0.192D-04-0.138D-04-0.141D-04-0.281D-04
 Coeff:      0.129D-03-0.145D-03-0.436D-03 0.456D-03 0.667D-03 0.109D-03
 Coeff:     -0.140D-02-0.486D-02-0.649D-02-0.556D-02 0.355D-01 0.116D+00
 Coeff:      0.339D+00 0.528D+00
 Gap=     0.045 Goal=   None    Shift=    0.000
 RMSDP=1.40D-08 MaxDP=1.02D-06 DE=-1.82D-12 OVMax= 9.23D-07

 Cycle  24  Pass 1  IDiag  1:
 E= -1232.22219270715     Delta-E=       -0.000000000001 Rises=F Damp=F
 DIIS: error= 1.73D-08 at cycle  24 NSaved=  20.
 NSaved=20 IEnMin=20 EnMin= -1232.22219270715     IErMin=20 ErrMin= 1.73D-08
 ErrMax= 1.73D-08  0.00D+00 EMaxC= 1.00D-01 BMatC= 3.83D-14 BMatP= 1.99D-13
 IDIUse=1 WtCom= 1.00D+00 WtEn= 0.00D+00
 Coeff-Com:  0.183D-05 0.811D-05 0.105D-04-0.475D-05-0.474D-04 0.681D-04
 Coeff-Com: -0.205D-04-0.137D-03-0.322D-03-0.146D-03 0.751D-03 0.859D-03
 Coeff-Com: -0.784D-03-0.377D-02-0.907D-02-0.436D-01-0.201D-02 0.803D-01
 Coeff-Com:  0.332D+00 0.646D+00
 Coeff:      0.183D-05 0.811D-05 0.105D-04-0.475D-05-0.474D-04 0.681D-04
 Coeff:     -0.205D-04-0.137D-03-0.322D-03-0.146D-03 0.751D-03 0.859D-03
 Coeff:     -0.784D-03-0.377D-02-0.907D-02-0.436D-01-0.201D-02 0.803D-01
 Coeff:      0.332D+00 0.646D+00
 Gap=     0.045 Goal=   None    Shift=    0.000
 RMSDP=6.13D-09 MaxDP=5.26D-07 DE=-6.82D-13 OVMax= 3.95D-07

 SCF Done:  E(ROHF) =  -1232.22219271     A.U. after   24 cycles
            NFock= 24  Conv=0.61D-08     -V/T= 1.9642
 <Sx>= 0.0000 <Sy>= 0.0000 <Sz>= 2.5000 <S**2>= 8.7500 S= 2.5000
 <L.S>=  0.00000000000    
 KE= 1.277988527675D+03 PE=-3.102366457937D+03 EE= 5.298995950943D+02
 Annihilation of the first spin contaminant:
 S**2 before annihilation     8.7500,   after     8.7500
 Leave Link  502 at Wed Mar  7 00:45:28 2018, MaxMem= 21474836480 cpu:             167.2 elap:               9.1
 (Enter /home1/apps/gaussian/16rA.03/g16/l801.exe)
 Windowed orbitals will be sorted by symmetry type.
 GenMOA:  NOpAll=  4 NOp2=4 NOpUse=  4 JSym2X=1
 FoFJK:  IHMeth= 1 ICntrl=       0 DoSepK=F KAlg= 0 I1Cent=           0 FoldK=F
 IRaf=         0 NMat=       1 IRICut=       1 DoRegI=T DoRafI=F ISym2E= 1 IDoP0=0 IntGTp=1.
 FoFCou: FMM=F IPFlag=           8 FMFlag=      100000 FMFlg1=           0
         NFxFlg=           0 DoJE=F BraDBF=F KetDBF=F FulRan=T
         wScrn=  0.000000 ICntrl=         0 IOpCl=  1 I1Cent=           0 NGrid=           0
         NMat0=    1 NMatS0=      1 NMatT0=    0 NMatD0=    1 NMtDS0=    0 NMtDT0=    0
 Petite list used in FoFCou.
 <Sx>= 0.0000 <Sy>= 0.0000 <Sz>= 2.5000 <S**2>= 8.7500 S= 2.5000
 Range of M.O.s used for correlation:     1   258
 NBasis=   261 NAE=    19 NBE=    14 NFC=     0 NFV=     0
 NROrb=    258 NOA=    19 NOB=    14 NVA=   239 NVB=   244

 **** Warning!!: The largest alpha MO coefficient is  0.32260191D+03


 **** Warning!!: The largest beta MO coefficient is  0.32193687D+03

 Singles contribution to E2=   -0.6386679122D-02
 Leave Link  801 at Wed Mar  7 00:45:29 2018, MaxMem= 21474836480 cpu:              32.9 elap:               1.1
 (Enter /home1/apps/gaussian/16rA.03/g16/l804.exe)
 Open-shell transformation, MDV= 21474836480 ITran=4 ISComp=2.
 Unit  1 TFree=       2052408 TCopy=        918944.
 Semi-Direct transformation.
 ModeAB=           4 MOrb=            19 LenV=   21472785790
 LASXX=     40139070 LTotXX=    40139070 LenRXX=    81084246
 LTotAB=    40945176 MaxLAS=   235644042 LenRXY=           0
 NonZer=   121223316 LenScr=   182587392 LnRSAI=   235644042
 LnScr1=   354852864 LExtra=    24846283 Total=    879014827
 MaxDsk= 67108864000 SrtSym=           T ITran=            4
 DoSDTr:  NPSUse= 32
 JobTyp=1 Pass  1:  I=   1 to  19.
 (rs|ai) integrals will be sorted in core.
 Complete sort for first half transformation.
 First half transformation complete.
 Begin second half transformation for I=  10.
 Complete sort for second half transformation.
 Second half transformation complete.
 ModeAB=           4 MOrb=            14 LenV=   21472785790
 LASXX=     30139409 LTotXX=    30139409 LenRXX=    56411000
 LTotAB=    26271591 MaxLAS=   173632452 LenRXY=           0
 NonZer=    86550409 LenScr=   130572288 LnRSAI=   173632452
 LnScr1=   261470208 LExtra=   105930529 Total=    728016477
 MaxDsk= 67108864000 SrtSym=           T ITran=            4
 DoSDTr:  NPSUse= 32
 JobTyp=2 Pass  1:  I=   1 to  14.
 (rs|ai) integrals will be sorted in core.
 Complete sort for first half transformation.
 First half transformation complete.
 Begin second half transformation for I=  10.
 Complete sort for second half transformation.
 Second half transformation complete.
 Spin components of T(2) and E(2):
     alpha-alpha T2 =       0.4401438909D-01 E2=     -0.2698081850D+00
     alpha-beta  T2 =       0.1349839287D+00 E2=     -0.9175895429D+00
     beta-beta   T2 =       0.2549212724D-01 E2=     -0.1476760140D+00
 ANorm=    0.1101470281D+01
 E2 =    -0.1341460421D+01 EUMP2 =    -0.12335636531282D+04
 (S**2,0)=  0.87500D+01           (S**2,1)=  0.87500D+01
 E(PUHF)=      -0.12322221927D+04        E(PMP2)=      -0.12335636531D+04
 Leave Link  804 at Wed Mar  7 00:46:15 2018, MaxMem= 21474836480 cpu:            1467.4 elap:              46.0
 (Enter /home1/apps/gaussian/16rA.03/g16/l913.exe)
 CIDS:  MDV= 21474836480.
 IFCWin=0 IBDFC=1 NFBD=     0     0 NFCmp=     0     0 NFFFC=     0     0
 Using original routines for 1st iteration.
 Using DD4UQ or CC4UQ for 2nd and later iterations.
 Keep R2 and R3 ints in memory in symmetry-blocked form, NReq=734624353.
 FoFCou: FMM=F IPFlag=           8 FMFlag=           0 FMFlg1=           0
         NFxFlg=           0 DoJE=F BraDBF=F KetDBF=F FulRan=T
         wScrn=  0.000000 ICntrl=       600 IOpCl=  0 I1Cent=           0 NGrid=           0
         NMat0=    1 NMatS0=  34191 NMatT0=    0 NMatD0=    1 NMtDS0=    0 NMtDT0=    0
 Petite list used in FoFCou.
 CIDS: In Core Option IDoMem=           1.
 CCSD(T)
 =======
 Iterations= 150 Convergence= 0.100D-06
 Produce multiple copies of IABC intergrals
 Iteration Nr.   1
 **********************
 DD1Dir will call FoFMem   1 times, MxPair=       794
 NAB=   266 NAA=   171 NBB=    91.
 DD1Dir will call FoFMem   1 times, MxPair=       794
 NAB=   266 NAA=   171 NBB=    91.
 MP4(R+Q)= -0.48888813D-01
 Maximum subspace dimension=  5
 A-vector RMS=  7.7093076D-04 Max=  1.8488540D-02 conv= 1.00D-05.
 RLE energy=       -1.3227212020
 E3=        0.66736696D-01        EROMP3=      -0.12334969164D+04
 E4(SDQ)=  -0.50387662D-01        ROMP4(SDQ)=  -0.12335473041D+04
 VARIATIONAL ENERGIES WITH THE FIRST-ORDER WAVEFUNCTION:
 DE(Corr)=  -1.3224508     E(Corr)=     -1233.5446435    
 NORM(A)=   0.10912697D+01
 Iteration Nr.   2
 **********************
 DD1Dir will call FoFMem   1 times, MxPair=       794
 NAB=   266 NAA=   171 NBB=    91.
 A-vector RMS=  5.0682919D-03 Max=  1.2615670D-01 conv= 1.00D-05.
 RLE energy=       -1.2841058355
 DE(Corr)=  -1.2547193     E(CORR)=     -1233.4769120     Delta= 6.77D-02
 NORM(A)=   0.10883816D+01
 Iteration Nr.   3
 **********************
 DD1Dir will call FoFMem   1 times, MxPair=       794
 NAB=   266 NAA=   171 NBB=    91.
 A-vector RMS=  1.5926215D-03 Max=  3.3872412D-02 conv= 1.00D-05.
 RLE energy=       -1.3124433595
 DE(Corr)=  -1.2890531     E(CORR)=     -1233.5112458     Delta=-3.43D-02
 NORM(A)=   0.10934085D+01
 Iteration Nr.   4
 **********************
 DD1Dir will call FoFMem   1 times, MxPair=       794
 NAB=   266 NAA=   171 NBB=    91.
 A-vector RMS=  4.0311365D-03 Max=  1.0870905D-01 conv= 1.00D-05.
 RLE energy=       -1.3049993967
 DE(Corr)=  -1.2696736     E(CORR)=     -1233.4918663     Delta= 1.94D-02
 NORM(A)=   0.11332417D+01
 Iteration Nr.   5
 **********************
 DD1Dir will call FoFMem   1 times, MxPair=       794
 NAB=   266 NAA=   171 NBB=    91.
 A-vector RMS=  1.1193415D-03 Max=  3.3367227D-02 conv= 1.00D-05.
 RLE energy=       -1.3100729081
 DE(Corr)=  -1.3031261     E(CORR)=     -1233.5253188     Delta=-3.35D-02
 NORM(A)=   0.11878662D+01
 Iteration Nr.   6
 **********************
 DD1Dir will call FoFMem   1 times, MxPair=       794
 NAB=   266 NAA=   171 NBB=    91.
 A-vector RMS=  6.9509940D-04 Max=  1.9200570D-02 conv= 1.00D-05.
 RLE energy=       -1.3124720615
 DE(Corr)=  -1.3129283     E(CORR)=     -1233.5351210     Delta=-9.80D-03
 NORM(A)=   0.12030780D+01
 Iteration Nr.   7
 **********************
 DD1Dir will call FoFMem   1 times, MxPair=       794
 NAB=   266 NAA=   171 NBB=    91.
 A-vector RMS=  6.2333430D-04 Max=  2.0344131D-02 conv= 1.00D-05.
 RLE energy=       -1.3140542227
 DE(Corr)=  -1.3126317     E(CORR)=     -1233.5348244     Delta= 2.97D-04
 NORM(A)=   0.12188451D+01
 Iteration Nr.   8
 **********************
 DD1Dir will call FoFMem   1 times, MxPair=       794
 NAB=   266 NAA=   171 NBB=    91.
 A-vector RMS=  2.6872664D-04 Max=  5.5270106D-03 conv= 1.00D-05.
 RLE energy=       -1.3138614680
 DE(Corr)=  -1.3135956     E(CORR)=     -1233.5357883     Delta=-9.64D-04
 NORM(A)=   0.12255857D+01
 Iteration Nr.   9
 **********************
 DD1Dir will call FoFMem   1 times, MxPair=       794
 NAB=   266 NAA=   171 NBB=    91.
 A-vector RMS=  1.8426522D-04 Max=  5.7384135D-03 conv= 1.00D-05.
 RLE energy=       -1.3144342774
 DE(Corr)=  -1.3146986     E(CORR)=     -1233.5368913     Delta=-1.10D-03
 NORM(A)=   0.12277542D+01
 Iteration Nr.  10
 **********************
 DD1Dir will call FoFMem   1 times, MxPair=       794
 NAB=   266 NAA=   171 NBB=    91.
 A-vector RMS=  1.1179709D-04 Max=  2.5361462D-03 conv= 1.00D-05.
 RLE energy=       -1.3145434915
 DE(Corr)=  -1.3142856     E(CORR)=     -1233.5364783     Delta= 4.13D-04
 NORM(A)=   0.12302386D+01
 Iteration Nr.  11
 **********************
 DD1Dir will call FoFMem   1 times, MxPair=       794
 NAB=   266 NAA=   171 NBB=    91.
 A-vector RMS=  9.3483488D-05 Max=  2.1694322D-03 conv= 1.00D-05.
 RLE energy=       -1.3147206927
 DE(Corr)=  -1.3148438     E(CORR)=     -1233.5370365     Delta=-5.58D-04
 NORM(A)=   0.12300338D+01
 Iteration Nr.  12
 **********************
 DD1Dir will call FoFMem   1 times, MxPair=       794
 NAB=   266 NAA=   171 NBB=    91.
 A-vector RMS=  6.2336231D-05 Max=  1.8570053D-03 conv= 1.00D-05.
 RLE energy=       -1.3146135909
 DE(Corr)=  -1.3144967     E(CORR)=     -1233.5366894     Delta= 3.47D-04
 NORM(A)=   0.12304349D+01
 Iteration Nr.  13
 **********************
 DD1Dir will call FoFMem   1 times, MxPair=       794
 NAB=   266 NAA=   171 NBB=    91.
 A-vector RMS=  2.7787351D-05 Max=  8.3548535D-04 conv= 1.00D-05.
 RLE energy=       -1.3146590873
 DE(Corr)=  -1.3146909     E(CORR)=     -1233.5368836     Delta=-1.94D-04
 NORM(A)=   0.12306771D+01
 Iteration Nr.  14
 **********************
 DD1Dir will call FoFMem   1 times, MxPair=       794
 NAB=   266 NAA=   171 NBB=    91.
 A-vector RMS=  2.2317705D-05 Max=  7.3445265D-04 conv= 1.00D-05.
 RLE energy=       -1.3146442372
 DE(Corr)=  -1.3146435     E(CORR)=     -1233.5368362     Delta= 4.74D-05
 NORM(A)=   0.12305667D+01
 Iteration Nr.  15
 **********************
 DD1Dir will call FoFMem   1 times, MxPair=       794
 NAB=   266 NAA=   171 NBB=    91.
 A-vector RMS=  1.1226732D-05 Max=  2.6920363D-04 conv= 1.00D-05.
 RLE energy=       -1.3146313405
 DE(Corr)=  -1.3146306     E(CORR)=     -1233.5368234     Delta= 1.29D-05
 NORM(A)=   0.12305558D+01
 Iteration Nr.  16
 **********************
 DD1Dir will call FoFMem   1 times, MxPair=       794
 NAB=   266 NAA=   171 NBB=    91.
 A-vector RMS=  9.5224403D-06 Max=  3.4015096D-04 conv= 1.00D-05.
 RLE energy=       -1.3146005979
 DE(Corr)=  -1.3146183     E(CORR)=     -1233.5368110     Delta= 1.23D-05
 NORM(A)=   0.12304537D+01
 Iteration Nr.  17
 **********************
 DD1Dir will call FoFMem   1 times, MxPair=       794
 NAB=   266 NAA=   171 NBB=    91.
 A-vector RMS=  8.4911994D-06 Max=  2.2112845D-04 conv= 1.00D-05.
 RLE energy=       -1.3146189306
 DE(Corr)=  -1.3146223     E(CORR)=     -1233.5368150     Delta=-3.96D-06
 NORM(A)=   0.12303284D+01
 Iteration Nr.  18
 **********************
 DD1Dir will call FoFMem   1 times, MxPair=       794
 NAB=   266 NAA=   171 NBB=    91.
 A-vector RMS=  9.0539534D-06 Max=  2.8271081D-04 conv= 1.00D-05.
 RLE energy=       -1.3145830279
 DE(Corr)=  -1.3145714     E(CORR)=     -1233.5367641     Delta= 5.09D-05
 NORM(A)=   0.12302641D+01
 Iteration Nr.  19
 **********************
 DD1Dir will call FoFMem   1 times, MxPair=       794
 NAB=   266 NAA=   171 NBB=    91.
 A-vector RMS=  4.8760999D-06 Max=  1.3275645D-04 conv= 1.00D-05.
 RLE energy=       -1.3145855524
 DE(Corr)=  -1.3145979     E(CORR)=     -1233.5367906     Delta=-2.65D-05
 NORM(A)=   0.12301979D+01
 Iteration Nr.  20
 **********************
 DD1Dir will call FoFMem   1 times, MxPair=       794
 NAB=   266 NAA=   171 NBB=    91.
 A-vector RMS=  3.5550493D-06 Max=  9.4002464D-05 conv= 1.00D-05.
 RLE energy=       -1.3145790276
 DE(Corr)=  -1.3145763     E(CORR)=     -1233.5367690     Delta= 2.16D-05
 NORM(A)=   0.12301382D+01
 Iteration Nr.  21
 **********************
 DD1Dir will call FoFMem   1 times, MxPair=       794
 NAB=   266 NAA=   171 NBB=    91.
 A-vector RMS=  2.1283567D-06 Max=  4.1382348D-05 conv= 1.00D-05.
 RLE energy=       -1.3145745147
 DE(Corr)=  -1.3145760     E(CORR)=     -1233.5367687     Delta= 3.01D-07
 NORM(A)=   0.12300985D+01
 Iteration Nr.  22
 **********************
 DD1Dir will call FoFMem   1 times, MxPair=       794
 NAB=   266 NAA=   171 NBB=    91.
 A-vector RMS=  1.7488058D-06 Max=  3.4620820D-05 conv= 1.00D-05.
 RLE energy=       -1.3145699611
 DE(Corr)=  -1.3145726     E(CORR)=     -1233.5367653     Delta= 3.42D-06
 NORM(A)=   0.12300592D+01
 Iteration Nr.  23
 **********************
 DD1Dir will call FoFMem   1 times, MxPair=       794
 NAB=   266 NAA=   171 NBB=    91.
 A-vector RMS=  1.3733846D-06 Max=  3.6257463D-05 conv= 1.00D-05.
 RLE energy=       -1.3145720495
 DE(Corr)=  -1.3145717     E(CORR)=     -1233.5367644     Delta= 8.63D-07
 NORM(A)=   0.12300399D+01
 Iteration Nr.  24
 **********************
 DD1Dir will call FoFMem   1 times, MxPair=       794
 NAB=   266 NAA=   171 NBB=    91.
 A-vector RMS=  1.0428805D-06 Max=  2.5682394D-05 conv= 1.00D-05.
 RLE energy=       -1.3145668090
 DE(Corr)=  -1.3145673     E(CORR)=     -1233.5367601     Delta= 4.38D-06
 NORM(A)=   0.12300299D+01
 Iteration Nr.  25
 **********************
 DD1Dir will call FoFMem   1 times, MxPair=       794
 NAB=   266 NAA=   171 NBB=    91.
 A-vector RMS=  1.1915053D-06 Max=  3.7688445D-05 conv= 1.00D-05.
 RLE energy=       -1.3145700216
 DE(Corr)=  -1.3145724     E(CORR)=     -1233.5367651     Delta=-5.05D-06
 NORM(A)=   0.12300243D+01
 Iteration Nr.  26
 **********************
 DD1Dir will call FoFMem   1 times, MxPair=       794
 NAB=   266 NAA=   171 NBB=    91.
 A-vector RMS=  5.5448724D-07 Max=  1.5508663D-05 conv= 1.00D-05.
 RLE energy=       -1.3145689477
 DE(Corr)=  -1.3145683     E(CORR)=     -1233.5367611     Delta= 4.05D-06
 NORM(A)=   0.12300212D+01
 Iteration Nr.  27
 **********************
 DD1Dir will call FoFMem   1 times, MxPair=       794
 NAB=   266 NAA=   171 NBB=    91.
 A-vector RMS=  4.6887357D-07 Max=  1.6070229D-05 conv= 1.00D-05.
 RLE energy=       -1.3145694651
 DE(Corr)=  -1.3145703     E(CORR)=     -1233.5367630     Delta=-1.91D-06
 NORM(A)=   0.12300215D+01
 Iteration Nr.  28
 **********************
 DD1Dir will call FoFMem   1 times, MxPair=       794
 NAB=   266 NAA=   171 NBB=    91.
 A-vector RMS=  2.5329050D-07 Max=  5.4462928D-06 conv= 1.00D-05.
 RLE energy=       -1.3145697598
 DE(Corr)=  -1.3145700     E(CORR)=     -1233.5367627     Delta= 2.91D-07
 NORM(A)=   0.12300230D+01
 Iteration Nr.  29
 **********************
 DD1Dir will call FoFMem   1 times, MxPair=       794
 NAB=   266 NAA=   171 NBB=    91.
 A-vector RMS=  2.2246202D-07 Max=  5.5901465D-06 conv= 1.00D-05.
 RLE energy=       -1.3145704189
 DE(Corr)=  -1.3145703     E(CORR)=     -1233.5367630     Delta=-3.24D-07
 NORM(A)=   0.12300248D+01
 Iteration Nr.  30
 **********************
 DD1Dir will call FoFMem   1 times, MxPair=       794
 NAB=   266 NAA=   171 NBB=    91.
 A-vector RMS=  2.0761991D-07 Max=  4.9117712D-06 conv= 1.00D-05.
 RLE energy=       -1.3145701234
 DE(Corr)=  -1.3145701     E(CORR)=     -1233.5367628     Delta= 1.76D-07
 NORM(A)=   0.12300279D+01
 Iteration Nr.  31
 **********************
 DD1Dir will call FoFMem   1 times, MxPair=       794
 NAB=   266 NAA=   171 NBB=    91.
 A-vector RMS=  1.7155905D-07 Max=  4.2601808D-06 conv= 1.00D-05.
 RLE energy=       -1.3145710442
 DE(Corr)=  -1.3145711     E(CORR)=     -1233.5367638     Delta=-1.02D-06
 NORM(A)=   0.12300295D+01
 Iteration Nr.  32
 **********************
 DD1Dir will call FoFMem   1 times, MxPair=       794
 NAB=   266 NAA=   171 NBB=    91.
 A-vector RMS=  1.6407345D-07 Max=  4.1699498D-06 conv= 1.00D-05.
 RLE energy=       -1.3145708343
 DE(Corr)=  -1.3145704     E(CORR)=     -1233.5367631     Delta= 7.08D-07
 NORM(A)=   0.12300313D+01
 Iteration Nr.  33
 **********************
 DD1Dir will call FoFMem   1 times, MxPair=       794
 NAB=   266 NAA=   171 NBB=    91.
 A-vector RMS=  8.0328416D-08 Max=  1.8749185D-06 conv= 1.00D-05.
 RLE energy=       -1.3145710346
 DE(Corr)=  -1.3145711     E(CORR)=     -1233.5367638     Delta=-6.47D-07
 NORM(A)=   0.12300327D+01
 Iteration Nr.  34
 **********************
 DD1Dir will call FoFMem   1 times, MxPair=       794
 NAB=   266 NAA=   171 NBB=    91.
 A-vector RMS=  6.2965775D-08 Max=  1.6109975D-06 conv= 1.00D-05.
 RLE energy=       -1.3145711252
 DE(Corr)=  -1.3145710     E(CORR)=     -1233.5367637     Delta= 4.88D-08
 NORM(A)=   0.12300338D+01
 CI/CC converged in   34 iterations to DelEn= 4.88D-08 Conv= 1.00D-07 ErrA1= 6.30D-08 Conv= 1.00D-05
 Wavefunction amplitudes converged. E(Corr)=     -1233.5367637    
 Dominant configurations:
 ***********************
 Spin Case        I    J    A    B          Value
    AA           19        20            0.384264D+00
    AA           19        23            0.145125D+00
    AA           19        32            0.123589D+00
    BB           12        15           -0.117673D+00
 Largest amplitude= 3.84D-01
 Time for triples=    44392.95 seconds.
 T4(CCSD)= -0.62966497D-01
 T5(CCSD)=  0.19957521D-01
 CCSD(T)= -0.12335797727D+04
 Discarding MO integrals.
 Leave Link  913 at Wed Mar  7 01:18:09 2018, MaxMem= 21474836480 cpu:           60450.1 elap:            1913.4
 (Enter /home1/apps/gaussian/16rA.03/g16/l601.exe)
 Copying SCF densities to generalized density rwf, IOpCl= 0 IROHF=1.

 **********************************************************************

            Population analysis using the SCF density.

 **********************************************************************

 Orbital symmetries:
       Occupied  (SG) (SG) (SG) (PI) (PI) (SG) (SG) (SG) (PI) (PI)
                 (SG) (SG) (PI) (PI) (DLTA) (DLTA) (SG) (PI) (PI)
       Virtual   (SG) (PI) (PI) (SG) (SG) (PI) (PI) (SG) (DLTA)
                 (DLTA) (PI) (PI) (SG) (SG) (PI) (PI) (SG) (SG)
                 (PI) (PI) (DLTA) (DLTA) (PI) (PI) (SG) (SG) (SG)
                 (DLTA) (DLTA) (PHI) (PHI) (PI) (PI) (PI) (PI)
                 (SG) (SG) (DLTA) (DLTA) (PI) (PI) (SG) (DLTA)
                 (DLTA) (PI) (PI) (SG) (PI) (PI) (SG) (SG) (SG)
                 (DLTA) (DLTA) (PI) (PI) (PHI) (PHI) (SG) (PHI)
                 (PHI) (DLTA) (DLTA) (DLTA) (DLTA) (PI) (PI) (SG)
                 (PI) (PI) (?A) (?A) (PI) (PI) (PHI) (PHI) (DLTA)
                 (DLTA) (SG) (SG) (PI) (PI) (DLTA) (DLTA) (SG)
                 (PI) (PI) (SG) (PI) (PI) (SG) (SG) (SG) (PHI)
                 (PHI) (DLTA) (DLTA) (PI) (PI) (PHI) (PHI) (SG)
                 (DLTA) (DLTA) (PI) (PI) (DLTA) (DLTA) (SG) (PI)
                 (PI) (DLTA) (DLTA) (SG) (PI) (PI) (PI) (PI) (SG)
                 (?A) (?A) (PHI) (PHI) (DLTA) (DLTA) (PI) (PI)
                 (SG) (SG) (SG) (DLTA) (DLTA) (PI) (PI) (SG) (PI)
                 (PI) (SG) (SG) (PHI) (PHI) (DLTA) (DLTA) (PI)
                 (PI) (PI) (PI) (SG) (SG) (?A) (?A) (PHI) (PHI)
                 (DLTA) (DLTA) (PI) (PI) (SG) (DLTA) (DLTA) (PI)
                 (PI) (SG) (SG) (PI) (PI) (SG) (SG) (PI) (PI) (DLTA)
                 (DLTA) (SG) (PI) (PI) (SG) (DLTA) (DLTA) (PI)
                 (PI) (SG) (SG) (PI) (PI) (SG) (SG) (DLTA) (DLTA)
                 (PI) (PI) (SG) (PI) (PI) (SG) (SG) (PI) (PI) (SG)
                 (SG) (PI) (PI) (SG) (SG) (PI) (PI) (SG) (DLTA)
                 (DLTA) (PI) (PI) (SG) (SG) (PI) (PI) (SG) (SG)
                 (SG) (PI) (PI) (SG) (SG) (PI) (PI) (SG) (SG) (SG)
                 (SG) (PI) (PI) (SG) (SG) (SG) (PI) (PI) (SG) (SG)
                 (SG) (SG) (SG)
 The electronic state is 6-SG.
 Alpha  occ. eigenvalues -- -242.50193 -29.60330 -24.95978 -24.95978 -24.95347
 Alpha  occ. eigenvalues --  -20.44359  -4.08333  -2.73757  -2.73757  -2.73088
 Alpha  occ. eigenvalues --   -1.10732  -0.64257  -0.64257  -0.63467  -0.63467
 Alpha  occ. eigenvalues --   -0.59222  -0.33914  -0.33914  -0.33855
 Alpha virt. eigenvalues --   -0.04524   0.01579   0.01579   0.01865   0.03845
 Alpha virt. eigenvalues --    0.06691   0.06691   0.08217   0.08445   0.08445
 Alpha virt. eigenvalues --    0.09603   0.09603   0.13229   0.14044   0.23024
 Alpha virt. eigenvalues --    0.23024   0.25532   0.28769   0.29477   0.29477
 Alpha virt. eigenvalues --    0.29976   0.29976   0.34313   0.34313   0.41214
 Alpha virt. eigenvalues --    0.45976   0.55118   0.71939   0.71939   0.76446
 Alpha virt. eigenvalues --    0.76446   0.77101   0.77101   0.85418   0.85418
 Alpha virt. eigenvalues --    0.85709   0.87310   0.92011   0.92011   0.94451
 Alpha virt. eigenvalues --    0.94451   1.02885   1.02885   1.03490   1.12355
 Alpha virt. eigenvalues --    1.12355   1.21709   1.43060   1.43060   1.52295
 Alpha virt. eigenvalues --    1.76436   1.88492   2.14572   2.14572   2.14784
 Alpha virt. eigenvalues --    2.14784   2.17886   2.17886   2.31278   2.31797
 Alpha virt. eigenvalues --    2.31797   2.41938   2.41938   2.45712   2.45712
 Alpha virt. eigenvalues --    2.47287   2.47287   2.60660   2.60660   2.61491
 Alpha virt. eigenvalues --    2.76681   2.76681   2.83410   2.83410   2.85911
 Alpha virt. eigenvalues --    2.85911   2.87670   2.87670   2.89890   2.95034
 Alpha virt. eigenvalues --    3.17715   3.17715   3.25882   3.25882   3.34392
 Alpha virt. eigenvalues --    3.69656   3.69656   3.89406   4.25359   4.25359
 Alpha virt. eigenvalues --    4.85790   5.36315   5.52779   6.36005   6.36005
 Alpha virt. eigenvalues --    6.39280   6.39280   6.54626   6.54626   6.64645
 Alpha virt. eigenvalues --    6.66711   6.66711   6.70186   6.70186   6.70496
 Alpha virt. eigenvalues --    6.70496   6.79989   6.79989   6.91631   7.09373
 Alpha virt. eigenvalues --    7.09373   7.22471   7.22471   7.39433   7.41699
 Alpha virt. eigenvalues --    7.41699   7.63057   7.63057   7.76587   8.14832
 Alpha virt. eigenvalues --    8.14832   8.17416   8.17416   8.30658   8.30658
 Alpha virt. eigenvalues --    8.50318   8.50318   8.55533   8.98833  12.25007
 Alpha virt. eigenvalues --   13.54089  13.54089  13.65619  13.65619  13.88637
 Alpha virt. eigenvalues --   14.69519  14.69519  15.50584  16.29767  17.42211
 Alpha virt. eigenvalues --   17.42211  17.44496  17.44496  17.58487  17.58487
 Alpha virt. eigenvalues --   17.62774  17.62774  17.88417  18.50034  22.06151
 Alpha virt. eigenvalues --   22.06151  22.07132  22.07132  22.13877  22.13877
 Alpha virt. eigenvalues --   22.23941  22.23941  22.28597  25.06135  25.06135
 Alpha virt. eigenvalues --   25.17136  25.17136  25.30575  25.74023  36.57277
 Alpha virt. eigenvalues --   36.57277  37.22464  40.73358  43.79989  43.79989
 Alpha virt. eigenvalues --   43.99291  43.99291  44.08011  44.09942  44.09942
 Alpha virt. eigenvalues --   44.79965  45.60587  45.60587  45.70616  45.70616
 Alpha virt. eigenvalues --   45.91760  52.98759  71.46144  71.46144  72.21064
 Alpha virt. eigenvalues --   88.28232  98.70623  98.70623  98.78425  98.78425
 Alpha virt. eigenvalues --   98.94608 113.55478 113.55478 114.23050 118.70369
 Alpha virt. eigenvalues --  142.93668 142.93668 143.68795 180.75382 261.76573
 Alpha virt. eigenvalues --  261.76573 262.36744 291.21065 302.78738 302.78738
 Alpha virt. eigenvalues --  303.42156 306.07578 306.07578 306.12571 306.12571
 Alpha virt. eigenvalues --  306.27577 414.73019 675.06774 675.06774 675.64922
 Alpha virt. eigenvalues --  729.881671220.274971571.457501571.457501571.94232
 Alpha virt. eigenvalues -- 1788.294513811.725913811.725913812.104564234.48246
 Alpha virt. eigenvalues -- 4466.812839610.650009658.664599658.664599658.92196
 Alpha virt. eigenvalues -- **************************************************
 Alpha virt. eigenvalues -- ****************************************
     Molecular Orbital Coefficients:
                          10        11        12        13        14
                           O         O         O         O         O
     Eigenvalues --    -2.73088  -1.10732  -0.64257  -0.64257  -0.63467
   1 1   Mn 1S          0.00000  -0.00000  -0.00000   0.00000   0.00000
   2        2S          0.00000  -0.00000  -0.00001   0.00000   0.00000
   3        3S          0.00000  -0.00001  -0.00002   0.00000   0.00000
   4        4S          0.00000  -0.00002  -0.00005   0.00000   0.00000
   5        5S          0.00000  -0.00006  -0.00014   0.00000   0.00000
   6        6S          0.00000  -0.00017  -0.00037   0.00000   0.00000
   7        7S          0.00000  -0.00046  -0.00098   0.00000   0.00000
   8        8S          0.00000  -0.00116  -0.00248   0.00000   0.00000
   9        9S          0.00000  -0.00254  -0.00546   0.00000   0.00000
  10       10S          0.00000  -0.00476  -0.01016   0.00000   0.00000
  11       11S          0.00000  -0.00520  -0.01127   0.00000   0.00000
  12       12S          0.00000   0.00148   0.00349   0.00000   0.00000
  13       13S          0.00000   0.02422   0.05139   0.00000   0.00000
  14       14S          0.00000   0.02875   0.06825   0.00000   0.00000
  15       15S          0.00000  -0.04188  -0.06677   0.00000   0.00000
  16       16S          0.00000  -0.00283  -0.07720   0.00000   0.00000
  17       17S          0.00000  -0.01139  -0.11142   0.00000   0.00000
  18       18S          0.00000   0.03636   0.23312   0.00000   0.00000
  19       19S          0.00000  -0.01729   0.16851   0.00000   0.00000
  20       20S          0.00000  -0.00092   0.03402   0.00000   0.00000
  21       21S          0.00000   0.02196   0.02855   0.00000   0.00000
  22       22S          0.00000  -0.08983  -0.10989   0.00000   0.00000
  23       23S          0.00000   0.00021  -0.00151   0.00000   0.00000
  24       24PX        -0.00004   0.00000   0.00000   0.00000   0.00000
  25       24PY         0.00000   0.00000   0.00000   0.00000   0.00000
  26       24PZ         0.00000  -0.00000  -0.00000   0.00000   0.00000
  27       25PX        -0.00020   0.00000   0.00000   0.00000   0.00001
  28       25PY         0.00000   0.00000   0.00000   0.00001   0.00000
  29       25PZ         0.00000  -0.00002  -0.00002   0.00000   0.00000
  30       26PX        -0.00093   0.00000   0.00000   0.00000   0.00007
  31       26PY         0.00000   0.00000   0.00000   0.00007   0.00000
  32       26PZ         0.00000  -0.00011  -0.00008   0.00000   0.00000
  33       27PX        -0.00371   0.00000   0.00000   0.00000   0.00028
  34       27PY         0.00000   0.00000   0.00000   0.00028   0.00000
  35       27PZ         0.00000  -0.00044  -0.00034   0.00000   0.00000
  36       28PX        -0.01269   0.00000   0.00000   0.00000   0.00094
  37       28PY         0.00000   0.00000   0.00000   0.00094   0.00000
  38       28PZ         0.00000  -0.00148  -0.00112   0.00000   0.00000
  39       29PX        -0.03623   0.00000   0.00000   0.00000   0.00270
  40       29PY         0.00000   0.00000   0.00000   0.00270   0.00000
  41       29PZ         0.00000  -0.00430  -0.00331   0.00000   0.00000
  42       30PX        -0.08145   0.00000   0.00000   0.00000   0.00602
  43       30PY         0.00000   0.00000   0.00000   0.00602   0.00000
  44       30PZ         0.00000  -0.00949  -0.00716   0.00000   0.00000
  45       31PX        -0.13535   0.00000   0.00000   0.00000   0.01027
  46       31PY         0.00000   0.00000   0.00000   0.01027   0.00000
  47       31PZ         0.00000  -0.01637  -0.01285   0.00000   0.00000
  48       32PX        -0.13840   0.00000   0.00000   0.00000   0.00975
  49       32PY         0.00000   0.00000   0.00000   0.00975   0.00000
  50       32PZ         0.00000  -0.01486  -0.01016   0.00000   0.00000
  51       33PX         0.04827   0.00000   0.00000   0.00000  -0.01551
  52       33PY         0.00000   0.00000   0.00000  -0.01551   0.00000
  53       33PZ         0.00000   0.03396   0.04672   0.00000   0.00000
  54       34PX         0.32603   0.00000   0.00000   0.00000  -0.02600
  55       34PY         0.00000   0.00000   0.00000  -0.02600   0.00000
  56       34PZ         0.00000   0.03723   0.02736   0.00000   0.00000
  57       35PX         0.23481   0.00000   0.00000   0.00000  -0.02380
  58       35PY         0.00000   0.00000   0.00000  -0.02380   0.00000
  59       35PZ         0.00000   0.03167   0.02591   0.00000   0.00000
  60       36PX         0.28603   0.00000   0.00000   0.00000  -0.02834
  61       36PY         0.00000   0.00000   0.00000  -0.02834   0.00000
  62       36PZ         0.00000   0.02806   0.01887   0.00000   0.00000
  63       37PX         0.04122   0.00000   0.00000   0.00000   0.03676
  64       37PY         0.00000   0.00000   0.00000   0.03676   0.00000
  65       37PZ         0.00000  -0.00598  -0.02879   0.00000   0.00000
  66       38PX        -0.00344   0.00000   0.00000   0.00000   0.08306
  67       38PY         0.00000   0.00000   0.00000   0.08306   0.00000
  68       38PZ         0.00000   0.00485  -0.00716   0.00000   0.00000
  69       39PX         0.00178   0.00000   0.00000   0.00000   0.01113
  70       39PY         0.00000   0.00000   0.00000   0.01113   0.00000
  71       39PZ         0.00000   0.00514   0.00646   0.00000   0.00000
  72       40PX        -0.01720   0.00000   0.00000   0.00000   0.01168
  73       40PY         0.00000   0.00000   0.00000   0.01168   0.00000
  74       40PZ         0.00000  -0.02796  -0.04089   0.00000   0.00000
  75       41PX         0.22677   0.00000   0.00000   0.00000  -0.01942
  76       41PY         0.00000   0.00000   0.00000  -0.01942   0.00000
  77       41PZ         0.00000   0.03625   0.03297   0.00000   0.00000
  78       42PX        -0.00052   0.00000   0.00000   0.00000  -0.00149
  79       42PY         0.00000   0.00000   0.00000  -0.00149   0.00000
  80       42PZ         0.00000  -0.00101  -0.00137   0.00000   0.00000
  81       43D 0        0.00000   0.00026   0.00085   0.00000   0.00000
  82       43D+1        0.00004   0.00000   0.00000   0.00000  -0.00053
  83       43D-1        0.00000   0.00000   0.00000  -0.00053   0.00000
  84       43D+2        0.00000   0.00000  -0.00000   0.00000   0.00000
  85       43D-2        0.00000   0.00000   0.00000   0.00000   0.00000
  86       44D 0        0.00000   0.00189   0.00613   0.00000   0.00000
  87       44D+1        0.00033   0.00000   0.00000   0.00000  -0.00387
  88       44D-1        0.00000   0.00000   0.00000  -0.00387   0.00000
  89       44D+2        0.00000   0.00000  -0.00000   0.00000   0.00000
  90       44D-2        0.00000   0.00000   0.00000   0.00000   0.00000
  91       45D 0        0.00000   0.00697   0.02294   0.00000   0.00000
  92       45D+1        0.00121   0.00000   0.00000   0.00000  -0.01444
  93       45D-1        0.00000   0.00000   0.00000  -0.01444   0.00000
  94       45D+2        0.00000   0.00000  -0.00000   0.00000   0.00000
  95       45D-2        0.00000   0.00000   0.00000   0.00000   0.00000
  96       46D 0        0.00000   0.02341   0.06894   0.00000   0.00000
  97       46D+1        0.00400   0.00000   0.00000   0.00000  -0.04430
  98       46D-1        0.00000   0.00000   0.00000  -0.04430   0.00000
  99       46D+2        0.00000   0.00000  -0.00000   0.00000   0.00000
 100       46D-2        0.00000   0.00000   0.00000   0.00000   0.00000
 101       47D 0        0.00000  -0.09673  -0.14315   0.00000   0.00000
 102       47D+1       -0.00410   0.00000   0.00000   0.00000   0.11938
 103       47D-1        0.00000   0.00000   0.00000   0.11938   0.00000
 104       47D+2        0.00000   0.00000  -0.00000   0.00000   0.00000
 105       47D-2        0.00000   0.00000   0.00000   0.00000   0.00000
 106       48D 0        0.00000   0.03805   0.10635   0.00000   0.00000
 107       48D+1        0.00949   0.00000   0.00000   0.00000  -0.06706
 108       48D-1        0.00000   0.00000   0.00000  -0.06706   0.00000
 109       48D+2        0.00000   0.00000  -0.00000   0.00000   0.00000
 110       48D-2        0.00000   0.00000   0.00000   0.00000   0.00000
 111       49D 0        0.00000   0.01496   0.07105   0.00000   0.00000
 112       49D+1        0.00382   0.00000   0.00000   0.00000  -0.05506
 113       49D-1        0.00000   0.00000   0.00000  -0.05506   0.00000
 114       49D+2        0.00000   0.00000  -0.00000   0.00000   0.00000
 115       49D-2        0.00000   0.00000   0.00000   0.00000   0.00000
 116       50D 0        0.00000  -0.00336   0.00513   0.00000   0.00000
 117       50D+1       -0.00009   0.00000   0.00000   0.00000  -0.02242
 118       50D-1        0.00000   0.00000   0.00000  -0.02242   0.00000
 119       50D+2        0.00000   0.00000   0.00000   0.00000   0.00000
 120       50D-2        0.00000   0.00000   0.00000   0.00000   0.00000
 121       51D 0        0.00000  -0.00801  -0.01653   0.00000   0.00000
 122       51D+1       -0.00100   0.00000   0.00000   0.00000   0.01155
 123       51D-1        0.00000   0.00000   0.00000   0.01155   0.00000
 124       51D+2        0.00000  -0.00000  -0.00000   0.00000   0.00000
 125       51D-2        0.00000   0.00000   0.00000   0.00000   0.00000
 126       52D 0        0.00000   0.12315   0.22965   0.00000   0.00000
 127       52D+1        0.00961   0.00000   0.00000   0.00000  -0.17354
 128       52D-1        0.00000   0.00000   0.00000  -0.17354   0.00000
 129       52D+2        0.00000  -0.00000   0.00000   0.00000   0.00000
 130       52D-2        0.00000   0.00000   0.00000   0.00000   0.00000
 131       53D 0        0.00000   0.00019   0.00095   0.00000   0.00000
 132       53D+1        0.00007   0.00000   0.00000   0.00000   0.00418
 133       53D-1        0.00000   0.00000   0.00000   0.00418   0.00000
 134       53D+2        0.00000   0.00000   0.00000   0.00000   0.00000
 135       53D-2        0.00000   0.00000   0.00000   0.00000   0.00000
 136       54F 0        0.00000  -0.00031  -0.00041   0.00000   0.00000
 137       54F+1        0.00007   0.00000   0.00000   0.00000   0.00045
 138       54F-1        0.00000   0.00000   0.00000   0.00045   0.00000
 139       54F+2        0.00000  -0.00000   0.00000   0.00000   0.00000
 140       54F-2        0.00000   0.00000   0.00000   0.00000   0.00000
 141       54F+3        0.00000   0.00000   0.00000   0.00000   0.00000
 142       54F-3        0.00000   0.00000   0.00000   0.00000   0.00000
 143       55F 0        0.00000  -0.00181  -0.00214   0.00000   0.00000
 144       55F+1       -0.00019   0.00000   0.00000   0.00000   0.00105
 145       55F-1        0.00000   0.00000   0.00000   0.00105   0.00000
 146       55F+2        0.00000  -0.00000   0.00000   0.00000   0.00000
 147       55F-2        0.00000   0.00000   0.00000   0.00000   0.00000
 148       55F+3       -0.00000   0.00000   0.00000   0.00000   0.00000
 149       55F-3        0.00000   0.00000   0.00000   0.00000   0.00000
 150       56F 0        0.00000  -0.00658  -0.00845   0.00000   0.00000
 151       56F+1       -0.00050   0.00000   0.00000   0.00000   0.01034
 152       56F-1        0.00000   0.00000   0.00000   0.01034   0.00000
 153       56F+2        0.00000  -0.00000   0.00000   0.00000   0.00000
 154       56F-2        0.00000   0.00000   0.00000   0.00000   0.00000
 155       56F+3        0.00000   0.00000   0.00000   0.00000   0.00000
 156       56F-3        0.00000   0.00000   0.00000   0.00000   0.00000
 157       57F 0        0.00000  -0.00222  -0.00700   0.00000   0.00000
 158       57F+1       -0.00001   0.00000   0.00000   0.00000   0.00698
 159       57F-1        0.00000   0.00000   0.00000   0.00698   0.00000
 160       57F+2        0.00000  -0.00000   0.00000   0.00000   0.00000
 161       57F-2        0.00000   0.00000   0.00000   0.00000   0.00000
 162       57F+3       -0.00000   0.00000   0.00000   0.00000   0.00000
 163       57F-3        0.00000   0.00000   0.00000   0.00000   0.00000
 164       58G 0        0.00000   0.00001   0.00008   0.00000   0.00000
 165       58G+1       -0.00004   0.00000   0.00000   0.00000  -0.00005
 166       58G-1        0.00000   0.00000   0.00000  -0.00005   0.00000
 167       58G+2        0.00000   0.00000  -0.00000   0.00000   0.00000
 168       58G-2        0.00000   0.00000   0.00000   0.00000   0.00000
 169       58G+3        0.00000   0.00000   0.00000   0.00000  -0.00000
 170       58G-3        0.00000   0.00000   0.00000  -0.00000   0.00000
 171       58G+4        0.00000  -0.00000   0.00000   0.00000   0.00000
 172       58G-4        0.00000   0.00000   0.00000   0.00000   0.00000
 173       59G 0        0.00000   0.00054   0.00032   0.00000   0.00000
 174       59G+1        0.00004   0.00000   0.00000   0.00000  -0.00033
 175       59G-1        0.00000   0.00000   0.00000  -0.00033   0.00000
 176       59G+2        0.00000   0.00000  -0.00000   0.00000   0.00000
 177       59G-2        0.00000   0.00000   0.00000   0.00000   0.00000
 178       59G+3        0.00000   0.00000   0.00000   0.00000   0.00000
 179       59G-3        0.00000   0.00000   0.00000   0.00000   0.00000
 180       59G+4        0.00000   0.00000  -0.00000   0.00000   0.00000
 181       59G-4        0.00000   0.00000   0.00000   0.00000   0.00000
 182       60G 0        0.00000   0.00143   0.00190   0.00000   0.00000
 183       60G+1       -0.00015   0.00000   0.00000   0.00000  -0.00416
 184       60G-1        0.00000   0.00000   0.00000  -0.00416   0.00000
 185       60G+2        0.00000   0.00000  -0.00000   0.00000   0.00000
 186       60G-2        0.00000   0.00000   0.00000   0.00000   0.00000
 187       60G+3        0.00000   0.00000   0.00000   0.00000  -0.00000
 188       60G-3        0.00000   0.00000   0.00000  -0.00000   0.00000
 189       60G+4        0.00000  -0.00000  -0.00000   0.00000   0.00000
 190       60G-4        0.00000   0.00000   0.00000   0.00000   0.00000
 191 2   O  1S          0.00000  -0.00016   0.00003   0.00000   0.00000
 192        2S          0.00000  -0.00091   0.00017   0.00000   0.00000
 193        3S          0.00000  -0.00452   0.00083   0.00000   0.00000
 194        4S          0.00000  -0.01781   0.00324   0.00000   0.00000
 195        5S          0.00000  -0.05633   0.01049   0.00000   0.00000
 196        6S          0.00000  -0.14078   0.02946   0.00000   0.00000
 197        7S          0.00000  -0.17598   0.03904   0.00000   0.00000
 198        8S          0.00000   0.53704  -0.10729   0.00000   0.00000
 199        9S          0.00000   0.15179  -0.03652   0.00000   0.00000
 200       10S          0.00000   0.39331  -0.14232   0.00000   0.00000
 201       11S          0.00000   0.01373  -0.00870   0.00000   0.00000
 202       12S          0.00000   0.00860  -0.00385   0.00000   0.00000
 203       13S          0.00000   0.05807  -0.07821   0.00000   0.00000
 204       14PX         0.00005   0.00000   0.00000   0.00000   0.00709
 205       14PY         0.00000   0.00000   0.00000   0.00709   0.00000
 206       14PZ         0.00000   0.00056   0.00651   0.00000   0.00000
 207       15PX         0.00055   0.00000   0.00000   0.00000   0.07688
 208       15PY         0.00000   0.00000   0.00000   0.07688   0.00000
 209       15PZ         0.00000   0.00543   0.07105   0.00000   0.00000
 210       16PX         0.00167   0.00000   0.00000   0.00000   0.25493
 211       16PY         0.00000   0.00000   0.00000   0.25493   0.00000
 212       16PZ         0.00000   0.01677   0.23622   0.00000   0.00000
 213       17PX         0.00307   0.00000   0.00000   0.00000   0.40209
 214       17PY         0.00000   0.00000   0.00000   0.40209   0.00000
 215       17PZ         0.00000   0.03641   0.37380   0.00000   0.00000
 216       18PX         0.00158   0.00000   0.00000   0.00000   0.35016
 217       18PY         0.00000   0.00000   0.00000   0.35016   0.00000
 218       18PZ         0.00000   0.04701   0.28885   0.00000   0.00000
 219       19PX         0.00004   0.00000   0.00000   0.00000   0.00726
 220       19PY         0.00000   0.00000   0.00000   0.00726   0.00000
 221       19PZ         0.00000   0.00040   0.00691   0.00000   0.00000
 222       20PX         0.00002   0.00000   0.00000   0.00000   0.00320
 223       20PY         0.00000   0.00000   0.00000   0.00320   0.00000
 224       20PZ         0.00000   0.00022   0.00300   0.00000   0.00000
 225       21PX         0.00013   0.00000   0.00000   0.00000   0.08018
 226       21PY         0.00000   0.00000   0.00000   0.08018   0.00000
 227       21PZ         0.00000   0.00883   0.05174   0.00000   0.00000
 228       22D 0        0.00000   0.00122   0.00512   0.00000   0.00000
 229       22D+1        0.00028   0.00000   0.00000   0.00000   0.00427
[...]
  51       33PX         0.26687   0.13363   0.13325   0.00038
  52       33PY         0.26687   0.13363   0.13325   0.00038
  53       33PZ         0.27300   0.13669   0.13632   0.00037
  54       34PX         0.52980   0.26553   0.26428   0.00125
  55       34PY         0.52980   0.26553   0.26428   0.00125
  56       34PZ         0.53271   0.26668   0.26604   0.00064
  57       35PX         0.45954   0.23012   0.22942   0.00070
  58       35PY         0.45954   0.23012   0.22942   0.00070
  59       35PZ         0.45879   0.22946   0.22933   0.00014
  60       36PX         0.48558   0.24257   0.24301  -0.00044
  61       36PY         0.48558   0.24257   0.24301  -0.00044
  62       36PZ         0.48105   0.24048   0.24057  -0.00009
  63       37PX         0.07115   0.04000   0.03115   0.00884
  64       37PY         0.07115   0.04000   0.03115   0.00884
  65       37PZ         0.05558   0.02867   0.02691   0.00176
  66       38PX         0.07166   0.04144   0.03023   0.01121
  67       38PY         0.07166   0.04144   0.03023   0.01121
  68       38PZ        -0.01105  -0.00565  -0.00541  -0.00024
  69       39PX         0.00681   0.00345   0.00336   0.00009
  70       39PY         0.00681   0.00345   0.00336   0.00009
  71       39PZ        -0.00060  -0.00029  -0.00031   0.00002
  72       40PX        -0.00720  -0.00372  -0.00348  -0.00025
  73       40PY        -0.00720  -0.00372  -0.00348  -0.00025
  74       40PZ        -0.01264  -0.00646  -0.00618  -0.00029
  75       41PX         0.41613   0.20839   0.20773   0.00066
  76       41PY         0.41613   0.20839   0.20773   0.00066
  77       41PZ         0.41912   0.20994   0.20918   0.00076
  78       42PX        -0.00043  -0.00021  -0.00023   0.00002
  79       42PY        -0.00043  -0.00021  -0.00023   0.00002
  80       42PZ        -0.00011  -0.00007  -0.00004  -0.00004
  81       43D 0        0.00016   0.00015   0.00001   0.00014
  82       43D+1        0.00018   0.00018   0.00000   0.00018
  83       43D-1        0.00018   0.00018   0.00000   0.00018
  84       43D+2        0.00018   0.00018   0.00000   0.00018
  85       43D-2        0.00018   0.00018   0.00000   0.00018
  86       44D 0        0.00455   0.00426   0.00029   0.00397
  87       44D+1        0.00507   0.00497   0.00011   0.00486
  88       44D-1        0.00507   0.00497   0.00011   0.00486
  89       44D+2        0.00490   0.00490   0.00000   0.00490
  90       44D-2        0.00490   0.00490  -0.00000   0.00490
  91       45D 0        0.04041   0.03783   0.00258   0.03526
  92       45D+1        0.04500   0.04406   0.00094   0.04312
  93       45D-1        0.04500   0.04406   0.00094   0.04312
  94       45D+2        0.04345   0.04345  -0.00000   0.04345
  95       45D-2        0.04345   0.04345   0.00000   0.04345
  96       46D 0        0.16615   0.15264   0.01351   0.13914
  97       46D+1        0.18123   0.17623   0.00501   0.17122
  98       46D-1        0.18123   0.17623   0.00501   0.17122
  99       46D+2        0.17560   0.17560   0.00000   0.17560
 100       46D-2        0.17560   0.17560  -0.00000   0.17560
 101       47D 0        0.19159   0.23595  -0.04436   0.28030
 102       47D+1        0.28638   0.30606  -0.01967   0.32573
 103       47D-1        0.28638   0.30606  -0.01967   0.32573
 104       47D+2        0.28423   0.28423  -0.00000   0.28423
 105       47D-2        0.28423   0.28423  -0.00000   0.28423
 106       48D 0        0.33775   0.29548   0.04227   0.25320
 107       48D+1        0.33022   0.31334   0.01687   0.29647
 108       48D-1        0.33022   0.31334   0.01687   0.29647
 109       48D+2        0.31973   0.31973   0.00000   0.31973
 110       48D-2        0.31973   0.31973   0.00000   0.31973
 111       49D 0        0.14327   0.12087   0.02240   0.09847
 112       49D+1        0.14254   0.11910   0.02345   0.09565
 113       49D-1        0.14254   0.11910   0.02345   0.09565
 114       49D+2        0.12127   0.12127  -0.00000   0.12127
 115       49D-2        0.12127   0.12127  -0.00000   0.12127
 116       50D 0        0.00471   0.00707  -0.00236   0.00942
 117       50D+1        0.02201   0.01260   0.00941   0.00319
 118       50D-1        0.02201   0.01260   0.00941   0.00319
 119       50D+2        0.00673   0.00673   0.00000   0.00673
 120       50D-2        0.00673   0.00673   0.00000   0.00673
 121       51D 0       -0.00454  -0.00100  -0.00354   0.00254
 122       51D+1       -0.00167  -0.00029  -0.00138   0.00109
 123       51D-1       -0.00167  -0.00029  -0.00138   0.00109
 124       51D+2       -0.00229  -0.00229   0.00000  -0.00229
 125       51D-2       -0.00229  -0.00229  -0.00000  -0.00229
 126       52D 0        0.12273   0.05469   0.06804  -0.01334
 127       52D+1        0.05418   0.02573   0.02845  -0.00273
 128       52D-1        0.05418   0.02573   0.02845  -0.00273
 129       52D+2        0.04575   0.04575  -0.00000   0.04575
 130       52D-2        0.04575   0.04575  -0.00000   0.04575
 131       53D 0       -0.00029  -0.00018  -0.00011  -0.00007
 132       53D+1       -0.00148  -0.00073  -0.00075   0.00002
 133       53D-1       -0.00148  -0.00073  -0.00075   0.00002
 134       53D+2       -0.00011  -0.00011   0.00000  -0.00011
 135       53D-2       -0.00011  -0.00011   0.00000  -0.00011
 136       54F 0        0.00001   0.00001   0.00000   0.00000
 137       54F+1        0.00001   0.00000   0.00000   0.00000
 138       54F-1        0.00001   0.00000   0.00000   0.00000
 139       54F+2        0.00000   0.00000   0.00000   0.00000
 140       54F-2        0.00000   0.00000   0.00000   0.00000
 141       54F+3       -0.00000  -0.00000   0.00000  -0.00000
 142       54F-3       -0.00000   0.00000  -0.00000   0.00000
 143       55F 0        0.00023   0.00014   0.00009   0.00005
 144       55F+1        0.00009   0.00007   0.00002   0.00004
 145       55F-1        0.00009   0.00007   0.00002   0.00004
 146       55F+2        0.00001   0.00001  -0.00000   0.00001
 147       55F-2        0.00001   0.00001  -0.00000   0.00001
 148       55F+3       -0.00000  -0.00000  -0.00000  -0.00000
 149       55F-3        0.00000   0.00000   0.00000   0.00000
 150       56F 0        0.00437   0.00250   0.00187   0.00062
 151       56F+1        0.00371   0.00225   0.00146   0.00078
 152       56F-1        0.00371   0.00225   0.00146   0.00078
 153       56F+2        0.00018   0.00018   0.00000   0.00018
 154       56F-2        0.00018   0.00018   0.00000   0.00018
 155       56F+3        0.00000   0.00000  -0.00000   0.00000
 156       56F-3        0.00000   0.00000   0.00000  -0.00000
 157       57F 0        0.00092   0.00078   0.00013   0.00065
 158       57F+1        0.00710   0.00441   0.00269   0.00172
 159       57F-1        0.00710   0.00441   0.00269   0.00172
 160       57F+2        0.00020   0.00020   0.00000   0.00020
 161       57F-2        0.00020   0.00020   0.00000   0.00020
 162       57F+3       -0.00000  -0.00000  -0.00000   0.00000
 163       57F-3        0.00000   0.00000   0.00000  -0.00000
 164       58G 0        0.00000   0.00000   0.00000   0.00000
 165       58G+1        0.00000   0.00000   0.00000   0.00000
 166       58G-1        0.00000   0.00000   0.00000   0.00000
 167       58G+2       -0.00000  -0.00000  -0.00000  -0.00000
 168       58G-2       -0.00000  -0.00000  -0.00000  -0.00000
 169       58G+3       -0.00000  -0.00000   0.00000  -0.00000
 170       58G-3       -0.00000  -0.00000   0.00000  -0.00000
 171       58G+4        0.00000   0.00000   0.00000   0.00000
 172       58G-4       -0.00000  -0.00000  -0.00000  -0.00000
 173       59G 0        0.00003   0.00002   0.00001   0.00000
 174       59G+1        0.00001   0.00001   0.00001   0.00000
 175       59G-1        0.00001   0.00001   0.00001   0.00000
 176       59G+2        0.00000   0.00000   0.00000   0.00000
 177       59G-2        0.00000   0.00000   0.00000   0.00000
 178       59G+3       -0.00000  -0.00000   0.00000  -0.00000
 179       59G-3       -0.00000  -0.00000  -0.00000  -0.00000
 180       59G+4       -0.00000  -0.00000  -0.00000  -0.00000
 181       59G-4       -0.00000  -0.00000  -0.00000  -0.00000
 182       60G 0        0.00074   0.00039   0.00035   0.00004
 183       60G+1        0.00132   0.00071   0.00061   0.00009
 184       60G-1        0.00132   0.00071   0.00061   0.00009
 185       60G+2        0.00000   0.00000   0.00000   0.00000
 186       60G-2        0.00000   0.00000  -0.00000   0.00000
 187       60G+3       -0.00000  -0.00000   0.00000  -0.00000
 188       60G-3       -0.00000  -0.00000  -0.00000  -0.00000
 189       60G+4        0.00000   0.00000   0.00000  -0.00000
 190       60G-4       -0.00000  -0.00000   0.00000  -0.00000
 191 2   O  1S          0.00005   0.00003   0.00003   0.00000
 192        2S          0.00109   0.00054   0.00054   0.00000
 193        3S          0.01318   0.00659   0.00659   0.00000
 194        4S          0.09638   0.04819   0.04819   0.00000
 195        5S          0.40522   0.20261   0.20261   0.00001
 196        6S          0.80786   0.40393   0.40392   0.00001
 197        7S          0.50717   0.25357   0.25360  -0.00003
 198        8S          0.99425   0.49727   0.49698   0.00028
 199        9S          0.25640   0.12825   0.12815   0.00010
 200       10S          0.74194   0.37187   0.37006   0.00181
 201       11S          0.06876   0.03438   0.03438  -0.00000
 202       12S          0.04074   0.02037   0.02037   0.00000
 203       13S          0.07973   0.04192   0.03781   0.00411
 204       14PX         0.00173   0.00089   0.00084   0.00004
 205       14PY         0.00173   0.00089   0.00084   0.00004
 206       14PZ         0.00146   0.00074   0.00073   0.00001
 207       15PX         0.05830   0.02989   0.02841   0.00149
 208       15PY         0.05830   0.02989   0.02841   0.00149
 209       15PZ         0.04980   0.02507   0.02473   0.00034
 210       16PX         0.35414   0.18144   0.17270   0.00874
 211       16PY         0.35414   0.18144   0.17270   0.00874
 212       16PZ         0.30681   0.15427   0.15255   0.00172
 213       17PX         0.72191   0.36798   0.35393   0.01405
 214       17PY         0.72191   0.36798   0.35393   0.01405
 215       17PZ         0.64107   0.32138   0.31968   0.00170
 216       18PX         0.58275   0.29552   0.28722   0.00830
 217       18PY         0.58275   0.29552   0.28722   0.00830
 218       18PZ         0.44351   0.22753   0.21598   0.01155
 219       19PX         0.00347   0.00178   0.00169   0.00009
 220       19PY         0.00347   0.00178   0.00169   0.00009
 221       19PZ         0.00303   0.00152   0.00151   0.00001
 222       20PX         0.00049   0.00025   0.00024   0.00001
 223       20PY         0.00049   0.00025   0.00024   0.00001
 224       20PZ         0.00042   0.00021   0.00021   0.00000
 225       21PX         0.08219   0.04317   0.03902   0.00415
 226       21PY         0.08219   0.04317   0.03902   0.00415
 227       21PZ         0.06088   0.03490   0.02599   0.00891
 228       22D 0        0.00043   0.00025   0.00018   0.00008
 229       22D+1        0.00025   0.00013   0.00011   0.00002
 230       22D-1        0.00025   0.00013   0.00011   0.00002
 231       22D+2        0.00000   0.00000  -0.00000   0.00000
 232       22D-2        0.00000   0.00000  -0.00000   0.00000
 233       23D 0        0.00468   0.00283   0.00186   0.00097
 234       23D+1        0.00376   0.00203   0.00172   0.00031
 235       23D-1        0.00376   0.00203   0.00172   0.00031
 236       23D+2        0.00008   0.00008   0.00000   0.00008
 237       23D-2        0.00008   0.00008   0.00000   0.00008
 238       24D 0        0.00000   0.00000   0.00000   0.00000
 239       24D+1        0.00000   0.00000   0.00000   0.00000
 240       24D-1        0.00000   0.00000   0.00000   0.00000
 241       24D+2        0.00000   0.00000   0.00000   0.00000
 242       24D-2        0.00000   0.00000  -0.00000   0.00000
 243       25D 0        0.00039   0.00021   0.00017   0.00004
 244       25D+1        0.00454   0.00164   0.00291  -0.00127
 245       25D-1        0.00454   0.00164   0.00291  -0.00127
 246       25D+2        0.00005   0.00005  -0.00000   0.00005
 247       25D-2        0.00005   0.00005   0.00000   0.00005
 248       26F 0        0.00023   0.00016   0.00007   0.00008
 249       26F+1        0.00015   0.00010   0.00005   0.00005
 250       26F-1        0.00015   0.00010   0.00005   0.00005
 251       26F+2        0.00001   0.00001   0.00000   0.00001
 252       26F-2        0.00001   0.00001   0.00000   0.00001
 253       26F+3        0.00000   0.00000   0.00000  -0.00000
 254       26F-3        0.00000   0.00000   0.00000  -0.00000
 255       27F 0        0.00019   0.00020  -0.00001   0.00020
 256       27F+1        0.00064   0.00028   0.00036  -0.00008
 257       27F-1        0.00064   0.00028   0.00036  -0.00008
 258       27F+2        0.00004   0.00004   0.00000   0.00004
 259       27F-2        0.00004   0.00004   0.00000   0.00004
 260       27F+3        0.00000  -0.00000   0.00000  -0.00000
 261       27F-3        0.00000   0.00000  -0.00000   0.00000
          Condensed to atoms (all electrons):
               1          2
     1  Mn  23.564746   0.280640
     2  O    0.280640   8.873973
          Atomic-Atomic Spin Densities.
               1          2
     1  Mn   4.926427  -0.030527
     2  O   -0.030527   0.134628
 Mulliken charges and spin densities:
               1          2
     1  Mn   1.154613   4.895899
     2  O   -1.154613   0.104101
 Sum of Mulliken charges =  -0.00000   5.00000
 Mulliken charges and spin densities with hydrogens summed into heavy atoms:
               1          2
     1  Mn   1.154613   4.895899
     2  O   -1.154613   0.104101
 Electronic spatial extent (au):  <R**2>=            109.0585
 Charge=             -0.0000 electrons
 Dipole moment (field-independent basis, Debye):
    X=              0.0000    Y=              0.0000    Z=              9.0820  Tot=              9.0820
 Quadrupole moment (field-independent basis, Debye-Ang):
   XX=            -19.2044   YY=            -19.2044   ZZ=            -24.1496
   XY=              0.0000   XZ=              0.0000   YZ=              0.0000
 Traceless Quadrupole moment (field-independent basis, Debye-Ang):
   XX=              1.6484   YY=              1.6484   ZZ=             -3.2968
   XY=              0.0000   XZ=              0.0000   YZ=              0.0000
 Octapole moment (field-independent basis, Debye-Ang**2):
  XXX=              0.0000  YYY=              0.0000  ZZZ=             25.2053  XYY=              0.0000
  XXY=              0.0000  XXZ=              6.0445  XZZ=              0.0000  YZZ=              0.0000
  YYZ=              6.0445  XYZ=              0.0000
 Hexadecapole moment (field-independent basis, Debye-Ang**3):
 XXXX=            -22.7905 YYYY=            -22.7905 ZZZZ=           -108.3470 XXXY=              0.0000
 XXXZ=              0.0000 YYYX=              0.0000 YYYZ=              0.0000 ZZZX=              0.0000
 ZZZY=              0.0000 XXYY=             -7.5968 XXZZ=            -21.1460 YYZZ=            -21.1460
 XXYZ=              0.0000 YYXZ=              0.0000 ZZXY=              0.0000
 N-N= 6.225614246118D+01 E-N=-3.102366459591D+03  KE= 1.277988527675D+03
 Symmetry A1   KE= 9.925154853334D+02
 Symmetry A2   KE= 6.340632264900D+00
 Symmetry B1   KE= 1.395662050406D+02
 Symmetry B2   KE= 1.395662050385D+02
 Symmetry A1   SP= 2.000000000000D+00
 Symmetry A2   SP= 1.000000000000D+00
 Symmetry B1   SP= 1.000000000000D+00
 Symmetry B2   SP= 1.000000000000D+00
 Orbital energies and kinetic energies (alpha):
                                 1                 2
  10         O                -2.730885          9.965923
  11         O                -1.107323          3.067654
  12         O                -0.642569          2.511839
  13         O                -0.642569          2.050346
  14         O                -0.634671          2.050346
  15         O                -0.634671          6.340632
  16         O                -0.592219          6.340632
  17         O                -0.339144          5.491357
  18         O                -0.339144          6.400232
  19         O                -0.338552          6.400231
  20         V                -0.045235          0.644244
  21         V                 0.015791          0.101534
  22         V                 0.015791          0.101534
  23         V                 0.018653          0.281537
  24         V                 0.038450          0.057108
 Total kinetic energy from orbitals= 1.308961611925D+03
 FoFCou: FMM=F IPFlag=           8 FMFlag=           0 FMFlg1=           0
         NFxFlg=           0 DoJE=F BraDBF=T KetDBF=F FulRan=T
         wScrn=  0.000000 ICntrl=   2000500 IOpCl=  0 I1Cent=           5 NGrid=           0
         NMat0=    1 NMatS0=      1 NMatT0=    0 NMatD0=    1 NMtDS0=    0 NMtDT0=    0
 Symmetry not used in FoFCou.
                          Isotropic Fermi Contact Couplings
        Atom                 a.u.       MegaHertz       Gauss      10(-4) cm-1
     1  Mn(55)             2.06827     457.23292     163.15207     152.51648
     2  O(17)              0.00840      -1.01792      -0.36322      -0.33954
 --------------------------------------------------------
       Center         ----  Spin Dipole Couplings  ----
                      3XX-RR        3YY-RR        3ZZ-RR
 --------------------------------------------------------
     1   Atom        0.305295      0.305295     -0.610590
     2   Atom       -0.069344     -0.069344      0.138688
 --------------------------------------------------------
                        XY            XZ            YZ
 --------------------------------------------------------
     1   Atom        0.000000      0.000000      0.000000
     2   Atom        0.000000      0.000000      0.000000
 --------------------------------------------------------


 ---------------------------------------------------------------------------------
              Anisotropic Spin Dipole Couplings in Principal Axis System
 ---------------------------------------------------------------------------------

       Atom             a.u.   MegaHertz   Gauss  10(-4) cm-1        Axes

              Baa    -0.6106   -80.562   -28.747   -26.873  0.0000  0.0000  1.0000
     1 Mn(55) Bbb     0.3053    40.281    14.373    13.436  1.0000  0.0000  0.0000
              Bcc     0.3053    40.281    14.373    13.436 -0.0000  1.0000  0.0000
 
              Baa    -0.0693     5.018     1.790     1.674 -0.0000  1.0000  0.0000
     2 O(17)  Bbb    -0.0693     5.018     1.790     1.674  1.0000  0.0000  0.0000
              Bcc     0.1387   -10.035    -3.581    -3.347  0.0000  0.0000  1.0000
 

 ---------------------------------------------------------------------------------

 No NMR shielding tensors so no spin-rotation constants.
 Leave Link  601 at Wed Mar  7 01:18:13 2018, MaxMem= 21474836480 cpu:              18.1 elap:               0.6
 (Enter /home1/apps/gaussian/16rA.03/g16/l9999.exe)

 Test job not archived.
 1\1\GINC-C504-042\SP\ROCCSD(T)-Full\Gen\Mn1O1(6)\AANNABE\07-Mar-2018\0
 \\#P ROCCSD(T)=(maxcyc=150, Full, SaveAmplitudes, ReadAmplitudes)/Gen 
 5d 7f SCF=(maxcycles=300) Integral(NoXCTest, DKHSO) MaxDisk=500GB Pop=
 Regular Guess=Read IOp(5/15=2)\\MnO\\0,6\Mn,0,0.,0.,0.\O,0,0.,0.,1.7\\
 Version=ES64L-G16RevA.03\State=6-SG\HF=-1232.2221927\MP2=-1233.5636531
 \MP3=-1233.4969164\PUHF=-1232.2221927\PMP2-0=-1233.5636531\MP4SDQ=-123
 3.5473041\CCSD=-1233.5367637\CCSD(T)=-1233.5797727\RMSD=6.135e-09\PG=C
 *V [C*(O1Mn1)]\\@


 The most important thing in communication is to hear what isn't being said.
 -- Peter F. Drucker
 Job cpu time:       0 days 17 hours 16 minutes 46.0 seconds.
 Elapsed time:       0 days  0 hours 32 minutes 53.0 seconds.
 File lengths (MBytes):  RWF=   6867 Int=      0 D2E=      0 Chk=     54 Scr=      1
 Normal termination of Gaussian 16 at Wed Mar  7 01:18:13 2018.
