 Entering Gaussian System, Link 0=g16
 Initial command:
 /home1/apps/gaussian/16rA.03/g16/l1.exe "/tmp/Gau-121803.inp" -scrdir="/tmp/"
 Entering Link 1 = /home1/apps/gaussian/16rA.03/g16/l1.exe PID=    121804.
  
 Copyright (c) 1988,1990,1992,1993,1995,1998,2003,2009,2016,
            Gaussian, Inc.  All Rights Reserved.
  
 This is part of the Gaussian(R) 16 program.  It is based on
 the Gaussian(R) 09 system (copyright 2009, Gaussian, Inc.),
 the Gaussian(R) 03 system (copyright 2003, Gaussian, Inc.),
 the Gaussian(R) 98 system (copyright 1998, Gaussian, Inc.),
 the Gaussian(R) 94 system (copyright 1995, Gaussian, Inc.),
 the Gaussian 92(TM) system (copyright 1992, Gaussian, Inc.),
 the Gaussian 90(TM) system (copyright 1990, Gaussian, Inc.),
 the Gaussian 88(TM) system (copyright 1988, Gaussian, Inc.),
 the Gaussian 86(TM) system (copyright 1986, Carnegie Mellon
 University), and the Gaussian 82(TM) system (copyright 1983,
 Carnegie Mellon University). Gaussian is a federally registered
 trademark of Gaussian, Inc.
  
 This software contains proprietary and confidential information,
 including trade secrets, belonging to Gaussian, Inc.
  
 This software is provided under written license and may be
 used, copied, transmitted, or stored only in accord with that
 written license.
  
 The following legend is applicable only to US Government
 contracts under FAR:
  
                    RESTRICTED RIGHTS LEGEND
  
 Use, reproduction and disclosure by the US Government is
 subject to restrictions as set forth in subparagraphs (a)
 and (c) of the Commercial Computer Software - Restricted
 Rights clause in FAR 52.227-19.
  
 Gaussian, Inc.
 340 Quinnipiac St., Bldg. 40, Wallingford CT 06492
  
  
 ---------------------------------------------------------------
 Warning -- This program may not be used in any manner that
 competes with the business of Gaussian, Inc. or will provide
 assistance to any competitor of Gaussian, Inc.  The licensee
 of this program is prohibited from giving any competitor of
 Gaussian, Inc. access to this program.  By using this program,
 the user acknowledges that Gaussian, Inc. is engaged in the
 business of creating and licensing software in the field of
 computational chemistry and represents and warrants to the
 licensee that it is not a competitor of Gaussian, Inc. and that
 it will not use this program in any manner prohibited above.
 ---------------------------------------------------------------
  

 Cite this work as:
 Gaussian 16, Revision A.03,
 M. J. Frisch, G. W. Trucks, H. B. Schlegel, G. E. Scuseria, 
 M. A. Robb, J. R. Cheeseman, G. Scalmani, V. Barone, 
 G. A. Petersson, H. Nakatsuji, X. Li, M. Caricato, A. V. Marenich, 
 J. Bloino, B. G. Janesko, R. Gomperts, B. Mennucci, H. P. Hratchian, 
 J. V. Ortiz, A. F. Izmaylov, J. L. Sonnenberg, D. Williams-Young, 
 F. Ding, F. Lipparini, F. Egidi, J. Goings, B. Peng, A. Petrone, 
 T. Henderson, D. Ranasinghe, V. G. Zakrzewski, J. Gao, N. Rega, 
 G. Zheng, W. Liang, M. Hada, M. Ehara, K. Toyota, R. Fukuda, 
 J. Hasegawa, M. Ishida, T. Nakajima, Y. Honda, O. Kitao, H. Nakai, 
 T. Vreven, K. Throssell, J. A. Montgomery, Jr., J. E. Peralta, 
 F. Ogliaro, M. J. Bearpark, J. J. Heyd, E. N. Brothers, K. N. Kudin, 
 V. N. Staroverov, T. A. Keith, R. Kobayashi, J. Normand, 
 K. Raghavachari, A. P. Rendell, J. C. Burant, S. S. Iyengar, 
 J. Tomasi, M. Cossi, J. M. Millam, M. Klene, C. Adamo, R. Cammi, 
 J. W. Ochterski, R. L. Martin, K. Morokuma, O. Farkas, 
 J. B. Foresman, and D. J. Fox, Gaussian, Inc., Wallingford CT, 2016.
 
 ******************************************
 Gaussian 16:  ES64L-G16RevA.03 25-Dec-2016
                27-Mar-2018 
 ******************************************
 %mem=80GB
 %cpu=0-31
 SetSPE:  set environment variable "MP_BIND" = "yes"
 SetSPE:  set environment variable "MP_BLIST" = "0,1,2,3,4,5,6,7,8,9,10,11,12,13,14,15,16,17,18,19,20,21,22,23,24,25,26,27,28,29,30,31"
 Will use up to   32 processors via shared memory.
 %chk=tz.chk
 %rwf=/scratch/04843/gwang18/zno/
 ----------------------------------------------------------------------
 #P ROCCSD(T)=(MaxCyc=150, Full)/Gen SCF=(maxcycle=400) Pseudo=Read Int
 egral(NoXCTest) Pop=Regular MaxDisk=500GB Guess=Read IOp(5/15=2)
 ----------------------------------------------------------------------
 1/38=1,172=1/1;
 2/12=2,17=6,18=5,40=1/2;
 3/5=7,11=2,16=1,17=8,25=1,30=1,47=8,116=101/1,2,3;
 4/5=1/1;
 5/5=2,7=400,15=2,38=6/2;
 8/5=-1,6=4,9=120000,10=90/1,4;
 9/5=7,6=150,14=2/13;
 6//1;
 99/5=1,9=1/99;
 Leave Link    1 at Tue Mar 27 11:06:37 2018, MaxMem= 10737418240 cpu:              10.6 elap:               0.3
 (Enter /home1/apps/gaussian/16rA.03/g16/l101.exe)
 ---
 ZnO
 ---
 Symbolic Z-matrix:
 Charge =  0 Multiplicity = 1
 Zn                    0.        0.        0. 
 O                     0.        0.        1.8 
 
 ITRead=  0  0
 MicOpt= -1 -1
 NAtoms=      2 NQM=        2 NQMF=       0 NMMI=      0 NMMIF=      0
                NMic=       0 NMicF=      0.
                    Isotopes and Nuclear Properties:
 (Nuclear quadrupole moments (NQMom) in fm**2, nuclear magnetic moments (NMagM)
  in nuclear magnetons)

  Atom         1           2
 IAtWgt=          64          16
 AtmWgt=  63.9291454  15.9949146
 NucSpn=           0           0
 AtZEff=  -0.0000000  -0.0000000
 NQMom=    0.0000000   0.0000000
 NMagM=    0.0000000   0.0000000
 AtZNuc=  30.0000000   8.0000000
 Leave Link  101 at Tue Mar 27 11:06:38 2018, MaxMem= 10737418240 cpu:               3.1 elap:               0.1
 (Enter /home1/apps/gaussian/16rA.03/g16/l202.exe)
                          Input orientation:                          
 ---------------------------------------------------------------------
 Center     Atomic      Atomic             Coordinates (Angstroms)
 Number     Number       Type             X           Y           Z
 ---------------------------------------------------------------------
      1         30           0        0.000000    0.000000    0.000000
      2          8           0        0.000000    0.000000    1.800000
 ---------------------------------------------------------------------
 Stoichiometry    OZn
 Framework group  C*V[C*(OZn)]
 Deg. of freedom     1
 Full point group                 C*V     NOp   4
 Largest Abelian subgroup         C2V     NOp   4
 Largest concise Abelian subgroup C1      NOp   1
                         Standard orientation:                         
 ---------------------------------------------------------------------
 Center     Atomic      Atomic             Coordinates (Angstroms)
 Number     Number       Type             X           Y           Z
 ---------------------------------------------------------------------
      1         30           0        0.000000    0.000000    0.378947
      2          8           0        0.000000    0.000000   -1.421053
 ---------------------------------------------------------------------
 Rotational constants (GHZ):           0.0000000          12.1918301          12.1918301
 Leave Link  202 at Tue Mar 27 11:06:38 2018, MaxMem= 10737418240 cpu:               0.8 elap:               0.1
 (Enter /home1/apps/gaussian/16rA.03/g16/l301.exe)
 General basis read from cards:  (5D, 7F)
 Centers:       1
 S 1 1.00
     Exponent=  5.8200210000D+06 Coefficients=  1.0000000000D+00
 S 1 1.00
     Exponent=  8.7152340000D+05 Coefficients=  1.0000000000D+00
 S 1 1.00
     Exponent=  1.9833500000D+05 Coefficients=  1.0000000000D+00
 S 1 1.00
     Exponent=  5.6176310000D+04 Coefficients=  1.0000000000D+00
 S 1 1.00
     Exponent=  1.8325820000D+04 Coefficients=  1.0000000000D+00
 S 1 1.00
     Exponent=  6.6149550000D+03 Coefficients=  1.0000000000D+00
 S 1 1.00
     Exponent=  2.5791990000D+03 Coefficients=  1.0000000000D+00
 S 1 1.00
     Exponent=  1.0688490000D+03 Coefficients=  1.0000000000D+00
 S 1 1.00
     Exponent=  4.6510450000D+02 Coefficients=  1.0000000000D+00
 S 1 1.00
     Exponent=  2.1041300000D+02 Coefficients=  1.0000000000D+00
 S 1 1.00
     Exponent=  9.7616290000D+01 Coefficients=  1.0000000000D+00
 S 1 1.00
     Exponent=  4.4380200000D+01 Coefficients=  1.0000000000D+00
 S 1 1.00
     Exponent=  2.1423080000D+01 Coefficients=  1.0000000000D+00
 S 1 1.00
     Exponent=  1.0308910000D+01 Coefficients=  1.0000000000D+00
 S 1 1.00
     Exponent=  4.5536450000D+00 Coefficients=  1.0000000000D+00
 S 1 1.00
     Exponent=  2.1328210000D+00 Coefficients=  1.0000000000D+00
 S 1 1.00
     Exponent=  9.2969700000D-01 Coefficients=  1.0000000000D+00
 S 1 1.00
     Exponent=  1.9214700000D-01 Coefficients=  1.0000000000D+00
 S 1 1.00
     Exponent=  8.7595000000D-02 Coefficients=  1.0000000000D+00
 S 1 1.00
     Exponent=  3.7702000000D-02 Coefficients=  1.0000000000D+00
 S 1 1.00
     Exponent=  7.0381000000D+00 Coefficients=  1.0000000000D+00
 S 1 1.00
     Exponent=  1.8099000000D+00 Coefficients=  1.0000000000D+00
 S 1 1.00
     Exponent=  1.6230000000D-02 Coefficients=  1.0000000000D+00
 P 1 1.00
     Exponent=  2.4411980000D+04 Coefficients=  1.0000000000D+00
 P 1 1.00
     Exponent=  5.7785180000D+03 Coefficients=  1.0000000000D+00
 P 1 1.00
     Exponent=  1.8768620000D+03 Coefficients=  1.0000000000D+00
 P 1 1.00
     Exponent=  7.1823610000D+02 Coefficients=  1.0000000000D+00
 P 1 1.00
     Exponent=  3.0483270000D+02 Coefficients=  1.0000000000D+00
 P 1 1.00
     Exponent=  1.3904530000D+02 Coefficients=  1.0000000000D+00
 P 1 1.00
     Exponent=  6.6804170000D+01 Coefficients=  1.0000000000D+00
 P 1 1.00
     Exponent=  3.3206990000D+01 Coefficients=  1.0000000000D+00
 P 1 1.00
     Exponent=  1.6928160000D+01 Coefficients=  1.0000000000D+00
 P 1 1.00
     Exponent=  8.6962290000D+00 Coefficients=  1.0000000000D+00
 P 1 1.00
     Exponent=  4.3505100000D+00 Coefficients=  1.0000000000D+00
 P 1 1.00
     Exponent=  2.1165230000D+00 Coefficients=  1.0000000000D+00
 P 1 1.00
     Exponent=  9.9538700000D-01 Coefficients=  1.0000000000D+00
 P 1 1.00
     Exponent=  3.7811200000D-01 Coefficients=  1.0000000000D+00
 P 1 1.00
     Exponent=  1.3457900000D-01 Coefficients=  1.0000000000D+00
 P 1 1.00
     Exponent=  4.6282000000D-02 Coefficients=  1.0000000000D+00
 P 1 1.00
     Exponent=  1.0150100000D+01 Coefficients=  1.0000000000D+00
 P 1 1.00
     Exponent=  2.3451000000D+00 Coefficients=  1.0000000000D+00
 P 1 1.00
     Exponent=  1.5920000000D-02 Coefficients=  1.0000000000D+00
 D 1 1.00
     Exponent=  2.0561770000D+02 Coefficients=  1.0000000000D+00
 D 1 1.00
     Exponent=  6.1449810000D+01 Coefficients=  1.0000000000D+00
 D 1 1.00
     Exponent=  2.3056890000D+01 Coefficients=  1.0000000000D+00
 D 1 1.00
     Exponent=  9.5777390000D+00 Coefficients=  1.0000000000D+00
 D 1 1.00
     Exponent=  4.1337340000D+00 Coefficients=  1.0000000000D+00
 D 1 1.00
     Exponent=  1.7475180000D+00 Coefficients=  1.0000000000D+00
 D 1 1.00
     Exponent=  6.9956000000D-01 Coefficients=  1.0000000000D+00
 D 1 1.00
     Exponent=  2.5160800000D-01 Coefficients=  1.0000000000D+00
 D 1 1.00
     Exponent=  7.7440000000D+00 Coefficients=  1.0000000000D+00
 D 1 1.00
     Exponent=  3.9663000000D+00 Coefficients=  1.0000000000D+00
 D 1 1.00
     Exponent=  9.0490000000D-02 Coefficients=  1.0000000000D+00
 F 1 1.00
     Exponent=  1.0327000000D+01 Coefficients=  1.0000000000D+00
 F 1 1.00
     Exponent=  4.0202000000D+00 Coefficients=  1.0000000000D+00
 F 1 1.00
     Exponent=  1.4851000000D+00 Coefficients=  1.0000000000D+00
 F 1 1.00
     Exponent=  5.4861000000D-01 Coefficients=  1.0000000000D+00
 G 1 1.00
     Exponent=  9.2538000000D+00 Coefficients=  1.0000000000D+00
 G 1 1.00
     Exponent=  4.1144000000D+00 Coefficients=  1.0000000000D+00
 G 1 1.00
     Exponent=  1.8293300000D+00 Coefficients=  1.0000000000D+00
 ****
 Centers:       2
 S 1 1.00
     Exponent=  1.5330000000D+04 Coefficients=  1.0000000000D+00
 S 1 1.00
     Exponent=  2.2990000000D+03 Coefficients=  1.0000000000D+00
 S 1 1.00
     Exponent=  5.2240000000D+02 Coefficients=  1.0000000000D+00
 S 1 1.00
     Exponent=  1.4730000000D+02 Coefficients=  1.0000000000D+00
 S 1 1.00
     Exponent=  4.7550000000D+01 Coefficients=  1.0000000000D+00
 S 1 1.00
     Exponent=  1.6760000000D+01 Coefficients=  1.0000000000D+00
 S 1 1.00
     Exponent=  6.2070000000D+00 Coefficients=  1.0000000000D+00
 S 1 1.00
     Exponent=  6.8820000000D-01 Coefficients=  1.0000000000D+00
 S 1 1.00
     Exponent=  1.7520000000D+00 Coefficients=  1.0000000000D+00
 S 1 1.00
     Exponent=  2.3840000000D-01 Coefficients=  1.0000000000D+00
 S 1 1.00
     Exponent=  7.8450000000D+00 Coefficients=  1.0000000000D+00
 S 1 1.00
     Exponent=  2.1032000000D+01 Coefficients=  1.0000000000D+00
 S 1 1.00
     Exponent=  7.3760000000D-02 Coefficients=  1.0000000000D+00
 P 1 1.00
     Exponent=  3.4460000000D+01 Coefficients=  1.0000000000D+00
 P 1 1.00
     Exponent=  7.7490000000D+00 Coefficients=  1.0000000000D+00
 P 1 1.00
     Exponent=  2.2800000000D+00 Coefficients=  1.0000000000D+00
 P 1 1.00
     Exponent=  7.1560000000D-01 Coefficients=  1.0000000000D+00
 P 1 1.00
     Exponent=  2.1400000000D-01 Coefficients=  1.0000000000D+00
 P 1 1.00
     Exponent=  1.5159000000D+01 Coefficients=  1.0000000000D+00
 P 1 1.00
     Exponent=  5.7437000000D+01 Coefficients=  1.0000000000D+00
 P 1 1.00
     Exponent=  5.9740000000D-02 Coefficients=  1.0000000000D+00
 D 1 1.00
     Exponent=  2.3140000000D+00 Coefficients=  1.0000000000D+00
 D 1 1.00
     Exponent=  6.4500000000D-01 Coefficients=  1.0000000000D+00
 D 1 1.00
     Exponent=  1.5858000000D+01 Coefficients=  1.0000000000D+00
 D 1 1.00
     Exponent=  2.1400000000D-01 Coefficients=  1.0000000000D+00
 F 1 1.00
     Exponent=  1.4280000000D+00 Coefficients=  1.0000000000D+00
 F 1 1.00
     Exponent=  5.0000000000D-01 Coefficients=  1.0000000000D+00
 ****
 ======================================================================================================
                                       Pseudopotential Parameters
 ======================================================================================================
  Center     Atomic      Valence      Angular      Power
  Number     Number     Electrons     Momentum     of R      Exponent        Coefficient   SO-Coeffient
 ======================================================================================================
    1         30           20
                                      D and up 
                                                     1       35.8777152       20.00000000    0.00000000
                                                     3       34.1078424      717.55430465    0.00000000
                                                     2       28.7174520     -203.49912625    0.00000000
                                                     2        8.3955088       -0.04450117    0.00000000
                                      S - D
                                                     2       14.4978289       95.23904949    0.00000000
                                                     2       35.1597610      430.48072035    0.00000000
                                      P - D
                                                     2       14.7119819       73.77695398    0.00000000
                                                     2       41.6286707      312.12270272    0.00000000
    2          8            6
                                      P and up 
                                                     1       12.3099744        6.00000000    0.00000000
                                                     3       14.7696229       73.85984616    0.00000000
                                                     2       13.7141954      -47.87600504    0.00000000
                                      S - P
                                                     2       13.6551200       85.86406526    0.00000000
 ======================================================================================================
 Ernie: Thresh=  0.10000D-02 Tol=  0.10000D-05 Strict=F.
 There are   144 symmetry adapted cartesian basis functions of A1  symmetry.
 There are    30 symmetry adapted cartesian basis functions of A2  symmetry.
 There are    69 symmetry adapted cartesian basis functions of B1  symmetry.
 There are    69 symmetry adapted cartesian basis functions of B2  symmetry.
 There are   114 symmetry adapted basis functions of A1  symmetry.
 There are    27 symmetry adapted basis functions of A2  symmetry.
 There are    60 symmetry adapted basis functions of B1  symmetry.
 There are    60 symmetry adapted basis functions of B2  symmetry.
   261 basis functions,   312 primitive gaussians,   312 cartesian basis functions
    13 alpha electrons       13 beta electrons
       nuclear repulsion energy        35.2784807280 Hartrees.
 IExCor=    0 DFT=F Ex=HF Corr=None ExCW=0 ScaHFX=  1.000000
 ScaDFX=  1.000000  1.000000  1.000000  1.000000 ScalE2=  1.000000  1.000000
 IRadAn=      5 IRanWt=     -1 IRanGd=            0 ICorTp=0 IEmpDi=  4
 NAtoms=    2 NActive=    2 NUniq=    2 SFac= 1.00D+00 NAtFMM=   60 NAOKFM=F Big=F
 Integral buffers will be    131072 words long.
 Raffenetti 2 integral format.
 Two-electron integral symmetry is turned on.
 Leave Link  301 at Tue Mar 27 11:06:39 2018, MaxMem= 10737418240 cpu:               8.2 elap:               0.3
 (Enter /home1/apps/gaussian/16rA.03/g16/l302.exe)
 NPDir=0 NMtPBC=     1 NCelOv=     1 NCel=       1 NClECP=     1 NCelD=      1
         NCelK=      1 NCelE2=     1 NClLst=     1 CellRange=     0.0.
 One-electron integrals computed using PRISM.
 One-electron integral symmetry used in STVInt
   4 Symmetry operations used in ECPInt.
 ECPInt:  NShTT=    3828 NPrTT=    3828 LenC2=    3441 LenP2D=    3440.
 LDataN:  DoStor=T MaxTD1= 8 Len=  415
 NBasis=   261 RedAO= T EigKep=  3.39D-06  NBF=   114    27    60    60
 NBsUse=   261 1.00D-06 EigRej= -1.00D+00 NBFU=   114    27    60    60
 Leave Link  302 at Tue Mar 27 11:06:40 2018, MaxMem= 10737418240 cpu:              30.6 elap:               1.1
 (Enter /home1/apps/gaussian/16rA.03/g16/l303.exe)
 DipDrv:  MaxL=1.
 Leave Link  303 at Tue Mar 27 11:06:41 2018, MaxMem= 10737418240 cpu:               2.3 elap:               0.1
 (Enter /home1/apps/gaussian/16rA.03/g16/l401.exe)
 Initial guess from the checkpoint file:  "tz.chk"
 B after Tr=     0.000000    0.000000    0.000000
         Rot=    1.000000    0.000000    0.000000    0.000000 Ang=   0.00 deg.
 Guess basis will be translated and rotated to current coordinates.
 JPrj=2 DoOrth=T DoCkMO=T.
 Initial guess orbital symmetries:
       Occupied  (SG) (PI) (PI) (SG) (SG) (PI) (PI) (DLTA) (DLTA)
                 (SG) (PI) (PI) (SG)
       Virtual   (SG) (PI) (PI) (SG) (SG) (PI) (PI) (SG) (SG) (SG)
                 (PI) (PI) (DLTA) (DLTA) (PI) (PI) (SG) (PI) (PI)
                 (SG) (SG) (SG) (DLTA) (DLTA) (SG) (PI) (PI) (DLTA)
                 (DLTA) (PI) (PI) (SG) (PI) (PI) (PI) (PI) (SG)
                 (SG) (SG) (DLTA) (DLTA) (PHI) (PHI) (PI) (PI)
                 (SG) (PHI) (PHI) (DLTA) (DLTA) (DLTA) (DLTA) (PI)
                 (PI) (SG) (SG) (PI) (PI) (DLTA) (DLTA) (SG) (PI)
                 (PI) (PI) (PI) (SG) (SG) (PI) (PI) (SG) (SG) (PHI)
                 (PHI) (DLTA) (DLTA) (PI) (PI) (SG) (PHI) (PHI)
                 (DLTA) (DLTA) (SG) (PI) (PI) (PI) (PI) (DLTA)
                 (DLTA) (DLTA) (DLTA) (PI) (PI) (SG) (SG) (?A)
                 (?A) (PHI) (PHI) (DLTA) (DLTA) (PI) (PI) (SG)
                 (SG) (PI) (PI) (SG) (PHI) (PHI) (DLTA) (DLTA)
                 (PI) (PI) (SG) (PI) (PI) (SG) (SG) (DLTA) (DLTA)
                 (PI) (PI) (SG) (PI) (PI) (SG) (SG) (?A) (?A) (PHI)
                 (PHI) (DLTA) (DLTA) (PI) (PI) (SG) (DLTA) (DLTA)
                 (PI) (PI) (SG) (PHI) (PHI) (DLTA) (DLTA) (PI)
                 (PI) (SG) (PI) (PI) (SG) (SG) (SG) (DLTA) (DLTA)
                 (PI) (PI) (SG) (PI) (PI) (SG) (?A) (?A) (PHI)
                 (PHI) (DLTA) (DLTA) (PI) (PI) (SG) (DLTA) (DLTA)
                 (PI) (PI) (SG) (PI) (PI) (SG) (SG) (SG) (DLTA)
                 (DLTA) (PI) (PI) (SG) (PI) (PI) (SG) (PI) (PI)
                 (SG) (SG) (SG) (PI) (PI) (SG) (DLTA) (DLTA) (PI)
                 (PI) (SG) (SG) (PI) (PI) (SG) (SG) (PI) (PI) (SG)
                 (SG) (SG) (DLTA) (DLTA) (PI) (PI) (SG) (PI) (PI)
                 (SG) (SG) (SG) (PI) (PI) (SG) (SG) (PI) (PI) (SG)
                 (SG) (SG) (PI) (PI) (SG) (SG) (PI) (PI) (SG) (SG)
                 (SG) (SG) (PI) (PI) (SG) (SG) (SG) (SG) (SG)
 The electronic state of the initial guess is 1-SG.
 Leave Link  401 at Tue Mar 27 11:06:41 2018, MaxMem= 10737418240 cpu:              13.6 elap:               0.5
 (Enter /home1/apps/gaussian/16rA.03/g16/l502.exe)
 Keep R1 and R2 ints in memory in symmetry-blocked form, NReq=734602573.
 FoFCou: FMM=F IPFlag=           8 FMFlag=           0 FMFlg1=           0
         NFxFlg=           0 DoJE=F BraDBF=F KetDBF=F FulRan=T
         wScrn=  0.000000 ICntrl=       600 IOpCl=  0 I1Cent=           0 NGrid=           0
         NMat0=    1 NMatS0=  34191 NMatT0=    0 NMatD0=    1 NMtDS0=    0 NMtDT0=    0
 Petite list used in FoFCou.
 Restricted open shell SCF:
 Using DIIS extrapolation, IDIIS=  1040.
 NGot= 10737418240 LenX= 10437146893 LenY= 10437049108
 Requested convergence on RMS density matrix=1.00D-08 within 400 cycles.
 Requested convergence on MAX density matrix=1.00D-06.
 Requested convergence on             energy=1.00D-06.
 No special actions if energy rises.

 Cycle   1  Pass 1  IDiag  1:
 E= -241.248805141132    
 DIIS: error= 1.49D-08 at cycle   1 NSaved=   1.
 NSaved= 1 IEnMin= 1 EnMin= -241.248805141132     IErMin= 1 ErrMin= 1.49D-08
 ErrMax= 1.49D-08  0.00D+00 EMaxC= 1.00D-01 BMatC= 2.62D-14 BMatP= 2.62D-14
 IDIUse=1 WtCom= 1.00D+00 WtEn= 0.00D+00
 Coeff-Com:  0.100D+01
 Coeff:      0.100D+01
 Gap=     0.318 Goal=   None    Shift=    0.000
 RMSDP=4.75D-10 MaxDP=1.61D-08              OVMax= 4.63D-08

 SCF Done:  E(ROHF) =  -241.248805141     A.U. after    1 cycles
            NFock=  1  Conv=0.47D-09     -V/T= 2.4925
 <Sx>= 0.0000 <Sy>= 0.0000 <Sz>= 0.0000 <S**2>=-0.0000 S=-0.0000
 <L.S>=  0.00000000000    
 KE= 1.616399015066D+02 PE=-6.658217291294D+02 EE= 2.276545417537D+02
 Annihilation of the first spin contaminant:
 S**2 before annihilation    -0.0000,   after     0.0000
 Leave Link  502 at Tue Mar 27 11:06:52 2018, MaxMem= 10737418240 cpu:             338.4 elap:              10.7
 (Enter /home1/apps/gaussian/16rA.03/g16/l801.exe)
 Windowed orbitals will be sorted by symmetry type.
 GenMOA:  NOpAll=  4 NOp2=4 NOpUse=  4 JSym2X=1
 FoFJK:  IHMeth= 1 ICntrl=       0 DoSepK=F KAlg= 0 I1Cent=           0 FoldK=F
 IRaf=         0 NMat=       1 IRICut=       1 DoRegI=T DoRafI=F ISym2E= 1 IDoP0=0 IntGTp=1.
 FoFCou: FMM=F IPFlag=           8 FMFlag=      100000 FMFlg1=           0
         NFxFlg=           0 DoJE=F BraDBF=F KetDBF=F FulRan=T
         wScrn=  0.000000 ICntrl=         0 IOpCl=  1 I1Cent=           0 NGrid=           0
         NMat0=    1 NMatS0=      1 NMatT0=    0 NMatD0=    1 NMtDS0=    0 NMtDT0=    0
 Petite list used in FoFCou.
 <Sx>= 0.0000 <Sy>= 0.0000 <Sz>= 0.0000 <S**2>=-0.0000 S=-0.0000
 Range of M.O.s used for correlation:     1   261
 NBasis=   261 NAE=    13 NBE=    13 NFC=     0 NFV=     0
 NROrb=    261 NOA=    13 NOB=    13 NVA=   248 NVB=   248

 **** Warning!!: The largest alpha MO coefficient is  0.20428267D+03


 **** Warning!!: The largest beta MO coefficient is  0.20428267D+03

 Singles contribution to E2=   -0.3998817126D-14
 Leave Link  801 at Tue Mar 27 11:06:57 2018, MaxMem= 10737418240 cpu:             132.3 elap:               4.2
 (Enter /home1/apps/gaussian/16rA.03/g16/l804.exe)
 Open-shell transformation, MDV= 10737418240 ITran=4 ISComp=2.
 Unit  1 TFree=       2048359 TCopy=       1562353.
 Semi-Direct transformation.
 ModeAB=           4 MOrb=            13 LenV=   10735331545
 LASXX=     28704759 LTotXX=    28704759 LenRXX=    57882687
 LTotAB=    29177928 MaxLAS=   159888339 LenRXY=           0
 NonZer=    86587446 LenScr=   130658304 LnRSAI=   159888339
 LnScr1=   240773120 LExtra=    16850736 Total=    606053186
 MaxDsk= 67108864000 SrtSym=           T ITran=            4
 DoSDTr:  NPSUse= 32
 JobTyp=1 Pass  1:  I=   1 to  13.
 (rs|ai) integrals will be sorted in core.
 Complete sort for first half transformation.
 First half transformation complete.
 Begin second half transformation for I=  10.
 Complete sort for second half transformation.
 Second half transformation complete.
 ModeAB=           4 MOrb=            13 LenV=   10735331545
 LASXX=     28704759 LTotXX=    28704759 LenRXX=    55043178
 LTotAB=    26338419 MaxLAS=   159888339 LenRXY=           0
 NonZer=    83747937 LenScr=   126383104 LnRSAI=   159888339
 LnScr1=   240773120 LExtra=    74733423 Total=    656821164
 MaxDsk= 67108864000 SrtSym=           T ITran=            4
 DoSDTr:  NPSUse= 32
 JobTyp=2 Pass  1:  I=   1 to  13.
 (rs|ai) integrals will be sorted in core.
 Complete sort for first half transformation.
 First half transformation complete.
 Begin second half transformation for I=  10.
 Complete sort for second half transformation.
 Second half transformation complete.
 Spin components of T(2) and E(2):
     alpha-alpha T2 =       0.3246557834D-01 E2=     -0.1954995544D+00
     alpha-beta  T2 =       0.1677137867D+00 E2=     -0.9217850905D+00
     beta-beta   T2 =       0.3246557834D-01 E2=     -0.1954995544D+00
 ANorm=    0.1110245443D+01
 E2 =    -0.1312784199D+01 EUMP2 =    -0.24256158934043D+03
 (S**2,0)=  0.00000D+00           (S**2,1)=  0.00000D+00
 E(PUHF)=      -0.24124880514D+03        E(PMP2)=      -0.24256158934D+03
 Leave Link  804 at Tue Mar 27 11:09:09 2018, MaxMem= 10737418240 cpu:            4196.0 elap:             131.3
 (Enter /home1/apps/gaussian/16rA.03/g16/l913.exe)
 CIDS:  MDV= 10737418240.
 IFCWin=0 IBDFC=1 NFBD=     0     0 NFCmp=     0     0 NFFFC=     0     0
 Using original routines for 1st iteration.
 Using DD4UQ or CC4UQ for 2nd and later iterations.
 Keep R2 and R3 ints in memory in symmetry-blocked form, NReq=734620701.
 FoFCou: FMM=F IPFlag=           8 FMFlag=           0 FMFlg1=           0
         NFxFlg=           0 DoJE=F BraDBF=F KetDBF=F FulRan=T
         wScrn=  0.000000 ICntrl=       600 IOpCl=  0 I1Cent=           0 NGrid=           0
         NMat0=    1 NMatS0=  34191 NMatT0=    0 NMatD0=    1 NMtDS0=    0 NMtDT0=    0
 Petite list used in FoFCou.
 CIDS: In Core Option IDoMem=           1.
 CCSD(T)
 =======
 Iterations= 150 Convergence= 0.100D-06
 Produce multiple copies of IABC intergrals
 Iteration Nr.   1
 **********************
 DD1Dir will call FoFMem   1 times, MxPair=       494
 NAB=   169 NAA=    78 NBB=    78.
 DD1Dir will call FoFMem   1 times, MxPair=       494
 NAB=   169 NAA=    78 NBB=    78.
 MP4(R+Q)= -0.14267110D+00
 Maximum subspace dimension=  5
 A-vector RMS=  3.0094359D-05 Max=  3.9309539D-02 conv= 1.00D-05.
 RLE energy=       -1.3042990294
 E3=        0.15121147D+00        EROMP3=      -0.24241037787D+03
 E4(SDQ)=  -0.91505467D-01        ROMP4(SDQ)=  -0.24250188333D+03
 VARIATIONAL ENERGIES WITH THE FIRST-ORDER WAVEFUNCTION:
 DE(Corr)=  -1.3042438     E(Corr)=     -242.55304897    
 NORM(A)=   0.10997069D+01
 Iteration Nr.   2
 **********************
 DD1Dir will call FoFMem   1 times, MxPair=       494
 NAB=   169 NAA=    78 NBB=    78.
 A-vector RMS=  4.1063989D-03 Max=  3.6930222D-02 conv= 1.00D-05.
 RLE energy=       -1.2587161780
 DE(Corr)=  -1.1502826     E(CORR)=     -242.39908776     Delta= 1.54D-01
 NORM(A)=   0.10926669D+01
 Iteration Nr.   3
 **********************
 DD1Dir will call FoFMem   1 times, MxPair=       494
 NAB=   169 NAA=    78 NBB=    78.
 A-vector RMS=  2.5394376D-03 Max=  2.3448220D-02 conv= 1.00D-05.
 RLE energy=       -1.2413188547
 DE(Corr)=  -1.1737996     E(CORR)=     -242.42260470     Delta=-2.35D-02
 NORM(A)=   0.10975628D+01
 Iteration Nr.   4
 **********************
 DD1Dir will call FoFMem   1 times, MxPair=       494
 NAB=   169 NAA=    78 NBB=    78.
 A-vector RMS=  2.0911021D-03 Max=  2.1059816D-02 conv= 1.00D-05.
 RLE energy=       -1.1991171753
 DE(Corr)=  -1.1891307     E(CORR)=     -242.43793586     Delta=-1.53D-02
 NORM(A)=   0.11180482D+01
 Iteration Nr.   5
 **********************
 DD1Dir will call FoFMem   1 times, MxPair=       494
 NAB=   169 NAA=    78 NBB=    78.
 A-vector RMS=  9.1389348D-04 Max=  1.2683595D-02 conv= 1.00D-05.
 RLE energy=       -1.2195823555
 DE(Corr)=  -1.2277835     E(CORR)=     -242.47658865     Delta=-3.87D-02
 NORM(A)=   0.11169292D+01
 Iteration Nr.   6
 **********************
 DD1Dir will call FoFMem   1 times, MxPair=       494
 NAB=   169 NAA=    78 NBB=    78.
 A-vector RMS=  4.4396329D-04 Max=  5.4420590D-03 conv= 1.00D-05.
 RLE energy=       -1.2165209061
 DE(Corr)=  -1.2135899     E(CORR)=     -242.46239501     Delta= 1.42D-02
 NORM(A)=   0.11202697D+01
 Iteration Nr.   7
 **********************
 DD1Dir will call FoFMem   1 times, MxPair=       494
 NAB=   169 NAA=    78 NBB=    78.
 A-vector RMS=  1.0392106D-04 Max=  2.2255797D-03 conv= 1.00D-05.
 RLE energy=       -1.2163090688
 DE(Corr)=  -1.2163123     E(CORR)=     -242.46511744     Delta=-2.72D-03
 NORM(A)=   0.11208525D+01
 Iteration Nr.   8
 **********************
 DD1Dir will call FoFMem   1 times, MxPair=       494
 NAB=   169 NAA=    78 NBB=    78.
 A-vector RMS=  6.6923077D-05 Max=  9.4491970D-04 conv= 1.00D-05.
 RLE energy=       -1.2163501498
 DE(Corr)=  -1.2164035     E(CORR)=     -242.46520861     Delta=-9.12D-05
 NORM(A)=   0.11211881D+01
 Iteration Nr.   9
 **********************
 DD1Dir will call FoFMem   1 times, MxPair=       494
 NAB=   169 NAA=    78 NBB=    78.
 A-vector RMS=  2.8780919D-05 Max=  4.0689771D-04 conv= 1.00D-05.
 RLE energy=       -1.2164480990
 DE(Corr)=  -1.2163560     E(CORR)=     -242.46516112     Delta= 4.75D-05
 NORM(A)=   0.11213701D+01
 Iteration Nr.  10
 **********************
 DD1Dir will call FoFMem   1 times, MxPair=       494
 NAB=   169 NAA=    78 NBB=    78.
 A-vector RMS=  1.9029116D-05 Max=  3.6040336D-04 conv= 1.00D-05.
 RLE energy=       -1.2163237747
 DE(Corr)=  -1.2163850     E(CORR)=     -242.46519014     Delta=-2.90D-05
 NORM(A)=   0.11213205D+01
 Iteration Nr.  11
 **********************
 DD1Dir will call FoFMem   1 times, MxPair=       494
 NAB=   169 NAA=    78 NBB=    78.
 A-vector RMS=  5.5156791D-06 Max=  1.0272881D-04 conv= 1.00D-05.
 RLE energy=       -1.2164099536
 DE(Corr)=  -1.2164052     E(CORR)=     -242.46521034     Delta=-2.02D-05
 NORM(A)=   0.11213130D+01
 Iteration Nr.  12
 **********************
 DD1Dir will call FoFMem   1 times, MxPair=       494
 NAB=   169 NAA=    78 NBB=    78.
 A-vector RMS=  4.4637468D-06 Max=  4.7835371D-05 conv= 1.00D-05.
 RLE energy=       -1.2163748693
 DE(Corr)=  -1.2163665     E(CORR)=     -242.46517164     Delta= 3.87D-05
 NORM(A)=   0.11213241D+01
 Iteration Nr.  13
 **********************
 DD1Dir will call FoFMem   1 times, MxPair=       494
 NAB=   169 NAA=    78 NBB=    78.
 A-vector RMS=  3.9444681D-06 Max=  7.3783309D-05 conv= 1.00D-05.
 RLE energy=       -1.2163836485
 DE(Corr)=  -1.2163945     E(CORR)=     -242.46519962     Delta=-2.80D-05
 NORM(A)=   0.11213180D+01
 Iteration Nr.  14
 **********************
 DD1Dir will call FoFMem   1 times, MxPair=       494
 NAB=   169 NAA=    78 NBB=    78.
 A-vector RMS=  1.3869124D-06 Max=  1.9826559D-05 conv= 1.00D-05.
 RLE energy=       -1.2163881736
 DE(Corr)=  -1.2163866     E(CORR)=     -242.46519176     Delta= 7.86D-06
 NORM(A)=   0.11213216D+01
 Iteration Nr.  15
 **********************
 DD1Dir will call FoFMem   1 times, MxPair=       494
 NAB=   169 NAA=    78 NBB=    78.
 A-vector RMS=  6.0466395D-07 Max=  8.0207359D-06 conv= 1.00D-05.
 RLE energy=       -1.2163873631
 DE(Corr)=  -1.2163860     E(CORR)=     -242.46519110     Delta= 6.64D-07
 NORM(A)=   0.11213233D+01
 Iteration Nr.  16
 **********************
 DD1Dir will call FoFMem   1 times, MxPair=       494
 NAB=   169 NAA=    78 NBB=    78.
 A-vector RMS=  4.0110163D-07 Max=  9.0324433D-06 conv= 1.00D-05.
 RLE energy=       -1.2163873342
 DE(Corr)=  -1.2163878     E(CORR)=     -242.46519295     Delta=-1.85D-06
 NORM(A)=   0.11213236D+01
 Iteration Nr.  17
 **********************
 DD1Dir will call FoFMem   1 times, MxPair=       494
 NAB=   169 NAA=    78 NBB=    78.
 A-vector RMS=  1.7263525D-07 Max=  2.8674202D-06 conv= 1.00D-05.
 RLE energy=       -1.2163880870
 DE(Corr)=  -1.2163878     E(CORR)=     -242.46519291     Delta= 4.02D-08
 NORM(A)=   0.11213241D+01
 CI/CC converged in   17 iterations to DelEn= 4.02D-08 Conv= 1.00D-07 ErrA1= 1.73D-07 Conv= 1.00D-05
 Wavefunction amplitudes converged. E(Corr)=     -242.46519291    
 Dominant configurations:
 ***********************
 Spin Case        I    J    A    B          Value
   ABAB          13   13   14   14      -0.149350D+00
 Largest amplitude= 1.49D-01
 Time for triples=    67646.39 seconds.
 T4(CCSD)= -0.55144039D-01
 T5(CCSD)=  0.75084057D-02
 CCSD(T)= -0.24251282854D+03
 Discarding MO integrals.
 Leave Link  913 at Tue Mar 27 11:53:37 2018, MaxMem= 10737418240 cpu:           84629.8 elap:            2668.1
 (Enter /home1/apps/gaussian/16rA.03/g16/l601.exe)
 Copying SCF densities to generalized density rwf, IOpCl= 0 IROHF=1.

 **********************************************************************

            Population analysis using the SCF density.

 **********************************************************************

 Orbital symmetries:
       Occupied  (SG) (PI) (PI) (SG) (SG) (PI) (PI) (DLTA) (DLTA)
                 (SG) (PI) (PI) (SG)
       Virtual   (SG) (PI) (PI) (SG) (SG) (PI) (PI) (SG) (SG) (SG)
                 (PI) (PI) (DLTA) (DLTA) (PI) (PI) (SG) (PI) (PI)
                 (SG) (SG) (SG) (DLTA) (DLTA) (SG) (PI) (PI) (DLTA)
                 (DLTA) (PI) (PI) (SG) (PI) (PI) (PI) (PI) (SG)
                 (SG) (SG) (DLTA) (DLTA) (PHI) (PHI) (PI) (PI)
                 (SG) (PHI) (PHI) (DLTA) (DLTA) (DLTA) (DLTA) (PI)
                 (PI) (SG) (SG) (PI) (PI) (DLTA) (DLTA) (SG) (PI)
                 (PI) (PI) (PI) (SG) (SG) (PI) (PI) (SG) (SG) (PHI)
                 (PHI) (DLTA) (DLTA) (PI) (PI) (SG) (PHI) (PHI)
                 (DLTA) (DLTA) (SG) (PI) (PI) (PI) (PI) (DLTA)
                 (DLTA) (DLTA) (DLTA) (PI) (PI) (SG) (SG) (?A)
                 (?A) (PHI) (PHI) (DLTA) (DLTA) (PI) (PI) (SG)
                 (SG) (PI) (PI) (SG) (PHI) (PHI) (DLTA) (DLTA)
                 (PI) (PI) (SG) (PI) (PI) (SG) (SG) (DLTA) (DLTA)
                 (PI) (PI) (SG) (PI) (PI) (SG) (SG) (?A) (?A) (PHI)
                 (PHI) (DLTA) (DLTA) (PI) (PI) (SG) (DLTA) (DLTA)
                 (PI) (PI) (SG) (PHI) (PHI) (DLTA) (DLTA) (PI)
                 (PI) (SG) (PI) (PI) (SG) (SG) (SG) (DLTA) (DLTA)
                 (PI) (PI) (SG) (PI) (PI) (SG) (?A) (?A) (PHI)
                 (PHI) (DLTA) (DLTA) (PI) (PI) (SG) (DLTA) (DLTA)
                 (PI) (PI) (SG) (PI) (PI) (SG) (SG) (SG) (DLTA)
                 (DLTA) (PI) (PI) (SG) (PI) (PI) (SG) (PI) (PI)
                 (SG) (SG) (SG) (PI) (PI) (SG) (DLTA) (DLTA) (PI)
                 (PI) (SG) (SG) (PI) (PI) (SG) (SG) (PI) (PI) (SG)
                 (SG) (SG) (DLTA) (DLTA) (PI) (PI) (SG) (PI) (PI)
                 (SG) (SG) (SG) (PI) (PI) (SG) (SG) (PI) (PI) (SG)
                 (SG) (SG) (PI) (PI) (SG) (SG) (PI) (PI) (SG) (SG)
                 (SG) (SG) (PI) (PI) (SG) (SG) (SG) (SG) (SG)
 The electronic state is 1-SG.
 Alpha  occ. eigenvalues --   -5.90837  -4.02499  -4.02499  -4.02495  -1.16179
 Alpha  occ. eigenvalues --   -0.82514  -0.82514  -0.82219  -0.82219  -0.80856
 Alpha  occ. eigenvalues --   -0.41172  -0.41172  -0.36461
 Alpha virt. eigenvalues --   -0.04686   0.02513   0.02513   0.02647   0.04619
 Alpha virt. eigenvalues --    0.08554   0.08554   0.13219   0.17430   0.21833
 Alpha virt. eigenvalues --    0.23334   0.23334   0.24634   0.24634   0.29908
 Alpha virt. eigenvalues --    0.29908   0.30550   0.32731   0.32731   0.38140
 Alpha virt. eigenvalues --    0.57652   0.63101   0.75862   0.75862   0.83430
 Alpha virt. eigenvalues --    0.86973   0.86973   0.88513   0.88513   0.96803
 Alpha virt. eigenvalues --    0.96803   1.00663   1.07835   1.07835   1.14165
 Alpha virt. eigenvalues --    1.14165   1.21728   1.31749   1.77418   1.79442
 Alpha virt. eigenvalues --    1.79442   1.82626   1.82626   1.95371   1.95371
 Alpha virt. eigenvalues --    2.08486   2.17755   2.17755   2.28571   2.28571
 Alpha virt. eigenvalues --    2.42015   2.42015   2.43558   2.43558   2.43738
 Alpha virt. eigenvalues --    2.58408   2.69174   2.69174   2.73593   2.73593
 Alpha virt. eigenvalues --    2.79621   3.04591   3.04591   3.48972   3.48972
 Alpha virt. eigenvalues --    3.53224   3.81155   4.01866   4.01866   4.60790
 Alpha virt. eigenvalues --    5.13880   5.32136   5.32136   5.39545   5.39545
 Alpha virt. eigenvalues --    5.60088   5.60088   5.74180   6.61018   6.61018
 Alpha virt. eigenvalues --    6.63087   6.63087   6.72000   6.77854   6.77854
 Alpha virt. eigenvalues --    7.09857   7.09857   7.11547   7.11547   7.23000
 Alpha virt. eigenvalues --    7.23000   7.35225   7.35225   7.46118   7.50461
 Alpha virt. eigenvalues --    7.73028   7.73028   7.73361   7.73361   7.77067
 Alpha virt. eigenvalues --    7.77067   7.96707   7.96707   7.96746   8.69045
 Alpha virt. eigenvalues --    8.78193   8.78193   9.15380  13.70384  13.70384
 Alpha virt. eigenvalues --   13.75415  13.75415  13.90225  13.90225  14.01089
 Alpha virt. eigenvalues --   14.74206  14.74206  15.11698  15.89355  16.02810
 Alpha virt. eigenvalues --   16.02810  16.10353  16.10353  16.49098  18.60370
 Alpha virt. eigenvalues --   18.60370  18.67754  19.09208  20.18279  20.18279
 Alpha virt. eigenvalues --   20.18510  20.18510  20.20034  20.20034  20.26692
 Alpha virt. eigenvalues --   20.26692  20.45162  31.39695  31.39695  31.46350
 Alpha virt. eigenvalues --   31.46350  31.73448  35.52339  35.52339  35.55940
 Alpha virt. eigenvalues --   35.55940  35.66306  35.66306  35.72552  36.20008
 Alpha virt. eigenvalues --   36.20008  36.46117  38.09022  39.88323  43.71394
 Alpha virt. eigenvalues --   43.71394  43.72748  43.72748  43.89314  45.42065
 Alpha virt. eigenvalues --   45.42065  45.74349  47.00629  47.00629  47.01022
 Alpha virt. eigenvalues --   47.01022  47.02081  47.02081  47.06452  47.06452
 Alpha virt. eigenvalues --   47.21513  57.12574  57.12574  57.18957  57.18957
 Alpha virt. eigenvalues --   57.45106  67.35136  67.35136  67.60043  74.28784
 Alpha virt. eigenvalues --   82.46669 104.43895 104.43895 104.49745 104.49745
 Alpha virt. eigenvalues --  104.72523 118.81830 118.81830 119.12750 122.65908
 Alpha virt. eigenvalues --  122.65908 122.89241 136.49423 175.13711 226.81026
 Alpha virt. eigenvalues --  226.81026 227.01569 238.11496 238.11496 238.16083
 Alpha virt. eigenvalues --  238.16083 238.34444 257.25652 286.11784 286.11784
 Alpha virt. eigenvalues --  286.39974 334.56152 422.32879 422.32879 422.50917
 Alpha virt. eigenvalues --  554.74108 577.31307 793.00636 793.00636 793.03495
 Alpha virt. eigenvalues --  793.03495 793.15396 795.33223 795.33223 795.50042
 Alpha virt. eigenvalues -- 1042.360911529.282221566.267571566.267571566.42461
 Alpha virt. eigenvalues -- 2013.808273327.845583327.845583327.987804171.50665
 Alpha virt. eigenvalues -- 5659.468607880.576317880.576317880.700339285.73458
 Alpha virt. eigenvalues -- **************************************************
 Alpha virt. eigenvalues -- **************************************************
 Alpha virt. eigenvalues -- ******************************
     Molecular Orbital Coefficients:
                           9        10        11        12        13
                           O         O         O         O         O
     Eigenvalues --    -0.82219  -0.80856  -0.41172  -0.41172  -0.36461
   1 1   Zn 1S          0.00000  -0.00000   0.00000   0.00000   0.00000
   2        2S          0.00000   0.00000   0.00000   0.00000  -0.00000
   3        3S          0.00000  -0.00000   0.00000   0.00000   0.00000
   4        4S          0.00000   0.00000   0.00000   0.00000  -0.00000
   5        5S          0.00000  -0.00000   0.00000   0.00000   0.00000
   6        6S          0.00000   0.00000   0.00000   0.00000  -0.00001
   7        7S          0.00000  -0.00000   0.00000   0.00000   0.00002
   8        8S          0.00000   0.00001   0.00000   0.00000  -0.00007
   9        9S          0.00000  -0.00002   0.00000   0.00000   0.00021
  10       10S          0.00000   0.00006   0.00000   0.00000  -0.00066
  11       11S          0.00000  -0.00022   0.00000   0.00000   0.00249
  12       12S          0.00000   0.00104   0.00000   0.00000  -0.01232
  13       13S          0.00000  -0.00116   0.00000   0.00000   0.01073
  14       14S          0.00000  -0.00518   0.00000   0.00000   0.09142
  15       15S          0.00000   0.01048   0.00000   0.00000  -0.06079
  16       16S          0.00000  -0.01510   0.00000   0.00000  -0.09597
  17       17S          0.00000   0.00170   0.00000   0.00000  -0.15803
  18       18S          0.00000  -0.04108   0.00000   0.00000   0.33647
  19       19S          0.00000   0.01322   0.00000   0.00000   0.33035
  20       20S          0.00000  -0.00287   0.00000   0.00000   0.08030
  21       21S          0.00000  -0.00470   0.00000   0.00000   0.00397
  22       22S          0.00000   0.03485   0.00000   0.00000  -0.11075
  23       23S          0.00000   0.00122   0.00000   0.00000  -0.00143
  24       24PX         0.00000   0.00000   0.00000  -0.00000   0.00000
  25       24PY         0.00000   0.00000  -0.00000   0.00000   0.00000
  26       24PZ         0.00000  -0.00000   0.00000   0.00000   0.00000
  27       25PX         0.00000   0.00000   0.00000   0.00000   0.00000
  28       25PY         0.00000   0.00000   0.00000   0.00000   0.00000
  29       25PZ         0.00000   0.00000   0.00000   0.00000  -0.00000
  30       26PX         0.00000   0.00000   0.00000  -0.00000   0.00000
  31       26PY         0.00000   0.00000  -0.00000   0.00000   0.00000
  32       26PZ         0.00000  -0.00000   0.00000   0.00000   0.00000
  33       27PX         0.00000   0.00000   0.00000   0.00000   0.00000
  34       27PY         0.00000   0.00000   0.00000   0.00000   0.00000
  35       27PZ         0.00000   0.00000   0.00000   0.00000  -0.00000
  36       28PX         0.00000   0.00000   0.00000  -0.00001   0.00000
  37       28PY         0.00000   0.00000  -0.00001   0.00000   0.00000
  38       28PZ         0.00000  -0.00001   0.00000   0.00000   0.00001
  39       29PX         0.00000   0.00000   0.00000   0.00005   0.00000
  40       29PY         0.00000   0.00000   0.00005   0.00000   0.00000
  41       29PZ         0.00000   0.00003   0.00000   0.00000  -0.00004
  42       30PX         0.00000   0.00000   0.00000  -0.00033   0.00000
  43       30PY         0.00000   0.00000  -0.00033   0.00000   0.00000
  44       30PZ         0.00000  -0.00016   0.00000   0.00000   0.00030
  45       31PX         0.00000   0.00000   0.00000   0.00134   0.00000
  46       31PY         0.00000   0.00000   0.00134   0.00000   0.00000
  47       31PZ         0.00000   0.00061   0.00000   0.00000  -0.00124
  48       32PX         0.00000   0.00000   0.00000   0.00210   0.00000
  49       32PY         0.00000   0.00000   0.00210   0.00000   0.00000
  50       32PZ         0.00000  -0.00030   0.00000   0.00000  -0.00239
  51       33PX         0.00000   0.00000   0.00000  -0.01161   0.00000
  52       33PY         0.00000   0.00000  -0.01161   0.00000   0.00000
  53       33PZ         0.00000  -0.01124   0.00000   0.00000   0.00849
  54       34PX         0.00000   0.00000   0.00000  -0.01308   0.00000
  55       34PY         0.00000   0.00000  -0.01308   0.00000   0.00000
  56       34PZ         0.00000   0.00087   0.00000   0.00000   0.01488
  57       35PX         0.00000   0.00000   0.00000   0.00368   0.00000
  58       35PY         0.00000   0.00000   0.00368   0.00000   0.00000
  59       35PZ         0.00000   0.02984   0.00000   0.00000   0.01646
  60       36PX         0.00000   0.00000   0.00000  -0.01995   0.00000
  61       36PY         0.00000   0.00000  -0.01995   0.00000   0.00000
  62       36PZ         0.00000  -0.00884   0.00000   0.00000   0.01482
  63       37PX         0.00000   0.00000   0.00000   0.03272   0.00000
  64       37PY         0.00000   0.00000   0.03272   0.00000   0.00000
  65       37PZ         0.00000   0.01377   0.00000   0.00000  -0.03792
  66       38PX         0.00000   0.00000   0.00000   0.06298   0.00000
  67       38PY         0.00000   0.00000   0.06298   0.00000   0.00000
  68       38PZ         0.00000  -0.00786   0.00000   0.00000   0.00959
  69       39PX         0.00000   0.00000   0.00000   0.01452   0.00000
  70       39PY         0.00000   0.00000   0.01452   0.00000   0.00000
  71       39PZ         0.00000  -0.00321   0.00000   0.00000   0.02611
  72       40PX         0.00000   0.00000   0.00000   0.00855   0.00000
  73       40PY         0.00000   0.00000   0.00855   0.00000   0.00000
  74       40PZ         0.00000   0.00949   0.00000   0.00000  -0.00583
  75       41PX         0.00000   0.00000   0.00000  -0.02710   0.00000
  76       41PY         0.00000   0.00000  -0.02710   0.00000   0.00000
  77       41PZ         0.00000  -0.03821   0.00000   0.00000   0.00809
  78       42PX         0.00000   0.00000   0.00000  -0.00390   0.00000
  79       42PY         0.00000   0.00000  -0.00390   0.00000   0.00000
  80       42PZ         0.00000   0.00049   0.00000   0.00000  -0.00391
  81       43D 0        0.00000  -0.00009   0.00000   0.00000   0.00001
  82       43D+1        0.00000   0.00000   0.00000  -0.00001   0.00000
  83       43D-1        0.00000   0.00000  -0.00001   0.00000   0.00000
  84       43D+2        0.00000   0.00000   0.00000   0.00000   0.00000
  85       43D-2       -0.00009   0.00000   0.00000   0.00000   0.00000
  86       44D 0        0.00000   0.00643   0.00000   0.00000  -0.00051
  87       44D+1        0.00000   0.00000   0.00000   0.00083   0.00000
  88       44D-1        0.00000   0.00000   0.00083   0.00000   0.00000
  89       44D+2        0.00000  -0.00000   0.00000   0.00000  -0.00000
  90       44D-2        0.00657   0.00000   0.00000   0.00000   0.00000
  91       45D 0        0.00000   0.07139   0.00000   0.00000  -0.00546
  92       45D+1        0.00000   0.00000   0.00000   0.00891   0.00000
  93       45D-1        0.00000   0.00000   0.00891   0.00000   0.00000
  94       45D+2        0.00000  -0.00000   0.00000   0.00000  -0.00000
  95       45D-2        0.07301   0.00000   0.00000   0.00000   0.00000
  96       46D 0        0.00000   0.20888   0.00000   0.00000  -0.01848
  97       46D+1        0.00000   0.00000   0.00000   0.02873   0.00000
  98       46D-1        0.00000   0.00000   0.02873   0.00000   0.00000
  99       46D+2        0.00000  -0.00000   0.00000   0.00000  -0.00000
 100       46D-2        0.21264   0.00000   0.00000   0.00000   0.00000
 101       47D 0        0.00000   0.35645   0.00000   0.00000  -0.06744
 102       47D+1        0.00000   0.00000   0.00000   0.08874   0.00000
 103       47D-1        0.00000   0.00000   0.08874   0.00000   0.00000
 104       47D+2        0.00000   0.00000   0.00000   0.00000   0.00000
 105       47D-2        0.34970   0.00000   0.00000   0.00000   0.00000
 106       48D 0        0.00000   0.35466   0.00000   0.00000  -0.03035
 107       48D+1        0.00000   0.00000   0.00000   0.04760   0.00000
 108       48D-1        0.00000   0.00000   0.04760   0.00000   0.00000
 109       48D+2        0.00000  -0.00000   0.00000   0.00000  -0.00000
 110       48D-2        0.36110   0.00000   0.00000   0.00000   0.00000
 111       49D 0        0.00000   0.27063   0.00000   0.00000  -0.01091
 112       49D+1        0.00000   0.00000   0.00000   0.02655   0.00000
 113       49D-1        0.00000   0.00000   0.02655   0.00000   0.00000
 114       49D+2        0.00000  -0.00000   0.00000   0.00000   0.00000
 115       49D-2        0.27564   0.00000   0.00000   0.00000   0.00000
 116       50D 0        0.00000   0.10561   0.00000   0.00000  -0.00904
 117       50D+1        0.00000   0.00000   0.00000   0.00369   0.00000
 118       50D-1        0.00000   0.00000   0.00369   0.00000   0.00000
 119       50D+2        0.00000  -0.00000   0.00000   0.00000  -0.00000
 120       50D-2        0.10216   0.00000   0.00000   0.00000   0.00000
 121       51D 0        0.00000  -0.01305   0.00000   0.00000   0.00502
 122       51D+1        0.00000   0.00000   0.00000  -0.00591   0.00000
 123       51D-1        0.00000   0.00000  -0.00591   0.00000   0.00000
 124       51D+2        0.00000  -0.00000   0.00000   0.00000   0.00000
 125       51D-2       -0.01175   0.00000   0.00000   0.00000   0.00000
 126       52D 0        0.00000  -0.03076   0.00000   0.00000   0.04193
 127       52D+1        0.00000   0.00000   0.00000  -0.04748   0.00000
 128       52D-1        0.00000   0.00000  -0.04748   0.00000   0.00000
 129       52D+2        0.00000  -0.00000   0.00000   0.00000  -0.00000
 130       52D-2       -0.01708   0.00000   0.00000   0.00000   0.00000
 131       53D 0        0.00000   0.00678   0.00000   0.00000  -0.01672
 132       53D+1        0.00000   0.00000   0.00000  -0.00404   0.00000
 133       53D-1        0.00000   0.00000  -0.00404   0.00000   0.00000
 134       53D+2        0.00000  -0.00000   0.00000   0.00000   0.00000
 135       53D-2        0.00342   0.00000   0.00000   0.00000   0.00000
 136       54F 0        0.00000   0.00038   0.00000   0.00000  -0.00015
 137       54F+1        0.00000   0.00000   0.00000   0.00013   0.00000
 138       54F-1        0.00000   0.00000   0.00013   0.00000   0.00000
 139       54F+2        0.00000  -0.00000   0.00000   0.00000  -0.00000
 140       54F-2        0.00029   0.00000   0.00000   0.00000   0.00000
 141       54F+3        0.00000   0.00000   0.00000  -0.00000   0.00000
 142       54F-3        0.00000   0.00000  -0.00000   0.00000   0.00000
 143       55F 0        0.00000   0.00114   0.00000   0.00000  -0.00048
 144       55F+1        0.00000   0.00000   0.00000   0.00058   0.00000
 145       55F-1        0.00000   0.00000   0.00058   0.00000   0.00000
 146       55F+2        0.00000  -0.00000   0.00000   0.00000  -0.00000
 147       55F-2        0.00090   0.00000   0.00000   0.00000   0.00000
 148       55F+3        0.00000   0.00000   0.00000  -0.00000   0.00000
 149       55F-3        0.00000   0.00000  -0.00000   0.00000   0.00000
 150       56F 0        0.00000   0.00249   0.00000   0.00000  -0.00199
 151       56F+1        0.00000   0.00000   0.00000   0.00128   0.00000
 152       56F-1        0.00000   0.00000   0.00128   0.00000   0.00000
 153       56F+2        0.00000  -0.00000   0.00000   0.00000   0.00000
 154       56F-2        0.00195   0.00000   0.00000   0.00000   0.00000
 155       56F+3        0.00000   0.00000   0.00000  -0.00000   0.00000
 156       56F-3        0.00000   0.00000   0.00000   0.00000   0.00000
 157       57F 0        0.00000   0.00602   0.00000   0.00000  -0.00657
 158       57F+1        0.00000   0.00000   0.00000   0.00880   0.00000
 159       57F-1        0.00000   0.00000   0.00880   0.00000   0.00000
 160       57F+2        0.00000  -0.00000   0.00000   0.00000   0.00000
 161       57F-2        0.00579   0.00000   0.00000   0.00000   0.00000
 162       57F+3        0.00000   0.00000   0.00000  -0.00000   0.00000
 163       57F-3        0.00000   0.00000   0.00000   0.00000   0.00000
 164       58G 0        0.00000  -0.00003   0.00000   0.00000   0.00004
 165       58G+1        0.00000   0.00000   0.00000  -0.00011   0.00000
 166       58G-1        0.00000   0.00000  -0.00011   0.00000   0.00000
 167       58G+2        0.00000  -0.00000   0.00000   0.00000  -0.00000
 168       58G-2       -0.00003   0.00000   0.00000   0.00000   0.00000
 169       58G+3        0.00000   0.00000   0.00000   0.00000   0.00000
 170       58G-3        0.00000   0.00000   0.00000   0.00000   0.00000
 171       58G+4        0.00000   0.00000   0.00000   0.00000   0.00000
 172       58G-4       -0.00000   0.00000   0.00000   0.00000   0.00000
 173       59G 0        0.00000  -0.00010   0.00000   0.00000  -0.00009
 174       59G+1        0.00000   0.00000   0.00000   0.00034   0.00000
 175       59G-1        0.00000   0.00000   0.00034   0.00000   0.00000
 176       59G+2        0.00000   0.00000   0.00000   0.00000   0.00000
 177       59G-2       -0.00001   0.00000   0.00000   0.00000   0.00000
 178       59G+3        0.00000   0.00000   0.00000  -0.00000   0.00000
 179       59G-3        0.00000   0.00000  -0.00000   0.00000   0.00000
 180       59G+4        0.00000  -0.00000   0.00000   0.00000  -0.00000
 181       59G-4        0.00000   0.00000   0.00000   0.00000   0.00000
 182       60G 0        0.00000   0.00020   0.00000   0.00000   0.00056
 183       60G+1        0.00000   0.00000   0.00000  -0.00108   0.00000
 184       60G-1        0.00000   0.00000  -0.00108   0.00000   0.00000
 185       60G+2        0.00000  -0.00000   0.00000   0.00000  -0.00000
 186       60G-2       -0.00003   0.00000   0.00000   0.00000   0.00000
 187       60G+3        0.00000   0.00000   0.00000   0.00000   0.00000
 188       60G-3        0.00000   0.00000   0.00000   0.00000   0.00000
 189       60G+4        0.00000   0.00000   0.00000   0.00000   0.00000
 190       60G-4       -0.00000   0.00000   0.00000   0.00000   0.00000
 191 2   O  1S          0.00000   0.00000   0.00000   0.00000   0.00000
 192        2S          0.00000  -0.00000   0.00000   0.00000  -0.00000
 193        3S          0.00000   0.00001   0.00000   0.00000   0.00001
 194        4S          0.00000  -0.00007   0.00000   0.00000  -0.00007
 195        5S          0.00000   0.00071   0.00000   0.00000   0.00075
 196        6S          0.00000   0.01152   0.00000   0.00000   0.01246
 197        7S          0.00000   0.03389   0.00000   0.00000   0.03585
 198        8S          0.00000  -0.09847   0.00000   0.00000  -0.11301
 199        9S          0.00000  -0.03232   0.00000   0.00000  -0.03450
 200       10S          0.00000  -0.10302   0.00000   0.00000  -0.11086
 201       11S          0.00000  -0.00406   0.00000   0.00000  -0.00533
 202       12S          0.00000  -0.01033   0.00000   0.00000  -0.01098
 203       13S          0.00000  -0.02361   0.00000   0.00000  -0.02508
 204       14PX         0.00000   0.00000   0.00000   0.00830   0.00000
 205       14PY         0.00000   0.00000   0.00830   0.00000   0.00000
 206       14PZ         0.00000   0.00082   0.00000   0.00000   0.00525
 207       15PX         0.00000   0.00000   0.00000   0.08637   0.00000
 208       15PY         0.00000   0.00000   0.08637   0.00000   0.00000
 209       15PZ         0.00000   0.00856   0.00000   0.00000   0.05426
 210       16PX         0.00000   0.00000   0.00000   0.27873   0.00000
 211       16PY         0.00000   0.00000   0.27873   0.00000   0.00000
 212       16PZ         0.00000   0.02728   0.00000   0.00000   0.17327
 213       17PX         0.00000   0.00000   0.00000   0.43690   0.00000
 214       17PY         0.00000   0.00000   0.43690   0.00000   0.00000
 215       17PZ         0.00000   0.04521   0.00000   0.00000   0.28271
 216       18PX         0.00000   0.00000   0.00000   0.36856   0.00000
 217       18PY         0.00000   0.00000   0.36856   0.00000   0.00000
 218       18PZ         0.00000   0.01050   0.00000   0.00000   0.24290
 219       19PX         0.00000   0.00000   0.00000   0.00480   0.00000
 220       19PY         0.00000   0.00000   0.00480   0.00000   0.00000
 221       19PZ         0.00000   0.00053   0.00000   0.00000   0.00300
 222       20PX         0.00000   0.00000   0.00000  -0.00219   0.00000
 223       20PY         0.00000   0.00000  -0.00219   0.00000   0.00000
 224       20PZ         0.00000  -0.00021   0.00000   0.00000  -0.00139
 225       21PX         0.00000   0.00000   0.00000   0.06564   0.00000
 226       21PY         0.00000   0.00000   0.06564   0.00000   0.00000
 227       21PZ         0.00000  -0.00349   0.00000   0.00000   0.04879
 228       22D 0        0.00000   0.00232   0.00000   0.00000   0.00361
 229       22D+1        0.00000   0.00000   0.00000   0.00281   0.00000
 230       22D-1        0.00000   0.00000   0.00281   0.00000   0.00000
 231       22D+2        0.00000   0.00000   0.00000   0.00000  -0.00000
 232       22D-2        0.00019   0.00000   0.00000   0.00000   0.00000
 233       23D 0        0.00000   0.00755   0.00000   0.00000   0.01436
 234       23D+1        0.00000   0.00000   0.00000   0.01372   0.00000
 235       23D-1        0.00000   0.00000   0.01372   0.00000   0.00000
 236       23D+2        0.00000  -0.00000   0.00000   0.00000   0.00000
 237       23D-2        0.00118   0.00000   0.00000   0.00000   0.00000
 238       24D 0        0.00000   0.00013   0.00000   0.00000   0.00023
 239       24D+1        0.00000   0.00000   0.00000   0.00019   0.00000
 240       24D-1        0.00000   0.00000   0.00019   0.00000   0.00000
 241       24D+2        0.00000  -0.00000   0.00000   0.00000  -0.00000
 242       24D-2        0.00001   0.00000   0.00000   0.00000   0.00000
 243       25D 0        0.00000   0.00012   0.00000   0.00000   0.01594
 244       25D+1        0.00000   0.00000   0.00000   0.02197   0.00000
 245       25D-1        0.00000   0.00000   0.02197   0.00000   0.00000
 246       25D+2        0.00000  -0.00000   0.00000   0.00000  -0.00000
 247       25D-2       -0.00103   0.00000   0.00000   0.00000   0.00000
 248       26F 0        0.00000   0.00135   0.00000   0.00000   0.00292
 249       26F+1        0.00000   0.00000   0.00000   0.00292   0.00000
 250       26F-1        0.00000   0.00000   0.00292   0.00000   0.00000
 251       26F+2        0.00000   0.00000   0.00000   0.00000   0.00000
 252       26F-2        0.00037   0.00000   0.00000   0.00000   0.00000
 253       26F+3        0.00000   0.00000   0.00000  -0.00000   0.00000
 254       26F-3        0.00000   0.00000  -0.00000   0.00000   0.00000
 255       27F 0        0.00000   0.00213   0.00000   0.00000   0.00461
 256       27F+1        0.00000   0.00000   0.00000   0.00853   0.00000
 257       27F-1        0.00000   0.00000   0.00853   0.00000   0.00000
 258       27F+2        0.00000   0.00000   0.00000   0.00000  -0.00000
 259       27F-2       -0.00014   0.00000   0.00000   0.00000   0.00000
 260       27F+3        0.00000   0.00000   0.00000   0.00000   0.00000
 261       27F-3        0.00000   0.00000   0.00000   0.00000   0.00000
                          14        15        16        17        18
                           V         V         V         V         V
     Eigenvalues --    -0.04686   0.02513   0.02513   0.02647   0.04619
   1 1   Zn 1S          0.00000   0.00000   0.00000  -0.00000  -0.00000
   2        2S         -0.00000   0.00000   0.00000   0.00000   0.00000
   3        3S          0.00000   0.00000   0.00000  -0.00000  -0.00000
   4        4S         -0.00000   0.00000   0.00000   0.00000   0.00000
   5        5S          0.00000   0.00000   0.00000  -0.00000  -0.00000
   6        6S         -0.00000   0.00000   0.00000   0.00000   0.00000
   7        7S          0.00001   0.00000   0.00000  -0.00001  -0.00000
   8        8S         -0.00002   0.00000   0.00000   0.00002   0.00001
   9        9S          0.00006   0.00000   0.00000  -0.00005  -0.00002
  10       10S         -0.00019   0.00000   0.00000   0.00012   0.00006
  11       11S          0.00074   0.00000   0.00000  -0.00011  -0.00010
  12       12S         -0.00379   0.00000   0.00000  -0.00100   0.00005
  13       13S          0.00273   0.00000   0.00000  -0.00540  -0.00194
  14       14S          0.03427   0.00000   0.00000   0.07575   0.02032
  15       15S         -0.00619   0.00000   0.00000   0.12411   0.04029
  16       16S         -0.08956   0.00000   0.00000  -0.55988  -0.17970
  17       17S         -0.06637   0.00000   0.00000  -0.18102  -0.06344
  18       18S          0.03219   0.00000   0.00000   0.31721   0.08911
  19       19S          0.29234   0.00000   0.00000  -0.60760   0.41433
  20       20S          0.20799   0.00000   0.00000   1.65525   2.72052
  21       21S         -0.00944   0.00000   0.00000  -0.11503  -0.03527
  22       22S          0.02815   0.00000   0.00000   0.53155   0.18214
  23       23S          0.28399   0.00000   0.00000  -1.60148  -1.97846
  24       24PX         0.00000   0.00000   0.00000   0.00000   0.00000
  25       24PY         0.00000   0.00000   0.00000   0.00000   0.00000
  26       24PZ        -0.00000   0.00000   0.00000  -0.00000  -0.00000
  27       25PX         0.00000   0.00000  -0.00000   0.00000   0.00000
  28       25PY         0.00000  -0.00000   0.00000   0.00000   0.00000
  29       25PZ         0.00000   0.00000   0.00000   0.00000   0.00000
  30       26PX         0.00000   0.00000   0.00000   0.00000   0.00000
  31       26PY         0.00000   0.00000   0.00000   0.00000   0.00000
  32       26PZ        -0.00000   0.00000   0.00000  -0.00000  -0.00000
  33       27PX         0.00000   0.00000  -0.00000   0.00000   0.00000
  34       27PY         0.00000  -0.00000   0.00000   0.00000   0.00000
  35       27PZ         0.00001   0.00000   0.00000   0.00001   0.00000
  36       28PX         0.00000   0.00000   0.00002   0.00000   0.00000
  37       28PY         0.00000   0.00002   0.00000   0.00000   0.00000
  38       28PZ        -0.00003   0.00000   0.00000  -0.00002  -0.00002
  39       29PX         0.00000   0.00000  -0.00005   0.00000   0.00000
  40       29PY         0.00000  -0.00005   0.00000   0.00000   0.00000
  41       29PZ         0.00011   0.00000   0.00000   0.00010   0.00006
  42       30PX         0.00000   0.00000  -0.00002   0.00000   0.00000
  43       30PY         0.00000  -0.00002   0.00000   0.00000   0.00000
  44       30PZ        -0.00084   0.00000   0.00000  -0.00052  -0.00028
  45       31PX         0.00000   0.00000   0.00023   0.00000   0.00000
  46       31PY         0.00000   0.00023   0.00000   0.00000   0.00000
  47       31PZ         0.00346   0.00000   0.00000   0.00205   0.00105
  48       32PX         0.00000   0.00000   0.00725   0.00000   0.00000
  49       32PY         0.00000   0.00725   0.00000   0.00000   0.00000
  50       32PZ         0.00585   0.00000   0.00000  -0.00010  -0.00202
  51       33PX         0.00000   0.00000   0.03124   0.00000   0.00000
  52       33PY         0.00000   0.03124   0.00000   0.00000   0.00000
  53       33PZ        -0.02784   0.00000   0.00000  -0.03359  -0.02645
  54       34PX         0.00000   0.00000  -0.04002   0.00000   0.00000
  55       34PY         0.00000  -0.04002   0.00000   0.00000   0.00000
  56       34PZ        -0.03649   0.00000   0.00000  -0.00234   0.00926
  57       35PX         0.00000   0.00000  -0.17080   0.00000   0.00000
  58       35PY         0.00000  -0.17080   0.00000   0.00000   0.00000
  59       35PZ        -0.00900   0.00000   0.00000   0.07958   0.08188
  60       36PX         0.00000   0.00000   0.01081   0.00000   0.00000
  61       36PY         0.00000   0.01081   0.00000   0.00000   0.00000
  62       36PZ        -0.04824   0.00000   0.00000  -0.03424  -0.01574
  63       37PX         0.00000   0.00000  -0.00581   0.00000   0.00000
  64       37PY         0.00000  -0.00581   0.00000   0.00000   0.00000
  65       37PZ         0.07643   0.00000   0.00000   0.04454   0.00712
  66       38PX         0.00000   0.00000   0.17001   0.00000   0.00000
  67       38PY         0.00000   0.17001   0.00000   0.00000   0.00000
  68       38PZ         0.21240   0.00000   0.00000   0.10182  -0.23981
  69       39PX         0.00000   0.00000   0.06041   0.00000   0.00000
  70       39PY         0.00000   0.06041   0.00000   0.00000   0.00000
  71       39PZ         0.28335   0.00000   0.00000   0.49675  -1.05394
  72       40PX         0.00000   0.00000  -0.02909   0.00000   0.00000
  73       40PY         0.00000  -0.02909   0.00000   0.00000   0.00000
  74       40PZ         0.02010   0.00000   0.00000   0.02765   0.02271
  75       41PX         0.00000   0.00000   0.14941   0.00000   0.00000
  76       41PY         0.00000   0.14941   0.00000   0.00000   0.00000
  77       41PZ        -0.05391   0.00000   0.00000  -0.10833  -0.09286
  78       42PX         0.00000   0.00000   0.99815   0.00000   0.00000
  79       42PY         0.00000   0.99815   0.00000   0.00000   0.00000
  80       42PZ         0.10531   0.00000   0.00000  -0.93142   1.16136
  81       43D 0       -0.00001   0.00000   0.00000  -0.00000   0.00001
  82       43D+1        0.00000   0.00000   0.00000   0.00000   0.00000
  83       43D-1        0.00000   0.00000   0.00000   0.00000   0.00000
  84       43D+2        0.00000   0.00000   0.00000  -0.00000  -0.00000
  85       43D-2        0.00000   0.00000   0.00000   0.00000   0.00000
  86       44D 0        0.00057   0.00000   0.00000   0.00025  -0.00018
  87       44D+1        0.00000   0.00000  -0.00022   0.00000   0.00000
  88       44D-1        0.00000  -0.00022   0.00000   0.00000   0.00000
  89       44D+2       -0.00000   0.00000   0.00000   0.00000  -0.00000
  90       44D-2        0.00000   0.00000   0.00000   0.00000   0.00000
  91       45D 0        0.00621   0.00000   0.00000   0.00291  -0.00090
  92       45D+1        0.00000   0.00000  -0.00229   0.00000   0.00000
  93       45D-1        0.00000  -0.00229   0.00000   0.00000   0.00000
  94       45D+2       -0.00000   0.00000   0.00000  -0.00000  -0.00000
  95       45D-2        0.00000   0.00000   0.00000   0.00000   0.00000
  96       46D 0        0.01966   0.00000   0.00000   0.00767  -0.01338
  97       46D+1        0.00000   0.00000  -0.00817   0.00000   0.00000
  98       46D-1        0.00000  -0.00817   0.00000   0.00000   0.00000
  99       46D+2        0.00000   0.00000   0.00000   0.00000   0.00000
 100       46D-2        0.00000   0.00000   0.00000   0.00000   0.00000
 101       47D 0        0.05511   0.00000   0.00000   0.00106  -0.17977
 102       47D+1        0.00000   0.00000  -0.03551   0.00000   0.00000
 103       47D-1        0.00000  -0.03551   0.00000   0.00000   0.00000
 104       47D+2        0.00000   0.00000   0.00000   0.00000   0.00000
 105       47D-2        0.00000   0.00000   0.00000   0.00000   0.00000
 106       48D 0        0.03283   0.00000   0.00000   0.01336  -0.01901
 107       48D+1        0.00000   0.00000  -0.01311   0.00000   0.00000
 108       48D-1        0.00000  -0.01311   0.00000   0.00000   0.00000
 109       48D+2       -0.00000   0.00000   0.00000  -0.00000  -0.00000
 110       48D-2        0.00000   0.00000   0.00000   0.00000   0.00000
 111       49D 0        0.01665   0.00000   0.00000   0.00966   0.01163
 112       49D+1        0.00000   0.00000  -0.00592   0.00000   0.00000
 113       49D-1        0.00000  -0.00592   0.00000   0.00000   0.00000
 114       49D+2        0.00000   0.00000   0.00000   0.00000   0.00000
 115       49D-2        0.00000   0.00000   0.00000   0.00000   0.00000
 116       50D 0        0.01259   0.00000   0.00000   0.00449   0.00783
 117       50D+1        0.00000   0.00000  -0.00310   0.00000   0.00000
 118       50D-1        0.00000  -0.00310   0.00000   0.00000   0.00000
 119       50D+2       -0.00000   0.00000   0.00000  -0.00000  -0.00000
 120       50D-2        0.00000   0.00000   0.00000   0.00000   0.00000
 121       51D 0       -0.00351   0.00000   0.00000   0.00084   0.01750
 122       51D+1        0.00000   0.00000   0.00280   0.00000   0.00000
 123       51D-1        0.00000   0.00280   0.00000   0.00000   0.00000
 124       51D+2       -0.00000   0.00000   0.00000  -0.00000  -0.00000
 125       51D-2        0.00000   0.00000   0.00000   0.00000   0.00000
 126       52D 0       -0.02644   0.00000   0.00000   0.01187   0.17233
 127       52D+1        0.00000   0.00000   0.02465   0.00000   0.00000
 128       52D-1        0.00000   0.02465   0.00000   0.00000   0.00000
 129       52D+2       -0.00000   0.00000   0.00000  -0.00000  -0.00000
 130       52D-2        0.00000   0.00000   0.00000   0.00000   0.00000
 131       53D 0        0.04008   0.00000   0.00000  -0.02318   0.28383
 132       53D+1        0.00000   0.00000   0.03783   0.00000   0.00000
 133       53D-1        0.00000   0.03783   0.00000   0.00000   0.00000
 134       53D+2        0.00000   0.00000   0.00000   0.00000   0.00000
 135       53D-2        0.00000   0.00000   0.00000   0.00000   0.00000
 136       54F 0        0.00013   0.00000   0.00000   0.00004   0.00006
 137       54F+1        0.00000   0.00000  -0.00004   0.00000   0.00000
 138       54F-1        0.00000  -0.00004   0.00000   0.00000   0.00000
 139       54F+2       -0.00000   0.00000   0.00000   0.00000   0.00000
 140       54F-2        0.00000   0.00000   0.00000   0.00000   0.00000
 141       54F+3        0.00000   0.00000   0.00000   0.00000   0.00000
 142       54F-3        0.00000   0.00000   0.00000   0.00000   0.00000
 143       55F 0        0.00033   0.00000   0.00000   0.00019  -0.00035
 144       55F+1        0.00000   0.00000  -0.00008   0.00000   0.00000
 145       55F-1        0.00000  -0.00008   0.00000   0.00000   0.00000
 146       55F+2       -0.00000   0.00000   0.00000   0.00000   0.00000
 147       55F-2        0.00000   0.00000   0.00000   0.00000   0.00000
 148       55F+3        0.00000   0.00000  -0.00000   0.00000   0.00000
 149       55F-3        0.00000  -0.00000   0.00000   0.00000   0.00000
 150       56F 0        0.00153   0.00000   0.00000   0.00046   0.00119
 151       56F+1        0.00000   0.00000  -0.00051   0.00000   0.00000
 152       56F-1        0.00000  -0.00051   0.00000   0.00000   0.00000
 153       56F+2        0.00000   0.00000   0.00000   0.00000   0.00000
 154       56F-2        0.00000   0.00000   0.00000   0.00000   0.00000
 155       56F+3        0.00000   0.00000   0.00000   0.00000   0.00000
 156       56F-3        0.00000   0.00000   0.00000   0.00000   0.00000
 157       57F 0        0.00560   0.00000   0.00000   0.00253  -0.00806
 158       57F+1        0.00000   0.00000  -0.00051   0.00000   0.00000
 159       57F-1        0.00000  -0.00051   0.00000   0.00000   0.00000
 160       57F+2       -0.00000   0.00000   0.00000  -0.00000  -0.00000
 161       57F-2        0.00000   0.00000   0.00000   0.00000   0.00000
 162       57F+3        0.00000   0.00000  -0.00000   0.00000   0.00000
 163       57F-3        0.00000  -0.00000   0.00000   0.00000   0.00000
 164       58G 0       -0.00004   0.00000   0.00000  -0.00001   0.00003
 165       58G+1        0.00000   0.00000   0.00001   0.00000   0.00000
 166       58G-1        0.00000   0.00001   0.00000   0.00000   0.00000
 167       58G+2       -0.00000   0.00000   0.00000  -0.00000  -0.00000
 168       58G-2        0.00000   0.00000   0.00000   0.00000   0.00000
 169       58G+3        0.00000   0.00000  -0.00000   0.00000   0.00000
 170       58G-3        0.00000   0.00000   0.00000   0.00000   0.00000
 171       58G+4        0.00000   0.00000   0.00000   0.00000   0.00000
 172       58G-4        0.00000   0.00000   0.00000   0.00000   0.00000
 173       59G 0        0.00009   0.00000   0.00000   0.00000  -0.00013
 174       59G+1        0.00000   0.00000  -0.00001   0.00000   0.00000
 175       59G-1        0.00000  -0.00001   0.00000   0.00000   0.00000
 176       59G+2        0.00000   0.00000   0.00000   0.00000   0.00000
 177       59G-2        0.00000   0.00000   0.00000   0.00000   0.00000
 178       59G+3        0.00000   0.00000  -0.00000   0.00000   0.00000
 179       59G-3        0.00000  -0.00000   0.00000   0.00000   0.00000
 180       59G+4       -0.00000   0.00000   0.00000  -0.00000  -0.00000
 181       59G-4        0.00000   0.00000   0.00000   0.00000   0.00000
 182       60G 0       -0.00055   0.00000   0.00000  -0.00014   0.00031
 183       60G+1        0.00000   0.00000   0.00005   0.00000   0.00000
 184       60G-1        0.00000   0.00005   0.00000   0.00000   0.00000
 185       60G+2       -0.00000   0.00000   0.00000  -0.00000  -0.00000
 186       60G-2        0.00000   0.00000   0.00000   0.00000   0.00000
 187       60G+3        0.00000   0.00000   0.00000   0.00000   0.00000
 188       60G-3        0.00000   0.00000   0.00000   0.00000   0.00000
 189       60G+4        0.00000   0.00000   0.00000   0.00000   0.00000
 190       60G-4        0.00000   0.00000   0.00000   0.00000   0.00000
 191 2   O  1S          0.00000   0.00000   0.00000  -0.00000   0.00000
 192        2S         -0.00000   0.00000   0.00000   0.00000  -0.00000
 193        3S          0.00000   0.00000   0.00000  -0.00000   0.00000
 194        4S         -0.00001   0.00000   0.00000   0.00002  -0.00000
 195        5S          0.00008   0.00000   0.00000  -0.00013   0.00001
 196        6S          0.00157   0.00000   0.00000  -0.00330   0.00139
 197        7S          0.00299   0.00000   0.00000  -0.00392  -0.00059
 198        8S          0.00352   0.00000   0.00000  -0.02054   0.04525
 199        9S         -0.00136   0.00000   0.00000   0.00031   0.00263
 200       10S         -0.01433   0.00000   0.00000   0.00606   0.02116
 201       11S         -0.00229   0.00000   0.00000   0.00820  -0.00732
 202       12S         -0.00113   0.00000   0.00000   0.00186  -0.00023
 203       13S          0.04522   0.00000   0.00000   0.14244  -1.66760
 204       14PX         0.00000   0.00000  -0.00122   0.00000   0.00000
 205       14PY         0.00000  -0.00122   0.00000   0.00000   0.00000
 206       14PZ        -0.00405   0.00000   0.00000  -0.00161   0.00010
 207       15PX         0.00000   0.00000  -0.01089   0.00000   0.00000
 208       15PY         0.00000  -0.01089   0.00000   0.00000   0.00000
 209       15PZ        -0.04178   0.00000   0.00000  -0.01635  -0.00069
 210       16PX         0.00000   0.00000  -0.03006   0.00000   0.00000
 211       16PY         0.00000  -0.03006   0.00000   0.00000   0.00000
 212       16PZ        -0.13368   0.00000   0.00000  -0.05162  -0.00773
 213       17PX         0.00000   0.00000  -0.05817   0.00000   0.00000
 214       17PY         0.00000  -0.05817   0.00000   0.00000   0.00000
 215       17PZ        -0.21938   0.00000   0.00000  -0.08600   0.00620
 216       18PX         0.00000   0.00000  -0.02048   0.00000   0.00000
 217       18PY         0.00000  -0.02048   0.00000   0.00000   0.00000
 218       18PZ        -0.20191   0.00000   0.00000  -0.07605  -0.13291
 219       19PX         0.00000   0.00000   0.00008   0.00000   0.00000
 220       19PY         0.00000   0.00008   0.00000   0.00000   0.00000
 221       19PZ        -0.00228   0.00000   0.00000  -0.00079  -0.00069
 222       20PX         0.00000   0.00000   0.00035   0.00000   0.00000
 223       20PY         0.00000   0.00035   0.00000   0.00000   0.00000
 224       20PZ         0.00107   0.00000   0.00000   0.00043  -0.00005
 225       21PX         0.00000   0.00000  -0.22455   0.00000   0.00000
 226       21PY         0.00000  -0.22455   0.00000   0.00000   0.00000
 227       21PZ        -0.12087   0.00000   0.00000   0.07764  -0.89602
 228       22D 0       -0.00156   0.00000   0.00000   0.00002  -0.00020
 229       22D+1        0.00000   0.00000  -0.00009   0.00000   0.00000
 230       22D-1        0.00000  -0.00009   0.00000   0.00000   0.00000
 231       22D+2        0.00000   0.00000   0.00000   0.00000   0.00000
 232       22D-2        0.00000   0.00000   0.00000   0.00000   0.00000
 233       23D 0       -0.00626   0.00000   0.00000  -0.00409   0.00512
 234       23D+1        0.00000   0.00000   0.00331   0.00000   0.00000
 235       23D-1        0.00000   0.00331   0.00000   0.00000   0.00000
 236       23D+2        0.00000   0.00000   0.00000   0.00000  -0.00000
 237       23D-2        0.00000   0.00000   0.00000   0.00000   0.00000
 238       24D 0       -0.00008   0.00000   0.00000  -0.00003   0.00001
 239       24D+1        0.00000   0.00000   0.00002   0.00000   0.00000
 240       24D-1        0.00000   0.00002   0.00000   0.00000   0.00000
 241       24D+2       -0.00000   0.00000   0.00000  -0.00000  -0.00000
 242       24D-2        0.00000   0.00000   0.00000   0.00000   0.00000
 243       25D 0       -0.00582   0.00000   0.00000   0.00118  -0.07436
 244       25D+1        0.00000   0.00000  -0.01379   0.00000   0.00000
 245       25D-1        0.00000  -0.01379   0.00000   0.00000   0.00000
 246       25D+2        0.00000   0.00000   0.00000  -0.00000   0.00000
 247       25D-2        0.00000   0.00000   0.00000   0.00000   0.00000
 248       26F 0       -0.00212   0.00000   0.00000  -0.00034   0.00133
 249       26F+1        0.00000   0.00000   0.00020   0.00000   0.00000
 250       26F-1        0.00000   0.00020   0.00000   0.00000   0.00000
 251       26F+2       -0.00000   0.00000   0.00000  -0.00000  -0.00000
 252       26F-2        0.00000   0.00000   0.00000   0.00000   0.00000
 253       26F+3        0.00000   0.00000   0.00000   0.00000   0.00000
 254       26F-3        0.00000   0.00000   0.00000   0.00000   0.00000
 255       27F 0       -0.00239   0.00000   0.00000  -0.00361  -0.00957
 256       27F+1        0.00000   0.00000  -0.00215   0.00000   0.00000
 257       27F-1        0.00000  -0.00215   0.00000   0.00000   0.00000
 258       27F+2        0.00000   0.00000   0.00000  -0.00000   0.00000
 259       27F-2        0.00000   0.00000   0.00000   0.00000   0.00000
 260       27F+3        0.00000   0.00000  -0.00000   0.00000   0.00000
 261       27F-3        0.00000  -0.00000   0.00000   0.00000   0.00000
     Alpha Density Matrix:
                           1         2         3         4         5
   1 1   Zn 1S          0.00000
   2        2S         -0.00000   0.00000
   3        3S          0.00000  -0.00000   0.00000
   4        4S         -0.00000   0.00000  -0.00000   0.00000
   5        5S          0.00000  -0.00000   0.00000  -0.00000   0.00000
   6        6S         -0.00000   0.00000  -0.00000   0.00000  -0.00000
   7        7S          0.00000  -0.00000   0.00000  -0.00000   0.00000
   8        8S         -0.00000   0.00000  -0.00000   0.00000  -0.00000
   9        9S          0.00000  -0.00000   0.00000  -0.00000   0.00000
  10       10S         -0.00000   0.00000  -0.00000   0.00000  -0.00000
  11       11S          0.00000  -0.00000   0.00000  -0.00000   0.00000
  12       12S         -0.00000   0.00000  -0.00000   0.00000  -0.00000
  13       13S          0.00000  -0.00000   0.00000  -0.00000   0.00000
  14       14S          0.00000  -0.00000   0.00000  -0.00000   0.00000
  15       15S         -0.00000   0.00000  -0.00000   0.00000  -0.00000
  16       16S         -0.00000   0.00000  -0.00000   0.00000  -0.00001
  17       17S         -0.00000   0.00000  -0.00000   0.00000  -0.00000
  18       18S          0.00000  -0.00000   0.00000  -0.00000   0.00000
  19       19S          0.00000  -0.00000   0.00000  -0.00000   0.00000
  20       20S          0.00000  -0.00000   0.00000  -0.00000   0.00000
  21       21S         -0.00000   0.00000  -0.00000   0.00000  -0.00000
  22       22S         -0.00000   0.00000  -0.00000   0.00000  -0.00000
  23       23S          0.00000  -0.00000   0.00000  -0.00000   0.00000
  24       24PX         0.00000   0.00000   0.00000   0.00000   0.00000
  25       24PY         0.00000   0.00000   0.00000   0.00000   0.00000
  26       24PZ         0.00000  -0.00000   0.00000  -0.00000   0.00000
  27       25PX         0.00000   0.00000   0.00000   0.00000   0.00000
  28       25PY         0.00000   0.00000   0.00000   0.00000   0.00000
  29       25PZ        -0.00000   0.00000  -0.00000   0.00000  -0.00000
  30       26PX         0.00000   0.00000   0.00000   0.00000   0.00000
  31       26PY         0.00000   0.00000   0.00000   0.00000   0.00000
  32       26PZ         0.00000  -0.00000   0.00000  -0.00000   0.00000
[...]
  41       29PZ        -0.00003  -0.00001  -0.00001   0.00000
  42       30PX         0.00069   0.00034   0.00034   0.00000
  43       30PY         0.00069   0.00034   0.00034   0.00000
  44       30PZ         0.00069   0.00035   0.00035   0.00000
  45       31PX        -0.00784  -0.00392  -0.00392   0.00000
  46       31PY        -0.00784  -0.00392  -0.00392   0.00000
  47       31PZ        -0.00786  -0.00393  -0.00393   0.00000
  48       32PX        -0.03979  -0.01990  -0.01990   0.00000
  49       32PY        -0.03979  -0.01990  -0.01990   0.00000
  50       32PZ        -0.04002  -0.02001  -0.02001   0.00000
  51       33PX         0.15027   0.07514   0.07514   0.00000
  52       33PY         0.15027   0.07514   0.07514   0.00000
  53       33PZ         0.14933   0.07466   0.07466   0.00000
  54       34PX         0.59817   0.29908   0.29908   0.00000
  55       34PY         0.59817   0.29908   0.29908   0.00000
  56       34PZ         0.60081   0.30041   0.30041   0.00000
  57       35PX         0.76213   0.38106   0.38106   0.00000
  58       35PY         0.76213   0.38106   0.38106   0.00000
  59       35PZ         0.77092   0.38546   0.38546   0.00000
  60       36PX         0.44677   0.22338   0.22338   0.00000
  61       36PY         0.44677   0.22338   0.22338   0.00000
  62       36PZ         0.44415   0.22208   0.22208   0.00000
  63       37PX         0.04537   0.02268   0.02268   0.00000
  64       37PY         0.04537   0.02268   0.02268   0.00000
  65       37PZ         0.05140   0.02570   0.02570   0.00000
  66       38PX         0.04035   0.02017   0.02017   0.00000
  67       38PY         0.04035   0.02017   0.02017   0.00000
  68       38PZ        -0.00644  -0.00322  -0.00322   0.00000
  69       39PX         0.00845   0.00422   0.00422   0.00000
  70       39PY         0.00845   0.00422   0.00422   0.00000
  71       39PZ         0.00296   0.00148   0.00148   0.00000
  72       40PX        -0.08856  -0.04428  -0.04428   0.00000
  73       40PY        -0.08856  -0.04428  -0.04428   0.00000
  74       40PZ        -0.08767  -0.04384  -0.04384   0.00000
  75       41PX         0.14541   0.07270   0.07270   0.00000
  76       41PY         0.14541   0.07270   0.07270   0.00000
  77       41PZ         0.13819   0.06909   0.06909   0.00000
  78       42PX        -0.00110  -0.00055  -0.00055   0.00000
  79       42PY        -0.00110  -0.00055  -0.00055   0.00000
  80       42PZ        -0.00065  -0.00032  -0.00032   0.00000
  81       43D 0       -0.00001  -0.00000  -0.00000   0.00000
  82       43D+1       -0.00001  -0.00000  -0.00000   0.00000
  83       43D-1       -0.00001  -0.00000  -0.00000   0.00000
  84       43D+2       -0.00001  -0.00000  -0.00000   0.00000
  85       43D-2       -0.00001  -0.00000  -0.00000   0.00000
  86       44D 0        0.00186   0.00093   0.00093   0.00000
  87       44D+1        0.00190   0.00095   0.00095   0.00000
  88       44D-1        0.00190   0.00095   0.00095   0.00000
  89       44D+2        0.00189   0.00095   0.00095   0.00000
  90       44D-2        0.00189   0.00095   0.00095   0.00000
  91       45D 0        0.05287   0.02644   0.02644   0.00000
  92       45D+1        0.05417   0.02708   0.02708   0.00000
  93       45D-1        0.05417   0.02708   0.02708   0.00000
  94       45D+2        0.05394   0.02697   0.02697   0.00000
  95       45D-2        0.05394   0.02697   0.02697   0.00000
  96       46D 0        0.27016   0.13508   0.13508   0.00000
  97       46D+1        0.27584   0.13792   0.13792   0.00000
  98       46D-1        0.27584   0.13792   0.13792   0.00000
  99       46D+2        0.27421   0.13710   0.13710   0.00000
 100       46D-2        0.27421   0.13710   0.13710   0.00000
 101       47D 0        0.61131   0.30566   0.30566   0.00000
 102       47D+1        0.61008   0.30504   0.30504   0.00000
 103       47D-1        0.61008   0.30504   0.30504   0.00000
 104       47D+2        0.59789   0.29894   0.29894   0.00000
 105       47D-2        0.59789   0.29894   0.29894   0.00000
 106       48D 0        0.63602   0.31801   0.31801   0.00000
 107       48D+1        0.64608   0.32304   0.32304   0.00000
 108       48D-1        0.64608   0.32304   0.32304   0.00000
 109       48D+2        0.64408   0.32204   0.32204   0.00000
 110       48D-2        0.64408   0.32204   0.32204   0.00000
 111       49D 0        0.39255   0.19628   0.19628   0.00000
 112       49D+1        0.38996   0.19498   0.19498   0.00000
 113       49D-1        0.38996   0.19498   0.19498   0.00000
 114       49D+2        0.39247   0.19623   0.19623   0.00000
 115       49D-2        0.39247   0.19623   0.19623   0.00000
 116       50D 0        0.07965   0.03983   0.03983   0.00000
 117       50D+1        0.08284   0.04142   0.04142   0.00000
 118       50D-1        0.08284   0.04142   0.04142   0.00000
 119       50D+2        0.08056   0.04028   0.04028   0.00000
 120       50D-2        0.08056   0.04028   0.04028   0.00000
 121       51D 0       -0.01858  -0.00929  -0.00929   0.00000
 122       51D+1       -0.01763  -0.00882  -0.00882   0.00000
 123       51D-1       -0.01763  -0.00882  -0.00882   0.00000
 124       51D+2       -0.01665  -0.00832  -0.00832   0.00000
 125       51D-2       -0.01665  -0.00832  -0.00832   0.00000
 126       52D 0       -0.05272  -0.02636  -0.02636   0.00000
 127       52D+1       -0.03941  -0.01971  -0.01971   0.00000
 128       52D-1       -0.03941  -0.01971  -0.01971   0.00000
 129       52D+2       -0.02944  -0.01472  -0.01472   0.00000
 130       52D-2       -0.02944  -0.01472  -0.01472   0.00000
 131       53D 0        0.00407   0.00203   0.00203   0.00000
 132       53D+1        0.00434   0.00217   0.00217   0.00000
 133       53D-1        0.00434   0.00217   0.00217   0.00000
 134       53D+2        0.00103   0.00051   0.00051   0.00000
 135       53D-2        0.00103   0.00051   0.00051   0.00000
 136       54F 0        0.00000   0.00000   0.00000   0.00000
 137       54F+1        0.00000   0.00000   0.00000   0.00000
 138       54F-1        0.00000   0.00000   0.00000   0.00000
 139       54F+2        0.00000   0.00000   0.00000   0.00000
 140       54F-2        0.00000   0.00000   0.00000   0.00000
 141       54F+3       -0.00000  -0.00000  -0.00000   0.00000
 142       54F-3       -0.00000  -0.00000  -0.00000   0.00000
 143       55F 0        0.00001   0.00001   0.00001   0.00000
 144       55F+1        0.00001   0.00001   0.00001   0.00000
 145       55F-1        0.00001   0.00001   0.00001   0.00000
 146       55F+2        0.00001   0.00000   0.00000   0.00000
 147       55F-2        0.00001   0.00000   0.00000   0.00000
 148       55F+3        0.00000   0.00000   0.00000   0.00000
 149       55F-3        0.00000   0.00000   0.00000   0.00000
 150       56F 0        0.00019   0.00009   0.00009   0.00000
 151       56F+1        0.00010   0.00005   0.00005   0.00000
 152       56F-1        0.00010   0.00005   0.00005   0.00000
 153       56F+2        0.00002   0.00001   0.00001   0.00000
 154       56F-2        0.00002   0.00001   0.00001   0.00000
 155       56F+3       -0.00000  -0.00000  -0.00000   0.00000
 156       56F-3       -0.00000  -0.00000  -0.00000   0.00000
 157       57F 0        0.00212   0.00106   0.00106   0.00000
 158       57F+1        0.00266   0.00133   0.00133   0.00000
 159       57F-1        0.00266   0.00133   0.00133   0.00000
 160       57F+2        0.00008   0.00004   0.00004   0.00000
 161       57F-2        0.00008   0.00004   0.00004   0.00000
 162       57F+3       -0.00000  -0.00000  -0.00000   0.00000
 163       57F-3       -0.00000  -0.00000  -0.00000   0.00000
 164       58G 0        0.00000   0.00000   0.00000   0.00000
 165       58G+1        0.00000   0.00000   0.00000   0.00000
 166       58G-1        0.00000   0.00000   0.00000   0.00000
 167       58G+2        0.00000   0.00000   0.00000   0.00000
 168       58G-2        0.00000   0.00000   0.00000   0.00000
 169       58G+3        0.00000   0.00000   0.00000   0.00000
 170       58G-3       -0.00000  -0.00000  -0.00000   0.00000
 171       58G+4        0.00000   0.00000   0.00000   0.00000
 172       58G-4       -0.00000  -0.00000  -0.00000   0.00000
 173       59G 0       -0.00000  -0.00000  -0.00000   0.00000
 174       59G+1       -0.00000  -0.00000  -0.00000   0.00000
 175       59G-1       -0.00000  -0.00000  -0.00000   0.00000
 176       59G+2        0.00000   0.00000   0.00000   0.00000
 177       59G-2        0.00000   0.00000   0.00000   0.00000
 178       59G+3       -0.00000  -0.00000  -0.00000   0.00000
 179       59G-3        0.00000   0.00000   0.00000   0.00000
 180       59G+4        0.00000   0.00000   0.00000   0.00000
 181       59G-4       -0.00000  -0.00000  -0.00000   0.00000
 182       60G 0        0.00002   0.00001   0.00001   0.00000
 183       60G+1        0.00002   0.00001   0.00001   0.00000
 184       60G-1        0.00002   0.00001   0.00001   0.00000
 185       60G+2        0.00000   0.00000   0.00000   0.00000
 186       60G-2        0.00000   0.00000   0.00000   0.00000
 187       60G+3        0.00000   0.00000   0.00000   0.00000
 188       60G-3        0.00000   0.00000   0.00000   0.00000
 189       60G+4       -0.00000  -0.00000  -0.00000   0.00000
 190       60G-4        0.00000   0.00000   0.00000   0.00000
 191 2   O  1S         -0.00000  -0.00000  -0.00000   0.00000
 192        2S          0.00000   0.00000   0.00000   0.00000
 193        3S         -0.00000  -0.00000  -0.00000   0.00000
 194        4S          0.00001   0.00000   0.00000   0.00000
 195        5S         -0.00024  -0.00012  -0.00012   0.00000
 196        6S         -0.01141  -0.00570  -0.00570   0.00000
 197        7S         -0.10358  -0.05179  -0.05179   0.00000
 198        8S          1.09922   0.54961   0.54961   0.00000
 199        9S          0.24089   0.12044   0.12044   0.00000
 200       10S          0.73062   0.36531   0.36531   0.00000
 201       11S         -0.00096  -0.00048  -0.00048   0.00000
 202       12S          0.00854   0.00427   0.00427   0.00000
 203       13S          0.04924   0.02462   0.02462   0.00000
 204       14PX         0.00206   0.00103   0.00103   0.00000
 205       14PY         0.00206   0.00103   0.00103   0.00000
 206       14PZ         0.00085   0.00042   0.00042   0.00000
 207       15PX         0.06908   0.03454   0.03454   0.00000
 208       15PY         0.06908   0.03454   0.03454   0.00000
 209       15PZ         0.02876   0.01438   0.01438   0.00000
 210       16PX         0.40563   0.20281   0.20281   0.00000
 211       16PY         0.40563   0.20281   0.20281   0.00000
 212       16PZ         0.17410   0.08705   0.08705   0.00000
 213       17PX         0.79977   0.39988   0.39988   0.00000
 214       17PY         0.79977   0.39988   0.39988   0.00000
 215       17PZ         0.39926   0.19963   0.19963   0.00000
 216       18PX         0.58713   0.29357   0.29357   0.00000
 217       18PY         0.58713   0.29357   0.29357   0.00000
 218       18PZ         0.36607   0.18304   0.18304   0.00000
 219       19PX         0.00239   0.00120   0.00120   0.00000
 220       19PY         0.00239   0.00120   0.00120   0.00000
 221       19PZ         0.00098   0.00049   0.00049   0.00000
 222       20PX        -0.00033  -0.00016  -0.00016   0.00000
 223       20PY        -0.00033  -0.00016  -0.00016   0.00000
 224       20PZ        -0.00014  -0.00007  -0.00007   0.00000
 225       21PX         0.05862   0.02931   0.02931   0.00000
 226       21PY         0.05862   0.02931   0.02931   0.00000
 227       21PZ         0.06438   0.03219   0.03219   0.00000
 228       22D 0        0.00026   0.00013   0.00013   0.00000
 229       22D+1        0.00011   0.00005   0.00005   0.00000
 230       22D-1        0.00011   0.00005   0.00005   0.00000
 231       22D+2        0.00000   0.00000   0.00000   0.00000
 232       22D-2        0.00000   0.00000   0.00000   0.00000
 233       23D 0        0.00427   0.00214   0.00214   0.00000
 234       23D+1        0.00186   0.00093   0.00093   0.00000
 235       23D-1        0.00186   0.00093   0.00093   0.00000
 236       23D+2        0.00004   0.00002   0.00002   0.00000
 237       23D-2        0.00004   0.00002   0.00002   0.00000
 238       24D 0        0.00000   0.00000   0.00000   0.00000
 239       24D+1        0.00000   0.00000   0.00000   0.00000
 240       24D-1        0.00000   0.00000   0.00000   0.00000
 241       24D+2        0.00000   0.00000   0.00000   0.00000
 242       24D-2        0.00000   0.00000   0.00000   0.00000
 243       25D 0        0.00430   0.00215   0.00215   0.00000
 244       25D+1        0.00177   0.00089   0.00089   0.00000
 245       25D-1        0.00177   0.00089   0.00089   0.00000
 246       25D+2       -0.00012  -0.00006  -0.00006   0.00000
 247       25D-2       -0.00012  -0.00006  -0.00006   0.00000
 248       26F 0        0.00017   0.00009   0.00009   0.00000
 249       26F+1        0.00011   0.00005   0.00005   0.00000
 250       26F-1        0.00011   0.00005   0.00005   0.00000
 251       26F+2        0.00000   0.00000   0.00000   0.00000
 252       26F-2        0.00000   0.00000   0.00000   0.00000
 253       26F+3        0.00000   0.00000   0.00000   0.00000
 254       26F-3        0.00000   0.00000   0.00000   0.00000
 255       27F 0        0.00061   0.00031   0.00031   0.00000
 256       27F+1        0.00057   0.00029   0.00029   0.00000
 257       27F-1        0.00057   0.00029   0.00029   0.00000
 258       27F+2       -0.00002  -0.00001  -0.00001   0.00000
 259       27F-2       -0.00002  -0.00001  -0.00001   0.00000
 260       27F+3        0.00000   0.00000   0.00000   0.00000
 261       27F-3       -0.00000  -0.00000  -0.00000   0.00000
          Condensed to atoms (all electrons):
               1          2
     1  Zn  18.871129   0.215311
     2  O    0.215311   6.698249
          Atomic-Atomic Spin Densities.
               1          2
     1  Zn   0.000000   0.000000
     2  O    0.000000   0.000000
 Mulliken charges and spin densities:
               1          2
     1  Zn   0.913560   0.000000
     2  O   -0.913560   0.000000
 Sum of Mulliken charges =   0.00000   0.00000
 Mulliken charges and spin densities with hydrogens summed into heavy atoms:
               1          2
     1  Zn   0.913560   0.000000
     2  O   -0.913560   0.000000
 Electronic spatial extent (au):  <R**2>=             97.1125
 Charge=             -0.0000 electrons
 Dipole moment (field-independent basis, Debye):
    X=              0.0000    Y=              0.0000    Z=              6.7541  Tot=              6.7541
 Quadrupole moment (field-independent basis, Debye-Ang):
   XX=            -18.3396   YY=            -18.3396   ZZ=            -21.9482
   XY=              0.0000   XZ=              0.0000   YZ=              0.0000
 Traceless Quadrupole moment (field-independent basis, Debye-Ang):
   XX=              1.2029   YY=              1.2029   ZZ=             -2.4057
   XY=              0.0000   XZ=              0.0000   YZ=              0.0000
 Octapole moment (field-independent basis, Debye-Ang**2):
  XXX=              0.0000  YYY=              0.0000  ZZZ=             22.5158  XYY=              0.0000
  XXY=              0.0000  XXZ=              6.2066  XZZ=              0.0000  YZZ=              0.0000
  YYZ=              6.2066  XYZ=              0.0000
 Hexadecapole moment (field-independent basis, Debye-Ang**3):
 XXXX=            -20.1410 YYYY=            -20.1410 ZZZZ=           -106.4822 XXXY=              0.0000
 XXXZ=              0.0000 YYYX=              0.0000 YYYZ=              0.0000 ZZZX=              0.0000
 ZZZY=              0.0000 XXYY=             -6.7137 XXZZ=            -21.6159 YYZZ=            -21.6159
 XXYZ=              0.0000 YYXZ=              0.0000 ZZXY=              0.0000
 N-N= 3.527848072800D+01 E-N=-6.658217286054D+02  KE= 1.616399015066D+02
 Symmetry A1   KE= 6.522324307063D+01
 Symmetry A2   KE= 2.162315027786D+01
 Symmetry B1   KE= 3.739675407995D+01
 Symmetry B2   KE= 3.739675407921D+01
 Symmetry A1   SP= 0.000000000000D+00
 Symmetry A2   SP= 0.000000000000D+00
 Symmetry B1   SP= 0.000000000000D+00
 Symmetry B2   SP= 0.000000000000D+00
 Orbital energies and kinetic energies (alpha):
                                 1                 2
   9         O                -0.822192         10.811575
  10         O                -0.808559         10.420287
  11         O                -0.411721          2.265437
  12         O                -0.411721          2.265437
  13         O                -0.364606          1.314787
  14         V                -0.046855          0.810633
  15         V                 0.025135          0.100642
  16         V                 0.025135          0.100642
  17         V                 0.026468          0.198144
  18         V                 0.046192          0.046272
 Total kinetic energy from orbitals= 1.616399015066D+02
                          Isotropic Fermi Contact Couplings
        Atom                 a.u.       MegaHertz       Gauss      10(-4) cm-1
     1  Zn(67)             0.00000       0.00000       0.00000       0.00000
     2  O(17)              0.00000      -0.00000      -0.00000      -0.00000
 --------------------------------------------------------
       Center         ----  Spin Dipole Couplings  ----
                      3XX-RR        3YY-RR        3ZZ-RR
 --------------------------------------------------------
     1   Atom        0.000000      0.000000      0.000000
     2   Atom        0.000000      0.000000      0.000000
 --------------------------------------------------------
                        XY            XZ            YZ
 --------------------------------------------------------
     1   Atom        0.000000      0.000000      0.000000
     2   Atom        0.000000      0.000000      0.000000
 --------------------------------------------------------


 ---------------------------------------------------------------------------------
              Anisotropic Spin Dipole Couplings in Principal Axis System
 ---------------------------------------------------------------------------------

       Atom             a.u.   MegaHertz   Gauss  10(-4) cm-1        Axes

              Baa     0.0000     0.000     0.000     0.000  1.0000  0.0000  0.0000
     1 Zn(67) Bbb     0.0000     0.000     0.000     0.000 -0.0000  1.0000  0.0000
              Bcc     0.0000     0.000     0.000     0.000  0.0000  0.0000  1.0000
 
              Baa     0.0000    -0.000    -0.000    -0.000  1.0000  0.0000  0.0000
     2 O(17)  Bbb     0.0000    -0.000    -0.000    -0.000 -0.0000  1.0000  0.0000
              Bcc     0.0000    -0.000    -0.000    -0.000  0.0000  0.0000  1.0000
 

 ---------------------------------------------------------------------------------

 No NMR shielding tensors so no spin-rotation constants.
 Leave Link  601 at Tue Mar 27 11:53:41 2018, MaxMem= 10737418240 cpu:              92.8 elap:               3.0
 (Enter /home1/apps/gaussian/16rA.03/g16/l9999.exe)

 Test job not archived.
 1\1\GINC-C404-014\SP\ROCCSD(T)-Full\Gen\O1Zn1\GWANG18\27-Mar-2018\0\\#
 P ROCCSD(T)=(MaxCyc=150, Full)/Gen SCF=(maxcycle=400) Pseudo=Read Inte
 gral(NoXCTest) Pop=Regular MaxDisk=500GB Guess=Read IOp(5/15=2)\\ZnO\\
 0,1\Zn,0,0.,0.,0.\O,0,0.,0.,1.8\\Version=ES64L-G16RevA.03\State=1-SG\H
 F=-241.2488051\MP2=-242.5615893\MP3=-242.4103779\PUHF=-241.2488051\PMP
 2-0=-242.5615893\MP4SDQ=-242.5018833\CCSD=-242.4651929\CCSD(T)=-242.51
 28285\RMSD=4.745e-10\PG=C*V [C*(O1Zn1)]\\@


 THE ... SCIENTISTS WERE WRONG ... THE MOST PERSISTENT PRINCIPLES 
 OF THE UNIVERSE WERE ACCIDENT AND ERROR.

                          -- FRANK HERBERT IN DUNE
 Job cpu time:       1 days  0 hours 51 minutes  4.2 seconds.
 Elapsed time:       0 days  0 hours 47 minutes  0.1 seconds.
 File lengths (MBytes):  RWF=   5449 Int=      0 D2E=      0 Chk=      9 Scr=      1
 Normal termination of Gaussian 16 at Tue Mar 27 11:53:41 2018.
