 Entering Gaussian System, Link 0=g16
 Initial command:
 /home1/apps/gaussian/16rA.03/g16/l1.exe "/tmp/Gau-106372.inp" -scrdir="/tmp/"
 Entering Link 1 = /home1/apps/gaussian/16rA.03/g16/l1.exe PID=    106373.
  
 Copyright (c) 1988,1990,1992,1993,1995,1998,2003,2009,2016,
            Gaussian, Inc.  All Rights Reserved.
  
 This is part of the Gaussian(R) 16 program.  It is based on
 the Gaussian(R) 09 system (copyright 2009, Gaussian, Inc.),
 the Gaussian(R) 03 system (copyright 2003, Gaussian, Inc.),
 the Gaussian(R) 98 system (copyright 1998, Gaussian, Inc.),
 the Gaussian(R) 94 system (copyright 1995, Gaussian, Inc.),
 the Gaussian 92(TM) system (copyright 1992, Gaussian, Inc.),
 the Gaussian 90(TM) system (copyright 1990, Gaussian, Inc.),
 the Gaussian 88(TM) system (copyright 1988, Gaussian, Inc.),
 the Gaussian 86(TM) system (copyright 1986, Carnegie Mellon
 University), and the Gaussian 82(TM) system (copyright 1983,
 Carnegie Mellon University). Gaussian is a federally registered
 trademark of Gaussian, Inc.
  
 This software contains proprietary and confidential information,
 including trade secrets, belonging to Gaussian, Inc.
  
 This software is provided under written license and may be
 used, copied, transmitted, or stored only in accord with that
 written license.
  
 The following legend is applicable only to US Government
 contracts under FAR:
  
                    RESTRICTED RIGHTS LEGEND
  
 Use, reproduction and disclosure by the US Government is
 subject to restrictions as set forth in subparagraphs (a)
 and (c) of the Commercial Computer Software - Restricted
 Rights clause in FAR 52.227-19.
  
 Gaussian, Inc.
 340 Quinnipiac St., Bldg. 40, Wallingford CT 06492
  
  
 ---------------------------------------------------------------
 Warning -- This program may not be used in any manner that
 competes with the business of Gaussian, Inc. or will provide
 assistance to any competitor of Gaussian, Inc.  The licensee
 of this program is prohibited from giving any competitor of
 Gaussian, Inc. access to this program.  By using this program,
 the user acknowledges that Gaussian, Inc. is engaged in the
 business of creating and licensing software in the field of
 computational chemistry and represents and warrants to the
 licensee that it is not a competitor of Gaussian, Inc. and that
 it will not use this program in any manner prohibited above.
 ---------------------------------------------------------------
  

 Cite this work as:
 Gaussian 16, Revision A.03,
 M. J. Frisch, G. W. Trucks, H. B. Schlegel, G. E. Scuseria, 
 M. A. Robb, J. R. Cheeseman, G. Scalmani, V. Barone, 
 G. A. Petersson, H. Nakatsuji, X. Li, M. Caricato, A. V. Marenich, 
 J. Bloino, B. G. Janesko, R. Gomperts, B. Mennucci, H. P. Hratchian, 
 J. V. Ortiz, A. F. Izmaylov, J. L. Sonnenberg, D. Williams-Young, 
 F. Ding, F. Lipparini, F. Egidi, J. Goings, B. Peng, A. Petrone, 
 T. Henderson, D. Ranasinghe, V. G. Zakrzewski, J. Gao, N. Rega, 
 G. Zheng, W. Liang, M. Hada, M. Ehara, K. Toyota, R. Fukuda, 
 J. Hasegawa, M. Ishida, T. Nakajima, Y. Honda, O. Kitao, H. Nakai, 
 T. Vreven, K. Throssell, J. A. Montgomery, Jr., J. E. Peralta, 
 F. Ogliaro, M. J. Bearpark, J. J. Heyd, E. N. Brothers, K. N. Kudin, 
 V. N. Staroverov, T. A. Keith, R. Kobayashi, J. Normand, 
 K. Raghavachari, A. P. Rendell, J. C. Burant, S. S. Iyengar, 
 J. Tomasi, M. Cossi, J. M. Millam, M. Klene, C. Adamo, R. Cammi, 
 J. W. Ochterski, R. L. Martin, K. Morokuma, O. Farkas, 
 J. B. Foresman, and D. J. Fox, Gaussian, Inc., Wallingford CT, 2016.
 
 ******************************************
 Gaussian 16:  ES64L-G16RevA.03 25-Dec-2016
                22-Apr-2018 
 ******************************************
 %mem=80GB
 %cpu=0-31
 SetSPE:  set environment variable "MP_BIND" = "yes"
 SetSPE:  set environment variable "MP_BLIST" = "0,1,2,3,4,5,6,7,8,9,10,11,12,13,14,15,16,17,18,19,20,21,22,23,24,25,26,27,28,29,30,31"
 Will use up to   32 processors via shared memory.
 %chk=qz.chk
 %rwf=/scratch/04843/gwang18/znh/
 ----------------------------------------------------------------------
 #P ROCCSD(T)=(MaxCyc=150, Full)/Gen SCF=(maxcycle=400, vshift=200) Pse
 udo=Read Integral(NoXCTest) Pop=Regular MaxDisk=500GB Guess=Read IOp(5
 /15=2)
 ----------------------------------------------------------------------
 1/38=1,172=1/1;
 2/12=2,17=6,18=5,40=1/2;
 3/5=7,11=2,16=1,17=8,25=1,30=1,47=8,116=101/1,2,3;
 4/5=1/1;
 5/5=2,7=400,10=200,15=2,38=6/2;
 8/5=-1,6=4,9=120000,10=90/1,4;
 9/5=7,6=150,14=2/13;
 6//1;
 99/5=1,9=1/99;
 Leave Link    1 at Sun Apr 22 03:52:03 2018, MaxMem= 10737418240 cpu:               6.7 elap:               0.2
 (Enter /home1/apps/gaussian/16rA.03/g16/l101.exe)
 ---
 CoH
 ---
 Symbolic Z-matrix:
 Charge =  0 Multiplicity = 3
 Co                    0.        0.        0. 
 H                     0.        0.        1.1 
 
 ITRead=  0  0
 MicOpt= -1 -1
 NAtoms=      2 NQM=        2 NQMF=       0 NMMI=      0 NMMIF=      0
                NMic=       0 NMicF=      0.
                    Isotopes and Nuclear Properties:
 (Nuclear quadrupole moments (NQMom) in fm**2, nuclear magnetic moments (NMagM)
  in nuclear magnetons)

  Atom         1           2
 IAtWgt=          59           1
 AtmWgt=  58.9331978   1.0078250
 NucSpn=           7           1
 AtZEff=  -0.0000000  -0.0000000
 NQMom=   42.0000000   0.0000000
 NMagM=    4.6270000   2.7928460
 AtZNuc=  27.0000000   1.0000000
 Leave Link  101 at Sun Apr 22 03:52:03 2018, MaxMem= 10737418240 cpu:               3.1 elap:               0.1
 (Enter /home1/apps/gaussian/16rA.03/g16/l202.exe)
                          Input orientation:                          
 ---------------------------------------------------------------------
 Center     Atomic      Atomic             Coordinates (Angstroms)
 Number     Number       Type             X           Y           Z
 ---------------------------------------------------------------------
      1         27           0        0.000000    0.000000    0.000000
      2          1           0        0.000000    0.000000    1.100000
 ---------------------------------------------------------------------
 Stoichiometry    CoH(3)
 Framework group  C*V[C*(HCo)]
 Deg. of freedom     1
 Full point group                 C*V     NOp   4
 Largest Abelian subgroup         C2V     NOp   4
 Largest concise Abelian subgroup C1      NOp   1
                         Standard orientation:                         
 ---------------------------------------------------------------------
 Center     Atomic      Atomic             Coordinates (Angstroms)
 Number     Number       Type             X           Y           Z
 ---------------------------------------------------------------------
      1         27           0        0.000000    0.000000    0.039286
      2          1           0        0.000000    0.000000   -1.060714
 ---------------------------------------------------------------------
 Rotational constants (GHZ):           0.0000000         421.5128594         421.5128594
 Leave Link  202 at Sun Apr 22 03:52:03 2018, MaxMem= 10737418240 cpu:               0.8 elap:               0.1
 (Enter /home1/apps/gaussian/16rA.03/g16/l301.exe)
 General basis read from cards:  (5D, 7F)
 Centers:       1
 S 1 1.00
     Exponent=  1.4370220000D+07 Coefficients=  1.0000000000D+00
 S 1 1.00
     Exponent=  2.1515400000D+06 Coefficients=  1.0000000000D+00
 S 1 1.00
     Exponent=  4.8962570000D+05 Coefficients=  1.0000000000D+00
 S 1 1.00
     Exponent=  1.3869030000D+05 Coefficients=  1.0000000000D+00
 S 1 1.00
     Exponent=  4.5249890000D+04 Coefficients=  1.0000000000D+00
 S 1 1.00
     Exponent=  1.6337620000D+04 Coefficients=  1.0000000000D+00
 S 1 1.00
     Exponent=  6.3730730000D+03 Coefficients=  1.0000000000D+00
 S 1 1.00
     Exponent=  2.6439580000D+03 Coefficients=  1.0000000000D+00
 S 1 1.00
     Exponent=  1.1536140000D+03 Coefficients=  1.0000000000D+00
 S 1 1.00
     Exponent=  5.2486060000D+02 Coefficients=  1.0000000000D+00
 S 1 1.00
     Exponent=  2.4730690000D+02 Coefficients=  1.0000000000D+00
 S 1 1.00
     Exponent=  1.1990630000D+02 Coefficients=  1.0000000000D+00
 S 1 1.00
     Exponent=  5.8964290000D+01 Coefficients=  1.0000000000D+00
 S 1 1.00
     Exponent=  2.7136160000D+01 Coefficients=  1.0000000000D+00
 S 1 1.00
     Exponent=  1.3689120000D+01 Coefficients=  1.0000000000D+00
 S 1 1.00
     Exponent=  6.8827710000D+00 Coefficients=  1.0000000000D+00
 S 1 1.00
     Exponent=  3.1446470000D+00 Coefficients=  1.0000000000D+00
 S 1 1.00
     Exponent=  1.5062660000D+00 Coefficients=  1.0000000000D+00
 S 1 1.00
     Exponent=  6.8726800000D-01 Coefficients=  1.0000000000D+00
 S 1 1.00
     Exponent=  1.6097200000D-01 Coefficients=  1.0000000000D+00
 S 1 1.00
     Exponent=  7.3017000000D-02 Coefficients=  1.0000000000D+00
 S 1 1.00
     Exponent=  3.2071000000D-02 Coefficients=  1.0000000000D+00
 S 1 1.00
     Exponent=  6.2451000000D+00 Coefficients=  1.0000000000D+00
 S 1 1.00
     Exponent=  1.7752000000D+00 Coefficients=  1.0000000000D+00
 S 1 1.00
     Exponent=  1.4090000000D-02 Coefficients=  1.0000000000D+00
 P 1 1.00
     Exponent=  4.1961400000D+04 Coefficients=  1.0000000000D+00
 P 1 1.00
     Exponent=  9.9283060000D+03 Coefficients=  1.0000000000D+00
 P 1 1.00
     Exponent=  3.2249710000D+03 Coefficients=  1.0000000000D+00
 P 1 1.00
     Exponent=  1.2352930000D+03 Coefficients=  1.0000000000D+00
 P 1 1.00
     Exponent=  5.2584690000D+02 Coefficients=  1.0000000000D+00
 P 1 1.00
     Exponent=  2.4097620000D+02 Coefficients=  1.0000000000D+00
 P 1 1.00
     Exponent=  1.1664180000D+02 Coefficients=  1.0000000000D+00
 P 1 1.00
     Exponent=  5.8848340000D+01 Coefficients=  1.0000000000D+00
 P 1 1.00
     Exponent=  3.0529100000D+01 Coefficients=  1.0000000000D+00
 P 1 1.00
     Exponent=  1.6169430000D+01 Coefficients=  1.0000000000D+00
 P 1 1.00
     Exponent=  8.6642360000D+00 Coefficients=  1.0000000000D+00
 P 1 1.00
     Exponent=  4.5919430000D+00 Coefficients=  1.0000000000D+00
 P 1 1.00
     Exponent=  2.3810480000D+00 Coefficients=  1.0000000000D+00
 P 1 1.00
     Exponent=  1.2062460000D+00 Coefficients=  1.0000000000D+00
 P 1 1.00
     Exponent=  5.8882200000D-01 Coefficients=  1.0000000000D+00
 P 1 1.00
     Exponent=  2.2489300000D-01 Coefficients=  1.0000000000D+00
 P 1 1.00
     Exponent=  9.0448000000D-02 Coefficients=  1.0000000000D+00
 P 1 1.00
     Exponent=  3.5820000000D-02 Coefficients=  1.0000000000D+00
 P 1 1.00
     Exponent=  9.4150000000D+00 Coefficients=  1.0000000000D+00
 P 1 1.00
     Exponent=  2.5758000000D+00 Coefficients=  1.0000000000D+00
 P 1 1.00
     Exponent=  1.4190000000D-02 Coefficients=  1.0000000000D+00
 D 1 1.00
     Exponent=  3.7156600000D+02 Coefficients=  1.0000000000D+00
 D 1 1.00
     Exponent=  1.1011500000D+02 Coefficients=  1.0000000000D+00
 D 1 1.00
     Exponent=  4.2425500000D+01 Coefficients=  1.0000000000D+00
 D 1 1.00
     Exponent=  1.8336900000D+01 Coefficients=  1.0000000000D+00
 D 1 1.00
     Exponent=  8.4573000000D+00 Coefficients=  1.0000000000D+00
 D 1 1.00
     Exponent=  4.0417900000D+00 Coefficients=  1.0000000000D+00
 D 1 1.00
     Exponent=  1.9260300000D+00 Coefficients=  1.0000000000D+00
 D 1 1.00
     Exponent=  8.9428100000D-01 Coefficients=  1.0000000000D+00
 D 1 1.00
     Exponent=  3.9798800000D-01 Coefficients=  1.0000000000D+00
 D 1 1.00
     Exponent=  1.6650000000D-01 Coefficients=  1.0000000000D+00
 D 1 1.00
     Exponent=  6.3025000000D-02 Coefficients=  1.0000000000D+00
 D 1 1.00
     Exponent=  6.2748000000D+00 Coefficients=  1.0000000000D+00
 D 1 1.00
     Exponent=  3.3097000000D+00 Coefficients=  1.0000000000D+00
 D 1 1.00
     Exponent=  2.3860000000D-02 Coefficients=  1.0000000000D+00
 F 1 1.00
     Exponent=  8.9724000000D+00 Coefficients=  1.0000000000D+00
 F 1 1.00
     Exponent=  3.7773000000D+00 Coefficients=  1.0000000000D+00
 F 1 1.00
     Exponent=  1.5902000000D+00 Coefficients=  1.0000000000D+00
 F 1 1.00
     Exponent=  5.3630000000D-01 Coefficients=  1.0000000000D+00
 F 1 1.00
     Exponent=  1.8087000000D-01 Coefficients=  1.0000000000D+00
 G 1 1.00
     Exponent=  7.3377000000D+00 Coefficients=  1.0000000000D+00
 G 1 1.00
     Exponent=  3.2254000000D+00 Coefficients=  1.0000000000D+00
 G 1 1.00
     Exponent=  1.2510000000D+00 Coefficients=  1.0000000000D+00
 G 1 1.00
     Exponent=  4.8521000000D-01 Coefficients=  1.0000000000D+00
 H 1 1.00
     Exponent=  6.7172000000D+00 Coefficients=  1.0000000000D+00
 H 1 1.00
     Exponent=  2.7485000000D+00 Coefficients=  1.0000000000D+00
 H 1 1.00
     Exponent=  1.1246100000D+00 Coefficients=  1.0000000000D+00
 ****
 Centers:       2
 S 1 1.00
     Exponent=  8.2640000000D+01 Coefficients=  1.0000000000D+00
 S 1 1.00
     Exponent=  1.2410000000D+01 Coefficients=  1.0000000000D+00
 S 1 1.00
     Exponent=  2.8240000000D+00 Coefficients=  1.0000000000D+00
 S 1 1.00
     Exponent=  7.9770000000D-01 Coefficients=  1.0000000000D+00
 S 1 1.00
     Exponent=  2.5810000000D-01 Coefficients=  1.0000000000D+00
 S 1 1.00
     Exponent=  8.9890000000D-02 Coefficients=  1.0000000000D+00
 S 1 1.00
     Exponent=  2.3630000000D-02 Coefficients=  1.0000000000D+00
 P 1 1.00
     Exponent=  2.2920000000D+00 Coefficients=  1.0000000000D+00
 P 1 1.00
     Exponent=  8.3800000000D-01 Coefficients=  1.0000000000D+00
 P 1 1.00
     Exponent=  2.9200000000D-01 Coefficients=  1.0000000000D+00
 P 1 1.00
     Exponent=  8.4800000000D-02 Coefficients=  1.0000000000D+00
 D 1 1.00
     Exponent=  2.0620000000D+00 Coefficients=  1.0000000000D+00
 D 1 1.00
     Exponent=  6.6200000000D-01 Coefficients=  1.0000000000D+00
 D 1 1.00
     Exponent=  1.9000000000D-01 Coefficients=  1.0000000000D+00
 F 1 1.00
     Exponent=  1.3970000000D+00 Coefficients=  1.0000000000D+00
 F 1 1.00
     Exponent=  3.6000000000D-01 Coefficients=  1.0000000000D+00
 ****
 ======================================================================================================
                                       Pseudopotential Parameters
 ======================================================================================================
  Center     Atomic      Valence      Angular      Power
  Number     Number     Electrons     Momentum     of R      Exponent        Coefficient   SO-Coeffient
 ======================================================================================================
    1         27           17
                                      D and up 
                                                     1        4.1881932       17.00000000    0.00000000
                                                     3        4.4296881       71.19928469    0.00000000
                                                     2        4.3980067      -77.65278252    0.00000000
                                      S - D
                                                     2       10.8607544      113.90484511    0.00000000
                                      P - D
                                                     2        9.0520277       56.10698766    0.00000000
    2          1            1
                                      P and up 
                                                     2       21.7769666      -10.85192405    0.00000000
                                                     1       21.2435951        1.00000000    0.00000000
                                                     3       21.2435951       21.24359508    0.00000000
                                      S - P
                                                     2        1.0000000        0.00000000    0.00000000
 ======================================================================================================
 Ernie: Thresh=  0.10000D-02 Tol=  0.10000D-05 Strict=F.
 There are   171 symmetry adapted cartesian basis functions of A1  symmetry.
 There are    45 symmetry adapted cartesian basis functions of A2  symmetry.
 There are    93 symmetry adapted cartesian basis functions of B1  symmetry.
 There are    93 symmetry adapted cartesian basis functions of B2  symmetry.
 There are   126 symmetry adapted basis functions of A1  symmetry.
 There are    38 symmetry adapted basis functions of A2  symmetry.
 There are    73 symmetry adapted basis functions of B1  symmetry.
 There are    73 symmetry adapted basis functions of B2  symmetry.
   310 basis functions,   402 primitive gaussians,   402 cartesian basis functions
    10 alpha electrons        8 beta electrons
       nuclear repulsion energy         8.1781932597 Hartrees.
 IExCor=    0 DFT=F Ex=HF Corr=None ExCW=0 ScaHFX=  1.000000
 ScaDFX=  1.000000  1.000000  1.000000  1.000000 ScalE2=  1.000000  1.000000
 IRadAn=      5 IRanWt=     -1 IRanGd=            0 ICorTp=0 IEmpDi=  4
 NAtoms=    2 NActive=    2 NUniq=    2 SFac= 1.00D+00 NAtFMM=   60 NAOKFM=F Big=F
 Integral buffers will be    131072 words long.
 Raffenetti 2 integral format.
 Two-electron integral symmetry is turned on.
 Leave Link  301 at Sun Apr 22 03:52:03 2018, MaxMem= 10737418240 cpu:               8.1 elap:               0.3
 (Enter /home1/apps/gaussian/16rA.03/g16/l302.exe)
 NPDir=0 NMtPBC=     1 NCelOv=     1 NCel=       1 NClECP=     1 NCelD=      1
         NCelK=      1 NCelE2=     1 NClLst=     1 CellRange=     0.0.
 One-electron integrals computed using PRISM.
 One-electron integral symmetry used in STVInt
   4 Symmetry operations used in ECPInt.
 ECPInt:  NShTT=    3916 NPrTT=    3916 LenC2=    3891 LenP2D=    3890.
 LDataN:  DoStor=T MaxTD1=10 Len=  848
 NBasis=   310 RedAO= T EigKep=  3.85D-06  NBF=   126    38    73    73
 NBsUse=   306 1.00D-06 EigRej=  5.18D-07 NBFU=   124    38    72    72
 Leave Link  302 at Sun Apr 22 03:52:06 2018, MaxMem= 10737418240 cpu:              75.4 elap:               2.4
 (Enter /home1/apps/gaussian/16rA.03/g16/l303.exe)
 DipDrv:  MaxL=1.
 Leave Link  303 at Sun Apr 22 03:52:06 2018, MaxMem= 10737418240 cpu:               3.0 elap:               0.2
 (Enter /home1/apps/gaussian/16rA.03/g16/l401.exe)
 Initial guess from the checkpoint file:  "qz.chk"
 B after Tr=     0.000000    0.000000    0.000000
         Rot=    1.000000    0.000000    0.000000    0.000000 Ang=   0.00 deg.
 Guess basis will be translated and rotated to current coordinates.
 JPrj=2 DoOrth=T DoCkMO=T.
 Initial guess orbital symmetries:
       Occupied  (SG) (SG) (PI) (PI) (PI) (PI) (SG) (DLTA) (SG)
                 (DLTA)
       Virtual   (SG) (PI) (PI) (SG) (SG) (PI) (PI) (SG) (DLTA)
                 (DLTA) (PI) (PI) (SG) (SG) (SG) (PI) (PI) (SG)
                 (PI) (PI) (DLTA) (DLTA) (SG) (PI) (PI) (SG) (SG)
                 (SG) (DLTA) (DLTA) (PI) (PI) (PI) (PI) (SG) (PHI)
                 (PHI) (SG) (?A) (?A) (PI) (PI) (PI) (PI) (SG)
                 (?A) (?A) (SG) (SG) (PI) (PI) (SG) (PI) (PI) (SG)
                 (SG) (PI) (PI) (DLTA) (DLTA) (PHI) (PHI) (SG)
                 (PI) (PI) (DLTA) (DLTA) (SG) (DLTA) (DLTA) (?B)
                 (?B) (PHI) (PHI) (PI) (PI) (PI) (PI) (SG) (DLTA)
                 (DLTA) (SG) (PI) (PI) (SG) (PI) (PI) (SG) (SG)
                 (PHI) (PHI) (DLTA) (DLTA) (PI) (PI) (DLTA) (DLTA)
                 (SG) (PI) (PI) (SG) (SG) (?B) (?B) (?C) (?C) (DLTA)
                 (DLTA) (?C) (?C) (SG) (PI) (PI) (SG) (SG) (DLTA)
                 (DLTA) (PI) (PI) (SG) (?C) (?C) (DLTA) (DLTA)
                 (?C) (?C) (SG) (PI) (PI) (SG) (?D) (?D) (?D) (?C)
                 (?C) (DLTA) (DLTA) (?C) (?C) (?D) (DLTA) (DLTA)
                 (PI) (PI) (SG) (PI) (PI) (SG) (SG) (SG) (DLTA)
                 (DLTA) (PI) (PI) (SG) (PI) (PI) (SG) (SG) (PI)
                 (PI) (SG) (DLTA) (DLTA) (PI) (PI) (SG) (SG) (PI)
                 (PI) (SG) (SG) (DLTA) (DLTA) (PI) (PI) (SG) (PI)
                 (PI) (SG) (SG) (PI) (PI) (SG) (SG) (PI) (PI) (SG)
                 (SG) (PI) (PI) (SG) (SG) (PI) (PI) (SG) (SG) (SG)
                 (PI) (PI) (SG) (SG) (SG) (SG) (SG) (DLTA) (SG)
                 (DLTA) (SG) (SG) (SG) (DLTA) (SG) (SG) (SG) (DLTA)
                 (SG) (DLTA) (SG) (?B) (SG) (DLTA) (SG) (DLTA)
                 (SG) (?B) (DLTA) (SG) (DLTA) (DLTA) (SG) (DLTA)
                 (SG) (?B) (?B) (DLTA) (DLTA) (DLTA) (DLTA) (DLTA)
                 (?B) (DLTA) (DLTA) (?B) (DLTA) (DLTA) (DLTA) (DLTA)
                 (?B) (?B) (PI) (PI) (PI) (PI) (PI) (PHI) (PI)
                 (PI) (PHI) (PI) (PI) (PHI) (PI) (?E) (PHI) (PI)
                 (PHI) (PI) (PI) (PHI) (?E) (PHI) (?E) (PI) (PI)
                 (PI) (PI) (PI) (PHI) (PI) (PI) (PHI) (PI) (PI)
                 (PHI) (PI) (?E) (PHI) (PI) (PHI) (PI) (PI) (PHI)
                 (?E) (PHI) (?E)
 Leave Link  401 at Sun Apr 22 03:52:07 2018, MaxMem= 10737418240 cpu:              16.9 elap:               0.6
 (Enter /home1/apps/gaussian/16rA.03/g16/l502.exe)
 Keep R1 and R2 ints in memory in symmetry-blocked form, NReq=1456552531.
 FoFCou: FMM=F IPFlag=           8 FMFlag=           0 FMFlg1=           0
         NFxFlg=           0 DoJE=F BraDBF=F KetDBF=F FulRan=T
         wScrn=  0.000000 ICntrl=       600 IOpCl=  0 I1Cent=           0 NGrid=           0
         NMat0=    1 NMatS0=  48205 NMatT0=    0 NMatD0=    1 NMtDS0=    0 NMtDT0=    0
 Petite list used in FoFCou.
 Restricted open shell SCF:
 Using DIIS extrapolation, IDIIS=  1040.
 NGot= 10737418240 LenX= 10147857266 LenY= 10147695221
 Requested convergence on RMS density matrix=1.00D-08 within 400 cycles.
 Requested convergence on MAX density matrix=1.00D-06.
 Requested convergence on             energy=1.00D-06.
 Virtual orbitals will be shifted by   0.200 hartree.
 No special actions if energy rises.

 Cycle   1  Pass 1  IDiag  1:
 E= -145.305839202296    
 DIIS: error= 3.07D+00 at cycle   1 NSaved=   1.
 NSaved= 1 IEnMin= 1 EnMin= -145.305839202296     IErMin= 1 ErrMin= 3.07D+00
 ErrMax= 3.07D+00  0.00D+00 EMaxC= 1.00D-01 BMatC= 1.44D+03 BMatP= 1.44D+03
 IDIUse=3 WtCom= 0.00D+00 WtEn= 1.00D+00
 Coeff-Com:  0.100D+01
 Coeff-En:   0.100D+01
 Coeff:      0.100D+01
 Gap=     0.023 Goal=   None    Shift=    0.200
 GapD=    0.023 DampG=0.250 DampE=0.125 DampFc=0.1250 IDamp=-1.
 Damping current iteration by 1.25D-01
 RMSDP=5.53D-03 MaxDP=7.31D-01              OVMax= 5.14D-03

 Cycle   2  Pass 1  IDiag  1:
 E= -145.306251401699     Delta-E=       -0.000412199402 Rises=F Damp=T
 DIIS: error= 2.69D+00 at cycle   2 NSaved=   2.
 NSaved= 2 IEnMin= 2 EnMin= -145.306251401699     IErMin= 2 ErrMin= 2.69D+00
 ErrMax= 2.69D+00  0.00D+00 EMaxC= 1.00D-01 BMatC= 1.10D+03 BMatP= 1.44D+03
 IDIUse=3 WtCom= 0.00D+00 WtEn= 1.00D+00
 Coeff-Com: -0.700D+01 0.800D+01
 Coeff-En:   0.000D+00 0.100D+01
 Coeff:      0.000D+00 0.100D+01
 Gap=     0.022 Goal=   None    Shift=    0.200
 RMSDP=4.89D-03 MaxDP=6.48D-01 DE=-4.12D-04 OVMax= 3.23D-03

 Cycle   3  Pass 1  IDiag  1:
 E= -145.309172346749     Delta-E=       -0.002920945050 Rises=F Damp=F
 DIIS: error= 5.34D-04 at cycle   3 NSaved=   3.
 NSaved= 3 IEnMin= 3 EnMin= -145.309172346749     IErMin= 3 ErrMin= 5.34D-04
 ErrMax= 5.34D-04  0.00D+00 EMaxC= 1.00D-01 BMatC= 1.21D-05 BMatP= 1.10D+03
 IDIUse=3 WtCom= 9.95D-01 WtEn= 5.34D-03
 Coeff-Com: -0.524D+00 0.599D+00 0.925D+00
 Coeff-En:   0.000D+00 0.000D+00 0.100D+01
 Coeff:     -0.522D+00 0.596D+00 0.925D+00
 Gap=     0.022 Goal=   None    Shift=    0.200
 RMSDP=1.12D-04 MaxDP=1.40D-02 DE=-2.92D-03 OVMax= 5.54D-04

 Cycle   4  Pass 1  IDiag  1:
 E= -145.309173504492     Delta-E=       -0.000001157743 Rises=F Damp=F
 DIIS: error= 3.63D-04 at cycle   4 NSaved=   4.
 NSaved= 4 IEnMin= 4 EnMin= -145.309173504492     IErMin= 4 ErrMin= 3.63D-04
 ErrMax= 3.63D-04  0.00D+00 EMaxC= 1.00D-01 BMatC= 2.78D-06 BMatP= 1.21D-05
 IDIUse=3 WtCom= 9.96D-01 WtEn= 3.63D-03
 Coeff-Com: -0.524D+00 0.599D+00-0.125D+00 0.105D+01
 Coeff-En:   0.000D+00 0.000D+00 0.000D+00 0.100D+01
 Coeff:     -0.523D+00 0.597D+00-0.124D+00 0.105D+01
 Gap=     0.023 Goal=   None    Shift=    0.200
 RMSDP=1.13D-05 MaxDP=7.79D-04 DE=-1.16D-06 OVMax= 2.66D-04

 Cycle   5  Pass 1  IDiag  1:
 E= -145.309174386064     Delta-E=       -0.000000881572 Rises=F Damp=F
 DIIS: error= 3.32D-04 at cycle   5 NSaved=   5.
 NSaved= 5 IEnMin= 5 EnMin= -145.309174386064     IErMin= 5 ErrMin= 3.32D-04
 ErrMax= 3.32D-04  0.00D+00 EMaxC= 1.00D-01 BMatC= 2.38D-06 BMatP= 2.78D-06
 IDIUse=3 WtCom= 9.97D-01 WtEn= 3.32D-03
 Coeff-Com: -0.503D+00 0.575D+00-0.128D+00 0.524D+00 0.532D+00
 Coeff-En:   0.000D+00 0.000D+00 0.000D+00 0.000D+00 0.100D+01
 Coeff:     -0.501D+00 0.573D+00-0.128D+00 0.523D+00 0.533D+00
 Gap=     0.022 Goal=   None    Shift=    0.200
 RMSDP=5.64D-06 MaxDP=9.17D-04 DE=-8.82D-07 OVMax= 1.42D-04

 Cycle   6  Pass 1  IDiag  1:
 E= -145.309174797343     Delta-E=       -0.000000411279 Rises=F Damp=F
 DIIS: error= 3.13D-04 at cycle   6 NSaved=   6.
 NSaved= 6 IEnMin= 6 EnMin= -145.309174797343     IErMin= 6 ErrMin= 3.13D-04
 ErrMax= 3.13D-04  0.00D+00 EMaxC= 1.00D-01 BMatC= 1.99D-06 BMatP= 2.38D-06
 IDIUse=3 WtCom= 9.97D-01 WtEn= 3.13D-03
 Coeff-Com: -0.448D+00 0.512D+00-0.878D-01-0.176D+00-0.345D-01 0.123D+01
 Coeff-En:   0.000D+00 0.000D+00 0.000D+00 0.000D+00 0.000D+00 0.100D+01
 Coeff:     -0.446D+00 0.510D+00-0.875D-01-0.176D+00-0.344D-01 0.123D+01
 Gap=     0.022 Goal=   None    Shift=    0.200
 RMSDP=1.67D-05 MaxDP=2.79D-03 DE=-4.11D-07 OVMax= 9.36D-05

 Cycle   7  Pass 1  IDiag  1:
 E= -145.309175016817     Delta-E=       -0.000000219475 Rises=F Damp=F
 DIIS: error= 2.97D-04 at cycle   7 NSaved=   7.
 NSaved= 7 IEnMin= 7 EnMin= -145.309175016817     IErMin= 7 ErrMin= 2.97D-04
 ErrMax= 2.97D-04  0.00D+00 EMaxC= 1.00D-01 BMatC= 1.74D-06 BMatP= 1.99D-06
 IDIUse=3 WtCom= 9.97D-01 WtEn= 2.97D-03
 Coeff-Com: -0.428D+00 0.489D+00-0.789D-01-0.164D+00-0.521D-01 0.509D+00
 Coeff-Com:  0.724D+00
 Coeff-En:   0.000D+00 0.000D+00 0.000D+00 0.000D+00 0.000D+00 0.000D+00
 Coeff-En:   0.100D+01
 Coeff:     -0.427D+00 0.488D+00-0.786D-01-0.163D+00-0.520D-01 0.508D+00
 Coeff:      0.725D+00
 Gap=     0.022 Goal=   None    Shift=    0.200
 RMSDP=5.48D-06 MaxDP=8.79D-04 DE=-2.19D-07 OVMax= 1.22D-04

 Cycle   8  Pass 1  IDiag  1:
 E= -145.309175298199     Delta-E=       -0.000000281382 Rises=F Damp=F
 DIIS: error= 2.80D-04 at cycle   8 NSaved=   8.
 NSaved= 8 IEnMin= 8 EnMin= -145.309175298199     IErMin= 8 ErrMin= 2.80D-04
 ErrMax= 2.80D-04  0.00D+00 EMaxC= 1.00D-01 BMatC= 1.55D-06 BMatP= 1.74D-06
 IDIUse=3 WtCom= 9.97D-01 WtEn= 2.80D-03
 Coeff-Com: -0.384D+00 0.439D+00-0.737D-01-0.476D-01-0.270D-01 0.208D+00
 Coeff-Com: -0.107D+01 0.195D+01
 Coeff-En:   0.000D+00 0.000D+00 0.000D+00 0.000D+00 0.000D+00 0.000D+00
 Coeff-En:   0.000D+00 0.100D+01
 Coeff:     -0.383D+00 0.438D+00-0.735D-01-0.474D-01-0.269D-01 0.208D+00
 Coeff:     -0.106D+01 0.195D+01
 Gap=     0.022 Goal=   None    Shift=    0.200
 RMSDP=9.29D-06 MaxDP=1.40D-03 DE=-2.81D-07 OVMax= 1.35D-04

 Cycle   9  Pass 1  IDiag  1:
 E= -145.309175616748     Delta-E=       -0.000000318549 Rises=F Damp=F
 DIIS: error= 2.57D-04 at cycle   9 NSaved=   9.
 NSaved= 9 IEnMin= 9 EnMin= -145.309175616748     IErMin= 9 ErrMin= 2.57D-04
 ErrMax= 2.57D-04  0.00D+00 EMaxC= 1.00D-01 BMatC= 1.31D-06 BMatP= 1.55D-06
 IDIUse=3 WtCom= 9.97D-01 WtEn= 2.57D-03
 Coeff-Com: -0.388D+00 0.444D+00-0.745D-01-0.494D-01-0.267D-01 0.200D+00
 Coeff-Com: -0.102D+01 0.201D+01-0.991D-01
 Coeff-En:   0.000D+00 0.000D+00 0.000D+00 0.000D+00 0.000D+00 0.000D+00
 Coeff-En:   0.000D+00 0.000D+00 0.100D+01
 Coeff:     -0.387D+00 0.443D+00-0.743D-01-0.493D-01-0.266D-01 0.199D+00
 Coeff:     -0.102D+01 0.201D+01-0.963D-01
 Gap=     0.022 Goal=   None    Shift=    0.200
 RMSDP=8.05D-07 MaxDP=9.29D-05 DE=-3.19D-07 OVMax= 6.56D-05

 Cycle  10  Pass 1  IDiag  1:
 E= -145.309175741155     Delta-E=       -0.000000124407 Rises=F Damp=F
 DIIS: error= 2.49D-04 at cycle  10 NSaved=  10.
 NSaved=10 IEnMin=10 EnMin= -145.309175741155     IErMin=10 ErrMin= 2.49D-04
 ErrMax= 2.49D-04  0.00D+00 EMaxC= 1.00D-01 BMatC= 1.24D-06 BMatP= 1.31D-06
 IDIUse=3 WtCom= 9.98D-01 WtEn= 2.49D-03
 Coeff-Com: -0.364D+00 0.416D+00-0.720D-01-0.118D-01-0.236D-01 0.106D-01
 Coeff-Com: -0.801D+00 0.155D+01-0.790D+00 0.109D+01
 Coeff-En:   0.000D+00 0.000D+00 0.000D+00 0.000D+00 0.000D+00 0.000D+00
 Coeff-En:   0.000D+00 0.000D+00 0.000D+00 0.100D+01
 Coeff:     -0.363D+00 0.415D+00-0.718D-01-0.118D-01-0.236D-01 0.105D-01
 Coeff:     -0.799D+00 0.154D+01-0.789D+00 0.109D+01
 Gap=     0.022 Goal=   None    Shift=    0.200
 RMSDP=5.33D-06 MaxDP=8.17D-04 DE=-1.24D-07 OVMax= 7.97D-05

 Cycle  11  Pass 1  IDiag  1:
 E= -145.309175901810     Delta-E=       -0.000000160655 Rises=F Damp=F
 DIIS: error= 2.37D-04 at cycle  11 NSaved=  11.
 NSaved=11 IEnMin=11 EnMin= -145.309175901810     IErMin=11 ErrMin= 2.37D-04
 ErrMax= 2.37D-04  0.00D+00 EMaxC= 1.00D-01 BMatC= 1.12D-06 BMatP= 1.24D-06
 IDIUse=3 WtCom= 9.98D-01 WtEn= 2.37D-03
 Coeff-Com: -0.263D+00 0.300D+00-0.508D-01-0.196D-01-0.151D-01-0.318D+00
 Coeff-Com:  0.126D+01-0.431D+00-0.317D+01-0.177D+01 0.548D+01
 Coeff-En:   0.000D+00 0.000D+00 0.000D+00 0.000D+00 0.000D+00 0.000D+00
 Coeff-En:   0.000D+00 0.000D+00 0.000D+00 0.000D+00 0.100D+01
 Coeff:     -0.262D+00 0.300D+00-0.507D-01-0.195D-01-0.151D-01-0.318D+00
 Coeff:      0.125D+01-0.430D+00-0.317D+01-0.176D+01 0.547D+01
 Gap=     0.022 Goal=   None    Shift=    0.200
 RMSDP=2.30D-05 MaxDP=3.57D-03 DE=-1.61D-07 OVMax= 2.24D-04

 Cycle  12  Pass 1  IDiag  1:
 E= -145.309176340076     Delta-E=       -0.000000438267 Rises=F Damp=F
 DIIS: error= 1.96D-04 at cycle  12 NSaved=  12.
 NSaved=12 IEnMin=12 EnMin= -145.309176340076     IErMin=12 ErrMin= 1.96D-04
 ErrMax= 1.96D-04  0.00D+00 EMaxC= 1.00D-01 BMatC= 7.44D-07 BMatP= 1.12D-06
 IDIUse=3 WtCom= 9.98D-01 WtEn= 1.96D-03
 Coeff-Com: -0.101D+00 0.116D+00-0.201D-01 0.880D-03 0.553D-02-0.328D+00
 Coeff-Com:  0.125D+01 0.968D+00-0.922D+01 0.505D+00 0.585D+01 0.197D+01
 Coeff-En:   0.000D+00 0.000D+00 0.000D+00 0.000D+00 0.000D+00 0.000D+00
 Coeff-En:   0.000D+00 0.000D+00 0.000D+00 0.000D+00 0.000D+00 0.100D+01
 Coeff:     -0.101D+00 0.115D+00-0.201D-01 0.879D-03 0.552D-02-0.328D+00
 Coeff:      0.125D+01 0.966D+00-0.920D+01 0.504D+00 0.584D+01 0.197D+01
 Gap=     0.022 Goal=   None    Shift=    0.200
 RMSDP=3.79D-05 MaxDP=5.81D-03 DE=-4.38D-07 OVMax= 4.04D-04

 Cycle  13  Pass 1  IDiag  1:
 E= -145.309176925889     Delta-E=       -0.000000585813 Rises=F Damp=F
 DIIS: error= 1.23D-04 at cycle  13 NSaved=  13.
 NSaved=13 IEnMin=13 EnMin= -145.309176925889     IErMin=13 ErrMin= 1.23D-04
 ErrMax= 1.23D-04  0.00D+00 EMaxC= 1.00D-01 BMatC= 2.92D-07 BMatP= 7.44D-07
 IDIUse=3 WtCom= 9.99D-01 WtEn= 1.23D-03
 Coeff-Com: -0.945D-01 0.108D+00-0.189D-01 0.210D-03 0.485D-02-0.231D+00
 Coeff-Com:  0.760D+00 0.145D+01-0.835D+01-0.536D+00 0.755D+01-0.675D+00
 Coeff-Com:  0.103D+01
 Coeff-En:   0.000D+00 0.000D+00 0.000D+00 0.000D+00 0.000D+00 0.000D+00
 Coeff-En:   0.000D+00 0.000D+00 0.000D+00 0.000D+00 0.000D+00 0.000D+00
 Coeff-En:   0.100D+01
 Coeff:     -0.944D-01 0.108D+00-0.189D-01 0.210D-03 0.485D-02-0.231D+00
 Coeff:      0.759D+00 0.145D+01-0.834D+01-0.535D+00 0.754D+01-0.675D+00
 Coeff:      0.103D+01
 Gap=     0.022 Goal=   None    Shift=    0.200
 RMSDP=5.68D-06 MaxDP=8.26D-04 DE=-5.86D-07 OVMax= 2.15D-04

 Cycle  14  Pass 1  IDiag  1:
 E= -145.309177134861     Delta-E=       -0.000000208972 Rises=F Damp=F
 DIIS: error= 9.15D-05 at cycle  14 NSaved=  14.
 NSaved=14 IEnMin=14 EnMin= -145.309177134861     IErMin=14 ErrMin= 9.15D-05
 ErrMax= 9.15D-05  0.00D+00 EMaxC= 1.00D-01 BMatC= 1.73D-07 BMatP= 2.92D-07
 IDIUse=1 WtCom= 1.00D+00 WtEn= 0.00D+00
 Coeff-Com: -0.972D-01 0.111D+00-0.195D-01 0.235D-02 0.508D-02-0.229D+00
 Coeff-Com:  0.649D+00 0.183D+01-0.922D+01 0.409D+00 0.705D+01-0.553D+00
 Coeff-Com:  0.124D+01-0.182D+00
 Coeff:     -0.972D-01 0.111D+00-0.195D-01 0.235D-02 0.508D-02-0.229D+00
 Coeff:      0.649D+00 0.183D+01-0.922D+01 0.409D+00 0.705D+01-0.553D+00
 Coeff:      0.124D+01-0.182D+00
 Gap=     0.022 Goal=   None    Shift=    0.200
 RMSDP=1.49D-06 MaxDP=2.34D-04 DE=-2.09D-07 OVMax= 1.22D-04

 Cycle  15  Pass 1  IDiag  1:
 E= -145.309177222451     Delta-E=       -0.000000087590 Rises=F Damp=F
 DIIS: error= 7.83D-05 at cycle  15 NSaved=  15.
 NSaved=15 IEnMin=15 EnMin= -145.309177222451     IErMin=15 ErrMin= 7.83D-05
 ErrMax= 7.83D-05  0.00D+00 EMaxC= 1.00D-01 BMatC= 1.28D-07 BMatP= 1.73D-07
 IDIUse=1 WtCom= 1.00D+00 WtEn= 0.00D+00
 Coeff-Com: -0.508D-01 0.580D-01-0.103D-01 0.128D-01-0.204D-02-0.157D+00
 Coeff-Com:  0.129D+00 0.228D+01-0.865D+01 0.135D+01 0.583D+01-0.158D+01
 Coeff-Com:  0.248D+01-0.233D+01 0.164D+01
 Coeff:     -0.508D-01 0.580D-01-0.103D-01 0.128D-01-0.204D-02-0.157D+00
 Coeff:      0.129D+00 0.228D+01-0.865D+01 0.135D+01 0.583D+01-0.158D+01
 Coeff:      0.248D+01-0.233D+01 0.164D+01
 Gap=     0.022 Goal=   None    Shift=    0.200
 RMSDP=9.64D-06 MaxDP=1.44D-03 DE=-8.76D-08 OVMax= 1.51D-04

 Cycle  16  Pass 1  IDiag  1:
 E= -145.309177317050     Delta-E=       -0.000000094599 Rises=F Damp=F
 DIIS: error= 5.51D-05 at cycle  16 NSaved=  16.
 NSaved=16 IEnMin=16 EnMin= -145.309177317050     IErMin=16 ErrMin= 5.51D-05
 ErrMax= 5.51D-05  0.00D+00 EMaxC= 1.00D-01 BMatC= 6.44D-08 BMatP= 1.28D-07
 IDIUse=1 WtCom= 1.00D+00 WtEn= 0.00D+00
 Coeff-Com: -0.340D-01 0.389D-01-0.679D-02 0.742D-02 0.190D-03-0.971D-01
 Coeff-Com: -0.376D-01 0.151D+01-0.428D+01-0.606D+00 0.539D+01-0.278D+01
 Coeff-Com:  0.160D+01-0.112D+01-0.583D+00 0.200D+01
 Coeff:     -0.340D-01 0.389D-01-0.679D-02 0.742D-02 0.190D-03-0.971D-01
 Coeff:     -0.376D-01 0.151D+01-0.428D+01-0.606D+00 0.539D+01-0.278D+01
 Coeff:      0.160D+01-0.112D+01-0.583D+00 0.200D+01
 Gap=     0.022 Goal=   None    Shift=    0.200
 RMSDP=4.12D-06 MaxDP=5.91D-04 DE=-9.46D-08 OVMax= 1.15D-04

 Cycle  17  Pass 1  IDiag  1:
 E= -145.309177368695     Delta-E=       -0.000000051644 Rises=F Damp=F
 DIIS: error= 3.90D-05 at cycle  17 NSaved=  17.
 NSaved=17 IEnMin=17 EnMin= -145.309177368695     IErMin=17 ErrMin= 3.90D-05
 ErrMax= 3.90D-05  0.00D+00 EMaxC= 1.00D-01 BMatC= 3.41D-08 BMatP= 6.44D-08
 IDIUse=1 WtCom= 1.00D+00 WtEn= 0.00D+00
 Coeff-Com: -0.167D-01 0.191D-01-0.337D-02 0.213D-02 0.624D-02-0.114D+00
 Coeff-Com:  0.357D+00-0.430D-01-0.656D+00-0.171D+01 0.319D+01-0.103D+01
 Coeff-Com:  0.247D+00-0.295D+00-0.102D+01-0.862D+00 0.292D+01
 Coeff:     -0.167D-01 0.191D-01-0.337D-02 0.213D-02 0.624D-02-0.114D+00
 Coeff:      0.357D+00-0.430D-01-0.656D+00-0.171D+01 0.319D+01-0.103D+01
 Coeff:      0.247D+00-0.295D+00-0.102D+01-0.862D+00 0.292D+01
 Gap=     0.022 Goal=   None    Shift=    0.200
 RMSDP=4.12D-06 MaxDP=6.08D-04 DE=-5.16D-08 OVMax= 9.72D-05

 Cycle  18  Pass 1  IDiag  1:
 E= -145.309177399936     Delta-E=       -0.000000031241 Rises=F Damp=F
 DIIS: error= 2.54D-05 at cycle  18 NSaved=  18.
 NSaved=18 IEnMin=18 EnMin= -145.309177399936     IErMin=18 ErrMin= 2.54D-05
 ErrMax= 2.54D-05  0.00D+00 EMaxC= 1.00D-01 BMatC= 1.61D-08 BMatP= 3.41D-08
 IDIUse=1 WtCom= 1.00D+00 WtEn= 0.00D+00
 Coeff-Com: -0.825D-02 0.943D-02-0.178D-02 0.752D-02 0.821D-03-0.120D+00
 Coeff-Com:  0.311D+00 0.290D+00-0.192D+01-0.278D+00 0.192D+01 0.748D-02
 Coeff-Com:  0.359D+00-0.685D+00-0.186D+00-0.141D+01 0.119D+01 0.152D+01
 Coeff:     -0.825D-02 0.943D-02-0.178D-02 0.752D-02 0.821D-03-0.120D+00
 Coeff:      0.311D+00 0.290D+00-0.192D+01-0.278D+00 0.192D+01 0.748D-02
 Coeff:      0.359D+00-0.685D+00-0.186D+00-0.141D+01 0.119D+01 0.152D+01
 Gap=     0.022 Goal=   None    Shift=    0.200
 RMSDP=1.96D-06 MaxDP=2.72D-04 DE=-3.12D-08 OVMax= 7.25D-05

 Cycle  19  Pass 1  IDiag  1:
 E= -145.309177415941     Delta-E=       -0.000000016005 Rises=F Damp=F
 DIIS: error= 1.62D-05 at cycle  19 NSaved=  19.
 NSaved=19 IEnMin=19 EnMin= -145.309177415941     IErMin=19 ErrMin= 1.62D-05
 ErrMax= 1.62D-05  0.00D+00 EMaxC= 1.00D-01 BMatC= 7.54D-09 BMatP= 1.61D-08
 IDIUse=1 WtCom= 1.00D+00 WtEn= 0.00D+00
 Coeff-Com: -0.205D-02 0.235D-02-0.618D-03 0.815D-02 0.365D-02-0.313D-01
 Coeff-Com: -0.182D+00 0.748D+00-0.151D+01 0.493D+00 0.827D+00-0.520D+00
 Coeff-Com:  0.729D+00-0.610D+00-0.142D+00-0.123D+00 0.758D+00-0.338D+01
 Coeff-Com:  0.393D+01
 Coeff:     -0.205D-02 0.235D-02-0.618D-03 0.815D-02 0.365D-02-0.313D-01
 Coeff:     -0.182D+00 0.748D+00-0.151D+01 0.493D+00 0.827D+00-0.520D+00
 Coeff:      0.729D+00-0.610D+00-0.142D+00-0.123D+00 0.758D+00-0.338D+01
 Coeff:      0.393D+01
 Gap=     0.022 Goal=   None    Shift=    0.200
 RMSDP=1.22D-06 MaxDP=1.62D-04 DE=-1.60D-08 OVMax= 5.48D-05

 Cycle  20  Pass 1  IDiag  1:
 E= -145.309177424146     Delta-E=       -0.000000008205 Rises=F Damp=F
 DIIS: error= 9.53D-06 at cycle  20 NSaved=  20.
 NSaved=20 IEnMin=20 EnMin= -145.309177424146     IErMin=20 ErrMin= 9.53D-06
 ErrMax= 9.53D-06  0.00D+00 EMaxC= 1.00D-01 BMatC= 3.36D-09 BMatP= 7.54D-09
 IDIUse=1 WtCom= 1.00D+00 WtEn= 0.00D+00
 Coeff-Com:  0.940D-03-0.107D-02-0.558D-04 0.933D-02 0.561D-02-0.353D-01
 Coeff-Com: -0.215D+00 0.662D+00-0.871D+00 0.308D+00 0.642D+00-0.706D+00
 Coeff-Com:  0.587D+00-0.437D+00-0.512D+00 0.257D+00 0.122D+01-0.331D+01
 Coeff-Com:  0.227D+01 0.113D+01
 Coeff:      0.940D-03-0.107D-02-0.558D-04 0.933D-02 0.561D-02-0.353D-01
 Coeff:     -0.215D+00 0.662D+00-0.871D+00 0.308D+00 0.642D+00-0.706D+00
 Coeff:      0.587D+00-0.437D+00-0.512D+00 0.257D+00 0.122D+01-0.331D+01
 Coeff:      0.227D+01 0.113D+01
 Gap=     0.022 Goal=   None    Shift=    0.200
 RMSDP=5.82D-07 MaxDP=6.64D-05 DE=-8.21D-09 OVMax= 3.97D-05

 Cycle  21  Pass 1  IDiag  1:
 E= -145.309177428072     Delta-E=       -0.000000003925 Rises=F Damp=F
 DIIS: error= 6.86D-06 at cycle  21 NSaved=  20.
 NSaved=20 IEnMin=20 EnMin= -145.309177428072     IErMin=20 ErrMin= 6.86D-06
 ErrMax= 6.86D-06  0.00D+00 EMaxC= 1.00D-01 BMatC= 1.48D-09 BMatP= 3.36D-09
 IDIUse=1 WtCom= 1.00D+00 WtEn= 0.00D+00
 Coeff-Com:  0.252D-09-0.144D-03 0.440D-02 0.345D-02-0.736D-02-0.145D+00
 Coeff-Com:  0.268D+00-0.767D-01 0.317D+00-0.328D+00 0.246D-01 0.749D-01
 Coeff-Com: -0.723D-01-0.417D+00-0.325D-01 0.909D+00-0.965D+00 0.658D+00
 Coeff-Com: -0.289D+01 0.367D+01
 Coeff:      0.252D-09-0.144D-03 0.440D-02 0.345D-02-0.736D-02-0.145D+00
 Coeff:      0.268D+00-0.767D-01 0.317D+00-0.328D+00 0.246D-01 0.749D-01
 Coeff:     -0.723D-01-0.417D+00-0.325D-01 0.909D+00-0.965D+00 0.658D+00
 Coeff:     -0.289D+01 0.367D+01
 Gap=     0.022 Goal=   None    Shift=    0.200
 RMSDP=3.86D-07 MaxDP=6.32D-05 DE=-3.93D-09 OVMax= 2.51D-05

 Cycle  22  Pass 1  IDiag  1:
 E= -145.309177429765     Delta-E=       -0.000000001694 Rises=F Damp=F
 DIIS: error= 4.92D-06 at cycle  22 NSaved=  20.
 NSaved=20 IEnMin=20 EnMin= -145.309177429765     IErMin=20 ErrMin= 4.92D-06
 ErrMax= 4.92D-06  0.00D+00 EMaxC= 1.00D-01 BMatC= 7.08D-10 BMatP= 1.48D-09
 IDIUse=1 WtCom= 1.00D+00 WtEn= 0.00D+00
 Coeff-Com: -0.101D-03 0.378D-02-0.234D-02-0.839D-02-0.655D-01 0.279D+00
 Coeff-Com: -0.551D+00 0.554D+00-0.513D+00 0.470D+00 0.359D-01-0.139D+00
 Coeff-Com: -0.113D+00-0.405D+00 0.325D+00 0.979D-01 0.111D+01-0.304D+01
 Coeff-Com:  0.104D+01 0.192D+01
 Coeff:     -0.101D-03 0.378D-02-0.234D-02-0.839D-02-0.655D-01 0.279D+00
 Coeff:     -0.551D+00 0.554D+00-0.513D+00 0.470D+00 0.359D-01-0.139D+00
 Coeff:     -0.113D+00-0.405D+00 0.325D+00 0.979D-01 0.111D+01-0.304D+01
 Coeff:      0.104D+01 0.192D+01
 Gap=     0.022 Goal=   None    Shift=    0.200
 RMSDP=2.75D-07 MaxDP=4.71D-05 DE=-1.69D-09 OVMax= 1.74D-05

 Cycle  23  Pass 1  IDiag  1:
 E= -145.309177430573     Delta-E=       -0.000000000808 Rises=F Damp=F
 DIIS: error= 3.54D-06 at cycle  23 NSaved=  20.
 NSaved=20 IEnMin=20 EnMin= -145.309177430573     IErMin=20 ErrMin= 3.54D-06
 ErrMax= 3.54D-06  0.00D+00 EMaxC= 1.00D-01 BMatC= 3.42D-10 BMatP= 7.08D-10
 IDIUse=1 WtCom= 1.00D+00 WtEn= 0.00D+00
 Coeff-Com:  0.154D-02 0.346D-04 0.221D-02-0.764D-01 0.270D+00-0.573D+00
 Coeff-Com:  0.387D+00-0.204D+00 0.262D+00 0.801D-01-0.438D-01-0.430D-01
 Coeff-Com: -0.154D+00 0.409D-01-0.988D+00 0.194D+01-0.684D+00-0.705D+00
 Coeff-Com: -0.110D+01 0.259D+01
 Coeff:      0.154D-02 0.346D-04 0.221D-02-0.764D-01 0.270D+00-0.573D+00
 Coeff:      0.387D+00-0.204D+00 0.262D+00 0.801D-01-0.438D-01-0.430D-01
 Coeff:     -0.154D+00 0.409D-01-0.988D+00 0.194D+01-0.684D+00-0.705D+00
 Coeff:     -0.110D+01 0.259D+01
 Gap=     0.022 Goal=   None    Shift=    0.200
 RMSDP=1.76D-07 MaxDP=3.09D-05 DE=-8.08D-10 OVMax= 1.20D-05

 Cycle  24  Pass 1  IDiag  1:
 E= -145.309177430962     Delta-E=       -0.000000000389 Rises=F Damp=F
 DIIS: error= 2.53D-06 at cycle  24 NSaved=  20.
 NSaved=20 IEnMin=20 EnMin= -145.309177430962     IErMin=20 ErrMin= 2.53D-06
 ErrMax= 2.53D-06  0.00D+00 EMaxC= 1.00D-01 BMatC= 1.67D-10 BMatP= 3.42D-10
 IDIUse=1 WtCom= 1.00D+00 WtEn= 0.00D+00
 Coeff-Com:  0.252D-02-0.199D-02-0.264D-01 0.491D-01 0.797D-01-0.956D-01
 Coeff-Com:  0.367D-01-0.241D-01-0.457D-01 0.166D+00-0.273D+00 0.135D+00
 Coeff-Com:  0.221D+00-0.107D+01 0.891D+00 0.497D+00-0.567D+00-0.948D+00
 Coeff-Com:  0.212D+00 0.176D+01
 Coeff:      0.252D-02-0.199D-02-0.264D-01 0.491D-01 0.797D-01-0.956D-01
 Coeff:      0.367D-01-0.241D-01-0.457D-01 0.166D+00-0.273D+00 0.135D+00
 Coeff:      0.221D+00-0.107D+01 0.891D+00 0.497D+00-0.567D+00-0.948D+00
 Coeff:      0.212D+00 0.176D+01
 Gap=     0.022 Goal=   None    Shift=    0.200
 RMSDP=9.71D-08 MaxDP=1.57D-05 DE=-3.89D-10 OVMax= 8.43D-06

 Cycle  25  Pass 1  IDiag  1:
 E= -145.309177431152     Delta-E=       -0.000000000190 Rises=F Damp=F
 DIIS: error= 1.80D-06 at cycle  25 NSaved=  20.
 NSaved=20 IEnMin=20 EnMin= -145.309177431152     IErMin=20 ErrMin= 1.80D-06
 ErrMax= 1.80D-06  0.00D+00 EMaxC= 1.00D-01 BMatC= 8.19D-11 BMatP= 1.67D-10
 IDIUse=1 WtCom= 1.00D+00 WtEn= 0.00D+00
 Coeff-Com: -0.630D-02 0.211D-01-0.237D-01 0.102D+00-0.976D-01 0.544D-01
 Coeff-Com: -0.356D-01-0.588D-01 0.110D+00-0.195D+00 0.941D-01 0.129D+00
 Coeff-Com:  0.811D-01-0.401D+00-0.147D+00 0.432D+00 0.403D+00-0.552D+00
 Coeff-Com: -0.216D+01 0.325D+01
 Coeff:     -0.630D-02 0.211D-01-0.237D-01 0.102D+00-0.976D-01 0.544D-01
 Coeff:     -0.356D-01-0.588D-01 0.110D+00-0.195D+00 0.941D-01 0.129D+00
 Coeff:      0.811D-01-0.401D+00-0.147D+00 0.432D+00 0.403D+00-0.552D+00
 Coeff:     -0.216D+01 0.325D+01
 Gap=     0.022 Goal=   None    Shift=    0.200
 RMSDP=7.90D-08 MaxDP=1.25D-05 DE=-1.90D-10 OVMax= 5.88D-06

 Cycle  26  Pass 1  IDiag  1:
 E= -145.309177431245     Delta-E=       -0.000000000093 Rises=F Damp=F
 DIIS: error= 1.30D-06 at cycle  26 NSaved=  20.
 NSaved=20 IEnMin=20 EnMin= -145.309177431245     IErMin=20 ErrMin= 1.30D-06
 ErrMax= 1.30D-06  0.00D+00 EMaxC= 1.00D-01 BMatC= 4.04D-11 BMatP= 8.19D-11
 IDIUse=1 WtCom= 1.00D+00 WtEn= 0.00D+00
 Large coefficients: NSaved= 20 BigCof=    0.00 CofMax=   10.00 Det=-7.87D-15
 Inversion failed.  Reducing to 19 matrices.
 Large coefficients: NSaved= 19 BigCof=    0.00 CofMax=   10.00 Det=-7.93D-15
 Inversion failed.  Reducing to 18 matrices.
 Large coefficients: NSaved= 18 BigCof=    0.00 CofMax=   10.00 Det=-8.97D-15
 Inversion failed.  Reducing to 17 matrices.
 Large coefficients: NSaved= 17 BigCof=    0.00 CofMax=   10.00 Det=-9.92D-15
 Inversion failed.  Reducing to 16 matrices.
 Large coefficients: NSaved= 16 BigCof=    0.00 CofMax=   10.00 Det=-9.92D-15
 Inversion failed.  Reducing to 15 matrices.
 Coeff-Com:  0.880D-02-0.195D-01 0.618D-01-0.796D-01 0.290D-01-0.490D-01
 Coeff-Com:  0.183D+00-0.899D-01-0.282D+00-0.273D-01 0.416D+00 0.187D+00
 Coeff-Com: -0.161D+01 0.601D+00 0.167D+01
 Coeff:      0.880D-02-0.195D-01 0.618D-01-0.796D-01 0.290D-01-0.490D-01
 Coeff:      0.183D+00-0.899D-01-0.282D+00-0.273D-01 0.416D+00 0.187D+00
 Coeff:     -0.161D+01 0.601D+00 0.167D+01
 Gap=     0.022 Goal=   None    Shift=    0.200
 RMSDP=3.38D-08 MaxDP=5.47D-06 DE=-9.27D-11 OVMax= 4.16D-06

 Cycle  27  Pass 1  IDiag  1:
 E= -145.309177431291     Delta-E=       -0.000000000047 Rises=F Damp=F
 DIIS: error= 9.21D-07 at cycle  27 NSaved=  16.
 NSaved=16 IEnMin=16 EnMin= -145.309177431291     IErMin=16 ErrMin= 9.21D-07
 ErrMax= 9.21D-07  0.00D+00 EMaxC= 1.00D-01 BMatC= 2.00D-11 BMatP= 4.04D-11
 IDIUse=1 WtCom= 1.00D+00 WtEn= 0.00D+00
 Large coefficients: NSaved= 16 BigCof=    0.00 CofMax=   10.00 Det=-6.97D-15
 Inversion failed.  Reducing to 15 matrices.
 Coeff-Com: -0.841D-02 0.407D-01-0.372D-01 0.132D-01-0.872D-01 0.187D+00
 Coeff-Com: -0.579D-01-0.204D-01-0.348D+00 0.270D+00 0.221D+00-0.788D+00
 Coeff-Com:  0.238D+00-0.131D+00 0.151D+01
 Coeff:     -0.841D-02 0.407D-01-0.372D-01 0.132D-01-0.872D-01 0.187D+00
 Coeff:     -0.579D-01-0.204D-01-0.348D+00 0.270D+00 0.221D+00-0.788D+00
 Coeff:      0.238D+00-0.131D+00 0.151D+01
 Gap=     0.022 Goal=   None    Shift=    0.200
 RMSDP=3.91D-08 MaxDP=4.70D-06 DE=-4.66D-11 OVMax= 2.88D-06

 Cycle  28  Pass 1  IDiag  1:
 E= -145.309177431313     Delta-E=       -0.000000000022 Rises=F Damp=F
 DIIS: error= 6.58D-07 at cycle  28 NSaved=  16.
 NSaved=16 IEnMin=16 EnMin= -145.309177431313     IErMin=16 ErrMin= 6.58D-07
 ErrMax= 6.58D-07  0.00D+00 EMaxC= 1.00D-01 BMatC= 9.92D-12 BMatP= 2.00D-11
 IDIUse=1 WtCom= 1.00D+00 WtEn= 0.00D+00
 Large coefficients: NSaved= 16 BigCof=    0.00 CofMax=   10.00 Det=-4.55D-15
 Inversion failed.  Reducing to 15 matrices.
 Coeff-Com:  0.155D-01-0.704D-02-0.326D-01-0.405D-01 0.164D+00-0.102D+00
 Coeff-Com:  0.744D-01-0.226D+00 0.779D-01 0.141D+00-0.361D+00 0.358D+00
 Coeff-Com: -0.645D+00-0.720D-01 0.166D+01
 Coeff:      0.155D-01-0.704D-02-0.326D-01-0.405D-01 0.164D+00-0.102D+00
 Coeff:      0.744D-01-0.226D+00 0.779D-01 0.141D+00-0.361D+00 0.358D+00
 Coeff:     -0.645D+00-0.720D-01 0.166D+01
 Gap=     0.022 Goal=   None    Shift=    0.200
 RMSDP=1.45D-08 MaxDP=1.59D-06 DE=-2.19D-11 OVMax= 2.04D-06

 Cycle  29  Pass 1  IDiag  1:
 E= -145.309177431325     Delta-E=       -0.000000000011 Rises=F Damp=F
 DIIS: error= 4.65D-07 at cycle  29 NSaved=  16.
 NSaved=16 IEnMin=16 EnMin= -145.309177431325     IErMin=16 ErrMin= 4.65D-07
 ErrMax= 4.65D-07  0.00D+00 EMaxC= 1.00D-01 BMatC= 4.93D-12 BMatP= 9.92D-12
 IDIUse=1 WtCom= 1.00D+00 WtEn= 0.00D+00
 Large coefficients: NSaved= 16 BigCof=    0.00 CofMax=   10.00 Det=-1.44D-15
 Inversion failed.  Reducing to 15 matrices.
 Coeff-Com:  0.569D-02-0.212D-01 0.131D-01 0.780D-01-0.185D+00 0.144D+00
 Coeff-Com:  0.946D-04-0.202D-01-0.684D-01-0.143D-01 0.241D+00-0.125D+00
 Coeff-Com: -0.721D+00-0.118D+01 0.286D+01
 Coeff:      0.569D-02-0.212D-01 0.131D-01 0.780D-01-0.185D+00 0.144D+00
 Coeff:      0.946D-04-0.202D-01-0.684D-01-0.143D-01 0.241D+00-0.125D+00
 Coeff:     -0.721D+00-0.118D+01 0.286D+01
 Gap=     0.022 Goal=   None    Shift=    0.200
 RMSDP=1.19D-08 MaxDP=1.59D-06 DE=-1.15D-11 OVMax= 1.41D-06

 Cycle  30  Pass 1  IDiag  1:
 E= -145.309177431330     Delta-E=       -0.000000000005 Rises=F Damp=F
 DIIS: error= 3.31D-07 at cycle  30 NSaved=  16.
 NSaved=16 IEnMin=16 EnMin= -145.309177431330     IErMin=16 ErrMin= 3.31D-07
 ErrMax= 3.31D-07  0.00D+00 EMaxC= 1.00D-01 BMatC= 2.47D-12 BMatP= 4.93D-12
 IDIUse=1 WtCom= 1.00D+00 WtEn= 0.00D+00
 Large coefficients: NSaved= 16 BigCof=    0.00 CofMax=   10.00 Det=-8.58D-16
 Inversion failed.  Reducing to 15 matrices.
 Coeff-Com: -0.414D-02 0.215D-02 0.700D-01-0.159D+00 0.109D+00-0.468D-01
 Coeff-Com:  0.723D-01-0.892D-02-0.461D-01-0.167D+00 0.377D+00-0.223D+00
 Coeff-Com: -0.117D+01 0.460D+00 0.173D+01
 Coeff:     -0.414D-02 0.215D-02 0.700D-01-0.159D+00 0.109D+00-0.468D-01
 Coeff:      0.723D-01-0.892D-02-0.461D-01-0.167D+00 0.377D+00-0.223D+00
 Coeff:     -0.117D+01 0.460D+00 0.173D+01
 Gap=     0.022 Goal=   None    Shift=    0.200
 RMSDP=9.62D-09 MaxDP=1.08D-06 DE=-5.49D-12 OVMax= 1.02D-06

 Cycle  31  Pass 1  IDiag  1:
 E= -145.309177431332     Delta-E=       -0.000000000002 Rises=F Damp=F
 DIIS: error= 2.32D-07 at cycle  31 NSaved=  16.
 NSaved=16 IEnMin=16 EnMin= -145.309177431332     IErMin=16 ErrMin= 2.32D-07
 ErrMax= 2.32D-07  0.00D+00 EMaxC= 1.00D-01 BMatC= 1.24D-12 BMatP= 2.47D-12
 IDIUse=1 WtCom= 1.00D+00 WtEn= 0.00D+00
 Large coefficients: NSaved= 16 BigCof=    0.00 CofMax=   10.00 Det=-6.08D-16
 Inversion failed.  Reducing to 15 matrices.
 Coeff-Com: -0.136D-01 0.485D-01-0.861D-01 0.121D+00-0.109D+00-0.104D-01
 Coeff-Com:  0.824D-01 0.251D-01-0.168D+00 0.194D+00-0.513D-01-0.368D+00
 Coeff-Com: -0.286D+00-0.146D+00 0.177D+01
 Coeff:     -0.136D-01 0.485D-01-0.861D-01 0.121D+00-0.109D+00-0.104D-01
 Coeff:      0.824D-01 0.251D-01-0.168D+00 0.194D+00-0.513D-01-0.368D+00
 Coeff:     -0.286D+00-0.146D+00 0.177D+01
 Gap=     0.022 Goal=   None    Shift=    0.200
 RMSDP=8.36D-09 MaxDP=9.97D-07 DE=-2.02D-12 OVMax= 7.09D-07

 SCF Done:  E(ROHF) =  -145.309177431     A.U. after   31 cycles
            NFock= 31  Conv=0.84D-08     -V/T= 2.6797
 <Sx>= 0.0000 <Sy>= 0.0000 <Sz>= 1.0000 <S**2>= 2.0000 S= 1.0000
 <L.S>=  0.00000000000    
 KE= 8.650865847747D+01 PE=-3.635158840806D+02 EE= 1.235198549121D+02
 Annihilation of the first spin contaminant:
 S**2 before annihilation     2.0000,   after     2.0000
 Leave Link  502 at Sun Apr 22 03:53:07 2018, MaxMem= 10737418240 cpu:            1570.1 elap:              60.5
 (Enter /home1/apps/gaussian/16rA.03/g16/l801.exe)
 Windowed orbitals will be sorted by symmetry type.
 GenMOA:  NOpAll=  4 NOp2=4 NOpUse=  4 JSym2X=1
 FoFJK:  IHMeth= 1 ICntrl=       0 DoSepK=F KAlg= 0 I1Cent=           0 FoldK=F
 IRaf=         0 NMat=       1 IRICut=       1 DoRegI=T DoRafI=F ISym2E= 1 IDoP0=0 IntGTp=1.
 FoFCou: FMM=F IPFlag=           8 FMFlag=      100000 FMFlg1=           0
         NFxFlg=           0 DoJE=F BraDBF=F KetDBF=F FulRan=T
         wScrn=  0.000000 ICntrl=         0 IOpCl=  1 I1Cent=           0 NGrid=           0
         NMat0=    1 NMatS0=      1 NMatT0=    0 NMatD0=    1 NMtDS0=    0 NMtDT0=    0
 Petite list used in FoFCou.
 <Sx>= 0.0000 <Sy>= 0.0000 <Sz>= 1.0000 <S**2>= 2.0000 S= 1.0000
 Range of M.O.s used for correlation:     1   306
 NBasis=   310 NAE=    10 NBE=     8 NFC=     0 NFV=     0
 NROrb=    306 NOA=    10 NOB=     8 NVA=   296 NVB=   298

 **** Warning!!: The largest alpha MO coefficient is  0.14823876D+03


 **** Warning!!: The largest beta MO coefficient is  0.14820416D+03

 Singles contribution to E2=   -0.7554738014D-02
 Leave Link  801 at Sun Apr 22 03:53:21 2018, MaxMem= 10737418240 cpu:             425.8 elap:              13.4
 (Enter /home1/apps/gaussian/16rA.03/g16/l804.exe)
 Open-shell transformation, MDV= 10737418240 ITran=4 ISComp=2.
 Unit  1 TFree=       2913169 TCopy=       1336420.
 Semi-Direct transformation.
 ModeAB=           2 MOrb=            10 LenV=   10734507090
 LASXX=     35609842 LTotXX=    35609842 LenRXX=    35609842
 LTotAB=    36064058 MaxLAS=   247869180 LenRXY=   247869180
 NonZer=   252762120 LenScr=   380631040 LnRSAI=           0
 LnScr1=           0 LExtra=    12508151 Total=    676618213
 MaxDsk= 67108864000 SrtSym=           F ITran=            4
 DoSDTr:  NPSUse= 32
 JobTyp=1 Pass  1:  I=   1 to  10.
 (rs|ai) integrals will be sorted in core.
 Complete sort for first half transformation.
 First half transformation complete.
 Begin second half transformation for I=  10.
 Begin second half transformation for I=  10.
 Complete sort for second half transformation.
 Second half transformation complete.
 ModeAB=           2 MOrb=             8 LenV=   10734507090
 LASXX=     28710022 LTotXX=    28710022 LenRXX=   198295344
 LTotAB=    27190356 MaxLAS=   198295344 LenRXY=    27190356
 NonZer=   202209696 LenScr=   304504832 LnRSAI=           0
 LnScr1=           0 LExtra=   295987173 Total=    825977705
 MaxDsk= 67108864000 SrtSym=           F ITran=            4
 DoSDTr:  NPSUse= 32
 JobTyp=2 Pass  1:  I=   1 to   8.
 (rs|ai) integrals will be sorted in core.
 Complete sort for first half transformation.
 First half transformation complete.
 Complete sort for second half transformation.
 Second half transformation complete.
 Spin components of T(2) and E(2):
     alpha-alpha T2 =       0.3075893197D-01 E2=     -0.1769083595D+00
     alpha-beta  T2 =       0.9879981271D-01 E2=     -0.6652894646D+00
     beta-beta   T2 =       0.1575281354D-01 E2=     -0.1047657641D+00
 ANorm=    0.1072525163D+01
 E2 =    -0.9545183262D+00 EUMP2 =    -0.14626369575753D+03
 (S**2,0)=  0.20000D+01           (S**2,1)=  0.20000D+01
 E(PUHF)=      -0.14530917743D+03        E(PMP2)=      -0.14626369576D+03
 Leave Link  804 at Sun Apr 22 04:01:47 2018, MaxMem= 10737418240 cpu:           16199.1 elap:             506.4
 (Enter /home1/apps/gaussian/16rA.03/g16/l913.exe)
 CIDS:  MDV= 10737418240.
 IFCWin=0 IBDFC=1 NFBD=     0     0 NFCmp=     0     0 NFFFC=     0     0
 Using original routines for 1st iteration.
 Using DD4UQ or CC4UQ for 2nd and later iterations.
 Keep R2 and R3 ints in memory in symmetry-blocked form, NReq=1456568185.
 FoFCou: FMM=F IPFlag=           8 FMFlag=           0 FMFlg1=           0
         NFxFlg=           0 DoJE=F BraDBF=F KetDBF=F FulRan=T
         wScrn=  0.000000 ICntrl=       600 IOpCl=  0 I1Cent=           0 NGrid=           0
         NMat0=    1 NMatS0=  48205 NMatT0=    0 NMatD0=    1 NMtDS0=    0 NMtDT0=    0
 Petite list used in FoFCou.
 CIDS: In Core Option IDoMem=           1.
 CCSD(T)
 =======
 Iterations= 150 Convergence= 0.100D-06
 Produce multiple copies of IABC intergrals
 Iteration Nr.   1
 **********************
 DD1Dir will call FoFMem   1 times, MxPair=       234
 NAB=    80 NAA=    45 NBB=    28.
 DD1Dir will call FoFMem   1 times, MxPair=       234
 NAB=    80 NAA=    45 NBB=    28.
 MP4(R+Q)= -0.10955579D+00
 Maximum subspace dimension=  5
 A-vector RMS=  3.7220893D-04 Max=  5.2844259D-03 conv= 1.00D-05.
 RLE energy=       -0.9527690410
 E3=        0.11094214D+00        EROMP3=      -0.14615275362D+03
 E4(SDQ)=  -0.79042115D-01        ROMP4(SDQ)=  -0.14623179573D+03
 VARIATIONAL ENERGIES WITH THE FIRST-ORDER WAVEFUNCTION:
 DE(Corr)= -0.95276516     E(Corr)=     -146.26194259    
 NORM(A)=   0.10707949D+01
 Iteration Nr.   2
 **********************
 DD1Dir will call FoFMem   1 times, MxPair=       234
 NAB=    80 NAA=    45 NBB=    28.
 A-vector RMS=  4.3039617D-03 Max=  3.5065718D-02 conv= 1.00D-05.
 RLE energy=       -0.9311570446
 DE(Corr)= -0.83732169     E(CORR)=     -146.14649912     Delta= 1.15D-01
 NORM(A)=   0.10663813D+01
 Iteration Nr.   3
 **********************
 DD1Dir will call FoFMem   1 times, MxPair=       234
 NAB=    80 NAA=    45 NBB=    28.
 A-vector RMS=  3.2570926D-03 Max=  2.9475671D-02 conv= 1.00D-05.
 RLE energy=       -0.9075261515
 DE(Corr)= -0.84916376     E(CORR)=     -146.15834119     Delta=-1.18D-02
 NORM(A)=   0.10670704D+01
 Iteration Nr.   4
 **********************
 DD1Dir will call FoFMem   1 times, MxPair=       234
 NAB=    80 NAA=    45 NBB=    28.
 A-vector RMS=  2.2858291D-03 Max=  2.0335951D-02 conv= 1.00D-05.
 RLE energy=       -0.8211076015
 DE(Corr)= -0.86798480     E(CORR)=     -146.17716223     Delta=-1.88D-02
 NORM(A)=   0.11424891D+01
 Iteration Nr.   5
 **********************
 DD1Dir will call FoFMem   1 times, MxPair=       234
 NAB=    80 NAA=    45 NBB=    28.
 A-vector RMS=  4.9047721D-03 Max=  4.8313571D-02 conv= 1.00D-05.
 RLE energy=       -0.8763540994
 DE(Corr)= -0.96112146     E(CORR)=     -146.27029889     Delta=-9.31D-02
 NORM(A)=   0.11555982D+01
 Iteration Nr.   6
 **********************
 DD1Dir will call FoFMem   1 times, MxPair=       234
 NAB=    80 NAA=    45 NBB=    28.
 A-vector RMS=  2.1134085D-03 Max=  1.7995605D-02 conv= 1.00D-05.
 RLE energy=       -0.8964407681
 DE(Corr)= -0.92558343     E(CORR)=     -146.23476086     Delta= 3.55D-02
 NORM(A)=   0.11014583D+01
 Iteration Nr.   7
 **********************
 DD1Dir will call FoFMem   1 times, MxPair=       234
 NAB=    80 NAA=    45 NBB=    28.
 A-vector RMS=  2.8160234D-04 Max=  3.2994049D-03 conv= 1.00D-05.
 RLE energy=       -0.8938028771
 DE(Corr)= -0.89332336     E(CORR)=     -146.20250080     Delta= 3.23D-02
 NORM(A)=   0.11012596D+01
 Iteration Nr.   8
 **********************
 DD1Dir will call FoFMem   1 times, MxPair=       234
 NAB=    80 NAA=    45 NBB=    28.
 A-vector RMS=  2.0551420D-04 Max=  3.0960902D-03 conv= 1.00D-05.
 RLE energy=       -0.8939914603
 DE(Corr)= -0.89427290     E(CORR)=     -146.20345033     Delta=-9.50D-04
 NORM(A)=   0.11029872D+01
 Iteration Nr.   9
 **********************
 DD1Dir will call FoFMem   1 times, MxPair=       234
 NAB=    80 NAA=    45 NBB=    28.
 A-vector RMS=  1.3899752D-04 Max=  2.2192841D-03 conv= 1.00D-05.
 RLE energy=       -0.8942437580
 DE(Corr)= -0.89418344     E(CORR)=     -146.20336087     Delta= 8.95D-05
 NORM(A)=   0.11037234D+01
 Iteration Nr.  10
 **********************
 DD1Dir will call FoFMem   1 times, MxPair=       234
 NAB=    80 NAA=    45 NBB=    28.
 A-vector RMS=  7.2339908D-05 Max=  1.0336406D-03 conv= 1.00D-05.
 RLE energy=       -0.8943911258
 DE(Corr)= -0.89425890     E(CORR)=     -146.20343634     Delta=-7.55D-05
 NORM(A)=   0.11043966D+01
 Iteration Nr.  11
 **********************
 DD1Dir will call FoFMem   1 times, MxPair=       234
 NAB=    80 NAA=    45 NBB=    28.
 A-vector RMS=  3.5645350D-05 Max=  5.5753519D-04 conv= 1.00D-05.
 RLE energy=       -0.8942283885
 DE(Corr)= -0.89423283     E(CORR)=     -146.20341026     Delta= 2.61D-05
 NORM(A)=   0.11045786D+01
 Iteration Nr.  12
 **********************
 DD1Dir will call FoFMem   1 times, MxPair=       234
 NAB=    80 NAA=    45 NBB=    28.
 A-vector RMS=  2.2192577D-05 Max=  2.6493329D-04 conv= 1.00D-05.
 RLE energy=       -0.8943740429
 DE(Corr)= -0.89436122     E(CORR)=     -146.20353865     Delta=-1.28D-04
 NORM(A)=   0.11046227D+01
 Iteration Nr.  13
 **********************
 DD1Dir will call FoFMem   1 times, MxPair=       234
 NAB=    80 NAA=    45 NBB=    28.
 A-vector RMS=  1.0980171D-05 Max=  1.4400369D-04 conv= 1.00D-05.
 RLE energy=       -0.8942900739
 DE(Corr)= -0.89427585     E(CORR)=     -146.20345328     Delta= 8.54D-05
 NORM(A)=   0.11046498D+01
 Iteration Nr.  14
 **********************
 DD1Dir will call FoFMem   1 times, MxPair=       234
 NAB=    80 NAA=    45 NBB=    28.
 A-vector RMS=  7.0950265D-06 Max=  7.4042566D-05 conv= 1.00D-05.
 RLE energy=       -0.8943120220
 DE(Corr)= -0.89432345     E(CORR)=     -146.20350088     Delta=-4.76D-05
 NORM(A)=   0.11046453D+01
 Iteration Nr.  15
 **********************
 DD1Dir will call FoFMem   1 times, MxPair=       234
 NAB=    80 NAA=    45 NBB=    28.
 A-vector RMS=  6.3576396D-06 Max=  9.9609023D-05 conv= 1.00D-05.
 RLE energy=       -0.8943020766
 DE(Corr)= -0.89429971     E(CORR)=     -146.20347714     Delta= 2.37D-05
 NORM(A)=   0.11046405D+01
 Iteration Nr.  16
 **********************
 DD1Dir will call FoFMem   1 times, MxPair=       234
 NAB=    80 NAA=    45 NBB=    28.
 A-vector RMS=  4.3870226D-06 Max=  7.9658245D-05 conv= 1.00D-05.
 RLE energy=       -0.8943022576
 DE(Corr)= -0.89430212     E(CORR)=     -146.20347955     Delta=-2.41D-06
 NORM(A)=   0.11046362D+01
 Iteration Nr.  17
 **********************
 DD1Dir will call FoFMem   1 times, MxPair=       234
 NAB=    80 NAA=    45 NBB=    28.
 A-vector RMS=  2.2802876D-06 Max=  2.9638979D-05 conv= 1.00D-05.
 RLE energy=       -0.8942943417
 DE(Corr)= -0.89429662     E(CORR)=     -146.20347405     Delta= 5.50D-06
 NORM(A)=   0.11046324D+01
 Iteration Nr.  18
 **********************
 DD1Dir will call FoFMem   1 times, MxPair=       234
 NAB=    80 NAA=    45 NBB=    28.
 A-vector RMS=  1.5529516D-06 Max=  1.9802833D-05 conv= 1.00D-05.
 RLE energy=       -0.8942993376
 DE(Corr)= -0.89430009     E(CORR)=     -146.20347752     Delta=-3.47D-06
 NORM(A)=   0.11046273D+01
 Iteration Nr.  19
 **********************
 DD1Dir will call FoFMem   1 times, MxPair=       234
 NAB=    80 NAA=    45 NBB=    28.
 A-vector RMS=  1.0479576D-06 Max=  1.4732586D-05 conv= 1.00D-05.
 RLE energy=       -0.8942946582
 DE(Corr)= -0.89429430     E(CORR)=     -146.20347173     Delta= 5.79D-06
 NORM(A)=   0.11046231D+01
 Iteration Nr.  20
 **********************
 DD1Dir will call FoFMem   1 times, MxPair=       234
 NAB=    80 NAA=    45 NBB=    28.
 A-vector RMS=  6.4569368D-07 Max=  7.9606353D-06 conv= 1.00D-05.
 RLE energy=       -0.8942957518
 DE(Corr)= -0.89429641     E(CORR)=     -146.20347384     Delta=-2.11D-06
 NORM(A)=   0.11046198D+01
 Iteration Nr.  21
 **********************
 DD1Dir will call FoFMem   1 times, MxPair=       234
 NAB=    80 NAA=    45 NBB=    28.
 A-vector RMS=  5.1367949D-07 Max=  7.2084028D-06 conv= 1.00D-05.
 RLE energy=       -0.8942951264
 DE(Corr)= -0.89429493     E(CORR)=     -146.20347236     Delta= 1.48D-06
 NORM(A)=   0.11046163D+01
 Iteration Nr.  22
 **********************
 DD1Dir will call FoFMem   1 times, MxPair=       234
 NAB=    80 NAA=    45 NBB=    28.
 A-vector RMS=  4.9320005D-07 Max=  7.3915312D-06 conv= 1.00D-05.
 RLE energy=       -0.8942948742
 DE(Corr)= -0.89429481     E(CORR)=     -146.20347224     Delta= 1.19D-07
 NORM(A)=   0.11046134D+01
 Iteration Nr.  23
 **********************
 DD1Dir will call FoFMem   1 times, MxPair=       234
 NAB=    80 NAA=    45 NBB=    28.
 A-vector RMS=  3.2165139D-07 Max=  4.4248842D-06 conv= 1.00D-05.
 RLE energy=       -0.8942941874
 DE(Corr)= -0.89429445     E(CORR)=     -146.20347189     Delta= 3.58D-07
 NORM(A)=   0.11046114D+01
 Iteration Nr.  24
 **********************
 DD1Dir will call FoFMem   1 times, MxPair=       234
 NAB=    80 NAA=    45 NBB=    28.
 A-vector RMS=  2.2738532D-07 Max=  4.0186089D-06 conv= 1.00D-05.
 RLE energy=       -0.8942946154
 DE(Corr)= -0.89429472     E(CORR)=     -146.20347215     Delta=-2.66D-07
 NORM(A)=   0.11046099D+01
 Iteration Nr.  25
 **********************
 DD1Dir will call FoFMem   1 times, MxPair=       234
 NAB=    80 NAA=    45 NBB=    28.
 A-vector RMS=  1.4065698D-07 Max=  2.2893338D-06 conv= 1.00D-05.
 RLE energy=       -0.8942941679
 DE(Corr)= -0.89429417     E(CORR)=     -146.20347160     Delta= 5.52D-07
 NORM(A)=   0.11046088D+01
 Iteration Nr.  26
 **********************
 DD1Dir will call FoFMem   1 times, MxPair=       234
 NAB=    80 NAA=    45 NBB=    28.
 A-vector RMS=  1.0552259D-07 Max=  1.5099095D-06 conv= 1.00D-05.
 RLE energy=       -0.8942942247
 DE(Corr)= -0.89429436     E(CORR)=     -146.20347179     Delta=-1.92D-07
 NORM(A)=   0.11046083D+01
 Iteration Nr.  27
 **********************
 DD1Dir will call FoFMem   1 times, MxPair=       234
 NAB=    80 NAA=    45 NBB=    28.
 A-vector RMS=  7.6659310D-08 Max=  1.3746740D-06 conv= 1.00D-05.
 RLE energy=       -0.8942942480
 DE(Corr)= -0.89429428     E(CORR)=     -146.20347171     Delta= 7.93D-08
 NORM(A)=   0.11046080D+01
 CI/CC converged in   27 iterations to DelEn= 7.93D-08 Conv= 1.00D-07 ErrA1= 7.67D-08 Conv= 1.00D-05
 Wavefunction amplitudes converged. E(Corr)=     -146.20347171    
 Dominant configurations:
 ***********************
 Spin Case        I    J    A    B          Value
    BB            7        22            0.116336D+00
 Largest amplitude= 1.16D-01
 Time for triples=    45914.64 seconds.
 T4(CCSD)= -0.41494247D-01
 T5(CCSD)=  0.66837574D-02
 CCSD(T)= -0.14623828220D+03
 Discarding MO integrals.
 Leave Link  913 at Sun Apr 22 04:36:53 2018, MaxMem= 10737418240 cpu:           67336.4 elap:            2105.2
 (Enter /home1/apps/gaussian/16rA.03/g16/l601.exe)
 Copying SCF densities to generalized density rwf, IOpCl= 0 IROHF=1.

 **********************************************************************

            Population analysis using the SCF density.

 **********************************************************************

 Orbital symmetries:
       Occupied  (SG) (SG) (PI) (PI) (PI) (PI) (SG) (DLTA) (SG)
                 (DLTA)
       Virtual   (SG) (PI) (PI) (SG) (SG) (SG) (DLTA) (DLTA) (PI)
                 (PI) (PI) (PI) (SG) (SG) (SG) (PI) (PI) (SG) (DLTA)
                 (DLTA) (PI) (PI) (SG) (PI) (PI) (SG) (SG) (SG)
                 (PI) (PI) (?A) (?A) (?B) (?B) (?A) (?A) (?B) (?B)
                 (SG) (PI) (PI) (SG) (DLTA) (DLTA) (PI) (PI) (SG)
                 (SG) (SG) (PI) (PI) (PHI) (PHI) (DLTA) (DLTA)
                 (SG) (PI) (PI) (SG) (PI) (PI) (DLTA) (DLTA) (SG)
                 (DLTA) (DLTA) (?B) (?B) (?B) (?B) (?C) (?C) (PI)
                 (PI) (SG) (DLTA) (DLTA) (SG) (PHI) (PHI) (PI)
                 (PI) (SG) (SG) (PI) (PI) (DLTA) (DLTA) (SG) (SG)
                 (PI) (PI) (DLTA) (DLTA) (PI) (PI) (SG) (?D) (?D)
                 (?D) (?D) (DLTA) (DLTA) (?D) (?D) (SG) (PHI) (PHI)
                 (DLTA) (DLTA) (?E) (?E) (?C) (?C) (?F) (?F) (SG)
                 (?F) (?B) (?B) (?B) (?B) (SG) (DLTA) (DLTA) (PHI)
                 (PHI) (PI) (PI) (SG) (PI) (PI) (SG) (DLTA) (DLTA)
                 (SG) (DLTA) (DLTA) (DLTA) (DLTA) (PI) (PI) (SG)
                 (PI) (PI) (PI) (PI) (SG) (SG) (?B) (?B) (?B) (?B)
                 (DLTA) (DLTA) (SG) (PI) (PI) (?C) (?C) (PHI) (PHI)
                 (SG) (DLTA) (DLTA) (SG) (PI) (PI) (?E) (?E) (?C)
                 (?C) (?B) (?B) (DLTA) (DLTA) (?B) (?B) (SG) (SG)
                 (DLTA) (DLTA) (PI) (PI) (SG) (PI) (PI) (SG) (SG)
                 (DLTA) (DLTA) (PI) (PI) (PHI) (PHI) (SG) (DLTA)
                 (DLTA) (PI) (PI) (SG) (?G) (?G) (?G) (?B) (?B)
                 (DLTA) (DLTA) (?B) (?B) (SG) (?E) (?E) (?H) (?H)
                 (?B) (?B) (DLTA) (DLTA) (?B) (?B) (?H) (PI) (PI)
                 (SG) (DLTA) (DLTA) (PI) (PI) (SG) (SG) (PI) (PI)
                 (SG) (DLTA) (DLTA) (PI) (PI) (SG) (SG) (PI) (PI)
                 (SG) (SG) (DLTA) (DLTA) (PI) (PI) (SG) (SG) (PI)
                 (PI) (SG) (SG) (DLTA) (DLTA) (PI) (PI) (SG) (PI)
                 (PI) (SG) (SG) (PI) (PI) (SG) (DLTA) (DLTA) (PI)
                 (PI) (SG) (SG) (PI) (PI) (SG) (SG) (PI) (PI) (SG)
                 (SG) (PI) (PI) (SG) (SG) (PI) (PI) (SG) (SG) (PI)
                 (PI) (SG) (SG) (SG) (SG) (SG) (SG)
 Unable to determine electronic state:  partially filled degenerate orbitals.
 Alpha  occ. eigenvalues --   -4.41341  -2.93546  -2.92767  -2.92767  -0.53418
 Alpha  occ. eigenvalues --   -0.49143  -0.46097  -0.46097  -0.44643  -0.29617
 Alpha virt. eigenvalues --    0.01020   0.02446   0.02446   0.02771   0.05904
 Alpha virt. eigenvalues --    0.07092   0.07416   0.07428   0.07517   0.07517
 Alpha virt. eigenvalues --    0.08262   0.08262   0.09673   0.18714   0.21701
 Alpha virt. eigenvalues --    0.23081   0.23081   0.23469   0.24443   0.24601
 Alpha virt. eigenvalues --    0.24702   0.24702   0.30219   0.31863   0.31863
 Alpha virt. eigenvalues --    0.43219   0.58945   0.62057   0.65316   0.65316
 Alpha virt. eigenvalues --    0.67319   0.67893   0.70574   0.70574   0.70623
 Alpha virt. eigenvalues --    0.70847   0.72174   0.72174   0.76269   0.78400
 Alpha virt. eigenvalues --    0.78400   0.82933   0.87159   0.87260   0.89158
 Alpha virt. eigenvalues --    0.89158   0.90576   1.34113   1.37317   1.38642
 Alpha virt. eigenvalues --    1.38642   1.70209   1.70209   1.76084   1.77612
 Alpha virt. eigenvalues --    1.78491   1.82748   1.82748   1.90285   1.96741
 Alpha virt. eigenvalues --    1.96741   1.98589   1.98900   2.13079   2.16773
 Alpha virt. eigenvalues --    2.16774   2.17363   2.17826   2.20818   2.20818
 Alpha virt. eigenvalues --    2.32387   2.32390   2.36674   2.36674   2.40802
 Alpha virt. eigenvalues --    2.50772   2.51282   2.53454   2.61632   2.61632
 Alpha virt. eigenvalues --    2.72034   2.72034   2.81674   3.26259   3.57417
 Alpha virt. eigenvalues --    3.57417   3.60126   3.60680   4.05149   4.07891
 Alpha virt. eigenvalues --    4.12460   4.12460   4.23147   4.25544   4.60725
 Alpha virt. eigenvalues --    4.60725   4.73280   5.68049   5.68049   5.70024
 Alpha virt. eigenvalues --    5.70024   5.75051   5.76912   5.92158   5.92158
 Alpha virt. eigenvalues --    5.99299   6.10398   6.10398   6.32697   6.33954
 Alpha virt. eigenvalues --    6.41649   6.41649   6.42655   6.42657   6.47995
 Alpha virt. eigenvalues --    6.48023   6.52391   6.58929   6.65965   6.65966
 Alpha virt. eigenvalues --    6.74552   6.74552   6.83006   7.03521   7.04709
 Alpha virt. eigenvalues --    7.30947   7.30947   7.73536   7.73537   7.82836
 Alpha virt. eigenvalues --    8.23536   8.23536   8.30206   8.51461   8.51802
 Alpha virt. eigenvalues --    8.87602   9.04011   9.04965   9.33501   9.36212
 Alpha virt. eigenvalues --    9.42912   9.42912   9.69246   9.71509   9.71510
 Alpha virt. eigenvalues --   10.84053  10.84053  10.88292  12.10904  13.40251
 Alpha virt. eigenvalues --   13.40251  13.43792  13.43792  13.62781  13.65009
 Alpha virt. eigenvalues --   13.65780  14.50770  14.50770  15.95463  15.95490
 Alpha virt. eigenvalues --   16.05503  16.05503  16.16492  16.20755  16.23377
 Alpha virt. eigenvalues --   16.76036  16.88634  16.88634  17.02559  17.02559
 Alpha virt. eigenvalues --   17.04807  17.04815  17.14814  17.14814  17.41949
 Alpha virt. eigenvalues --   17.44161  17.63805  17.63805  17.89677  18.15993
 Alpha virt. eigenvalues --   18.24368  18.27981  18.40559  18.40559  19.90278
 Alpha virt. eigenvalues --   26.34423  26.34423  26.96246  28.29890  33.08420
 Alpha virt. eigenvalues --   33.12354  33.20638  33.20638  33.67441  33.67441
 Alpha virt. eigenvalues --   33.72827  33.80999  33.83713  34.27429  34.27429
 Alpha virt. eigenvalues --   35.53131  36.38029  36.48296  36.48509  36.55694
 Alpha virt. eigenvalues --   36.55694  36.63203  36.66017  37.01592  37.01592
 Alpha virt. eigenvalues --   37.46824  40.71782  40.71782  40.74556  40.74590
 Alpha virt. eigenvalues --   40.79205  40.79205  40.91940  40.94790  41.03141
 Alpha virt. eigenvalues --   41.03141  41.23811  48.22701  48.22701  49.07059
 Alpha virt. eigenvalues --   56.79047  56.83084  56.91397  56.91397  57.45080
 Alpha virt. eigenvalues --   71.31800  87.37211  87.37211  88.29831 100.13254
 Alpha virt. eigenvalues --  100.16542 100.24101 100.24101 100.71849 134.40755
 Alpha virt. eigenvalues --  160.85647 160.85647 161.84228 164.28206 205.97026
 Alpha virt. eigenvalues --  205.98738 206.05219 206.05219 206.46320 257.69337
 Alpha virt. eigenvalues --  302.47230 302.47230 303.47601 504.88546 511.61435
 Alpha virt. eigenvalues --  511.61995 511.67158 511.67158 512.00892 583.30162
 Alpha virt. eigenvalues --  583.30162 584.283571010.030021163.613691163.61369
 Alpha virt. eigenvalues -- 1164.545331601.882981601.884091601.919321601.91932
 Alpha virt. eigenvalues -- 1602.140552072.522412431.389932431.389932432.25172
 Alpha virt. eigenvalues -- 4389.818565414.570135414.570135415.346219661.13781
 Alpha virt. eigenvalues -- **************************************************
 Alpha virt. eigenvalues -- **************************************************
 Alpha virt. eigenvalues -- **************************************************
 Alpha virt. eigenvalues -- **********
     Molecular Orbital Coefficients:
                           4         5         6         7         8
                           O         O         O         O         O
     Eigenvalues --    -2.92767  -0.53418  -0.49143  -0.46097  -0.46097
   1 1   Co 1S          0.00000   0.00000   0.00000   0.00000  -0.00000
   2        2S          0.00000   0.00000   0.00000  -0.00000   0.00000
   3        3S          0.00000   0.00000   0.00000   0.00000  -0.00000
   4        4S          0.00000   0.00000   0.00000  -0.00000   0.00000
   5        5S          0.00000   0.00000   0.00000   0.00000  -0.00000
   6        6S          0.00000   0.00000   0.00000  -0.00000   0.00000
   7        7S          0.00000   0.00000   0.00000   0.00001  -0.00000
   8        8S          0.00000   0.00000   0.00000  -0.00003   0.00000
   9        9S          0.00000   0.00000   0.00000   0.00008  -0.00000
  10       10S          0.00000   0.00000   0.00000  -0.00023   0.00000
  11       11S          0.00000   0.00000   0.00000   0.00063  -0.00000
  12       12S          0.00000   0.00000   0.00000  -0.00159   0.00000
  13       13S          0.00000   0.00000   0.00000   0.00387  -0.00000
  14       14S          0.00000   0.00000   0.00000  -0.01229   0.00001
  15       15S          0.00000   0.00000   0.00000   0.01152  -0.00001
  16       16S          0.00000   0.00000   0.00000   0.13521  -0.00006
  17       17S          0.00000   0.00000   0.00000  -0.10205   0.00005
  18       18S          0.00000   0.00000   0.00000  -0.28825   0.00013
  19       19S          0.00000   0.00000   0.00000  -0.14218   0.00007
  20       20S          0.00000   0.00000   0.00000   0.12252  -0.00006
  21       21S          0.00000   0.00000   0.00000   0.12665  -0.00006
  22       22S          0.00000   0.00000   0.00000   0.05945  -0.00003
  23       23S          0.00000   0.00000   0.00000  -0.04601   0.00002
  24       24S          0.00000   0.00000   0.00000   0.12004  -0.00006
  25       25S          0.00000   0.00000   0.00000  -0.00470   0.00000
  26       26PX         0.00000  -0.00000   0.00000   0.00000   0.00000
  27       26PY         0.00000   0.00000  -0.00000   0.00000   0.00000
  28       26PZ         0.00000   0.00000   0.00000   0.00000  -0.00000
  29       27PX        -0.00000   0.00000   0.00000   0.00000   0.00000
  30       27PY         0.00000   0.00000   0.00000   0.00000   0.00000
  31       27PZ         0.00000   0.00000   0.00000  -0.00000   0.00000
  32       28PX         0.00000  -0.00000   0.00000   0.00000   0.00000
  33       28PY         0.00000   0.00000  -0.00000   0.00000   0.00000
  34       28PZ         0.00000   0.00000   0.00000   0.00000  -0.00000
  35       29PX        -0.00000   0.00000   0.00000   0.00000   0.00000
  36       29PY         0.00000   0.00000   0.00000   0.00000   0.00000
  37       29PZ         0.00000   0.00000   0.00000  -0.00000   0.00000
  38       30PX         0.00001  -0.00000   0.00000   0.00000   0.00000
  39       30PY         0.00000   0.00000  -0.00000   0.00000   0.00000
  40       30PZ         0.00000   0.00000   0.00000   0.00001  -0.00000
  41       31PX        -0.00004   0.00000   0.00000   0.00000   0.00000
  42       31PY         0.00000   0.00000   0.00000   0.00000   0.00000
  43       31PZ         0.00000   0.00000   0.00000  -0.00003   0.00000
  44       32PX         0.00014  -0.00001   0.00000   0.00000   0.00000
  45       32PY         0.00000   0.00000  -0.00001   0.00000   0.00000
  46       32PZ         0.00000   0.00000   0.00000   0.00008  -0.00000
  47       33PX        -0.00047   0.00004   0.00000   0.00000   0.00000
  48       33PY         0.00000   0.00000   0.00004   0.00000   0.00000
  49       33PZ         0.00000   0.00000   0.00000  -0.00024   0.00000
  50       34PX         0.00194  -0.00011   0.00000   0.00000   0.00000
  51       34PY         0.00000   0.00000  -0.00011   0.00000   0.00000
  52       34PZ         0.00000   0.00000   0.00000   0.00080  -0.00000
  53       35PX        -0.00385   0.00043   0.00000   0.00000   0.00000
  54       35PY         0.00000   0.00000   0.00043   0.00000   0.00000
  55       35PZ         0.00000   0.00000   0.00000  -0.00248   0.00000
  56       36PX         0.14855   0.00291   0.00000   0.00000   0.00000
  57       36PY         0.00000   0.00000   0.00291   0.00000   0.00000
  58       36PZ         0.00000   0.00000   0.00000   0.01611  -0.00001
  59       37PX         0.21342  -0.00189   0.00000   0.00000   0.00000
  60       37PY         0.00000   0.00000  -0.00189   0.00000   0.00000
  61       37PZ         0.00000   0.00000   0.00000   0.03683  -0.00002
  62       38PX         0.41895   0.00280   0.00000   0.00000   0.00000
  63       38PY         0.00000   0.00000   0.00280   0.00000   0.00000
  64       38PZ         0.00000   0.00000   0.00000   0.05967  -0.00003
  65       39PX         0.36064  -0.00474   0.00000   0.00000   0.00000
  66       39PY         0.00000   0.00000  -0.00474   0.00000   0.00000
  67       39PZ         0.00000   0.00000   0.00000   0.07015  -0.00003
  68       40PX         0.16471   0.00559   0.00000   0.00000   0.00000
  69       40PY         0.00000   0.00000   0.00559   0.00000   0.00000
  70       40PZ         0.00000   0.00000   0.00000   0.01981  -0.00001
  71       41PX         0.01895   0.01536   0.00000   0.00000   0.00000
  72       41PY         0.00000   0.00000   0.01536   0.00000   0.00000
  73       41PZ         0.00000   0.00000   0.00000  -0.02997   0.00001
  74       42PX        -0.00198   0.00637   0.00000   0.00000   0.00000
  75       42PY         0.00000   0.00000   0.00637   0.00000   0.00000
  76       42PZ         0.00000   0.00000   0.00000  -0.00319   0.00000
  77       43PX         0.00081   0.00011   0.00000   0.00000   0.00000
  78       43PY         0.00000   0.00000   0.00011   0.00000   0.00000
  79       43PZ         0.00000   0.00000   0.00000  -0.00657   0.00000
  80       44PX        -0.19203  -0.00269   0.00000   0.00000   0.00000
  81       44PY         0.00000   0.00000  -0.00269   0.00000   0.00000
  82       44PZ         0.00000   0.00000   0.00000  -0.02107   0.00001
  83       45PX        -0.03557  -0.00407   0.00000   0.00000   0.00000
  84       45PY         0.00000   0.00000  -0.00407   0.00000   0.00000
  85       45PZ         0.00000   0.00000   0.00000   0.00729  -0.00000
  86       46PX        -0.00025   0.00006   0.00000   0.00000   0.00000
  87       46PY         0.00000   0.00000   0.00006   0.00000   0.00000
  88       46PZ         0.00000   0.00000   0.00000   0.00040  -0.00000
  89       47D 0        0.00000   0.00000   0.00000  -0.00000   0.00000
  90       47D+1       -0.00000  -0.00001   0.00000   0.00000   0.00000
  91       47D-1        0.00000   0.00000  -0.00001   0.00000   0.00000
  92       47D+2        0.00000   0.00000   0.00000  -0.00000  -0.00001
  93       47D-2        0.00000   0.00000   0.00000   0.00000   0.00000
  94       48D 0        0.00000   0.00000   0.00000   0.00003  -0.00000
  95       48D+1        0.00000   0.00011   0.00000   0.00000   0.00000
  96       48D-1        0.00000   0.00000   0.00011   0.00000   0.00000
  97       48D+2        0.00000   0.00000   0.00000   0.00000   0.00011
  98       48D-2        0.00000   0.00000   0.00000   0.00000   0.00000
  99       49D 0        0.00000   0.00000   0.00000  -0.00020   0.00000
 100       49D+1       -0.00000  -0.00067   0.00000   0.00000   0.00000
 101       49D-1        0.00000   0.00000  -0.00067   0.00000   0.00000
 102       49D+2        0.00000   0.00000   0.00000  -0.00000  -0.00068
 103       49D-2        0.00000   0.00000   0.00000   0.00000   0.00000
 104       50D 0        0.00000   0.00000   0.00000   0.00398  -0.00000
 105       50D+1       -0.00000   0.01385   0.00000   0.00000   0.00000
 106       50D-1        0.00000   0.00000   0.01385   0.00000   0.00000
 107       50D+2        0.00000   0.00000   0.00000   0.00001   0.01401
 108       50D-2        0.00000   0.00000   0.00000   0.00000   0.00000
 109       51D 0        0.00000   0.00000   0.00000   0.04413  -0.00002
 110       51D+1       -0.00081   0.15684   0.00000   0.00000   0.00000
 111       51D-1        0.00000   0.00000   0.15684   0.00000   0.00000
 112       51D+2        0.00000   0.00000   0.00000   0.00007   0.15752
 113       51D-2        0.00000   0.00000   0.00000   0.00000   0.00000
 114       52D 0        0.00000   0.00000   0.00000   0.08344  -0.00004
 115       52D+1       -0.00370   0.29112   0.00000   0.00000   0.00000
 116       52D-1        0.00000   0.00000   0.29112   0.00000   0.00000
 117       52D+2        0.00000   0.00000   0.00000   0.00013   0.28879
 118       52D-2        0.00000   0.00000   0.00000   0.00000   0.00000
 119       53D 0        0.00000   0.00000   0.00000   0.08935  -0.00004
 120       53D+1       -0.00161   0.30385   0.00000   0.00000   0.00000
 121       53D-1        0.00000   0.00000   0.30385   0.00000   0.00000
 122       53D+2        0.00000   0.00000   0.00000   0.00014   0.30438
 123       53D-2        0.00000   0.00000   0.00000   0.00000   0.00000
 124       54D 0        0.00000   0.00000   0.00000   0.08688  -0.00004
 125       54D+1        0.00196   0.28516   0.00000   0.00000   0.00000
 126       54D-1        0.00000   0.00000   0.28516   0.00000   0.00000
 127       54D+2        0.00000   0.00000   0.00000   0.00013   0.28744
 128       54D-2        0.00000   0.00000   0.00000   0.00000   0.00000
 129       55D 0        0.00000   0.00000   0.00000   0.07096  -0.00003
 130       55D+1        0.00147   0.21921   0.00000   0.00000   0.00000
[...]
  90       47D+1       -0.00000  -0.00000  -0.00000   0.00000
  91       47D-1       -0.00000  -0.00000  -0.00000   0.00000
  92       47D+2       -0.00000  -0.00000  -0.00000  -0.00000
  93       47D-2       -0.00000  -0.00000  -0.00000  -0.00000
  94       48D 0        0.00000   0.00000   0.00000   0.00000
  95       48D+1        0.00001   0.00000   0.00000   0.00000
  96       48D-1        0.00001   0.00000   0.00000   0.00000
  97       48D+2        0.00001   0.00000   0.00000   0.00000
  98       48D-2        0.00000   0.00000   0.00000   0.00000
  99       49D 0       -0.00007  -0.00006  -0.00001  -0.00005
 100       49D+1       -0.00016  -0.00008  -0.00008   0.00000
 101       49D-1       -0.00016  -0.00008  -0.00008   0.00000
 102       49D+2       -0.00016  -0.00008  -0.00008  -0.00000
 103       49D-2       -0.00008  -0.00008  -0.00000  -0.00008
 104       50D 0        0.00349   0.00314   0.00035   0.00279
 105       50D+1        0.00828   0.00414   0.00414   0.00000
 106       50D-1        0.00828   0.00414   0.00414   0.00000
 107       50D+2        0.00844   0.00422   0.00422   0.00000
 108       50D-2        0.00432   0.00432   0.00000   0.00432
 109       51D 0        0.07289   0.06569   0.00719   0.05850
 110       51D+1        0.17154   0.08577   0.08577   0.00000
 111       51D-1        0.17154   0.08577   0.08577   0.00000
 112       51D+2        0.17346   0.08673   0.08673   0.00000
 113       51D-2        0.08903   0.08903   0.00000   0.08903
 114       52D 0        0.19759   0.17759   0.02001   0.15758
 115       52D+1        0.44655   0.22327   0.22327   0.00000
 116       52D-1        0.44655   0.22327   0.22327   0.00000
 117       52D+2        0.44554   0.22277   0.22277   0.00000
 118       52D-2        0.22912   0.22912   0.00000   0.22912
 119       53D 0        0.24672   0.21897   0.02775   0.19122
 120       53D+1        0.53634   0.26817   0.26817   0.00000
 121       53D-1        0.53634   0.26817   0.26817   0.00000
 122       53D+2        0.53911   0.26956   0.26956   0.00000
 123       53D-2        0.27687   0.27687   0.00000   0.27687
 124       54D 0        0.23835   0.20465   0.03370   0.17094
 125       54D+1        0.48751   0.24376   0.24376   0.00000
 126       54D-1        0.48751   0.24376   0.24376   0.00000
 127       54D+2        0.49060   0.24530   0.24530   0.00000
 128       54D-2        0.24715   0.24715   0.00000   0.24715
 129       55D 0        0.16720   0.13620   0.03100   0.10520
 130       55D+1        0.30129   0.15065   0.15065   0.00000
 131       55D-1        0.30129   0.15065   0.15065   0.00000
 132       55D+2        0.30280   0.15140   0.15140   0.00000
 133       55D-2        0.14417   0.14417   0.00000   0.14417
 134       56D 0        0.04443   0.03789   0.00654   0.03135
 135       56D+1        0.09563   0.04781   0.04781   0.00000
 136       56D-1        0.09563   0.04781   0.04781   0.00000
 137       56D+2        0.09640   0.04820   0.04820   0.00000
 138       56D-2        0.03988   0.03988   0.00000   0.03988
 139       57D 0        0.00165   0.00211  -0.00046   0.00256
 140       57D+1        0.00744   0.00372   0.00372   0.00000
 141       57D-1        0.00744   0.00372   0.00372   0.00000
 142       57D+2        0.00747   0.00373   0.00373   0.00000
 143       57D-2        0.00218   0.00218   0.00000   0.00218
 144       58D 0       -0.00278  -0.00276  -0.00003  -0.00273
 145       58D+1       -0.00637  -0.00319  -0.00319   0.00000
 146       58D-1       -0.00637  -0.00319  -0.00319   0.00000
 147       58D+2       -0.00448  -0.00224  -0.00224  -0.00000
 148       58D-2       -0.00213  -0.00213  -0.00000  -0.00213
 149       59D 0       -0.03497  -0.03161  -0.00336  -0.02825
 150       59D+1       -0.06655  -0.03328  -0.03328   0.00000
 151       59D-1       -0.06655  -0.03328  -0.03328   0.00000
 152       59D+2       -0.05991  -0.02996  -0.02996  -0.00000
 153       59D-2       -0.03065  -0.03065  -0.00000  -0.03065
 154       60D 0        0.00000  -0.00003   0.00003  -0.00006
 155       60D+1       -0.00012  -0.00006  -0.00006   0.00000
 156       60D-1       -0.00012  -0.00006  -0.00006   0.00000
 157       60D+2       -0.00010  -0.00005  -0.00005  -0.00000
 158       60D-2       -0.00003  -0.00003  -0.00000  -0.00003
 159       61F 0        0.00001   0.00000   0.00000   0.00000
 160       61F+1        0.00000   0.00000   0.00000   0.00000
 161       61F-1        0.00000   0.00000   0.00000   0.00000
 162       61F+2        0.00000   0.00000   0.00000  -0.00000
 163       61F-2        0.00000   0.00000   0.00000   0.00000
 164       61F+3        0.00000   0.00000   0.00000   0.00000
 165       61F-3        0.00000   0.00000   0.00000   0.00000
 166       62F 0        0.00005   0.00003   0.00003   0.00000
 167       62F+1        0.00002   0.00001   0.00001   0.00000
 168       62F-1        0.00002   0.00001   0.00001   0.00000
 169       62F+2        0.00000   0.00000   0.00000   0.00000
 170       62F-2        0.00000   0.00000   0.00000   0.00000
 171       62F+3        0.00001   0.00001   0.00001   0.00000
 172       62F-3        0.00001   0.00001   0.00001   0.00000
 173       63F 0        0.00051   0.00026   0.00025   0.00001
 174       63F+1        0.00004   0.00002   0.00002   0.00000
 175       63F-1        0.00004   0.00002   0.00002   0.00000
 176       63F+2        0.00000   0.00000   0.00000   0.00000
 177       63F-2        0.00000   0.00000   0.00000   0.00000
 178       63F+3        0.00003   0.00002   0.00002   0.00000
 179       63F-3        0.00003   0.00002   0.00002   0.00000
 180       64F 0        0.00153   0.00069   0.00084  -0.00015
 181       64F+1       -0.00002  -0.00001  -0.00001   0.00000
 182       64F-1       -0.00002  -0.00001  -0.00001   0.00000
 183       64F+2        0.00007   0.00004   0.00004   0.00000
 184       64F-2        0.00003   0.00003   0.00000   0.00003
 185       64F+3        0.00002   0.00001   0.00001   0.00000
 186       64F-3        0.00002   0.00001   0.00001   0.00000
 187       65F 0       -0.00025  -0.00013  -0.00012  -0.00001
 188       65F+1       -0.00001  -0.00001  -0.00001   0.00000
 189       65F-1       -0.00001  -0.00001  -0.00001   0.00000
 190       65F+2        0.00009   0.00005   0.00005   0.00000
 191       65F-2        0.00003   0.00003   0.00000   0.00003
 192       65F+3        0.00000   0.00000   0.00000   0.00000
 193       65F-3        0.00000   0.00000   0.00000   0.00000
 194       66G 0        0.00000   0.00000   0.00000   0.00000
 195       66G+1        0.00000   0.00000   0.00000   0.00000
 196       66G-1        0.00000   0.00000   0.00000   0.00000
 197       66G+2        0.00000   0.00000   0.00000   0.00000
 198       66G-2        0.00000   0.00000   0.00000   0.00000
 199       66G+3        0.00000   0.00000   0.00000   0.00000
 200       66G-3        0.00000   0.00000   0.00000   0.00000
 201       66G+4        0.00000   0.00000   0.00000   0.00000
 202       66G-4        0.00000   0.00000   0.00000   0.00000
 203       67G 0        0.00001   0.00001   0.00000   0.00000
 204       67G+1        0.00000   0.00000   0.00000   0.00000
 205       67G-1        0.00000   0.00000   0.00000   0.00000
 206       67G+2        0.00000   0.00000   0.00000   0.00000
 207       67G-2        0.00000   0.00000   0.00000   0.00000
 208       67G+3        0.00000   0.00000   0.00000   0.00000
 209       67G-3        0.00000   0.00000   0.00000   0.00000
 210       67G+4        0.00000   0.00000   0.00000   0.00000
 211       67G-4        0.00000   0.00000   0.00000   0.00000
 212       68G 0        0.00010   0.00005   0.00005  -0.00000
 213       68G+1        0.00001   0.00000   0.00000   0.00000
 214       68G-1        0.00001   0.00000   0.00000   0.00000
 215       68G+2        0.00000   0.00000   0.00000   0.00000
 216       68G-2        0.00000   0.00000   0.00000   0.00000
 217       68G+3        0.00000   0.00000   0.00000   0.00000
 218       68G-3        0.00000   0.00000   0.00000   0.00000
 219       68G+4        0.00000   0.00000   0.00000   0.00000
 220       68G-4        0.00000   0.00000   0.00000   0.00000
 221       69G 0       -0.00005  -0.00005  -0.00000  -0.00004
 222       69G+1        0.00000   0.00000   0.00000   0.00000
 223       69G-1        0.00000   0.00000   0.00000   0.00000
 224       69G+2        0.00000   0.00000   0.00000   0.00000
 225       69G-2        0.00000   0.00000   0.00000   0.00000
 226       69G+3        0.00000   0.00000   0.00000   0.00000
 227       69G-3        0.00000   0.00000   0.00000   0.00000
 228       69G+4        0.00000   0.00000   0.00000   0.00000
 229       69G-4        0.00000   0.00000   0.00000   0.00000
 230       70H 0        0.00000   0.00000   0.00000   0.00000
 231       70H+1        0.00000   0.00000   0.00000   0.00000
 232       70H-1        0.00000   0.00000   0.00000   0.00000
 233       70H+2        0.00000   0.00000   0.00000  -0.00000
 234       70H-2        0.00000   0.00000   0.00000   0.00000
 235       70H+3        0.00000   0.00000   0.00000   0.00000
 236       70H-3        0.00000   0.00000   0.00000   0.00000
 237       70H+4        0.00000   0.00000   0.00000   0.00000
 238       70H-4        0.00000   0.00000   0.00000   0.00000
 239       70H+5        0.00000   0.00000   0.00000   0.00000
 240       70H-5        0.00000   0.00000   0.00000   0.00000
 241       71H 0        0.00001   0.00000   0.00000   0.00000
 242       71H+1        0.00000   0.00000   0.00000   0.00000
 243       71H-1        0.00000   0.00000   0.00000   0.00000
 244       71H+2        0.00000   0.00000   0.00000   0.00000
 245       71H-2        0.00000   0.00000   0.00000   0.00000
 246       71H+3        0.00000   0.00000   0.00000   0.00000
 247       71H-3        0.00000   0.00000   0.00000   0.00000
 248       71H+4        0.00000   0.00000   0.00000  -0.00000
 249       71H-4       -0.00000  -0.00000   0.00000  -0.00000
 250       71H+5        0.00000   0.00000   0.00000   0.00000
 251       71H-5        0.00000   0.00000   0.00000   0.00000
 252       72H 0        0.00001   0.00000   0.00001  -0.00001
 253       72H+1       -0.00000  -0.00000  -0.00000   0.00000
 254       72H-1       -0.00000  -0.00000  -0.00000   0.00000
 255       72H+2        0.00000   0.00000   0.00000  -0.00000
 256       72H-2       -0.00000  -0.00000   0.00000  -0.00000
 257       72H+3        0.00000   0.00000   0.00000   0.00000
 258       72H-3        0.00000   0.00000   0.00000   0.00000
 259       72H+4        0.00000   0.00000   0.00000   0.00000
 260       72H-4        0.00000   0.00000   0.00000   0.00000
 261       72H+5       -0.00000  -0.00000  -0.00000   0.00000
 262       72H-5       -0.00000  -0.00000  -0.00000   0.00000
 263 2   H  1S          0.00005   0.00003   0.00003   0.00000
 264        2S          0.00680   0.00349   0.00330   0.00019
 265        3S          0.06893   0.03548   0.03345   0.00203
 266        4S          0.33294   0.17024   0.16270   0.00755
 267        5S          0.59839   0.29592   0.30247  -0.00655
 268        6S          0.41891   0.20511   0.21380  -0.00869
 269        7S          0.01056   0.00442   0.00614  -0.00172
 270        8PX         0.00113   0.00057   0.00057   0.00000
 271        8PY         0.00113   0.00057   0.00057   0.00000
 272        8PZ         0.00211   0.00148   0.00063   0.00085
 273        9PX         0.00665   0.00332   0.00332   0.00000
 274        9PY         0.00665   0.00332   0.00332   0.00000
 275        9PZ         0.01223   0.00754   0.00469   0.00285
 276       10PX         0.00761   0.00381   0.00381   0.00000
 277       10PY         0.00761   0.00381   0.00381   0.00000
 278       10PZ         0.02736   0.01240   0.01496  -0.00256
 279       11PX         0.00037   0.00018   0.00018   0.00000
 280       11PY         0.00037   0.00018   0.00018   0.00000
 281       11PZ         0.00181  -0.00220   0.00401  -0.00621
 282       12D 0        0.00093   0.00066   0.00027   0.00039
 283       12D+1        0.00070   0.00035   0.00035   0.00000
 284       12D-1        0.00070   0.00035   0.00035   0.00000
 285       12D+2        0.00006   0.00003   0.00003   0.00000
 286       12D-2        0.00003   0.00003   0.00000   0.00003
 287       13D 0        0.00457   0.00256   0.00201   0.00055
 288       13D+1        0.00244   0.00122   0.00122   0.00000
 289       13D-1        0.00244   0.00122   0.00122   0.00000
 290       13D+2        0.00050   0.00025   0.00025   0.00000
 291       13D-2        0.00027   0.00027   0.00000   0.00027
 292       14D 0        0.00386   0.00193   0.00193   0.00001
 293       14D+1        0.00010   0.00005   0.00005   0.00000
 294       14D-1        0.00010   0.00005   0.00005   0.00000
 295       14D+2        0.00009   0.00005   0.00005  -0.00000
 296       14D-2       -0.00018  -0.00018   0.00000  -0.00018
 297       15F 0        0.00032   0.00026   0.00006   0.00020
 298       15F+1        0.00057   0.00028   0.00028   0.00000
 299       15F-1        0.00057   0.00028   0.00028   0.00000
 300       15F+2        0.00015   0.00008   0.00008   0.00000
 301       15F-2        0.00009   0.00009   0.00000   0.00009
 302       15F+3        0.00000   0.00000   0.00000   0.00000
 303       15F-3        0.00000   0.00000   0.00000   0.00000
 304       16F 0        0.00063   0.00033   0.00030   0.00003
 305       16F+1        0.00010   0.00005   0.00005   0.00000
 306       16F-1        0.00010   0.00005   0.00005   0.00000
 307       16F+2       -0.00014  -0.00007  -0.00007  -0.00000
 308       16F-2       -0.00010  -0.00010  -0.00000  -0.00010
 309       16F+3       -0.00000  -0.00000  -0.00000   0.00000
 310       16F-3       -0.00000  -0.00000  -0.00000   0.00000
          Condensed to atoms (all electrons):
               1          2
     1  Co  16.147804   0.321689
     2  H    0.321689   1.208818
          Atomic-Atomic Spin Densities.
               1          2
     1  Co   2.042249  -0.031271
     2  H   -0.031271   0.020293
 Mulliken charges and spin densities:
               1          2
     1  Co   0.530507   2.010978
     2  H   -0.530507  -0.010978
 Sum of Mulliken charges =  -0.00000   2.00000
 Mulliken charges and spin densities with hydrogens summed into heavy atoms:
               1          2
     1  Co  -0.000000   2.000000
 Electronic spatial extent (au):  <R**2>=             36.7590
 Charge=             -0.0000 electrons
 Dipole moment (field-independent basis, Debye):
    X=              0.0000    Y=              0.0000    Z=              3.2717  Tot=              3.2717
 Quadrupole moment (field-independent basis, Debye-Ang):
   XX=            -14.0707   YY=            -14.0707   ZZ=            -15.7705
   XY=              0.0000   XZ=              0.0000   YZ=              0.0000
 Traceless Quadrupole moment (field-independent basis, Debye-Ang):
   XX=              0.5666   YY=              0.5666   ZZ=             -1.1332
   XY=              0.0000   XZ=              0.0000   YZ=              0.0000
 Octapole moment (field-independent basis, Debye-Ang**2):
  XXX=              0.0000  YYY=              0.0000  ZZZ=              9.5887  XYY=              0.0000
  XXY=              0.0000  XXZ=              2.4474  XZZ=              0.0000  YZZ=              0.0000
  YYZ=              2.4474  XYZ=              0.0000
 Hexadecapole moment (field-independent basis, Debye-Ang**3):
 XXXX=            -18.7831 YYYY=            -18.7832 ZZZZ=            -31.6651 XXXY=              0.0000
 XXXZ=              0.0000 YYYX=              0.0000 YYYZ=              0.0000 ZZZX=              0.0000
 ZZZY=              0.0000 XXYY=             -6.0221 XXZZ=             -8.4233 YYZZ=             -8.4233
 XXYZ=              0.0000 YYXZ=              0.0000 ZZXY=              0.0000
 N-N= 8.178193259673D+00 E-N=-3.635158842493D+02  KE= 8.650865847747D+01
 Symmetry A1   KE= 3.442535637981D+01
 Symmetry A2   KE= 7.111049329421D+00
 Symmetry B1   KE= 2.248612877247D+01
 Symmetry B2   KE= 2.248612399551D+01
 Symmetry A1   SP= 1.000000000000D+00
 Symmetry A2   SP= 1.000000000000D+00
 Symmetry B1   SP= 0.000000000000D+00
 Symmetry B2   SP= 0.000000000000D+00
 Orbital energies and kinetic energies (alpha):
                                 1                 2
   4         O                -2.927670          4.390005
   5         O                -0.534179          6.853059
   6         O                -0.491430          6.853057
   7         O                -0.460966          1.298011
   8         O                -0.460966          6.933977
   9         O                -0.446427          4.844868
  10         O                -0.296168          7.111049
  11         V                 0.010200          0.123778
  12         V                 0.024461          0.040579
  13         V                 0.024461          0.040579
  14         V                 0.027713          0.028856
  15         V                 0.059036          0.233390
 Total kinetic energy from orbitals= 9.846457552367D+01
                          Isotropic Fermi Contact Couplings
        Atom                 a.u.       MegaHertz       Gauss      10(-4) cm-1
     1  Co(59)             0.00041       0.21736       0.07756       0.07250
     2  H(1)               0.01345      30.05586      10.72468      10.02556
 --------------------------------------------------------
       Center         ----  Spin Dipole Couplings  ----
                      3XX-RR        3YY-RR        3ZZ-RR
 --------------------------------------------------------
     1   Atom        0.082494      0.082448     -0.164942
     2   Atom       -0.180046     -0.180047      0.360093
 --------------------------------------------------------
                        XY            XZ            YZ
 --------------------------------------------------------
     1   Atom        0.000000      0.000000      0.000000
     2   Atom        0.000000      0.000000      0.000000
 --------------------------------------------------------


 ---------------------------------------------------------------------------------
              Anisotropic Spin Dipole Couplings in Principal Axis System
 ---------------------------------------------------------------------------------

       Atom             a.u.   MegaHertz   Gauss  10(-4) cm-1        Axes

              Baa    -0.1649   -20.829    -7.432    -6.948  0.0000  0.0000  1.0000
     1 Co(59) Bbb     0.0824    10.411     3.715     3.473 -0.0000  1.0000  0.0000
              Bcc     0.0825    10.417     3.717     3.475  1.0000  0.0000  0.0000
 
              Baa    -0.1800   -96.064   -34.278   -32.044 -0.0000  1.0000  0.0000
     2 H(1)   Bbb    -0.1800   -96.064   -34.278   -32.044  1.0000  0.0000  0.0000
              Bcc     0.3601   192.129    68.556    64.087  0.0000  0.0000  1.0000
 

 ---------------------------------------------------------------------------------

 No NMR shielding tensors so no spin-rotation constants.
 Leave Link  601 at Sun Apr 22 04:36:59 2018, MaxMem= 10737418240 cpu:             180.5 elap:               5.9
 (Enter /home1/apps/gaussian/16rA.03/g16/l9999.exe)

 Test job not archived.
 1\1\GINC-C426-093\SP\ROCCSD(T)-Full\Gen\Co1H1(3)\GWANG18\22-Apr-2018\0
 \\#P ROCCSD(T)=(MaxCyc=150, Full)/Gen SCF=(maxcycle=400, vshift=200) P
 seudo=Read Integral(NoXCTest) Pop=Regular MaxDisk=500GB Guess=Read IOp
 (5/15=2)\\CoH\\0,3\Co,0,0.,0.,0.\H,0,0.,0.,1.1\\Version=ES64L-G16RevA.
 03\HF=-145.3091774\MP2=-146.2636958\MP3=-146.1527536\PUHF=-145.3091774
 \PMP2-0=-146.2636958\MP4SDQ=-146.2317957\CCSD=-146.2034717\CCSD(T)=-14
 6.2382822\RMSD=8.364e-09\PG=C*V [C*(H1Co1)]\\@


 Everything starts as somebody's daydream.
                           -- Larry Niven
 Job cpu time:       0 days 23 hours 50 minutes 29.8 seconds.
 Elapsed time:       0 days  0 hours 44 minutes 55.3 seconds.
 File lengths (MBytes):  RWF=   8942 Int=      0 D2E=      0 Chk=     12 Scr=      1
 Normal termination of Gaussian 16 at Sun Apr 22 04:36:59 2018.
