 Entering Gaussian System, Link 0=g16
 Initial command:
 /home1/apps/gaussian/16rA.03/g16/l1.exe "/tmp/Gau-6416.inp" -scrdir="/tmp/"
 Entering Link 1 = /home1/apps/gaussian/16rA.03/g16/l1.exe PID=      6417.
  
 Copyright (c) 1988,1990,1992,1993,1995,1998,2003,2009,2016,
            Gaussian, Inc.  All Rights Reserved.
  
 This is part of the Gaussian(R) 16 program.  It is based on
 the Gaussian(R) 09 system (copyright 2009, Gaussian, Inc.),
 the Gaussian(R) 03 system (copyright 2003, Gaussian, Inc.),
 the Gaussian(R) 98 system (copyright 1998, Gaussian, Inc.),
 the Gaussian(R) 94 system (copyright 1995, Gaussian, Inc.),
 the Gaussian 92(TM) system (copyright 1992, Gaussian, Inc.),
 the Gaussian 90(TM) system (copyright 1990, Gaussian, Inc.),
 the Gaussian 88(TM) system (copyright 1988, Gaussian, Inc.),
 the Gaussian 86(TM) system (copyright 1986, Carnegie Mellon
 University), and the Gaussian 82(TM) system (copyright 1983,
 Carnegie Mellon University). Gaussian is a federally registered
 trademark of Gaussian, Inc.
  
 This software contains proprietary and confidential information,
 including trade secrets, belonging to Gaussian, Inc.
  
 This software is provided under written license and may be
 used, copied, transmitted, or stored only in accord with that
 written license.
  
 The following legend is applicable only to US Government
 contracts under FAR:
  
                    RESTRICTED RIGHTS LEGEND
  
 Use, reproduction and disclosure by the US Government is
 subject to restrictions as set forth in subparagraphs (a)
 and (c) of the Commercial Computer Software - Restricted
 Rights clause in FAR 52.227-19.
  
 Gaussian, Inc.
 340 Quinnipiac St., Bldg. 40, Wallingford CT 06492
  
  
 ---------------------------------------------------------------
 Warning -- This program may not be used in any manner that
 competes with the business of Gaussian, Inc. or will provide
 assistance to any competitor of Gaussian, Inc.  The licensee
 of this program is prohibited from giving any competitor of
 Gaussian, Inc. access to this program.  By using this program,
 the user acknowledges that Gaussian, Inc. is engaged in the
 business of creating and licensing software in the field of
 computational chemistry and represents and warrants to the
 licensee that it is not a competitor of Gaussian, Inc. and that
 it will not use this program in any manner prohibited above.
 ---------------------------------------------------------------
  

 Cite this work as:
 Gaussian 16, Revision A.03,
 M. J. Frisch, G. W. Trucks, H. B. Schlegel, G. E. Scuseria, 
 M. A. Robb, J. R. Cheeseman, G. Scalmani, V. Barone, 
 G. A. Petersson, H. Nakatsuji, X. Li, M. Caricato, A. V. Marenich, 
 J. Bloino, B. G. Janesko, R. Gomperts, B. Mennucci, H. P. Hratchian, 
 J. V. Ortiz, A. F. Izmaylov, J. L. Sonnenberg, D. Williams-Young, 
 F. Ding, F. Lipparini, F. Egidi, J. Goings, B. Peng, A. Petrone, 
 T. Henderson, D. Ranasinghe, V. G. Zakrzewski, J. Gao, N. Rega, 
 G. Zheng, W. Liang, M. Hada, M. Ehara, K. Toyota, R. Fukuda, 
 J. Hasegawa, M. Ishida, T. Nakajima, Y. Honda, O. Kitao, H. Nakai, 
 T. Vreven, K. Throssell, J. A. Montgomery, Jr., J. E. Peralta, 
 F. Ogliaro, M. J. Bearpark, J. J. Heyd, E. N. Brothers, K. N. Kudin, 
 V. N. Staroverov, T. A. Keith, R. Kobayashi, J. Normand, 
 K. Raghavachari, A. P. Rendell, J. C. Burant, S. S. Iyengar, 
 J. Tomasi, M. Cossi, J. M. Millam, M. Klene, C. Adamo, R. Cammi, 
 J. W. Ochterski, R. L. Martin, K. Morokuma, O. Farkas, 
 J. B. Foresman, and D. J. Fox, Gaussian, Inc., Wallingford CT, 2016.
 
 ******************************************
 Gaussian 16:  ES64L-G16RevA.03 25-Dec-2016
                22-Apr-2018 
 ******************************************
 %mem=160GB
 %cpu=0-31
 SetSPE:  set environment variable "MP_BIND" = "yes"
 SetSPE:  set environment variable "MP_BLIST" = "0,1,2,3,4,5,6,7,8,9,10,11,12,13,14,15,16,17,18,19,20,21,22,23,24,25,26,27,28,29,30,31"
 Will use up to   32 processors via shared memory.
 %chk=tz.chk
 %rwf=/scratch/04843/gwang18/znh/
 ----------------------------------------------------------------------
 #P ROCCSD(T)=(MaxCyc=150, Full)/Gen SCF=(maxcycle=400, vshift=200) Pse
 udo=Read Integral(NoXCTest) Pop=Regular MaxDisk=500GB Guess=Read IOp(5
 /15=2)
 ----------------------------------------------------------------------
 1/38=1,172=1/1;
 2/12=2,17=6,18=5,40=1/2;
 3/5=7,11=2,16=1,17=8,25=1,30=1,47=8,116=101/1,2,3;
 4/5=1/1;
 5/5=2,7=400,10=200,15=2,38=6/2;
 8/5=-1,6=4,9=120000,10=90/1,4;
 9/5=7,6=150,14=2/13;
 6//1;
 99/5=1,9=1/99;
 Leave Link    1 at Sun Apr 22 22:58:38 2018, MaxMem= 21474836480 cpu:               2.5 elap:               0.1
 (Enter /home1/apps/gaussian/16rA.03/g16/l101.exe)
 ---
 FeH
 ---
 Symbolic Z-matrix:
 Charge =  0 Multiplicity = 4
 Fe                    0.        0.        0. 
 H                     0.        0.        1.8 
 
 ITRead=  0  0
 MicOpt= -1 -1
 NAtoms=      2 NQM=        2 NQMF=       0 NMMI=      0 NMMIF=      0
                NMic=       0 NMicF=      0.
                    Isotopes and Nuclear Properties:
 (Nuclear quadrupole moments (NQMom) in fm**2, nuclear magnetic moments (NMagM)
  in nuclear magnetons)

  Atom         1           2
 IAtWgt=          56           1
 AtmWgt=  55.9349393   1.0078250
 NucSpn=           0           1
 AtZEff=  -0.0000000  -0.0000000
 NQMom=    0.0000000   0.0000000
 NMagM=    0.0000000   2.7928460
 AtZNuc=  26.0000000   1.0000000
 Leave Link  101 at Sun Apr 22 22:58:38 2018, MaxMem= 21474836480 cpu:               2.8 elap:               0.1
 (Enter /home1/apps/gaussian/16rA.03/g16/l202.exe)
                          Input orientation:                          
 ---------------------------------------------------------------------
 Center     Atomic      Atomic             Coordinates (Angstroms)
 Number     Number       Type             X           Y           Z
 ---------------------------------------------------------------------
      1         26           0        0.000000    0.000000    0.000000
      2          1           0        0.000000    0.000000    1.800000
 ---------------------------------------------------------------------
 Stoichiometry    FeH(4)
 Framework group  C*V[C*(HFe)]
 Deg. of freedom     1
 Full point group                 C*V     NOp   4
 Largest Abelian subgroup         C2V     NOp   4
 Largest concise Abelian subgroup C1      NOp   1
                         Standard orientation:                         
 ---------------------------------------------------------------------
 Center     Atomic      Atomic             Coordinates (Angstroms)
 Number     Number       Type             X           Y           Z
 ---------------------------------------------------------------------
      1         26           0        0.000000    0.000000    0.066667
      2          1           0        0.000000    0.000000   -1.733333
 ---------------------------------------------------------------------
 Rotational constants (GHZ):           0.0000000         157.5587119         157.5587119
 Leave Link  202 at Sun Apr 22 22:58:38 2018, MaxMem= 21474836480 cpu:               0.5 elap:               0.0
 (Enter /home1/apps/gaussian/16rA.03/g16/l301.exe)
 General basis read from cards:  (5D, 7F)
 Centers:       1
 S 1 1.00
     Exponent=  4.3162650000D+06 Coefficients=  1.0000000000D+00
 S 1 1.00
     Exponent=  6.4634240000D+05 Coefficients=  1.0000000000D+00
 S 1 1.00
     Exponent=  1.4708970000D+05 Coefficients=  1.0000000000D+00
 S 1 1.00
     Exponent=  4.1661520000D+04 Coefficients=  1.0000000000D+00
 S 1 1.00
     Exponent=  1.3590770000D+04 Coefficients=  1.0000000000D+00
 S 1 1.00
     Exponent=  4.9057500000D+03 Coefficients=  1.0000000000D+00
 S 1 1.00
     Exponent=  1.9127460000D+03 Coefficients=  1.0000000000D+00
 S 1 1.00
     Exponent=  7.9260430000D+02 Coefficients=  1.0000000000D+00
 S 1 1.00
     Exponent=  3.4480650000D+02 Coefficients=  1.0000000000D+00
 S 1 1.00
     Exponent=  1.5589990000D+02 Coefficients=  1.0000000000D+00
 S 1 1.00
     Exponent=  7.2230910000D+01 Coefficients=  1.0000000000D+00
 S 1 1.00
     Exponent=  3.2725060000D+01 Coefficients=  1.0000000000D+00
 S 1 1.00
     Exponent=  1.5667620000D+01 Coefficients=  1.0000000000D+00
 S 1 1.00
     Exponent=  7.5034830000D+00 Coefficients=  1.0000000000D+00
 S 1 1.00
     Exponent=  3.3122230000D+00 Coefficients=  1.0000000000D+00
 S 1 1.00
     Exponent=  1.5584710000D+00 Coefficients=  1.0000000000D+00
 S 1 1.00
     Exponent=  6.8391400000D-01 Coefficients=  1.0000000000D+00
 S 1 1.00
     Exponent=  1.4675700000D-01 Coefficients=  1.0000000000D+00
 S 1 1.00
     Exponent=  7.0583000000D-02 Coefficients=  1.0000000000D+00
 S 1 1.00
     Exponent=  3.1449000000D-02 Coefficients=  1.0000000000D+00
 S 1 1.00
     Exponent=  4.6844000000D+00 Coefficients=  1.0000000000D+00
 S 1 1.00
     Exponent=  1.2204000000D+00 Coefficients=  1.0000000000D+00
 S 1 1.00
     Exponent=  1.4010000000D-02 Coefficients=  1.0000000000D+00
 P 1 1.00
     Exponent=  1.7745690000D+04 Coefficients=  1.0000000000D+00
 P 1 1.00
     Exponent=  4.2007210000D+03 Coefficients=  1.0000000000D+00
 P 1 1.00
     Exponent=  1.3644290000D+03 Coefficients=  1.0000000000D+00
 P 1 1.00
     Exponent=  5.2208060000D+02 Coefficients=  1.0000000000D+00
 P 1 1.00
     Exponent=  2.2145950000D+02 Coefficients=  1.0000000000D+00
 P 1 1.00
     Exponent=  1.0090960000D+02 Coefficients=  1.0000000000D+00
 P 1 1.00
     Exponent=  4.8401150000D+01 Coefficients=  1.0000000000D+00
 P 1 1.00
     Exponent=  2.3985360000D+01 Coefficients=  1.0000000000D+00
 P 1 1.00
     Exponent=  1.2182500000D+01 Coefficients=  1.0000000000D+00
 P 1 1.00
     Exponent=  6.2422980000D+00 Coefficients=  1.0000000000D+00
 P 1 1.00
     Exponent=  3.1109440000D+00 Coefficients=  1.0000000000D+00
 P 1 1.00
     Exponent=  1.5099580000D+00 Coefficients=  1.0000000000D+00
 P 1 1.00
     Exponent=  7.1084500000D-01 Coefficients=  1.0000000000D+00
 P 1 1.00
     Exponent=  2.7259800000D-01 Coefficients=  1.0000000000D+00
 P 1 1.00
     Exponent=  1.0397200000D-01 Coefficients=  1.0000000000D+00
 P 1 1.00
     Exponent=  3.8166000000D-02 Coefficients=  1.0000000000D+00
 P 1 1.00
     Exponent=  6.8788000000D+00 Coefficients=  1.0000000000D+00
 P 1 1.00
     Exponent=  1.5748000000D+00 Coefficients=  1.0000000000D+00
 P 1 1.00
     Exponent=  1.4010000000D-02 Coefficients=  1.0000000000D+00
 D 1 1.00
     Exponent=  1.1488400000D+02 Coefficients=  1.0000000000D+00
 D 1 1.00
     Exponent=  3.3887800000D+01 Coefficients=  1.0000000000D+00
 D 1 1.00
     Exponent=  1.2373000000D+01 Coefficients=  1.0000000000D+00
 D 1 1.00
     Exponent=  4.9992500000D+00 Coefficients=  1.0000000000D+00
 D 1 1.00
     Exponent=  2.0704300000D+00 Coefficients=  1.0000000000D+00
 D 1 1.00
     Exponent=  8.2818300000D-01 Coefficients=  1.0000000000D+00
 D 1 1.00
     Exponent=  3.0754700000D-01 Coefficients=  1.0000000000D+00
 D 1 1.00
     Exponent=  9.9455000000D-02 Coefficients=  1.0000000000D+00
 D 1 1.00
     Exponent=  4.5305000000D+00 Coefficients=  1.0000000000D+00
 D 1 1.00
     Exponent=  2.1205000000D+00 Coefficients=  1.0000000000D+00
 D 1 1.00
     Exponent=  3.2160000000D-02 Coefficients=  1.0000000000D+00
 F 1 1.00
     Exponent=  6.0066000000D+00 Coefficients=  1.0000000000D+00
 F 1 1.00
     Exponent=  2.2522000000D+00 Coefficients=  1.0000000000D+00
 F 1 1.00
     Exponent=  7.7580000000D-01 Coefficients=  1.0000000000D+00
 F 1 1.00
     Exponent=  2.6723000000D-01 Coefficients=  1.0000000000D+00
 G 1 1.00
     Exponent=  5.5068000000D+00 Coefficients=  1.0000000000D+00
 G 1 1.00
     Exponent=  2.0515000000D+00 Coefficients=  1.0000000000D+00
 G 1 1.00
     Exponent=  7.6426000000D-01 Coefficients=  1.0000000000D+00
 ****
 Centers:       2
 S 1 1.00
     Exponent=  3.3870000000D+01 Coefficients=  1.0000000000D+00
 S 1 1.00
     Exponent=  5.0950000000D+00 Coefficients=  1.0000000000D+00
 S 1 1.00
     Exponent=  1.1590000000D+00 Coefficients=  1.0000000000D+00
 S 1 1.00
     Exponent=  3.2580000000D-01 Coefficients=  1.0000000000D+00
 S 1 1.00
     Exponent=  1.0270000000D-01 Coefficients=  1.0000000000D+00
 S 1 1.00
     Exponent=  2.5260000000D-02 Coefficients=  1.0000000000D+00
 P 1 1.00
     Exponent=  1.4070000000D+00 Coefficients=  1.0000000000D+00
 P 1 1.00
     Exponent=  3.8800000000D-01 Coefficients=  1.0000000000D+00
 P 1 1.00
     Exponent=  1.0200000000D-01 Coefficients=  1.0000000000D+00
 D 1 1.00
     Exponent=  1.0570000000D+00 Coefficients=  1.0000000000D+00
 D 1 1.00
     Exponent=  2.4700000000D-01 Coefficients=  1.0000000000D+00
 ****
 ======================================================================================================
                                       Pseudopotential Parameters
 ======================================================================================================
  Center     Atomic      Valence      Angular      Power
  Number     Number     Electrons     Momentum     of R      Exponent        Coefficient   SO-Coeffient
 ======================================================================================================
    1         26           16
                                      D and up 
                                                     1       23.2209171       16.00000000    0.00000000
                                                     3       23.5471468      371.53467418    0.00000000
                                                     2       23.4725634     -181.22603445    0.00000000
                                                     2        9.8523882       -2.37305236    0.00000000
                                      S - D
                                                     2       22.2106270      277.50032547    0.00000000
                                                     2        9.5151580       46.20495585    0.00000000
                                      P - D
                                                     2       24.5700087      194.99875057    0.00000000
                                                     2        8.8664878       31.67945133    0.00000000
    2          1            1
                                      P and up 
                                                     2       21.7769666      -10.85192405    0.00000000
                                                     1       21.2435951        1.00000000    0.00000000
                                                     3       21.2435951       21.24359508    0.00000000
                                      S - P
                                                     2        1.0000000        0.00000000    0.00000000
 ======================================================================================================
 Ernie: Thresh=  0.10000D-02 Tol=  0.10000D-05 Strict=F.
 There are   120 symmetry adapted cartesian basis functions of A1  symmetry.
 There are    26 symmetry adapted cartesian basis functions of A2  symmetry.
 There are    56 symmetry adapted cartesian basis functions of B1  symmetry.
 There are    56 symmetry adapted cartesian basis functions of B2  symmetry.
 There are    94 symmetry adapted basis functions of A1  symmetry.
 There are    23 symmetry adapted basis functions of A2  symmetry.
 There are    49 symmetry adapted basis functions of B1  symmetry.
 There are    49 symmetry adapted basis functions of B2  symmetry.
   215 basis functions,   258 primitive gaussians,   258 cartesian basis functions
    10 alpha electrons        7 beta electrons
       nuclear repulsion energy         4.7037974304 Hartrees.
 IExCor=    0 DFT=F Ex=HF Corr=None ExCW=0 ScaHFX=  1.000000
 ScaDFX=  1.000000  1.000000  1.000000  1.000000 ScalE2=  1.000000  1.000000
 IRadAn=      5 IRanWt=     -1 IRanGd=            0 ICorTp=0 IEmpDi=  4
 NAtoms=    2 NActive=    2 NUniq=    2 SFac= 1.00D+00 NAtFMM=   60 NAOKFM=F Big=F
 Integral buffers will be    131072 words long.
 Raffenetti 2 integral format.
 Two-electron integral symmetry is turned on.
 Leave Link  301 at Sun Apr 22 22:58:39 2018, MaxMem= 21474836480 cpu:               3.1 elap:               0.1
 (Enter /home1/apps/gaussian/16rA.03/g16/l302.exe)
 NPDir=0 NMtPBC=     1 NCelOv=     1 NCel=       1 NClECP=     1 NCelD=      1
         NCelK=      1 NCelE2=     1 NClLst=     1 CellRange=     0.0.
 One-electron integrals computed using PRISM.
 One-electron integral symmetry used in STVInt
   4 Symmetry operations used in ECPInt.
 ECPInt:  NShTT=    2556 NPrTT=    2556 LenC2=    2524 LenP2D=    2523.
 LDataN:  DoStor=T MaxTD1= 8 Len=  415
 NBasis=   215 RedAO= T EigKep=  2.50D-06  NBF=    94    23    49    49
 NBsUse=   212 1.00D-06 EigRej=  9.71D-07 NBFU=    93    23    48    48
 Leave Link  302 at Sun Apr 22 22:58:39 2018, MaxMem= 21474836480 cpu:               7.2 elap:               0.3
 (Enter /home1/apps/gaussian/16rA.03/g16/l303.exe)
 DipDrv:  MaxL=1.
 Leave Link  303 at Sun Apr 22 22:58:39 2018, MaxMem= 21474836480 cpu:               1.1 elap:               0.1
 (Enter /home1/apps/gaussian/16rA.03/g16/l401.exe)
 Initial guess from the checkpoint file:  "tz.chk"
 B after Tr=     0.000000    0.000000   -0.000000
         Rot=    1.000000    0.000000    0.000000    0.000000 Ang=   0.00 deg.
 Guess basis will be translated and rotated to current coordinates.
 JPrj=2 DoOrth=T DoCkMO=T.
 Initial guess orbital symmetries:
       Occupied  (SG) (SG) (PI) (PI) (SG) (?A) (SG) (PI) (PI) (?A)
       Virtual   (SG) (PI) (PI) (SG) (SG) (PI) (PI) (SG) (DLTA)
                 (DLTA) (PI) (PI) (SG) (SG) (SG) (PI) (PI) (SG)
                 (PI) (PI) (?A) (?A) (SG) (PI) (PI) (SG) (SG) (SG)
                 (DLTA) (DLTA) (PI) (PI) (SG) (PHI) (PHI) (PI)
                 (PI) (SG) (PI) (PI) (?A) (?A) (PI) (PI) (SG) (?A)
                 (?A) (SG) (PI) (PI) (SG) (SG) (SG) (?B) (?B) (?B)
                 (?B) (DLTA) (?B) (?B) (DLTA) (SG) (SG) (PI) (PI)
                 (SG) (DLTA) (DLTA) (DLTA) (DLTA) (PHI) (PHI) (?C)
                 (?C) (PI) (PI) (DLTA) (DLTA) (SG) (PI) (PI) (PI)
                 (PI) (SG) (SG) (SG) (?D) (?D) (DLTA) (DLTA) (PI)
                 (PI) (SG) (DLTA) (DLTA) (?D) (?D) (PI) (PI) (SG)
                 (SG) (?D) (?D) (?E) (?E) (DLTA) (DLTA) (?D) (?D)
                 (?E) (SG) (SG) (DLTA) (DLTA) (PI) (PI) (SG) (PI)
                 (PI) (SG) (?D) (?D) (DLTA) (DLTA) (?D) (?D) (SG)
                 (?D) (?D) (?F) (?F) (DLTA) (DLTA) (?D) (?D) (?F)
                 (SG) (DLTA) (DLTA) (PI) (PI) (SG) (PI) (PI) (SG)
                 (DLTA) (DLTA) (PI) (PI) (SG) (SG) (SG) (PI) (PI)
                 (SG) (SG) (DLTA) (DLTA) (PI) (PI) (SG) (PI) (PI)
                 (SG) (SG) (PI) (PI) (SG) (SG) (DLTA) (DLTA) (PI)
                 (PI) (SG) (PI) (PI) (SG) (SG) (PI) (PI) (SG) (SG)
                 (PI) (PI) (SG) (SG) (PI) (PI) (SG) (SG) (PI) (PI)
                 (SG) (SG) (SG) (PI) (PI) (SG) (SG) (SG) (SG) (SG)
 Leave Link  401 at Sun Apr 22 22:58:39 2018, MaxMem= 21474836480 cpu:               4.7 elap:               0.2
 (Enter /home1/apps/gaussian/16rA.03/g16/l502.exe)
 Keep R1 and R2 ints in memory in symmetry-blocked form, NReq=338797193.
 FoFCou: FMM=F IPFlag=           8 FMFlag=           0 FMFlg1=           0
         NFxFlg=           0 DoJE=F BraDBF=F KetDBF=F FulRan=T
         wScrn=  0.000000 ICntrl=       600 IOpCl=  0 I1Cent=           0 NGrid=           0
         NMat0=    1 NMatS0=  23220 NMatT0=    0 NMatD0=    1 NMtDS0=    0 NMtDT0=    0
 Petite list used in FoFCou.
 Restricted open shell SCF:
 Using DIIS extrapolation, IDIIS=  1040.
 NGot= 21474836480 LenX= 21336348183 LenY= 21336281178
 Requested convergence on RMS density matrix=1.00D-08 within 400 cycles.
 Requested convergence on MAX density matrix=1.00D-06.
 Requested convergence on             energy=1.00D-06.
 Virtual orbitals will be shifted by   0.200 hartree.
 No special actions if energy rises.

 Cycle   1  Pass 1  IDiag  1:
 E= -123.002219254107    
 DIIS: error= 2.33D-01 at cycle   1 NSaved=   1.
 NSaved= 1 IEnMin= 1 EnMin= -123.002219254107     IErMin= 1 ErrMin= 2.33D-01
 ErrMax= 2.33D-01  0.00D+00 EMaxC= 1.00D-01 BMatC= 5.85D+00 BMatP= 5.85D+00
 IDIUse=3 WtCom= 0.00D+00 WtEn= 1.00D+00
 Coeff-Com:  0.100D+01
 Coeff-En:   0.100D+01
 Coeff:      0.100D+01
 Gap=     0.030 Goal=   None    Shift=    0.200
 GapD=    0.030 DampG=0.250 DampE=0.125 DampFc=0.1250 IDamp=-1.
 Damping current iteration by 1.25D-01
 RMSDP=3.72D-03 MaxDP=2.99D-01              OVMax= 2.86D-02

 Cycle   2  Pass 1  IDiag  1:
 E= -123.015511007641     Delta-E=       -0.013291753534 Rises=F Damp=T
 DIIS: error= 2.02D-01 at cycle   2 NSaved=   2.
 NSaved= 2 IEnMin= 2 EnMin= -123.015511007641     IErMin= 2 ErrMin= 2.02D-01
 ErrMax= 2.02D-01  0.00D+00 EMaxC= 1.00D-01 BMatC= 4.47D+00 BMatP= 5.85D+00
 IDIUse=3 WtCom= 0.00D+00 WtEn= 1.00D+00
 Coeff-Com: -0.694D+01 0.794D+01
 Coeff-En:   0.000D+00 0.100D+01
 Coeff:      0.000D+00 0.100D+01
 Gap=     0.009 Goal=   None    Shift=    0.200
 RMSDP=3.26D-03 MaxDP=2.63D-01 DE=-1.33D-02 OVMax= 6.58D-03

 Cycle   3  Pass 1  IDiag  1:
 E= -123.110437271792     Delta-E=       -0.094926264151 Rises=F Damp=F
 DIIS: error= 6.43D-03 at cycle   3 NSaved=   3.
 NSaved= 3 IEnMin= 3 EnMin= -123.110437271792     IErMin= 3 ErrMin= 6.43D-03
 ErrMax= 6.43D-03  0.00D+00 EMaxC= 1.00D-01 BMatC= 2.86D-03 BMatP= 4.47D+00
 IDIUse=3 WtCom= 9.36D-01 WtEn= 6.43D-02
 Coeff-Com:  0.594D+00-0.694D+00 0.110D+01
 Coeff-En:   0.000D+00 0.000D+00 0.100D+01
 Coeff:      0.556D+00-0.649D+00 0.109D+01
 Gap=     0.021 Goal=   None    Shift=    0.200
 RMSDP=1.59D-04 MaxDP=1.05D-02 DE=-9.49D-02 OVMax= 1.64D-02

 Cycle   4  Pass 1  IDiag  1:
 E= -123.111148764138     Delta-E=       -0.000711492346 Rises=F Damp=F
 DIIS: error= 5.16D-03 at cycle   4 NSaved=   4.
 NSaved= 4 IEnMin= 4 EnMin= -123.111148764138     IErMin= 4 ErrMin= 5.16D-03
 ErrMax= 5.16D-03  0.00D+00 EMaxC= 1.00D-01 BMatC= 1.54D-03 BMatP= 2.86D-03
 IDIUse=3 WtCom= 9.48D-01 WtEn= 5.16D-02
 Coeff-Com: -0.179D+00 0.199D+00 0.428D+00 0.551D+00
 Coeff-En:   0.000D+00 0.000D+00 0.152D+00 0.848D+00
 Coeff:     -0.169D+00 0.189D+00 0.414D+00 0.567D+00
 Gap=     0.009 Goal=   None    Shift=    0.200
 RMSDP=5.98D-05 MaxDP=1.91D-03 DE=-7.11D-04 OVMax= 6.74D-03

 Cycle   5  Pass 1  IDiag  1:
 E= -123.111712164662     Delta-E=       -0.000563400523 Rises=F Damp=F
 DIIS: error= 1.06D-03 at cycle   5 NSaved=   5.
 NSaved= 5 IEnMin= 5 EnMin= -123.111712164662     IErMin= 5 ErrMin= 1.06D-03
 ErrMax= 1.06D-03  0.00D+00 EMaxC= 1.00D-01 BMatC= 8.03D-05 BMatP= 1.54D-03
 IDIUse=3 WtCom= 9.89D-01 WtEn= 1.06D-02
 Coeff-Com: -0.261D+00 0.299D+00-0.106D+00-0.203D+00 0.127D+01
 Coeff-En:   0.000D+00 0.000D+00 0.000D+00 0.000D+00 0.100D+01
 Coeff:     -0.258D+00 0.296D+00-0.105D+00-0.201D+00 0.127D+01
 Gap=     0.008 Goal=   None    Shift=    0.200
 RMSDP=5.93D-05 MaxDP=2.90D-03 DE=-5.63D-04 OVMax= 9.71D-03

 Cycle   6  Pass 1  IDiag  1:
 E= -123.111960928143     Delta-E=       -0.000248763481 Rises=F Damp=F
 DIIS: error= 9.61D-04 at cycle   6 NSaved=   6.
 NSaved= 6 IEnMin= 6 EnMin= -123.111960928143     IErMin= 6 ErrMin= 9.61D-04
 ErrMax= 9.61D-04  0.00D+00 EMaxC= 1.00D-01 BMatC= 5.16D-05 BMatP= 8.03D-05
 IDIUse=3 WtCom= 9.90D-01 WtEn= 9.61D-03
 Coeff-Com: -0.356D+00 0.407D+00-0.399D-01 0.489D-02-0.112D+01 0.210D+01
 Coeff-En:   0.000D+00 0.000D+00 0.000D+00 0.000D+00 0.000D+00 0.100D+01
 Coeff:     -0.353D+00 0.403D+00-0.395D-01 0.484D-02-0.111D+01 0.209D+01
 Gap=     0.007 Goal=   None    Shift=    0.200
 RMSDP=6.67D-05 MaxDP=3.02D-03 DE=-2.49D-04 OVMax= 1.18D-02

 Cycle   7  Pass 1  IDiag  1:
 E= -123.112209466026     Delta-E=       -0.000248537883 Rises=F Damp=F
 DIIS: error= 7.78D-04 at cycle   7 NSaved=   7.
 NSaved= 7 IEnMin= 7 EnMin= -123.112209466026     IErMin= 7 ErrMin= 7.78D-04
 ErrMax= 7.78D-04  0.00D+00 EMaxC= 1.00D-01 BMatC= 3.79D-05 BMatP= 5.16D-05
 IDIUse=3 WtCom= 9.92D-01 WtEn= 7.78D-03
 Coeff-Com: -0.370D+00 0.423D+00-0.360D-01 0.552D-01-0.951D+00 0.660D+00
 Coeff-Com:  0.122D+01
 Coeff-En:   0.000D+00 0.000D+00 0.000D+00 0.000D+00 0.000D+00 0.000D+00
 Coeff-En:   0.100D+01
 Coeff:     -0.367D+00 0.420D+00-0.357D-01 0.548D-01-0.944D+00 0.655D+00
 Coeff:      0.122D+01
 Gap=     0.005 Goal=   None    Shift=    0.200
 RMSDP=5.60D-05 MaxDP=2.57D-03 DE=-2.49D-04 OVMax= 1.02D-02

 Cycle   8  Pass 1  IDiag  1:
 E= -123.112372548543     Delta-E=       -0.000163082517 Rises=F Damp=F
 DIIS: error= 6.38D-04 at cycle   8 NSaved=   8.
 NSaved= 8 IEnMin= 8 EnMin= -123.112372548543     IErMin= 8 ErrMin= 6.38D-04
 ErrMax= 6.38D-04  0.00D+00 EMaxC= 1.00D-01 BMatC= 2.82D-05 BMatP= 3.79D-05
 IDIUse=3 WtCom= 9.94D-01 WtEn= 6.38D-03
 Coeff-Com: -0.334D+00 0.382D+00-0.629D-01 0.322D-01 0.157D+00-0.593D+00
 Coeff-Com: -0.439D+00 0.186D+01
 Coeff-En:   0.000D+00 0.000D+00 0.000D+00 0.000D+00 0.000D+00 0.000D+00
 Coeff-En:   0.000D+00 0.100D+01
 Coeff:     -0.332D+00 0.380D+00-0.625D-01 0.320D-01 0.156D+00-0.589D+00
 Coeff:     -0.436D+00 0.185D+01
 Gap=     0.004 Goal=   None    Shift=    0.200
 RMSDP=5.63D-05 MaxDP=2.37D-03 DE=-1.63D-04 OVMax= 9.79D-03

 Cycle   9  Pass 1  IDiag  1:
 E= -123.112488822057     Delta-E=       -0.000116273514 Rises=F Damp=F
 DIIS: error= 5.61D-04 at cycle   9 NSaved=   9.
 NSaved= 9 IEnMin= 9 EnMin= -123.112488822057     IErMin= 9 ErrMin= 5.61D-04
 ErrMax= 5.61D-04  0.00D+00 EMaxC= 1.00D-01 BMatC= 2.05D-05 BMatP= 2.82D-05
 IDIUse=3 WtCom= 9.94D-01 WtEn= 5.61D-03
 Coeff-Com: -0.259D+00 0.296D+00-0.702D-01 0.188D-01 0.596D+00-0.707D+00
 Coeff-Com: -0.997D+00 0.103D+01 0.110D+01
 Coeff-En:   0.000D+00 0.000D+00 0.000D+00 0.000D+00 0.000D+00 0.000D+00
 Coeff-En:   0.000D+00 0.000D+00 0.100D+01
 Coeff:     -0.257D+00 0.294D+00-0.698D-01 0.187D-01 0.593D+00-0.703D+00
 Coeff:     -0.991D+00 0.102D+01 0.109D+01
 Gap=     0.004 Goal=   None    Shift=    0.200
 RMSDP=4.08D-05 MaxDP=1.74D-03 DE=-1.16D-04 OVMax= 7.10D-03

 Cycle  10  Pass 1  IDiag  1:
 E= -123.112551424207     Delta-E=       -0.000062602149 Rises=F Damp=F
 DIIS: error= 4.30D-04 at cycle  10 NSaved=  10.
 NSaved=10 IEnMin=10 EnMin= -123.112551424207     IErMin=10 ErrMin= 4.30D-04
 ErrMax= 4.30D-04  0.00D+00 EMaxC= 1.00D-01 BMatC= 1.19D-05 BMatP= 2.05D-05
 IDIUse=3 WtCom= 9.96D-01 WtEn= 4.30D-03
 Coeff-Com: -0.160D+00 0.183D+00-0.424D-01 0.709D-02 0.214D+00-0.100D+00
 Coeff-Com: -0.413D+00 0.155D+00-0.586D+00 0.174D+01
 Coeff-En:   0.000D+00 0.000D+00 0.000D+00 0.000D+00 0.000D+00 0.000D+00
 Coeff-En:   0.000D+00 0.000D+00 0.000D+00 0.100D+01
 Coeff:     -0.160D+00 0.183D+00-0.422D-01 0.706D-02 0.213D+00-0.996D-01
 Coeff:     -0.411D+00 0.155D+00-0.583D+00 0.174D+01
 Gap=     0.004 Goal=   None    Shift=    0.200
 RMSDP=3.26D-05 MaxDP=1.44D-03 DE=-6.26D-05 OVMax= 5.50D-03

 Cycle  11  Pass 1  IDiag  1:
 E= -123.112582992700     Delta-E=       -0.000031568493 Rises=F Damp=F
 DIIS: error= 2.85D-04 at cycle  11 NSaved=  11.
 NSaved=11 IEnMin=11 EnMin= -123.112582992700     IErMin=11 ErrMin= 2.85D-04
 ErrMax= 2.85D-04  0.00D+00 EMaxC= 1.00D-01 BMatC= 5.29D-06 BMatP= 1.19D-05
 IDIUse=3 WtCom= 9.97D-01 WtEn= 2.85D-03
 Coeff-Com: -0.632D-01 0.723D-01-0.619D-02-0.124D-01-0.187D+00 0.186D+00
 Coeff-Com:  0.366D+00-0.139D-01-0.117D+01-0.319D-01 0.186D+01
 Coeff-En:   0.000D+00 0.000D+00 0.000D+00 0.000D+00 0.000D+00 0.000D+00
 Coeff-En:   0.000D+00 0.000D+00 0.000D+00 0.000D+00 0.100D+01
 Coeff:     -0.630D-01 0.721D-01-0.617D-02-0.124D-01-0.186D+00 0.185D+00
 Coeff:      0.365D+00-0.139D-01-0.117D+01-0.318D-01 0.186D+01
 Gap=     0.004 Goal=   None    Shift=    0.200
 RMSDP=2.35D-05 MaxDP=1.14D-03 DE=-3.16D-05 OVMax= 4.07D-03

 Cycle  12  Pass 1  IDiag  1:
 E= -123.112597755128     Delta-E=       -0.000014762428 Rises=F Damp=F
 DIIS: error= 1.34D-04 at cycle  12 NSaved=  12.
 NSaved=12 IEnMin=12 EnMin= -123.112597755128     IErMin=12 ErrMin= 1.34D-04
 ErrMax= 1.34D-04  0.00D+00 EMaxC= 1.00D-01 BMatC= 1.45D-06 BMatP= 5.29D-06
 IDIUse=3 WtCom= 9.99D-01 WtEn= 1.34D-03
 Coeff-Com:  0.137D-03-0.120D-03 0.184D-02-0.377D-02-0.101D-01-0.101D+00
 Coeff-Com:  0.171D+00 0.267D+00-0.439D+00-0.155D+00-0.494D+00 0.176D+01
 Coeff-En:   0.000D+00 0.000D+00 0.000D+00 0.000D+00 0.000D+00 0.000D+00
 Coeff-En:   0.000D+00 0.000D+00 0.000D+00 0.000D+00 0.000D+00 0.100D+01
 Coeff:      0.137D-03-0.120D-03 0.184D-02-0.377D-02-0.101D-01-0.101D+00
 Coeff:      0.171D+00 0.267D+00-0.438D+00-0.155D+00-0.493D+00 0.176D+01
 Gap=     0.004 Goal=   None    Shift=    0.200
 RMSDP=1.29D-05 MaxDP=6.87D-04 DE=-1.48D-05 OVMax= 2.24D-03

 Cycle  13  Pass 1  IDiag  1:
 E= -123.112602492148     Delta-E=       -0.000004737020 Rises=F Damp=F
 DIIS: error= 5.24D-05 at cycle  13 NSaved=  13.
 NSaved=13 IEnMin=13 EnMin= -123.112602492148     IErMin=13 ErrMin= 5.24D-05
 ErrMax= 5.24D-05  0.00D+00 EMaxC= 1.00D-01 BMatC= 3.61D-07 BMatP= 1.45D-06
 IDIUse=1 WtCom= 1.00D+00 WtEn= 0.00D+00
 Coeff-Com:  0.319D-01-0.364D-01 0.372D-02 0.329D-02 0.936D-01-0.192D+00
 Coeff-Com: -0.358D-01 0.274D+00-0.720D-01 0.206D+00-0.922D+00 0.265D+00
 Coeff-Com:  0.138D+01
 Coeff:      0.319D-01-0.364D-01 0.372D-02 0.329D-02 0.936D-01-0.192D+00
 Coeff:     -0.358D-01 0.274D+00-0.720D-01 0.206D+00-0.922D+00 0.265D+00
 Coeff:      0.138D+01
 Gap=     0.005 Goal=   None    Shift=    0.200
 RMSDP=8.13D-06 MaxDP=4.05D-04 DE=-4.74D-06 OVMax= 1.22D-03

 Cycle  14  Pass 1  IDiag  1:
 E= -123.112603892499     Delta-E=       -0.000001400351 Rises=F Damp=F
 DIIS: error= 7.41D-05 at cycle  14 NSaved=  14.
 NSaved=14 IEnMin=14 EnMin= -123.112603892499     IErMin=13 ErrMin= 5.24D-05
 ErrMax= 7.41D-05  0.00D+00 EMaxC= 1.00D-01 BMatC= 2.65D-07 BMatP= 3.61D-07
 IDIUse=1 WtCom= 1.00D+00 WtEn= 0.00D+00
 Coeff-Com:  0.487D-01-0.556D-01 0.683D-02 0.199D-02 0.246D-01-0.237D-01
 Coeff-Com: -0.204D-01 0.140D-01-0.207D+00 0.389D+00 0.185D+00-0.771D+00
 Coeff-Com: -0.585D+00 0.199D+01
 Coeff:      0.487D-01-0.556D-01 0.683D-02 0.199D-02 0.246D-01-0.237D-01
 Coeff:     -0.204D-01 0.140D-01-0.207D+00 0.389D+00 0.185D+00-0.771D+00
 Coeff:     -0.585D+00 0.199D+01
 Gap=     0.005 Goal=   None    Shift=    0.200
 RMSDP=4.26D-06 MaxDP=1.89D-04 DE=-1.40D-06 OVMax= 7.46D-04

 Cycle  15  Pass 1  IDiag  1:
 E= -123.112604197900     Delta-E=       -0.000000305401 Rises=F Damp=F
 DIIS: error= 8.45D-05 at cycle  15 NSaved=  15.
 NSaved=15 IEnMin=15 EnMin= -123.112604197900     IErMin=13 ErrMin= 5.24D-05
 ErrMax= 8.45D-05  0.00D+00 EMaxC= 1.00D-01 BMatC= 3.53D-07 BMatP= 2.65D-07
 IDIUse=1 WtCom= 1.00D+00 WtEn= 0.00D+00
 Coeff-Com:  0.512D-01-0.585D-01 0.882D-02-0.354D-02-0.456D-02 0.394D-02
 Coeff-Com:  0.547D-01-0.109D-01-0.221D+00 0.184D+00 0.149D+00-0.734D-01
 Coeff-Com: -0.541D+00 0.344D-01 0.143D+01
 Coeff:      0.512D-01-0.585D-01 0.882D-02-0.354D-02-0.456D-02 0.394D-02
 Coeff:      0.547D-01-0.109D-01-0.221D+00 0.184D+00 0.149D+00-0.734D-01
 Coeff:     -0.541D+00 0.344D-01 0.143D+01
 Gap=     0.005 Goal=   None    Shift=    0.200
 RMSDP=2.06D-06 MaxDP=8.72D-05 DE=-3.05D-07 OVMax= 3.57D-04

 Cycle  16  Pass 1  IDiag  1:
 E= -123.112604196910     Delta-E=        0.000000000990 Rises=F Damp=F
 DIIS: error= 8.14D-05 at cycle  16 NSaved=  16.
 NSaved=16 IEnMin=15 EnMin= -123.112604197900     IErMin=13 ErrMin= 5.24D-05
 ErrMax= 8.14D-05  0.00D+00 EMaxC= 1.00D-01 BMatC= 3.82D-07 BMatP= 2.65D-07
 IDIUse=1 WtCom= 1.00D+00 WtEn= 0.00D+00
 Coeff-Com:  0.436D-01-0.498D-01 0.790D-02-0.440D-03-0.162D-02-0.110D-01
 Coeff-Com:  0.160D-01 0.353D-01-0.917D-01 0.715D-01-0.975D-01 0.234D+00
 Coeff-Com: -0.920D-01-0.761D-01-0.101D+01 0.202D+01
 Coeff:      0.436D-01-0.498D-01 0.790D-02-0.440D-03-0.162D-02-0.110D-01
 Coeff:      0.160D-01 0.353D-01-0.917D-01 0.715D-01-0.975D-01 0.234D+00
 Coeff:     -0.920D-01-0.761D-01-0.101D+01 0.202D+01
 Gap=     0.005 Goal=   None    Shift=    0.200
 RMSDP=1.25D-06 MaxDP=7.44D-05 DE= 9.90D-10 OVMax= 1.55D-04

 Cycle  17  Pass 1  IDiag  1:
 E= -123.112604220010     Delta-E=       -0.000000023101 Rises=F Damp=F
 DIIS: error= 7.13D-05 at cycle  17 NSaved=  17.
 NSaved=17 IEnMin=17 EnMin= -123.112604220010     IErMin=13 ErrMin= 5.24D-05
 ErrMax= 7.13D-05  0.00D+00 EMaxC= 1.00D-01 BMatC= 2.83D-07 BMatP= 2.65D-07
 IDIUse=1 WtCom= 1.00D+00 WtEn= 0.00D+00
 Coeff-Com:  0.344D-01-0.394D-01 0.605D-02 0.506D-04 0.367D-02-0.676D-02
 Coeff-Com: -0.102D-01 0.329D-01-0.670D-01 0.961D-01-0.763D-01 0.427D-01
 Coeff-Com: -0.498D-01 0.223D+00-0.324D+00-0.316D+00 0.145D+01
 Coeff:      0.344D-01-0.394D-01 0.605D-02 0.506D-04 0.367D-02-0.676D-02
 Coeff:     -0.102D-01 0.329D-01-0.670D-01 0.961D-01-0.763D-01 0.427D-01
 Coeff:     -0.498D-01 0.223D+00-0.324D+00-0.316D+00 0.145D+01
 Gap=     0.005 Goal=   None    Shift=    0.200
 RMSDP=8.21D-07 MaxDP=4.99D-05 DE=-2.31D-08 OVMax= 5.26D-05

 Cycle  18  Pass 1  IDiag  1:
 E= -123.112604260444     Delta-E=       -0.000000040434 Rises=F Damp=F
 DIIS: error= 5.82D-05 at cycle  18 NSaved=  18.
 NSaved=18 IEnMin=18 EnMin= -123.112604260444     IErMin=13 ErrMin= 5.24D-05
 ErrMax= 5.82D-05  0.00D+00 EMaxC= 1.00D-01 BMatC= 1.87D-07 BMatP= 2.65D-07
 IDIUse=1 WtCom= 1.00D+00 WtEn= 0.00D+00
 Coeff-Com:  0.254D-01-0.290D-01 0.463D-02-0.621D-03-0.648D-02 0.140D-01
 Coeff-Com: -0.800D-02 0.190D-01-0.664D-01 0.543D-01-0.814D-02 0.461D-01
 Coeff-Com: -0.690D-01-0.990D-01 0.487D+00-0.180D-01-0.150D+01 0.215D+01
 Coeff:      0.254D-01-0.290D-01 0.463D-02-0.621D-03-0.648D-02 0.140D-01
 Coeff:     -0.800D-02 0.190D-01-0.664D-01 0.543D-01-0.814D-02 0.461D-01
 Coeff:     -0.690D-01-0.990D-01 0.487D+00-0.180D-01-0.150D+01 0.215D+01
 Gap=     0.005 Goal=   None    Shift=    0.200
 RMSDP=6.13D-07 MaxDP=3.36D-05 DE=-4.04D-08 OVMax= 6.61D-05

 Cycle  19  Pass 1  IDiag  1:
 E= -123.112604307930     Delta-E=       -0.000000047486 Rises=F Damp=F
 DIIS: error= 4.55D-05 at cycle  19 NSaved=  19.
 NSaved=19 IEnMin=19 EnMin= -123.112604307930     IErMin=19 ErrMin= 4.55D-05
 ErrMax= 4.55D-05  0.00D+00 EMaxC= 1.00D-01 BMatC= 1.11D-07 BMatP= 1.87D-07
 IDIUse=1 WtCom= 1.00D+00 WtEn= 0.00D+00
 Coeff-Com:  0.224D-01-0.256D-01 0.414D-02-0.601D-03-0.815D-02 0.159D-01
 Coeff-Com: -0.793D-02 0.204D-01-0.643D-01 0.424D-01 0.148D-03 0.545D-01
 Coeff-Com: -0.612D-01-0.152D+00 0.434D+00 0.230D+00-0.116D+01 0.642D+00
 Coeff-Com:  0.101D+01
 Coeff:      0.224D-01-0.256D-01 0.414D-02-0.601D-03-0.815D-02 0.159D-01
 Coeff:     -0.793D-02 0.204D-01-0.643D-01 0.424D-01 0.148D-03 0.545D-01
 Coeff:     -0.612D-01-0.152D+00 0.434D+00 0.230D+00-0.116D+01 0.642D+00
 Coeff:      0.101D+01
 Gap=     0.005 Goal=   None    Shift=    0.200
 RMSDP=3.84D-07 MaxDP=2.36D-05 DE=-4.75D-08 OVMax= 4.79D-05

 Cycle  20  Pass 1  IDiag  1:
 E= -123.112604335278     Delta-E=       -0.000000027348 Rises=F Damp=F
 DIIS: error= 4.04D-05 at cycle  20 NSaved=  20.
 NSaved=20 IEnMin=20 EnMin= -123.112604335278     IErMin=20 ErrMin= 4.04D-05
 ErrMax= 4.04D-05  0.00D+00 EMaxC= 1.00D-01 BMatC= 8.45D-08 BMatP= 1.11D-07
 IDIUse=1 WtCom= 1.00D+00 WtEn= 0.00D+00
 Coeff-Com:  0.150D-01-0.172D-01 0.280D-02-0.155D-03-0.377D-02 0.812D-02
 Coeff-Com: -0.173D-01 0.249D-01-0.224D-01 0.561D-02 0.197D-01-0.112D-01
 Coeff-Com:  0.516D-02 0.398D-01-0.297D+00 0.226D+00 0.137D+01-0.246D+01
 Coeff-Com: -0.877D+00 0.299D+01
 Coeff:      0.150D-01-0.172D-01 0.280D-02-0.155D-03-0.377D-02 0.812D-02
 Coeff:     -0.173D-01 0.249D-01-0.224D-01 0.561D-02 0.197D-01-0.112D-01
 Coeff:      0.516D-02 0.398D-01-0.297D+00 0.226D+00 0.137D+01-0.246D+01
 Coeff:     -0.877D+00 0.299D+01
 Gap=     0.004 Goal=   None    Shift=    0.200
 RMSDP=4.85D-07 MaxDP=2.68D-05 DE=-2.73D-08 OVMax= 6.13D-05

 Cycle  21  Pass 1  IDiag  1:
 E= -123.112604365066     Delta-E=       -0.000000029788 Rises=F Damp=F
 DIIS: error= 3.02D-05 at cycle  21 NSaved=  20.
 NSaved=20 IEnMin=20 EnMin= -123.112604365066     IErMin=20 ErrMin= 3.02D-05
 ErrMax= 3.02D-05  0.00D+00 EMaxC= 1.00D-01 BMatC= 4.56D-08 BMatP= 8.45D-08
 IDIUse=1 WtCom= 1.00D+00 WtEn= 0.00D+00
 Coeff-Com:  0.127D-05-0.196D-04 0.115D-03-0.998D-03 0.840D-02-0.295D-01
 Coeff-Com:  0.286D-01 0.508D-02-0.271D-01 0.514D-01-0.806D-01 0.674D-01
 Coeff-Com:  0.603D-01-0.155D+00-0.228D+00 0.204D+01-0.321D+01-0.198D+01
 Coeff-Com:  0.307D+01 0.139D+01
 Coeff:      0.127D-05-0.196D-04 0.115D-03-0.998D-03 0.840D-02-0.295D-01
 Coeff:      0.286D-01 0.508D-02-0.271D-01 0.514D-01-0.806D-01 0.674D-01
 Coeff:      0.603D-01-0.155D+00-0.228D+00 0.204D+01-0.321D+01-0.198D+01
 Coeff:      0.307D+01 0.139D+01
 Gap=     0.004 Goal=   None    Shift=    0.200
 RMSDP=8.00D-07 MaxDP=4.49D-05 DE=-2.98D-08 OVMax= 1.17D-04

 Cycle  22  Pass 1  IDiag  1:
 E= -123.112604400542     Delta-E=       -0.000000035476 Rises=F Damp=F
 DIIS: error= 1.69D-05 at cycle  22 NSaved=  20.
 NSaved=20 IEnMin=20 EnMin= -123.112604400542     IErMin=20 ErrMin= 1.69D-05
 ErrMax= 1.69D-05  0.00D+00 EMaxC= 1.00D-01 BMatC= 9.10D-09 BMatP= 4.56D-08
 IDIUse=1 WtCom= 1.00D+00 WtEn= 0.00D+00
 Coeff-Com:  0.294D-04-0.368D-04-0.152D-02 0.680D-02-0.251D-01 0.344D-01
 Coeff-Com: -0.141D-01-0.930D-02 0.198D-01-0.313D-01 0.561D-01-0.176D-01
 Coeff-Com: -0.701D-01-0.184D+00 0.214D+01-0.272D+01-0.231D+01 0.328D+01
 Coeff-Com: -0.108D+00 0.955D+00
 Coeff:      0.294D-04-0.368D-04-0.152D-02 0.680D-02-0.251D-01 0.344D-01
 Coeff:     -0.141D-01-0.930D-02 0.198D-01-0.313D-01 0.561D-01-0.176D-01
 Coeff:     -0.701D-01-0.184D+00 0.214D+01-0.272D+01-0.231D+01 0.328D+01
 Coeff:     -0.108D+00 0.955D+00
 Gap=     0.004 Goal=   None    Shift=    0.200
 RMSDP=4.05D-07 MaxDP=2.97D-05 DE=-3.55D-08 OVMax= 6.20D-05

 Cycle  23  Pass 1  IDiag  1:
 E= -123.112604411669     Delta-E=       -0.000000011127 Rises=F Damp=F
 DIIS: error= 1.26D-05 at cycle  23 NSaved=  20.
 NSaved=20 IEnMin=20 EnMin= -123.112604411669     IErMin=20 ErrMin= 1.26D-05
 ErrMax= 1.26D-05  0.00D+00 EMaxC= 1.00D-01 BMatC= 5.09D-09 BMatP= 9.10D-09
 IDIUse=1 WtCom= 1.00D+00 WtEn= 0.00D+00
 Coeff-Com: -0.593D-03-0.631D-03 0.667D-02-0.223D-01 0.362D-01-0.391D-01
 Coeff-Com:  0.281D-01-0.139D-01 0.652D-03 0.608D-02-0.658D-01 0.284D+00
 Coeff-Com: -0.522D+00 0.535D+00 0.146D+01-0.227D+01 0.175D+01-0.269D+01
 Coeff-Com:  0.655D+00 0.186D+01
 Coeff:     -0.593D-03-0.631D-03 0.667D-02-0.223D-01 0.362D-01-0.391D-01
 Coeff:      0.281D-01-0.139D-01 0.652D-03 0.608D-02-0.658D-01 0.284D+00
 Coeff:     -0.522D+00 0.535D+00 0.146D+01-0.227D+01 0.175D+01-0.269D+01
 Coeff:      0.655D+00 0.186D+01
 Gap=     0.004 Goal=   None    Shift=    0.200
 RMSDP=1.79D-07 MaxDP=1.20D-05 DE=-1.11D-08 OVMax= 3.55D-05

 Cycle  24  Pass 1  IDiag  1:
 E= -123.112604416964     Delta-E=       -0.000000005295 Rises=F Damp=F
 DIIS: error= 9.75D-06 at cycle  24 NSaved=  20.
 NSaved=20 IEnMin=20 EnMin= -123.112604416964     IErMin=20 ErrMin= 9.75D-06
 ErrMax= 9.75D-06  0.00D+00 EMaxC= 1.00D-01 BMatC= 3.23D-09 BMatP= 5.09D-09
 IDIUse=1 WtCom= 1.00D+00 WtEn= 0.00D+00
 Coeff-Com:  0.214D-02-0.533D-03-0.174D-01 0.328D-01-0.261D-01 0.179D-01
 Coeff-Com: -0.206D-01 0.283D-02 0.283D-02 0.315D-01 0.432D-02-0.132D+00
 Coeff-Com: -0.237D-02 0.139D+01-0.116D+01 0.374D+00-0.147D+01 0.557D+00
 Coeff-Com: -0.825D+00 0.224D+01
 Coeff:      0.214D-02-0.533D-03-0.174D-01 0.328D-01-0.261D-01 0.179D-01
 Coeff:     -0.206D-01 0.283D-02 0.283D-02 0.315D-01 0.432D-02-0.132D+00
 Coeff:     -0.237D-02 0.139D+01-0.116D+01 0.374D+00-0.147D+01 0.557D+00
 Coeff:     -0.825D+00 0.224D+01
 Gap=     0.004 Goal=   None    Shift=    0.200
 RMSDP=1.37D-07 MaxDP=9.02D-06 DE=-5.29D-09 OVMax= 2.45D-05

 Cycle  25  Pass 1  IDiag  1:
 E= -123.112604420032     Delta-E=       -0.000000003068 Rises=F Damp=F
 DIIS: error= 7.57D-06 at cycle  25 NSaved=  20.
 NSaved=20 IEnMin=20 EnMin= -123.112604420032     IErMin=20 ErrMin= 7.57D-06
 ErrMax= 7.57D-06  0.00D+00 EMaxC= 1.00D-01 BMatC= 2.10D-09 BMatP= 3.23D-09
 IDIUse=1 WtCom= 1.00D+00 WtEn= 0.00D+00
 Coeff-Com:  0.249D-02-0.124D-01 0.208D-01-0.150D-01 0.281D-02-0.304D-02
 Coeff-Com:  0.117D-01-0.286D-02-0.660D-02-0.569D-01 0.204D+00-0.180D+00
 Coeff-Com:  0.784D-01-0.153D+00 0.303D+00-0.352D+00 0.454D+00-0.135D+01
 Coeff-Com:  0.210D+00 0.185D+01
 Coeff:      0.249D-02-0.124D-01 0.208D-01-0.150D-01 0.281D-02-0.304D-02
 Coeff:      0.117D-01-0.286D-02-0.660D-02-0.569D-01 0.204D+00-0.180D+00
 Coeff:      0.784D-01-0.153D+00 0.303D+00-0.352D+00 0.454D+00-0.135D+01
 Coeff:      0.210D+00 0.185D+01
 Gap=     0.004 Goal=   None    Shift=    0.200
 RMSDP=9.08D-08 MaxDP=5.21D-06 DE=-3.07D-09 OVMax= 1.76D-05

 Cycle  26  Pass 1  IDiag  1:
 E= -123.112604421903     Delta-E=       -0.000000001871 Rises=F Damp=F
 DIIS: error= 5.93D-06 at cycle  26 NSaved=  20.
 NSaved=20 IEnMin=20 EnMin= -123.112604421903     IErMin=20 ErrMin= 5.93D-06
 ErrMax= 5.93D-06  0.00D+00 EMaxC= 1.00D-01 BMatC= 1.39D-09 BMatP= 2.10D-09
 IDIUse=1 WtCom= 1.00D+00 WtEn= 0.00D+00
 Coeff-Com: -0.720D-02 0.159D-01-0.100D-01 0.140D-02-0.101D-01 0.214D-01
 Coeff-Com:  0.435D-02 0.337D-03-0.144D+00 0.228D+00 0.229D+00-0.653D+00
 Coeff-Com: -0.850D-01 0.413D+00 0.547D-01 0.396D+00-0.744D+00-0.702D+00
 Coeff-Com:  0.201D-01 0.197D+01
 Coeff:     -0.720D-02 0.159D-01-0.100D-01 0.140D-02-0.101D-01 0.214D-01
 Coeff:      0.435D-02 0.337D-03-0.144D+00 0.228D+00 0.229D+00-0.653D+00
 Coeff:     -0.850D-01 0.413D+00 0.547D-01 0.396D+00-0.744D+00-0.702D+00
 Coeff:      0.201D-01 0.197D+01
 Gap=     0.004 Goal=   None    Shift=    0.200
 RMSDP=1.86D-07 MaxDP=1.77D-05 DE=-1.87D-09 OVMax= 1.31D-05

 Cycle  27  Pass 1  IDiag  1:
 E= -123.112604423057     Delta-E=       -0.000000001154 Rises=F Damp=F
 DIIS: error= 4.92D-06 at cycle  27 NSaved=  20.
 NSaved=20 IEnMin=20 EnMin= -123.112604423057     IErMin=20 ErrMin= 4.92D-06
 ErrMax= 4.92D-06  0.00D+00 EMaxC= 1.00D-01 BMatC= 9.70D-10 BMatP= 1.39D-09
 IDIUse=1 WtCom= 1.00D+00 WtEn= 0.00D+00
 Coeff-Com:  0.449D-02-0.108D-01 0.676D-02-0.461D-02 0.168D-01-0.163D-01
 Coeff-Com:  0.143D-01-0.748D-01 0.181D+00-0.103D+00-0.230D+00 0.220D+00
 Coeff-Com: -0.109D+00 0.215D+00 0.226D+00-0.565D+00-0.375D+00-0.112D+01
 Coeff-Com:  0.810D+00 0.191D+01
 Coeff:      0.449D-02-0.108D-01 0.676D-02-0.461D-02 0.168D-01-0.163D-01
 Coeff:      0.143D-01-0.748D-01 0.181D+00-0.103D+00-0.230D+00 0.220D+00
 Coeff:     -0.109D+00 0.215D+00 0.226D+00-0.565D+00-0.375D+00-0.112D+01
 Coeff:      0.810D+00 0.191D+01
 Gap=     0.004 Goal=   None    Shift=    0.200
 RMSDP=1.68D-07 MaxDP=1.73D-05 DE=-1.15D-09 OVMax= 1.13D-05

 Cycle  28  Pass 1  IDiag  1:
 E= -123.112604423911     Delta-E=       -0.000000000854 Rises=F Damp=F
 DIIS: error= 3.86D-06 at cycle  28 NSaved=  20.
 NSaved=20 IEnMin=20 EnMin= -123.112604423911     IErMin=20 ErrMin= 3.86D-06
 ErrMax= 3.86D-06  0.00D+00 EMaxC= 1.00D-01 BMatC= 6.30D-10 BMatP= 9.70D-10
 IDIUse=1 WtCom= 1.00D+00 WtEn= 0.00D+00
 Coeff-Com: -0.491D-02 0.954D-02-0.349D-02 0.188D-02-0.132D-01 0.250D-01
 Coeff-Com: -0.428D-01-0.457D-02 0.185D+00-0.288D+00-0.116D+00 0.358D+00
 Coeff-Com: -0.900D-01 0.435D-01 0.462D+00-0.486D+00-0.172D+01-0.234D+00
 Coeff-Com:  0.144D+01 0.148D+01
 Coeff:     -0.491D-02 0.954D-02-0.349D-02 0.188D-02-0.132D-01 0.250D-01
 Coeff:     -0.428D-01-0.457D-02 0.185D+00-0.288D+00-0.116D+00 0.358D+00
 Coeff:     -0.900D-01 0.435D-01 0.462D+00-0.486D+00-0.172D+01-0.234D+00
 Coeff:      0.144D+01 0.148D+01
 Gap=     0.004 Goal=   None    Shift=    0.200
 RMSDP=9.91D-08 MaxDP=8.77D-06 DE=-8.54D-10 OVMax= 9.85D-06

 Cycle  29  Pass 1  IDiag  1:
 E= -123.112604424508     Delta-E=       -0.000000000597 Rises=F Damp=F
 DIIS: error= 3.14D-06 at cycle  29 NSaved=  20.
 NSaved=20 IEnMin=20 EnMin= -123.112604424508     IErMin=20 ErrMin= 3.14D-06
 ErrMax= 3.14D-06  0.00D+00 EMaxC= 1.00D-01 BMatC= 4.09D-10 BMatP= 6.30D-10
 IDIUse=1 WtCom= 1.00D+00 WtEn= 0.00D+00
 Coeff-Com:  0.813D-03-0.446D-03 0.108D-02-0.291D-02 0.110D-01-0.635D-01
 Coeff-Com:  0.465D-01 0.146D+00-0.282D+00-0.172D+00 0.507D+00-0.206D+00
 Coeff-Com:  0.475D-01 0.295D+00-0.745D+00 0.281D+00-0.402D+00-0.424D+00
 Coeff-Com: -0.452D+00 0.241D+01
 Coeff:      0.813D-03-0.446D-03 0.108D-02-0.291D-02 0.110D-01-0.635D-01
 Coeff:      0.465D-01 0.146D+00-0.282D+00-0.172D+00 0.507D+00-0.206D+00
 Coeff:      0.475D-01 0.295D+00-0.745D+00 0.281D+00-0.402D+00-0.424D+00
 Coeff:     -0.452D+00 0.241D+01
 Gap=     0.004 Goal=   None    Shift=    0.200
 RMSDP=1.18D-07 MaxDP=1.10D-05 DE=-5.97D-10 OVMax= 7.93D-06

 Cycle  30  Pass 1  IDiag  1:
 E= -123.112604424889     Delta-E=       -0.000000000381 Rises=F Damp=F
 DIIS: error= 2.38D-06 at cycle  30 NSaved=  20.
 NSaved=20 IEnMin=20 EnMin= -123.112604424889     IErMin=20 ErrMin= 2.38D-06
 ErrMax= 2.38D-06  0.00D+00 EMaxC= 1.00D-01 BMatC= 2.50D-10 BMatP= 4.09D-10
 IDIUse=1 WtCom= 1.00D+00 WtEn= 0.00D+00
 Coeff-Com:  0.388D-02-0.678D-02 0.437D-03 0.124D-01-0.229D-01 0.161D-01
 Coeff-Com:  0.275D-01-0.507D-03-0.256D+00 0.355D+00-0.172D+00 0.121D+00
 Coeff-Com: -0.410D-01-0.749D+00 0.166D+01 0.984D-01-0.177D+01-0.203D+01
 Coeff-Com:  0.171D+01 0.204D+01
 Coeff:      0.388D-02-0.678D-02 0.437D-03 0.124D-01-0.229D-01 0.161D-01
 Coeff:      0.275D-01-0.507D-03-0.256D+00 0.355D+00-0.172D+00 0.121D+00
 Coeff:     -0.410D-01-0.749D+00 0.166D+01 0.984D-01-0.177D+01-0.203D+01
 Coeff:      0.171D+01 0.204D+01
 Gap=     0.004 Goal=   None    Shift=    0.200
 RMSDP=4.89D-08 MaxDP=3.21D-06 DE=-3.81D-10 OVMax= 5.63D-06

 Cycle  31  Pass 1  IDiag  1:
 E= -123.112604425107     Delta-E=       -0.000000000218 Rises=F Damp=F
 DIIS: error= 1.86D-06 at cycle  31 NSaved=  20.
 NSaved=20 IEnMin=20 EnMin= -123.112604425107     IErMin=20 ErrMin= 1.86D-06
 ErrMax= 1.86D-06  0.00D+00 EMaxC= 1.00D-01 BMatC= 1.63D-10 BMatP= 2.50D-10
 IDIUse=1 WtCom= 1.00D+00 WtEn= 0.00D+00
 Coeff-Com:  0.416D-02-0.434D-02 0.185D-02-0.223D-01 0.800D-01-0.104D+00
 Coeff-Com: -0.267D-01-0.118D-01 0.103D-01 0.179D+00 0.101D+00-0.459D+00
 Coeff-Com:  0.278D-01 0.291D+00 0.147D+00-0.264D+00-0.745D+00 0.202D+00
 Coeff-Com: -0.715D+00 0.231D+01
 Coeff:      0.416D-02-0.434D-02 0.185D-02-0.223D-01 0.800D-01-0.104D+00
 Coeff:     -0.267D-01-0.118D-01 0.103D-01 0.179D+00 0.101D+00-0.459D+00
 Coeff:      0.278D-01 0.291D+00 0.147D+00-0.264D+00-0.745D+00 0.202D+00
 Coeff:     -0.715D+00 0.231D+01
 Gap=     0.004 Goal=   None    Shift=    0.200
 RMSDP=5.96D-08 MaxDP=5.07D-06 DE=-2.18D-10 OVMax= 4.63D-06

 Cycle  32  Pass 1  IDiag  1:
 E= -123.112604425233     Delta-E=       -0.000000000126 Rises=F Damp=F
 DIIS: error= 1.49D-06 at cycle  32 NSaved=  20.
 NSaved=20 IEnMin=20 EnMin= -123.112604425233     IErMin=20 ErrMin= 1.49D-06
 ErrMax= 1.49D-06  0.00D+00 EMaxC= 1.00D-01 BMatC= 1.11D-10 BMatP= 1.63D-10
 IDIUse=1 WtCom= 1.00D+00 WtEn= 0.00D+00
 Coeff-Com: -0.607D-03 0.581D-02-0.101D-01 0.149D-01-0.386D-01 0.350D-01
 Coeff-Com: -0.109D+00 0.809D-01 0.640D-01 0.633D-01-0.231D+00 0.664D-01
 Coeff-Com:  0.158D+00-0.792D-01-0.119D+00-0.758D+00 0.558D+00-0.536D+00
 Coeff-Com:  0.524D+00 0.131D+01
 Coeff:     -0.607D-03 0.581D-02-0.101D-01 0.149D-01-0.386D-01 0.350D-01
 Coeff:     -0.109D+00 0.809D-01 0.640D-01 0.633D-01-0.231D+00 0.664D-01
 Coeff:      0.158D+00-0.792D-01-0.119D+00-0.758D+00 0.558D+00-0.536D+00
 Coeff:      0.524D+00 0.131D+01
 Gap=     0.004 Goal=   None    Shift=    0.200
 RMSDP=4.33D-08 MaxDP=4.36D-06 DE=-1.26D-10 OVMax= 3.94D-06

 Cycle  33  Pass 1  IDiag  1:
 E= -123.112604425315     Delta-E=       -0.000000000082 Rises=F Damp=F
 DIIS: error= 1.24D-06 at cycle  33 NSaved=  20.
 NSaved=20 IEnMin=20 EnMin= -123.112604425315     IErMin=20 ErrMin= 1.24D-06
 ErrMax= 1.24D-06  0.00D+00 EMaxC= 1.00D-01 BMatC= 7.65D-11 BMatP= 1.11D-10
 IDIUse=1 WtCom= 1.00D+00 WtEn= 0.00D+00
 Coeff-Com:  0.299D-02-0.105D-01 0.786D-02-0.673D-02-0.107D-01-0.875D-01
 Coeff-Com:  0.126D+00 0.465D-02 0.541D-01-0.114D+00-0.454D-01-0.294D-01
 Coeff-Com:  0.505D-01 0.576D-01-0.592D+00 0.569D+00-0.428D+00-0.188D+00
 Coeff-Com:  0.543D+00 0.110D+01
 Coeff:      0.299D-02-0.105D-01 0.786D-02-0.673D-02-0.107D-01-0.875D-01
 Coeff:      0.126D+00 0.465D-02 0.541D-01-0.114D+00-0.454D-01-0.294D-01
 Coeff:      0.505D-01 0.576D-01-0.592D+00 0.569D+00-0.428D+00-0.188D+00
 Coeff:      0.543D+00 0.110D+01
 Gap=     0.004 Goal=   None    Shift=    0.200
 RMSDP=2.90D-08 MaxDP=2.60D-06 DE=-8.20D-11 OVMax= 3.04D-06

 Cycle  34  Pass 1  IDiag  1:
 E= -123.112604425368     Delta-E=       -0.000000000053 Rises=F Damp=F
 DIIS: error= 1.01D-06 at cycle  34 NSaved=  20.
 NSaved=20 IEnMin=20 EnMin= -123.112604425368     IErMin=20 ErrMin= 1.01D-06
 ErrMax= 1.01D-06  0.00D+00 EMaxC= 1.00D-01 BMatC= 5.28D-11 BMatP= 7.65D-11
 IDIUse=1 WtCom= 1.00D+00 WtEn= 0.00D+00
 Coeff-Com: -0.204D-02 0.887D-02-0.229D-01 0.103D-01-0.767D-01 0.132D+00
 Coeff-Com: -0.492D-01 0.628D-01-0.901D-01-0.272D-01-0.968D-02 0.985D-01
 Coeff-Com: -0.130D+00-0.354D+00 0.450D+00-0.283D+00-0.689D-01 0.420D+00
 Coeff-Com: -0.110D+01 0.203D+01
 Coeff:     -0.204D-02 0.887D-02-0.229D-01 0.103D-01-0.767D-01 0.132D+00
 Coeff:     -0.492D-01 0.628D-01-0.901D-01-0.272D-01-0.968D-02 0.985D-01
 Coeff:     -0.130D+00-0.354D+00 0.450D+00-0.283D+00-0.689D-01 0.420D+00
 Coeff:     -0.110D+01 0.203D+01
 Gap=     0.004 Goal=   None    Shift=    0.200
 RMSDP=1.88D-08 MaxDP=1.46D-06 DE=-5.34D-11 OVMax= 2.71D-06

 Cycle  35  Pass 1  IDiag  1:
 E= -123.112604425405     Delta-E=       -0.000000000037 Rises=F Damp=F
 DIIS: error= 8.60D-07 at cycle  35 NSaved=  20.
 NSaved=20 IEnMin=20 EnMin= -123.112604425405     IErMin=20 ErrMin= 8.60D-07
 ErrMax= 8.60D-07  0.00D+00 EMaxC= 1.00D-01 BMatC= 3.65D-11 BMatP= 5.28D-11
 IDIUse=1 WtCom= 1.00D+00 WtEn= 0.00D+00
 Coeff-Com:  0.238D-02-0.166D-01 0.412D-01-0.108D+00 0.117D+00-0.460D-01
 Coeff-Com:  0.640D-01-0.863D-01 0.241D-01 0.706D-01 0.224D-01-0.266D+00
 Coeff-Com: -0.220D+00 0.285D+00-0.155D+00 0.208D+00 0.603D+00-0.184D+01
 Coeff-Com:  0.759D+00 0.154D+01
 Coeff:      0.238D-02-0.166D-01 0.412D-01-0.108D+00 0.117D+00-0.460D-01
 Coeff:      0.640D-01-0.863D-01 0.241D-01 0.706D-01 0.224D-01-0.266D+00
 Coeff:     -0.220D+00 0.285D+00-0.155D+00 0.208D+00 0.603D+00-0.184D+01
 Coeff:      0.759D+00 0.154D+01
 Gap=     0.004 Goal=   None    Shift=    0.200
 RMSDP=1.21D-08 MaxDP=1.25D-06 DE=-3.67D-11 OVMax= 2.34D-06

 Cycle  36  Pass 1  IDiag  1:
 E= -123.112604425433     Delta-E=       -0.000000000028 Rises=F Damp=F
 DIIS: error= 6.86D-07 at cycle  36 NSaved=  20.
 NSaved=20 IEnMin=20 EnMin= -123.112604425433     IErMin=20 ErrMin= 6.86D-07
 ErrMax= 6.86D-07  0.00D+00 EMaxC= 1.00D-01 BMatC= 2.51D-11 BMatP= 3.65D-11
 IDIUse=1 WtCom= 1.00D+00 WtEn= 0.00D+00
 Coeff-Com: -0.525D-02 0.500D-01-0.139D+00 0.674D-01 0.347D-01 0.423D-01
 Coeff-Com: -0.861D-01 0.742D-01 0.511D-01-0.156D+00-0.597D-01-0.142D+00
 Coeff-Com:  0.935D-01-0.171D+00 0.286D+00 0.782D+00 0.323D-01-0.196D+01
 Coeff-Com: -0.205D+00 0.241D+01
 Coeff:     -0.525D-02 0.500D-01-0.139D+00 0.674D-01 0.347D-01 0.423D-01
 Coeff:     -0.861D-01 0.742D-01 0.511D-01-0.156D+00-0.597D-01-0.142D+00
 Coeff:      0.935D-01-0.171D+00 0.286D+00 0.782D+00 0.323D-01-0.196D+01
 Coeff:     -0.205D+00 0.241D+01
 Gap=     0.004 Goal=   None    Shift=    0.200
 RMSDP=3.13D-08 MaxDP=3.23D-06 DE=-2.81D-11 OVMax= 1.74D-06

 Cycle  37  Pass 1  IDiag  1:
 E= -123.112604425463     Delta-E=       -0.000000000030 Rises=F Damp=F
 DIIS: error= 5.66D-07 at cycle  37 NSaved=  20.
 NSaved=20 IEnMin=20 EnMin= -123.112604425463     IErMin=20 ErrMin= 5.66D-07
 ErrMax= 5.66D-07  0.00D+00 EMaxC= 1.00D-01 BMatC= 1.75D-11 BMatP= 2.51D-11
 IDIUse=1 WtCom= 1.00D+00 WtEn= 0.00D+00
 Coeff-Com: -0.543D-02-0.741D-01 0.678D-02 0.127D+00 0.129D-01-0.962D-01
 Coeff-Com:  0.940D-01-0.244D+00-0.975D-01 0.389D+00-0.623D-01-0.351D-02
 Coeff-Com: -0.470D+00-0.242D-01 0.605D+00 0.267D+01-0.287D+01-0.246D+01
 Coeff-Com:  0.676D+00 0.283D+01
 Coeff:     -0.543D-02-0.741D-01 0.678D-02 0.127D+00 0.129D-01-0.962D-01
 Coeff:      0.940D-01-0.244D+00-0.975D-01 0.389D+00-0.623D-01-0.351D-02
 Coeff:     -0.470D+00-0.242D-01 0.605D+00 0.267D+01-0.287D+01-0.246D+01
 Coeff:      0.676D+00 0.283D+01
 Gap=     0.004 Goal=   None    Shift=    0.200
 RMSDP=3.77D-08 MaxDP=2.95D-06 DE=-2.96D-11 OVMax= 1.46D-06

 Cycle  38  Pass 1  IDiag  1:
 E= -123.112604425501     Delta-E=       -0.000000000038 Rises=F Damp=F
 DIIS: error= 4.54D-07 at cycle  38 NSaved=  20.
 NSaved=20 IEnMin=20 EnMin= -123.112604425501     IErMin=20 ErrMin= 4.54D-07
 ErrMax= 4.54D-07  0.00D+00 EMaxC= 1.00D-01 BMatC= 1.20D-11 BMatP= 1.75D-11
 IDIUse=1 WtCom= 1.00D+00 WtEn= 0.00D+00
 Coeff-Com: -0.616D-01 0.686D-01 0.156D-02 0.329D-01-0.664D-01 0.838D-01
 Coeff-Com: -0.160D+00 0.213D-01 0.972D-01-0.174D+00 0.251D+00-0.266D+00
 Coeff-Com: -0.354D+00 0.405D+00 0.127D+01-0.898D+00-0.889D+00-0.454D+00
 Coeff-Com:  0.507D+00 0.158D+01
 Coeff:     -0.616D-01 0.686D-01 0.156D-02 0.329D-01-0.664D-01 0.838D-01
 Coeff:     -0.160D+00 0.213D-01 0.972D-01-0.174D+00 0.251D+00-0.266D+00
 Coeff:     -0.354D+00 0.405D+00 0.127D+01-0.898D+00-0.889D+00-0.454D+00
 Coeff:      0.507D+00 0.158D+01
 Gap=     0.004 Goal=   None    Shift=    0.200
 RMSDP=3.52D-08 MaxDP=2.51D-06 DE=-3.83D-11 OVMax= 1.59D-06

 Cycle  39  Pass 1  IDiag  1:
 E= -123.112604425519     Delta-E=       -0.000000000018 Rises=F Damp=F
 DIIS: error= 3.71D-07 at cycle  39 NSaved=  20.
 NSaved=20 IEnMin=20 EnMin= -123.112604425519     IErMin=20 ErrMin= 3.71D-07
 ErrMax= 3.71D-07  0.00D+00 EMaxC= 1.00D-01 BMatC= 8.44D-12 BMatP= 1.20D-11
 IDIUse=1 WtCom= 1.00D+00 WtEn= 0.00D+00
 Coeff-Com:  0.549D-01-0.825D-01 0.476D-01-0.815D-01 0.964D-01-0.802D-02
 Coeff-Com:  0.904D-01-0.191D+00-0.114D+00 0.242D+00-0.647D-01-0.343D+00
 Coeff-Com:  0.226D+00-0.451D+00 0.369D+00 0.445D+00-0.287D+00-0.521D+00
 Coeff-Com:  0.349D+00 0.122D+01
 Coeff:      0.549D-01-0.825D-01 0.476D-01-0.815D-01 0.964D-01-0.802D-02
 Coeff:      0.904D-01-0.191D+00-0.114D+00 0.242D+00-0.647D-01-0.343D+00
 Coeff:      0.226D+00-0.451D+00 0.369D+00 0.445D+00-0.287D+00-0.521D+00
 Coeff:      0.349D+00 0.122D+01
 Gap=     0.004 Goal=   None    Shift=    0.200
 RMSDP=2.14D-08 MaxDP=1.38D-06 DE=-1.84D-11 OVMax= 2.01D-06

 Cycle  40  Pass 1  IDiag  1:
 E= -123.112604425528     Delta-E=       -0.000000000009 Rises=F Damp=F
 DIIS: error= 3.14D-07 at cycle  40 NSaved=  20.
 NSaved=20 IEnMin=20 EnMin= -123.112604425528     IErMin=20 ErrMin= 3.14D-07
 ErrMax= 3.14D-07  0.00D+00 EMaxC= 1.00D-01 BMatC= 5.35D-12 BMatP= 8.44D-12
 IDIUse=1 WtCom= 1.00D+00 WtEn= 0.00D+00
 Coeff-Com: -0.375D-03 0.147D-01-0.459D-01 0.687D-01-0.987D-02-0.506D-01
 Coeff-Com: -0.348D-01-0.111D+00 0.130D+00-0.101D+00-0.109D+00 0.254D+00
 Coeff-Com:  0.768D+00-0.887D+00-0.670D+00 0.430D+00 0.544D+00-0.152D+00
 Coeff-Com: -0.295D+00 0.126D+01
 Coeff:     -0.375D-03 0.147D-01-0.459D-01 0.687D-01-0.987D-02-0.506D-01
 Coeff:     -0.348D-01-0.111D+00 0.130D+00-0.101D+00-0.109D+00 0.254D+00
 Coeff:      0.768D+00-0.887D+00-0.670D+00 0.430D+00 0.544D+00-0.152D+00
 Coeff:     -0.295D+00 0.126D+01
 Gap=     0.004 Goal=   None    Shift=    0.200
 RMSDP=7.52D-09 MaxDP=5.15D-07 DE=-8.64D-12 OVMax= 7.53D-07

 SCF Done:  E(ROHF) =  -123.112604426     A.U. after   40 cycles
            NFock= 40  Conv=0.75D-08     -V/T= 2.6766
 <Sx>= 0.0000 <Sy>= 0.0000 <Sz>= 1.5000 <S**2>= 3.7500 S= 1.5000
 <L.S>=  0.00000000000    
 KE= 7.342792004692D+01 PE=-3.015770568497D+02 EE= 1.003327349468D+02
 Annihilation of the first spin contaminant:
 S**2 before annihilation     3.7500,   after     3.7500
 Leave Link  502 at Sun Apr 22 22:58:47 2018, MaxMem= 21474836480 cpu:             142.0 elap:               7.5
 (Enter /home1/apps/gaussian/16rA.03/g16/l801.exe)
 Windowed orbitals will be sorted by symmetry type.
 GenMOA:  NOpAll=  4 NOp2=4 NOpUse=  4 JSym2X=1
 FoFJK:  IHMeth= 1 ICntrl=       0 DoSepK=F KAlg= 0 I1Cent=           0 FoldK=F
 IRaf=         0 NMat=       1 IRICut=       1 DoRegI=T DoRafI=F ISym2E= 1 IDoP0=0 IntGTp=1.
 FoFCou: FMM=F IPFlag=           8 FMFlag=      100000 FMFlg1=           0
         NFxFlg=           0 DoJE=F BraDBF=F KetDBF=F FulRan=T
         wScrn=  0.000000 ICntrl=         0 IOpCl=  1 I1Cent=           0 NGrid=           0
         NMat0=    1 NMatS0=      1 NMatT0=    0 NMatD0=    1 NMtDS0=    0 NMtDT0=    0
 Petite list used in FoFCou.
 <Sx>= 0.0000 <Sy>= 0.0000 <Sz>= 1.5000 <S**2>= 3.7500 S= 1.5000
 Range of M.O.s used for correlation:     1   212
 NBasis=   215 NAE=    10 NBE=     7 NFC=     0 NFV=     0
 NROrb=    212 NOA=    10 NOB=     7 NVA=   202 NVB=   205

 **** Warning!!: The largest alpha MO coefficient is  0.24218852D+03


 **** Warning!!: The largest beta MO coefficient is  0.24196531D+03

 Singles contribution to E2=   -0.6897616939D-02
 Leave Link  801 at Sun Apr 22 22:58:48 2018, MaxMem= 21474836480 cpu:              25.3 elap:               0.8
 (Enter /home1/apps/gaussian/16rA.03/g16/l804.exe)
 Open-shell transformation, MDV= 21474836480 ITran=4 ISComp=2.
 Unit  1 TFree=       1395097 TCopy=       1089051.
 Semi-Direct transformation.
 ModeAB=           2 MOrb=            10 LenV=   21473354230
 LASXX=     11836819 LTotXX=    11836819 LenRXX=    11836819
 LTotAB=    12069633 MaxLAS=    70831320 LenRXY=    70831320
 NonZer=    72133000 LenScr=   108958208 LnRSAI=           0
 LnScr1=           0 LExtra=     5450651 Total=    197076998
 MaxDsk= 67108864000 SrtSym=           F ITran=            4
 DoSDTr:  NPSUse= 32
 JobTyp=1 Pass  1:  I=   1 to  10.
 (rs|ai) integrals will be sorted in core.
 Complete sort for first half transformation.
 First half transformation complete.
 Begin second half transformation for I=  10.
 Begin second half transformation for I=  10.
 Complete sort for second half transformation.
 Second half transformation complete.
 ModeAB=           2 MOrb=             7 LenV=   21473354230
 LASXX=      8371498 LTotXX=     8371498 LenRXX=    49581924
 LTotAB=     7741007 MaxLAS=    49581924 LenRXY=     7741007
 NonZer=    50493100 LenScr=    76518400 LnRSAI=           0
 LnScr1=           0 LExtra=    88118790 Total=    221960121
 MaxDsk= 67108864000 SrtSym=           F ITran=            4
 DoSDTr:  NPSUse= 32
 JobTyp=2 Pass  1:  I=   1 to   7.
 (rs|ai) integrals will be sorted in core.
 Complete sort for first half transformation.
 First half transformation complete.
 Complete sort for second half transformation.
 Second half transformation complete.
 Spin components of T(2) and E(2):
     alpha-alpha T2 =       0.2826132294D-01 E2=     -0.1604528700D+00
     alpha-beta  T2 =       0.8829378067D-01 E2=     -0.5225590315D+00
     beta-beta   T2 =       0.1028543098D-01 E2=     -0.6643010289D-01
 ANorm=    0.1062760183D+01
 E2 =    -0.7563396213D+00 EUMP2 =    -0.12386894404685D+03
 (S**2,0)=  0.37500D+01           (S**2,1)=  0.37500D+01
 E(PUHF)=      -0.12311260443D+03        E(PMP2)=      -0.12386894405D+03
 Leave Link  804 at Sun Apr 22 22:59:17 2018, MaxMem= 21474836480 cpu:             908.7 elap:              28.5
 (Enter /home1/apps/gaussian/16rA.03/g16/l913.exe)
 CIDS:  MDV= 21474836480.
 IFCWin=0 IBDFC=1 NFBD=     0     0 NFCmp=     0     0 NFFFC=     0     0
 Using original routines for 1st iteration.
 Using DD4UQ or CC4UQ for 2nd and later iterations.
 Keep R2 and R3 ints in memory in symmetry-blocked form, NReq=338808259.
 FoFCou: FMM=F IPFlag=           8 FMFlag=           0 FMFlg1=           0
         NFxFlg=           0 DoJE=F BraDBF=F KetDBF=F FulRan=T
         wScrn=  0.000000 ICntrl=       600 IOpCl=  0 I1Cent=           0 NGrid=           0
         NMat0=    1 NMatS0=  23220 NMatT0=    0 NMatD0=    1 NMtDS0=    0 NMtDT0=    0
 Petite list used in FoFCou.
 CIDS: In Core Option IDoMem=           1.
 CCSD(T)
 =======
 Iterations= 150 Convergence= 0.100D-06
 Produce multiple copies of IABC intergrals
 Iteration Nr.   1
 **********************
 DD1Dir will call FoFMem   1 times, MxPair=       206
 NAB=    70 NAA=    45 NBB=    21.
 DD1Dir will call FoFMem   1 times, MxPair=       206
 NAB=    70 NAA=    45 NBB=    21.
 MP4(R+Q)= -0.48506518D-01
 Maximum subspace dimension=  5
 A-vector RMS=  4.1043530D-04 Max=  3.6185371D-03 conv= 1.00D-05.
 RLE energy=       -0.7504457182
 E3=        0.54170616D-01        EROMP3=      -0.12381477343D+03
 E4(SDQ)=  -0.39061762D-01        ROMP4(SDQ)=  -0.12385383519D+03
 VARIATIONAL ENERGIES WITH THE FIRST-ORDER WAVEFUNCTION:
 DE(Corr)= -0.75039841     E(Corr)=     -123.86300284    
 NORM(A)=   0.10597432D+01
 Iteration Nr.   2
 **********************
 DD1Dir will call FoFMem   1 times, MxPair=       206
 NAB=    70 NAA=    45 NBB=    21.
 A-vector RMS=  4.5658822D-03 Max=  3.8782423D-02 conv= 1.00D-05.
 RLE energy=       -0.7387620956
 DE(Corr)= -0.69402942     E(CORR)=     -123.80663385     Delta= 5.64D-02
 NORM(A)=   0.10578400D+01
 Iteration Nr.   3
 **********************
 DD1Dir will call FoFMem   1 times, MxPair=       206
 NAB=    70 NAA=    45 NBB=    21.
 A-vector RMS=  3.4299807D-03 Max=  3.1199148D-02 conv= 1.00D-05.
 RLE energy=       -0.7369010827
 DE(Corr)= -0.70170189     E(CORR)=     -123.81430631     Delta=-7.67D-03
 NORM(A)=   0.10608616D+01
 Iteration Nr.   4
 **********************
 DD1Dir will call FoFMem   1 times, MxPair=       206
 NAB=    70 NAA=    45 NBB=    21.
 A-vector RMS=  3.2087248D-03 Max=  3.2388117D-02 conv= 1.00D-05.
 RLE energy=       -0.7150808568
 DE(Corr)= -0.70754866     E(CORR)=     -123.82015308     Delta=-5.85D-03
 NORM(A)=   0.11081958D+01
 Iteration Nr.   5
 **********************
 DD1Dir will call FoFMem   1 times, MxPair=       206
 NAB=    70 NAA=    45 NBB=    21.
 A-vector RMS=  2.6620832D-03 Max=  2.3980541D-02 conv= 1.00D-05.
 RLE energy=       -0.7338592266
 DE(Corr)= -0.74725167     E(CORR)=     -123.85985610     Delta=-3.97D-02
 NORM(A)=   0.10881977D+01
 Iteration Nr.   6
 **********************
 DD1Dir will call FoFMem   1 times, MxPair=       206
 NAB=    70 NAA=    45 NBB=    21.
 A-vector RMS=  1.5874171D-03 Max=  2.5693217D-02 conv= 1.00D-05.
 RLE energy=       -0.7310053997
 DE(Corr)= -0.72328827     E(CORR)=     -123.83589270     Delta= 2.40D-02
 NORM(A)=   0.11296187D+01
 Iteration Nr.   7
 **********************
 DD1Dir will call FoFMem   1 times, MxPair=       206
 NAB=    70 NAA=    45 NBB=    21.
 A-vector RMS=  8.2074934D-04 Max=  1.0400529D-02 conv= 1.00D-05.
 RLE energy=       -0.7323464883
 DE(Corr)= -0.73142542     E(CORR)=     -123.84402985     Delta=-8.14D-03
 NORM(A)=   0.11777613D+01
 Iteration Nr.   8
 **********************
 DD1Dir will call FoFMem   1 times, MxPair=       206
 NAB=    70 NAA=    45 NBB=    21.
 A-vector RMS=  1.0373641D-03 Max=  1.5972940D-02 conv= 1.00D-05.
 RLE energy=       -0.7345304500
 DE(Corr)= -0.73371618     E(CORR)=     -123.84632061     Delta=-2.29D-03
 NORM(A)=   0.12420343D+01
 Iteration Nr.   9
 **********************
 DD1Dir will call FoFMem   1 times, MxPair=       206
 NAB=    70 NAA=    45 NBB=    21.
 A-vector RMS=  8.2697737D-04 Max=  1.0723663D-02 conv= 1.00D-05.
 RLE energy=       -0.7360286108
 DE(Corr)= -0.73339152     E(CORR)=     -123.84599595     Delta= 3.25D-04
 NORM(A)=   0.13048982D+01
 Iteration Nr.  10
 **********************
 DD1Dir will call FoFMem   1 times, MxPair=       206
 NAB=    70 NAA=    45 NBB=    21.
 A-vector RMS=  7.4122839D-04 Max=  9.4311447D-03 conv= 1.00D-05.
 RLE energy=       -0.7340489642
 DE(Corr)= -0.73600015     E(CORR)=     -123.84860457     Delta=-2.61D-03
 NORM(A)=   0.12917578D+01
 Iteration Nr.  11
 **********************
 DD1Dir will call FoFMem   1 times, MxPair=       206
 NAB=    70 NAA=    45 NBB=    21.
 A-vector RMS=  4.0914061D-04 Max=  5.4278862D-03 conv= 1.00D-05.
 RLE energy=       -0.7356605985
 DE(Corr)= -0.73519386     E(CORR)=     -123.84779829     Delta= 8.06D-04
 NORM(A)=   0.13061274D+01
 Iteration Nr.  12
 **********************
 DD1Dir will call FoFMem   1 times, MxPair=       206
 NAB=    70 NAA=    45 NBB=    21.
 A-vector RMS=  3.7242433D-04 Max=  4.7355960D-03 conv= 1.00D-05.
 RLE energy=       -0.7349673060
 DE(Corr)= -0.73483427     E(CORR)=     -123.84743869     Delta= 3.60D-04
 NORM(A)=   0.13258250D+01
 Iteration Nr.  13
 **********************
 DD1Dir will call FoFMem   1 times, MxPair=       206
 NAB=    70 NAA=    45 NBB=    21.
 A-vector RMS=  3.7048544D-04 Max=  6.9585586D-03 conv= 1.00D-05.
 RLE energy=       -0.7354105887
 DE(Corr)= -0.73582302     E(CORR)=     -123.84842745     Delta=-9.89D-04
 NORM(A)=   0.13285244D+01
 Iteration Nr.  14
 **********************
 DD1Dir will call FoFMem   1 times, MxPair=       206
 NAB=    70 NAA=    45 NBB=    21.
 A-vector RMS=  3.2729842D-04 Max=  4.4595715D-03 conv= 1.00D-05.
 RLE energy=       -0.7363794678
 DE(Corr)= -0.73564907     E(CORR)=     -123.84825349     Delta= 1.74D-04
 NORM(A)=   0.13456825D+01
 Iteration Nr.  15
 **********************
 DD1Dir will call FoFMem   1 times, MxPair=       206
 NAB=    70 NAA=    45 NBB=    21.
 A-vector RMS=  2.3997091D-04 Max=  3.5458659D-03 conv= 1.00D-05.
 RLE energy=       -0.7361420482
 DE(Corr)= -0.73584804     E(CORR)=     -123.84845246     Delta=-1.99D-04
 NORM(A)=   0.13550608D+01
 Iteration Nr.  16
 **********************
 DD1Dir will call FoFMem   1 times, MxPair=       206
 NAB=    70 NAA=    45 NBB=    21.
 A-vector RMS=  1.7901292D-04 Max=  2.1587392D-03 conv= 1.00D-05.
 RLE energy=       -0.7363830949
 DE(Corr)= -0.73661812     E(CORR)=     -123.84922254     Delta=-7.70D-04
 NORM(A)=   0.13509041D+01
 Iteration Nr.  17
 **********************
 DD1Dir will call FoFMem   1 times, MxPair=       206
 NAB=    70 NAA=    45 NBB=    21.
 A-vector RMS=  1.0812322D-04 Max=  1.3179821D-03 conv= 1.00D-05.
 RLE energy=       -0.7364846474
 DE(Corr)= -0.73631107     E(CORR)=     -123.84891549     Delta= 3.07D-04
 NORM(A)=   0.13540095D+01
 Iteration Nr.  18
 **********************
 DD1Dir will call FoFMem   1 times, MxPair=       206
 NAB=    70 NAA=    45 NBB=    21.
 A-vector RMS=  5.4089793D-05 Max=  6.0239500D-04 conv= 1.00D-05.
 RLE energy=       -0.7364370531
 DE(Corr)= -0.73644128     E(CORR)=     -123.84904570     Delta=-1.30D-04
 NORM(A)=   0.13540938D+01
 Iteration Nr.  19
 **********************
 DD1Dir will call FoFMem   1 times, MxPair=       206
 NAB=    70 NAA=    45 NBB=    21.
 A-vector RMS=  4.1001153D-05 Max=  6.7817235D-04 conv= 1.00D-05.
 RLE energy=       -0.7364875452
 DE(Corr)= -0.73653422     E(CORR)=     -123.84913865     Delta=-9.29D-05
 NORM(A)=   0.13537806D+01
 Iteration Nr.  20
 **********************
 DD1Dir will call FoFMem   1 times, MxPair=       206
 NAB=    70 NAA=    45 NBB=    21.
 A-vector RMS=  2.2454220D-05 Max=  2.7860611D-04 conv= 1.00D-05.
 RLE energy=       -0.7364955504
 DE(Corr)= -0.73650294     E(CORR)=     -123.84910736     Delta= 3.13D-05
 NORM(A)=   0.13536203D+01
 Iteration Nr.  21
 **********************
 DD1Dir will call FoFMem   1 times, MxPair=       206
 NAB=    70 NAA=    45 NBB=    21.
 A-vector RMS=  1.3445722D-05 Max=  1.8124716D-04 conv= 1.00D-05.
 RLE energy=       -0.7364803468
 DE(Corr)= -0.73650463     E(CORR)=     -123.84910905     Delta=-1.69D-06
 NORM(A)=   0.13531883D+01
 Iteration Nr.  22
 **********************
 DD1Dir will call FoFMem   1 times, MxPair=       206
 NAB=    70 NAA=    45 NBB=    21.
 A-vector RMS=  8.6588295D-06 Max=  1.1264284D-04 conv= 1.00D-05.
 RLE energy=       -0.7364874589
 DE(Corr)= -0.73649981     E(CORR)=     -123.84910423     Delta= 4.82D-06
 NORM(A)=   0.13527115D+01
 Iteration Nr.  23
 **********************
 DD1Dir will call FoFMem   1 times, MxPair=       206
 NAB=    70 NAA=    45 NBB=    21.
 A-vector RMS=  7.0362787D-06 Max=  7.1721064D-05 conv= 1.00D-05.
 RLE energy=       -0.7364832929
 DE(Corr)= -0.73647626     E(CORR)=     -123.84908069     Delta= 2.35D-05
 NORM(A)=   0.13527693D+01
 Iteration Nr.  24
 **********************
 DD1Dir will call FoFMem   1 times, MxPair=       206
 NAB=    70 NAA=    45 NBB=    21.
 A-vector RMS=  2.5741841D-06 Max=  2.8016121D-05 conv= 1.00D-05.
 RLE energy=       -0.7364795274
 DE(Corr)= -0.73648208     E(CORR)=     -123.84908650     Delta=-5.82D-06
 NORM(A)=   0.13527141D+01
 Iteration Nr.  25
 **********************
 DD1Dir will call FoFMem   1 times, MxPair=       206
 NAB=    70 NAA=    45 NBB=    21.
 A-vector RMS=  1.5715344D-06 Max=  2.3658336D-05 conv= 1.00D-05.
 RLE energy=       -0.7364803082
 DE(Corr)= -0.73648208     E(CORR)=     -123.84908651     Delta=-4.39D-09
 NORM(A)=   0.13526623D+01
 Iteration Nr.  26
 **********************
 DD1Dir will call FoFMem   1 times, MxPair=       206
 NAB=    70 NAA=    45 NBB=    21.
 A-vector RMS=  1.1132986D-06 Max=  1.6446452D-05 conv= 1.00D-05.
 RLE energy=       -0.7364798594
 DE(Corr)= -0.73647931     E(CORR)=     -123.84908374     Delta= 2.77D-06
 NORM(A)=   0.13526501D+01
 Iteration Nr.  27
 **********************
 DD1Dir will call FoFMem   1 times, MxPair=       206
 NAB=    70 NAA=    45 NBB=    21.
 A-vector RMS=  7.3294390D-07 Max=  9.5670856D-06 conv= 1.00D-05.
 RLE energy=       -0.7364787345
 DE(Corr)= -0.73647915     E(CORR)=     -123.84908358     Delta= 1.60D-07
 NORM(A)=   0.13526231D+01
 Iteration Nr.  28
 **********************
 DD1Dir will call FoFMem   1 times, MxPair=       206
 NAB=    70 NAA=    45 NBB=    21.
 A-vector RMS=  4.4506010D-07 Max=  4.7384144D-06 conv= 1.00D-05.
 RLE energy=       -0.7364784479
 DE(Corr)= -0.73647852     E(CORR)=     -123.84908295     Delta= 6.34D-07
 NORM(A)=   0.13526110D+01
 Iteration Nr.  29
 **********************
 DD1Dir will call FoFMem   1 times, MxPair=       206
 NAB=    70 NAA=    45 NBB=    21.
 A-vector RMS=  3.1022934D-07 Max=  3.6366180D-06 conv= 1.00D-05.
 RLE energy=       -0.7364782482
 DE(Corr)= -0.73647805     E(CORR)=     -123.84908247     Delta= 4.75D-07
 NORM(A)=   0.13526122D+01
 Iteration Nr.  30
 **********************
 DD1Dir will call FoFMem   1 times, MxPair=       206
 NAB=    70 NAA=    45 NBB=    21.
 A-vector RMS=  3.1576953D-07 Max=  3.3171075D-06 conv= 1.00D-05.
 RLE energy=       -0.7364779389
 DE(Corr)= -0.73647808     E(CORR)=     -123.84908251     Delta=-3.58D-08
 NORM(A)=   0.13526067D+01
 CI/CC converged in   30 iterations to DelEn=-3.58D-08 Conv= 1.00D-07 ErrA1= 3.16D-07 Conv= 1.00D-05
 Wavefunction amplitudes converged. E(Corr)=     -123.84908251    
 Dominant configurations:
 ***********************
 Spin Case        I    J    A    B          Value
    BB            5         8           -0.279008D+00
    BB            5        12           -0.242720D+00
    BB            5        21            0.144207D+00
    BB            7         8           -0.463246D+00
    BB            7        12           -0.400233D+00
    BB            7        21            0.240099D+00
 Largest amplitude= 4.63D-01
 Time for triples=     3507.96 seconds.
 T4(CCSD)= -0.48052336D-01
 T5(CCSD)=  0.22345823D-01
 CCSD(T)= -0.12387478902D+03
 Discarding MO integrals.
 Leave Link  913 at Sun Apr 22 23:02:44 2018, MaxMem= 21474836480 cpu:            6607.1 elap:             207.2
 (Enter /home1/apps/gaussian/16rA.03/g16/l601.exe)
 Copying SCF densities to generalized density rwf, IOpCl= 0 IROHF=1.

 **********************************************************************

            Population analysis using the SCF density.

 **********************************************************************

 Orbital symmetries:
       Occupied  (SG) (SG) (PI) (PI) (SG) (?A) (SG) (PI) (PI) (?A)
       Virtual   (SG) (PI) (PI) (SG) (SG) (PI) (PI) (SG) (DLTA)
                 (DLTA) (PI) (PI) (SG) (SG) (SG) (PI) (PI) (SG)
                 (PI) (PI) (?A) (?A) (PI) (PI) (SG) (SG) (SG) (SG)
                 (DLTA) (DLTA) (PI) (PI) (SG) (PHI) (PHI) (PI)
                 (PI) (SG) (PI) (PI) (DLTA) (DLTA) (PI) (PI) (SG)
                 (DLTA) (DLTA) (SG) (PI) (PI) (SG) (SG) (SG) (SG)
                 (?B) (?B) (?B) (?B) (DLTA) (DLTA) (PI) (PI) (SG)
                 (SG) (PI) (PI) (DLTA) (DLTA) (?B) (?B) (?C) (?C)
                 (DLTA) (DLTA) (?B) (?B) (DLTA) (DLTA) (SG) (PI)
                 (PI) (PI) (PI) (SG) (SG) (SG) (?D) (?D) (DLTA)
                 (DLTA) (?D) (?D) (DLTA) (DLTA) (SG) (?D) (?D)
                 (SG) (?D) (?D) (SG) (?B) (?B) (DLTA) (?C) (?C)
                 (DLTA) (?B) (?B) (SG) (SG) (SG) (DLTA) (DLTA)
                 (PI) (PI) (SG) (PI) (PI) (SG) (DLTA) (?B) (?B)
                 (DLTA) (?B) (?B) (SG) (?B) (?B) (DLTA) (?E) (?E)
                 (DLTA) (?B) (?B) (?E) (SG) (DLTA) (DLTA) (PI)
                 (PI) (SG) (PI) (PI) (SG) (DLTA) (DLTA) (PI) (PI)
                 (SG) (SG) (SG) (PI) (PI) (SG) (DLTA) (DLTA) (PI)
                 (PI) (SG) (SG) (PI) (PI) (SG) (SG) (PI) (PI) (SG)
                 (SG) (DLTA) (DLTA) (PI) (PI) (SG) (PI) (PI) (SG)
                 (SG) (PI) (PI) (SG) (SG) (PI) (PI) (SG) (SG) (PI)
                 (PI) (SG) (SG) (PI) (PI) (SG) (SG) (SG) (PI) (PI)
                 (SG) (SG) (SG) (SG) (SG)
 Unable to determine electronic state:  an orbital has unidentified symmetry.
 Alpha  occ. eigenvalues --   -4.23268  -2.76460  -2.76175  -2.76175  -0.48826
 Alpha  occ. eigenvalues --   -0.48826  -0.48567  -0.43629  -0.42889  -0.31752
 Alpha virt. eigenvalues --   -0.00855   0.02368   0.02368   0.03375   0.03866
 Alpha virt. eigenvalues --    0.08406   0.08406   0.09473   0.10102   0.10144
 Alpha virt. eigenvalues --    0.10383   0.10383   0.11025   0.17044   0.22766
 Alpha virt. eigenvalues --    0.27786   0.27786   0.28770   0.34885   0.34885
 Alpha virt. eigenvalues --    0.36975   0.37439   0.39113   0.39113   0.39626
 Alpha virt. eigenvalues --    0.50508   0.56662   0.70949   0.86248   0.86361
 Alpha virt. eigenvalues --    0.91396   0.91396   0.95698   0.98968   0.98968
 Alpha virt. eigenvalues --    1.02342   1.02342   1.08763   1.10607   1.10607
 Alpha virt. eigenvalues --    1.12670   1.13072   1.17081   1.17081   1.18065
 Alpha virt. eigenvalues --    1.22120   1.23573   1.45082   1.62098   1.62098
 Alpha virt. eigenvalues --    1.96029   2.07542   2.63177   2.93158   2.93158
 Alpha virt. eigenvalues --    2.93824   2.94354   2.95227   2.95227   2.95381
 Alpha virt. eigenvalues --    2.97876   2.97876   3.21718   3.35079   3.39000
 Alpha virt. eigenvalues --    3.39000   3.40137   3.42697   3.52403   3.52403
 Alpha virt. eigenvalues --    3.53733   3.53735   3.54584   3.55577   3.61286
 Alpha virt. eigenvalues --    3.61286   4.00963   4.01002   4.02077   4.28520
 Alpha virt. eigenvalues --    4.28520   4.46772   4.46772   4.76922   5.25505
 Alpha virt. eigenvalues --    5.93263   7.73127   7.75389   7.75389   7.75957
 Alpha virt. eigenvalues --    7.79919   7.79919   7.83278   7.85968   7.86396
 Alpha virt. eigenvalues --    7.89385   7.89385   8.10818   8.11322   8.11322
 Alpha virt. eigenvalues --    8.38613  10.01086  10.01086  10.02181  10.03901
 Alpha virt. eigenvalues --   10.03916  10.04406  10.16562  10.16562  10.33030
 Alpha virt. eigenvalues --   10.48388  13.63962  15.61106  15.64544  15.65653
 Alpha virt. eigenvalues --   15.65653  15.75658  18.79189  18.79189  19.03673
 Alpha virt. eigenvalues --   20.60944  20.63319  20.63319  20.63758  20.68321
 Alpha virt. eigenvalues --   20.68321  20.80564  26.20199  26.20199  26.20763
 Alpha virt. eigenvalues --   26.23091  26.23147  26.23427  26.29585  26.29585
 Alpha virt. eigenvalues --   26.45890  28.40832  28.80456  28.84148  28.85043
 Alpha virt. eigenvalues --   28.85043  28.95702  38.29354  38.29354  38.63579
 Alpha virt. eigenvalues --   52.42866  52.46263  52.47357  52.47357  52.56546
 Alpha virt. eigenvalues --   57.91145  63.93259  73.80022  73.80022  74.22734
 Alpha virt. eigenvalues --  115.81642 115.83682 115.85450 115.85450 115.91733
 Alpha virt. eigenvalues --  116.75788 140.73472 140.73472 141.17177 210.53058
 Alpha virt. eigenvalues --  268.32412 268.32412 268.74206 374.62099 400.79211
 Alpha virt. eigenvalues --  400.79719 400.81566 400.81566 400.85157 522.94460
 Alpha virt. eigenvalues --  522.94460 523.34300 706.715011066.689581066.68958
 Alpha virt. eigenvalues -- 1067.057641412.897342333.476482333.476482333.80640
 Alpha virt. eigenvalues -- 3001.335965634.709675634.709675634.995246786.54089
 Alpha virt. eigenvalues -- **************************************************
 Alpha virt. eigenvalues -- **************************************************
 Alpha virt. eigenvalues -- ********************
     Molecular Orbital Coefficients:
                           3         4         5         6         7
                           O         O         O         O         O
     Eigenvalues --    -2.76175  -2.76175  -0.48826  -0.48826  -0.48567
   1 1   Fe 1S          0.00000   0.00000   0.00000   0.00000   0.00000
   2        2S          0.00000   0.00000  -0.00000   0.00000  -0.00000
   3        3S          0.00000   0.00000   0.00000   0.00000   0.00000
   4        4S          0.00000   0.00000  -0.00000   0.00000  -0.00000
   5        5S          0.00000   0.00000   0.00000   0.00000   0.00000
   6        6S          0.00000   0.00000  -0.00000   0.00000  -0.00001
   7        7S          0.00000   0.00000   0.00001   0.00000   0.00002
   8        8S          0.00000   0.00000  -0.00002   0.00000  -0.00007
   9        9S          0.00000   0.00000   0.00005   0.00000   0.00020
  10       10S          0.00000   0.00000  -0.00016   0.00000  -0.00060
  11       11S          0.00000   0.00000   0.00049   0.00000   0.00188
  12       12S          0.00000   0.00000  -0.00174   0.00000  -0.00676
  13       13S          0.00000   0.00000  -0.00023   0.00000  -0.00053
  14       14S          0.00000   0.00000   0.02087   0.00000   0.08108
  15       15S          0.00000   0.00000   0.00107   0.00000   0.00034
  16       16S          0.00000   0.00000  -0.04485   0.00000  -0.16685
  17       17S          0.00000   0.00000  -0.04288   0.00000  -0.14570
  18       18S          0.00000   0.00000   0.00272   0.00000   0.16617
  19       19S          0.00000   0.00000   0.04835   0.00000   0.21264
  20       20S          0.00000   0.00000   0.01316   0.00000   0.09144
  21       21S          0.00000   0.00000  -0.00794   0.00000  -0.03076
  22       22S          0.00000   0.00000   0.01607   0.00000   0.02789
  23       23S          0.00000   0.00000  -0.00572   0.00000  -0.01668
  24       24PX         0.00000   0.00000   0.00000   0.00000   0.00000
  25       24PY         0.00000   0.00000   0.00000   0.00000   0.00000
  26       24PZ         0.00000   0.00000   0.00000   0.00000   0.00000
  27       25PX         0.00000  -0.00000   0.00000   0.00000   0.00000
  28       25PY        -0.00000   0.00000   0.00000   0.00000   0.00000
  29       25PZ         0.00000   0.00000  -0.00000   0.00000  -0.00000
  30       26PX         0.00000   0.00001   0.00000   0.00000   0.00000
  31       26PY         0.00001   0.00000   0.00000   0.00000   0.00000
  32       26PZ         0.00000   0.00000   0.00000   0.00000   0.00000
  33       27PX         0.00000  -0.00006   0.00000   0.00000   0.00000
  34       27PY        -0.00006   0.00000   0.00000   0.00000   0.00000
  35       27PZ         0.00000   0.00000  -0.00000   0.00000  -0.00000
  36       28PX         0.00000   0.00025   0.00000   0.00000   0.00000
  37       28PY         0.00025   0.00000   0.00000   0.00000   0.00000
  38       28PZ         0.00000   0.00000   0.00001   0.00000   0.00001
  39       29PX         0.00000  -0.00094   0.00000   0.00000   0.00000
  40       29PY        -0.00094   0.00000   0.00000   0.00000   0.00000
  41       29PZ         0.00000   0.00000  -0.00005   0.00000  -0.00006
  42       30PX         0.00000   0.00413   0.00000   0.00000   0.00000
  43       30PY         0.00413   0.00000   0.00000   0.00000   0.00000
  44       30PZ         0.00000   0.00000   0.00021   0.00000   0.00028
  45       31PX         0.00000  -0.00756   0.00000   0.00000   0.00000
  46       31PY        -0.00756   0.00000   0.00000   0.00000   0.00000
  47       31PZ         0.00000   0.00000  -0.00045   0.00000  -0.00048
  48       32PX         0.00000  -0.07464   0.00000   0.00000   0.00000
  49       32PY        -0.07464   0.00000   0.00000   0.00000   0.00000
  50       32PZ         0.00000   0.00000  -0.00298   0.00000  -0.00636
  51       33PX         0.00000   0.06029   0.00000   0.00000   0.00000
  52       33PY         0.06029   0.00000   0.00000   0.00000   0.00000
  53       33PZ         0.00000   0.00000   0.00646   0.00000   0.00057
  54       34PX         0.00000   0.31883   0.00000   0.00000   0.00000
  55       34PY         0.31883   0.00000   0.00000   0.00000   0.00000
  56       34PZ         0.00000   0.00000   0.01492   0.00000   0.02707
[...]
 212       11D+1        0.00000   0.00000
 213       11D-1        0.00000   0.00000   0.00000
 214       11D+2        0.00000   0.00000   0.00000   0.00000
 215       11D-2        0.00000   0.00000   0.00000   0.00000   0.00000
     Gross orbital populations:
                         Total     Alpha     Beta      Spin
   1 1   Fe 1S         -0.00000  -0.00000  -0.00000  -0.00000
   2        2S          0.00000   0.00000   0.00000   0.00000
   3        3S         -0.00000  -0.00000  -0.00000  -0.00000
   4        4S          0.00000   0.00000   0.00000   0.00000
   5        5S         -0.00000  -0.00000  -0.00000  -0.00000
   6        6S          0.00000   0.00000   0.00000   0.00000
   7        7S         -0.00000  -0.00000  -0.00000  -0.00000
   8        8S          0.00000   0.00000   0.00000   0.00000
   9        9S         -0.00001  -0.00000  -0.00000  -0.00000
  10       10S          0.00004   0.00002   0.00002   0.00000
  11       11S         -0.00037  -0.00019  -0.00019  -0.00000
  12       12S          0.00430   0.00215   0.00215   0.00000
  13       13S          0.00254   0.00127   0.00127  -0.00000
  14       14S         -0.36727  -0.18364  -0.18364  -0.00000
  15       15S          0.01436   0.00718   0.00718   0.00000
  16       16S          1.59495   0.79748   0.79748  -0.00000
  17       17S          0.76950   0.38475   0.38475   0.00000
  18       18S          0.19191   0.09595   0.09595   0.00000
  19       19S          0.29228   0.14614   0.14614   0.00000
  20       20S          0.12201   0.06100   0.06100  -0.00000
  21       21S          0.17884   0.08942   0.08942  -0.00000
  22       22S         -0.21776  -0.10888  -0.10888   0.00000
  23       23S         -0.01797  -0.00899  -0.00899   0.00000
  24       24PX         0.00000   0.00000   0.00000   0.00000
  25       24PY         0.00000   0.00000   0.00000   0.00000
  26       24PZ         0.00000   0.00000   0.00000   0.00000
  27       25PX        -0.00000  -0.00000  -0.00000  -0.00000
  28       25PY        -0.00000  -0.00000  -0.00000  -0.00000
  29       25PZ        -0.00000  -0.00000  -0.00000  -0.00000
  30       26PX         0.00000   0.00000   0.00000   0.00000
  31       26PY         0.00000   0.00000   0.00000   0.00000
  32       26PZ         0.00000   0.00000   0.00000   0.00000
  33       27PX        -0.00000  -0.00000  -0.00000  -0.00000
  34       27PY        -0.00000  -0.00000  -0.00000  -0.00000
  35       27PZ        -0.00000  -0.00000  -0.00000  -0.00000
  36       28PX         0.00000   0.00000   0.00000   0.00000
  37       28PY         0.00000   0.00000   0.00000   0.00000
  38       28PZ         0.00000   0.00000   0.00000   0.00000
  39       29PX        -0.00004  -0.00002  -0.00002  -0.00000
  40       29PY        -0.00004  -0.00002  -0.00002  -0.00000
  41       29PZ        -0.00004  -0.00002  -0.00002  -0.00000
  42       30PX         0.00045   0.00022   0.00022   0.00000
  43       30PY         0.00045   0.00022   0.00022   0.00000
  44       30PZ         0.00045   0.00023   0.00023   0.00000
  45       31PX        -0.00216  -0.00108  -0.00108  -0.00000
  46       31PY        -0.00216  -0.00108  -0.00108  -0.00000
  47       31PZ        -0.00220  -0.00110  -0.00110  -0.00000
  48       32PX        -0.04792  -0.02397  -0.02396  -0.00001
  49       32PY        -0.04792  -0.02397  -0.02396  -0.00001
  50       32PZ        -0.04840  -0.02420  -0.02420  -0.00000
  51       33PX         0.07056   0.03529   0.03527   0.00002
  52       33PY         0.07056   0.03529   0.03527   0.00002
  53       33PZ         0.07357   0.03679   0.03679   0.00000
  54       34PX         0.54838   0.27424   0.27414   0.00010
  55       34PY         0.54838   0.27424   0.27414   0.00010
  56       34PZ         0.55315   0.27658   0.27658   0.00000
  57       35PX         0.47174   0.23589   0.23585   0.00003
  58       35PY         0.47174   0.23589   0.23585   0.00003
  59       35PZ         0.47752   0.23876   0.23876   0.00000
  60       36PX         0.51453   0.25726   0.25727  -0.00001
  61       36PY         0.51453   0.25726   0.25727  -0.00001
  62       36PZ         0.50685   0.25343   0.25343  -0.00000
  63       37PX         0.05034   0.02536   0.02498   0.00038
  64       37PY         0.05034   0.02536   0.02498   0.00038
  65       37PZ         0.06985   0.03492   0.03492   0.00000
  66       38PX        -0.00088  -0.00027  -0.00061   0.00034
  67       38PY        -0.00088  -0.00027  -0.00061   0.00034
  68       38PZ         0.05783   0.02891   0.02891   0.00000
  69       39PX         0.00025   0.00011   0.00014  -0.00003
  70       39PY         0.00025   0.00011   0.00014  -0.00003
  71       39PZ         0.02433   0.01217   0.01217   0.00000
  72       40PX        -0.03047  -0.01524  -0.01523  -0.00001
  73       40PY        -0.03047  -0.01524  -0.01523  -0.00001
  74       40PZ        -0.03267  -0.01633  -0.01633  -0.00000
  75       41PX         0.42588   0.21299   0.21289   0.00010
  76       41PY         0.42588   0.21299   0.21289   0.00010
  77       41PZ         0.42851   0.21425   0.21425   0.00000
  78       42PX        -0.00002  -0.00001  -0.00001   0.00000
  79       42PY        -0.00002  -0.00001  -0.00001   0.00000
  80       42PZ        -0.00313  -0.00157  -0.00157   0.00000
  81       43D 0        0.00002   0.00001   0.00001   0.00000
  82       43D+1        0.00001   0.00001   0.00000   0.00001
  83       43D-1        0.00001   0.00001   0.00000   0.00001
  84       43D+2        0.00001   0.00001   0.00000   0.00001
  85       43D-2        0.00002   0.00001   0.00001   0.00000
  86       44D 0        0.00801   0.00400   0.00400   0.00000
  87       44D+1        0.00470   0.00470   0.00000   0.00470
  88       44D-1        0.00470   0.00470   0.00000   0.00470
  89       44D+2        0.00471   0.00471   0.00000   0.00471
  90       44D-2        0.00891   0.00446   0.00446   0.00000
  91       45D 0        0.07176   0.03588   0.03588   0.00000
  92       45D+1        0.04206   0.04205   0.00000   0.04205
  93       45D-1        0.04206   0.04205   0.00000   0.04205
  94       45D+2        0.04223   0.04223   0.00000   0.04223
  95       45D-2        0.07990   0.03995   0.03995   0.00000
  96       46D 0        0.22972   0.11486   0.11486   0.00000
  97       46D+1        0.13303   0.13302   0.00001   0.13301
  98       46D-1        0.13303   0.13302   0.00001   0.13301
  99       46D+2        0.13317   0.13317   0.00000   0.13317
 100       46D-2        0.25018   0.12509   0.12509   0.00000
 101       47D 0        0.74867   0.37433   0.37433   0.00000
 102       47D+1        0.45076   0.45081  -0.00004   0.45085
 103       47D-1        0.45076   0.45081  -0.00004   0.45085
 104       47D+2        0.45534   0.45534   0.00000   0.45534
 105       47D-2        0.89360   0.44680   0.44680   0.00000
 106       48D 0        0.57202   0.28601   0.28601   0.00000
 107       48D+1        0.30992   0.30989   0.00003   0.30985
 108       48D-1        0.30992   0.30989   0.00003   0.30985
 109       48D+2        0.31024   0.31024   0.00000   0.31024
 110       48D-2        0.60923   0.30462   0.30462   0.00000
 111       49D 0        0.35305   0.17652   0.17652   0.00000
 112       49D+1        0.15017   0.15016   0.00001   0.15015
 113       49D-1        0.15017   0.15016   0.00001   0.15015
 114       49D+2        0.15038   0.15038   0.00000   0.15038
 115       49D-2        0.34400   0.17200   0.17200   0.00000
 116       50D 0        0.07581   0.03791   0.03791   0.00000
 117       50D+1        0.01790   0.01790  -0.00000   0.01790
 118       50D-1        0.01790   0.01790  -0.00000   0.01790
 119       50D+2        0.01711   0.01711   0.00000   0.01711
 120       50D-2        0.05714   0.02857   0.02857   0.00000
 121       51D 0        0.05641   0.02820   0.02820   0.00000
 122       51D+1        0.03474   0.03474  -0.00000   0.03474
 123       51D-1        0.03474   0.03474  -0.00000   0.03474
 124       51D+2        0.03533   0.03533   0.00000   0.03533
 125       51D-2        0.06873   0.03437   0.03437   0.00000
 126       52D 0       -0.21879  -0.10939  -0.10939   0.00000
 127       52D+1       -0.14462  -0.14468   0.00006  -0.14474
 128       52D-1       -0.14462  -0.14468   0.00006  -0.14474
 129       52D+2       -0.14844  -0.14844  -0.00000  -0.14844
 130       52D-2       -0.31155  -0.15577  -0.15577   0.00000
 131       53D 0        0.00037   0.00018   0.00018  -0.00000
 132       53D+1       -0.00016  -0.00016   0.00000  -0.00016
 133       53D-1       -0.00016  -0.00016   0.00000  -0.00016
 134       53D+2       -0.00024  -0.00024   0.00000  -0.00024
 135       53D-2       -0.00039  -0.00019  -0.00019   0.00000
 136       54F 0        0.00001   0.00001   0.00001   0.00000
 137       54F+1        0.00000   0.00000   0.00000   0.00000
 138       54F-1        0.00000   0.00000   0.00000   0.00000
 139       54F+2        0.00000   0.00000   0.00000   0.00000
 140       54F-2        0.00000   0.00000   0.00000   0.00000
 141       54F+3        0.00001   0.00000   0.00000   0.00000
 142       54F-3        0.00001   0.00000   0.00000   0.00000
 143       55F 0        0.00006   0.00003   0.00003   0.00000
 144       55F+1        0.00002   0.00001   0.00000   0.00001
 145       55F-1        0.00002   0.00001   0.00000   0.00001
 146       55F+2        0.00000   0.00000   0.00000   0.00000
 147       55F-2        0.00001   0.00001   0.00001   0.00000
 148       55F+3        0.00003   0.00001   0.00001   0.00000
 149       55F-3        0.00003   0.00001   0.00001   0.00000
 150       56F 0        0.00048   0.00024   0.00024   0.00000
 151       56F+1        0.00007   0.00006   0.00001   0.00006
 152       56F-1        0.00007   0.00006   0.00001   0.00006
 153       56F+2        0.00004   0.00004   0.00000   0.00004
 154       56F-2        0.00008   0.00004   0.00004   0.00000
 155       56F+3        0.00003   0.00002   0.00002  -0.00000
 156       56F-3        0.00003   0.00002   0.00002  -0.00000
 157       57F 0        0.00240   0.00120   0.00120   0.00000
 158       57F+1        0.00010   0.00009   0.00000   0.00009
 159       57F-1        0.00010   0.00009   0.00000   0.00009
 160       57F+2        0.00009   0.00009   0.00000   0.00009
 161       57F-2        0.00024   0.00012   0.00012   0.00000
 162       57F+3        0.00001   0.00000   0.00000   0.00000
 163       57F-3        0.00001   0.00000   0.00000   0.00000
 164       58G 0        0.00000   0.00000   0.00000   0.00000
 165       58G+1        0.00000   0.00000  -0.00000   0.00000
 166       58G-1        0.00000   0.00000  -0.00000   0.00000
 167       58G+2        0.00000   0.00000   0.00000   0.00000
 168       58G-2        0.00000   0.00000   0.00000   0.00000
 169       58G+3        0.00000   0.00000   0.00000   0.00000
 170       58G-3        0.00000   0.00000   0.00000   0.00000
 171       58G+4        0.00000   0.00000   0.00000   0.00000
 172       58G-4        0.00000   0.00000   0.00000   0.00000
 173       59G 0        0.00000   0.00000   0.00000   0.00000
 174       59G+1       -0.00000  -0.00000   0.00000  -0.00000
 175       59G-1       -0.00000  -0.00000   0.00000  -0.00000
 176       59G+2        0.00000   0.00000  -0.00000   0.00000
 177       59G-2        0.00000   0.00000   0.00000   0.00000
 178       59G+3        0.00000   0.00000   0.00000   0.00000
 179       59G-3        0.00000   0.00000   0.00000   0.00000
 180       59G+4        0.00000   0.00000   0.00000   0.00000
 181       59G-4       -0.00000  -0.00000  -0.00000   0.00000
 182       60G 0        0.00012   0.00006   0.00006   0.00000
 183       60G+1        0.00000   0.00000   0.00000   0.00000
 184       60G-1        0.00000   0.00000   0.00000   0.00000
 185       60G+2        0.00000   0.00000   0.00000   0.00000
 186       60G-2        0.00000   0.00000   0.00000   0.00000
 187       60G+3        0.00000   0.00000   0.00000   0.00000
 188       60G-3        0.00000   0.00000   0.00000   0.00000
 189       60G+4        0.00000   0.00000   0.00000   0.00000
 190       60G-4        0.00000   0.00000   0.00000   0.00000
 191 2   H  1S          0.00061   0.00031   0.00031   0.00000
 192        2S          0.02135   0.01067   0.01067   0.00000
 193        3S          0.16393   0.08196   0.08196   0.00000
 194        4S          0.55162   0.27581   0.27581   0.00000
 195        5S          0.60033   0.30017   0.30017   0.00000
 196        6S          0.07247   0.03623   0.03623   0.00000
 197        7PX         0.00004   0.00004   0.00000   0.00004
 198        7PY         0.00004   0.00004   0.00000   0.00004
 199        7PZ         0.00066   0.00033   0.00033   0.00000
 200        8PX         0.00070   0.00069   0.00001   0.00068
 201        8PY         0.00070   0.00069   0.00001   0.00068
 202        8PZ         0.00643   0.00322   0.00322  -0.00000
 203        9PX        -0.00031  -0.00032   0.00001  -0.00032
 204        9PY        -0.00031  -0.00032   0.00001  -0.00032
 205        9PZ         0.00889   0.00445   0.00445   0.00000
 206       10D 0        0.00034   0.00017   0.00017   0.00000
 207       10D+1        0.00004   0.00004   0.00000   0.00004
 208       10D-1        0.00004   0.00004   0.00000   0.00004
 209       10D+2        0.00000   0.00000   0.00000   0.00000
 210       10D-2        0.00001   0.00001   0.00001   0.00000
 211       11D 0        0.00028   0.00014   0.00014   0.00000
 212       11D+1        0.00012   0.00012  -0.00000   0.00013
 213       11D-1        0.00012   0.00012  -0.00000   0.00013
 214       11D+2        0.00000   0.00000   0.00000   0.00000
 215       11D-2       -0.00013  -0.00006  -0.00006   0.00000
          Condensed to atoms (all electrons):
               1          2
     1  Fe  15.221543   0.350474
     2  H    0.350474   1.077508
          Atomic-Atomic Spin Densities.
               1          2
     1  Fe   2.997808   0.001066
     2  H    0.001066   0.000061
 Mulliken charges and spin densities:
               1          2
     1  Fe   0.427983   2.998874
     2  H   -0.427983   0.001126
 Sum of Mulliken charges =  -0.00000   3.00000
 Mulliken charges and spin densities with hydrogens summed into heavy atoms:
               1          2
     1  Fe  -0.000000   3.000000
 Electronic spatial extent (au):  <R**2>=             47.9847
 Charge=             -0.0000 electrons
 Dipole moment (field-independent basis, Debye):
    X=              0.0000    Y=              0.0000    Z=              4.9995  Tot=              4.9995
 Quadrupole moment (field-independent basis, Debye-Ang):
   XX=            -15.3484   YY=            -15.3484   ZZ=            -19.0717
   XY=              0.0000   XZ=              0.0000   YZ=              0.0000
 Traceless Quadrupole moment (field-independent basis, Debye-Ang):
   XX=              1.2411   YY=              1.2411   ZZ=             -2.4822
   XY=              0.0000   XZ=              0.0000   YZ=              0.0000
 Octapole moment (field-independent basis, Debye-Ang**2):
  XXX=              0.0000  YYY=              0.0000  ZZZ=             22.0647  XYY=              0.0000
  XXY=              0.0000  XXZ=              5.1655  XZZ=              0.0000  YZZ=              0.0000
  YYZ=              5.1655  XYZ=              0.0000
 Hexadecapole moment (field-independent basis, Debye-Ang**3):
 XXXX=            -22.8471 YYYY=            -22.8471 ZZZZ=            -72.2771 XXXY=              0.0000
 XXXZ=              0.0000 YYYX=              0.0000 YYYZ=              0.0000 ZZZX=              0.0000
 ZZZY=              0.0000 XXYY=             -7.9686 XXZZ=            -14.4773 YYZZ=            -14.4773
 XXYZ=              0.0000 YYXZ=              0.0000 ZZXY=              0.0000
 N-N= 4.703797430400D+00 E-N=-3.015770563756D+02  KE= 7.342792004692D+01
 Symmetry A1   KE= 3.160712095796D+01
 Symmetry A2   KE= 1.298219233176D+01
 Symmetry B1   KE= 1.441930335539D+01
 Symmetry B2   KE= 1.441930340173D+01
 Symmetry A1   SP= 1.000000000000D+00
 Symmetry A2   SP= 0.000000000000D+00
 Symmetry B1   SP= 1.000000000000D+00
 Symmetry B2   SP= 1.000000000000D+00
 Orbital energies and kinetic energies (alpha):
                                 1                 2
   3         O                -2.761754          3.808919
   4         O                -2.761753          3.808919
   5         O                -0.488263          4.089239
   6         O                -0.488263          6.491096
   7         O                -0.485672          2.227607
   8         O                -0.436286          6.801465
   9         O                -0.428892          6.801465
  10         O                -0.317515          6.822799
  11         V                -0.008547          0.194895
  12         V                 0.023684          0.044111
  13         V                 0.023684          0.044111
  14         V                 0.033752          0.038958
  15         V                 0.038660          0.212588
 Total kinetic energy from orbitals= 9.385364870122D+01
                          Isotropic Fermi Contact Couplings
        Atom                 a.u.       MegaHertz       Gauss      10(-4) cm-1
     1  Fe(57)             0.00000       0.00000       0.00000       0.00000
     2  H(1)               0.00000       0.00000       0.00000       0.00000
 --------------------------------------------------------
       Center         ----  Spin Dipole Couplings  ----
                      3XX-RR        3YY-RR        3ZZ-RR
 --------------------------------------------------------
     1   Atom        0.005072      0.005062     -0.010133
     2   Atom       -0.069404     -0.069404      0.138808
 --------------------------------------------------------
                        XY            XZ            YZ
 --------------------------------------------------------
     1   Atom        0.000000      0.000000      0.000000
     2   Atom        0.000000      0.000000      0.000000
 --------------------------------------------------------


 ---------------------------------------------------------------------------------
              Anisotropic Spin Dipole Couplings in Principal Axis System
 ---------------------------------------------------------------------------------

       Atom             a.u.   MegaHertz   Gauss  10(-4) cm-1        Axes

              Baa    -0.0101    -0.175    -0.063    -0.059  0.0000  0.0000  1.0000
     1 Fe(57) Bbb     0.0051     0.088     0.031     0.029 -0.0000  1.0000  0.0000
              Bcc     0.0051     0.088     0.031     0.029  1.0000  0.0000  0.0000
 
              Baa    -0.0694   -37.031   -13.213   -12.352 -0.0000  1.0000  0.0000
     2 H(1)   Bbb    -0.0694   -37.031   -13.213   -12.352  1.0000  0.0000  0.0000
              Bcc     0.1388    74.061    26.427    24.704  0.0000  0.0000  1.0000
 

 ---------------------------------------------------------------------------------

 No NMR shielding tensors so no spin-rotation constants.
 Leave Link  601 at Sun Apr 22 23:02:45 2018, MaxMem= 21474836480 cpu:              15.9 elap:               0.5
 (Enter /home1/apps/gaussian/16rA.03/g16/l9999.exe)

 Test job not archived.
 1\1\GINC-C479-054\SP\ROCCSD(T)-Full\Gen\Fe1H1(4)\GWANG18\22-Apr-2018\0
 \\#P ROCCSD(T)=(MaxCyc=150, Full)/Gen SCF=(maxcycle=400, vshift=200) P
 seudo=Read Integral(NoXCTest) Pop=Regular MaxDisk=500GB Guess=Read IOp
 (5/15=2)\\FeH\\0,4\Fe,0,0.,0.,0.\H,0,0.,0.,1.8\\Version=ES64L-G16RevA.
 03\HF=-123.1126044\MP2=-123.868944\MP3=-123.8147734\PUHF=-123.1126044\
 PMP2-0=-123.868944\MP4SDQ=-123.8538352\CCSD=-123.8490825\CCSD(T)=-123.
 874789\RMSD=7.523e-09\PG=C*V [C*(H1Fe1)]\\@


 ERROR IS A HARDY PLANT... IT FLOURISHETH IN EVERY SOIL.
            MARTIN FARQUHAR TUPPER
 Job cpu time:       0 days  2 hours  8 minutes 43.2 seconds.
 Elapsed time:       0 days  0 hours  4 minutes  5.6 seconds.
 File lengths (MBytes):  RWF=   2673 Int=      0 D2E=      0 Chk=      6 Scr=      1
 Normal termination of Gaussian 16 at Sun Apr 22 23:02:45 2018.
