 Entering Gaussian System, Link 0=g16
 Initial command:
 /home1/apps/gaussian/16rA.03/g16/l1.exe "/tmp/Gau-201481.inp" -scrdir="/tmp/"
 Entering Link 1 = /home1/apps/gaussian/16rA.03/g16/l1.exe PID=    201482.
  
 Copyright (c) 1988,1990,1992,1993,1995,1998,2003,2009,2016,
            Gaussian, Inc.  All Rights Reserved.
  
 This is part of the Gaussian(R) 16 program.  It is based on
 the Gaussian(R) 09 system (copyright 2009, Gaussian, Inc.),
 the Gaussian(R) 03 system (copyright 2003, Gaussian, Inc.),
 the Gaussian(R) 98 system (copyright 1998, Gaussian, Inc.),
 the Gaussian(R) 94 system (copyright 1995, Gaussian, Inc.),
 the Gaussian 92(TM) system (copyright 1992, Gaussian, Inc.),
 the Gaussian 90(TM) system (copyright 1990, Gaussian, Inc.),
 the Gaussian 88(TM) system (copyright 1988, Gaussian, Inc.),
 the Gaussian 86(TM) system (copyright 1986, Carnegie Mellon
 University), and the Gaussian 82(TM) system (copyright 1983,
 Carnegie Mellon University). Gaussian is a federally registered
 trademark of Gaussian, Inc.
  
 This software contains proprietary and confidential information,
 including trade secrets, belonging to Gaussian, Inc.
  
 This software is provided under written license and may be
 used, copied, transmitted, or stored only in accord with that
 written license.
  
 The following legend is applicable only to US Government
 contracts under FAR:
  
                    RESTRICTED RIGHTS LEGEND
  
 Use, reproduction and disclosure by the US Government is
 subject to restrictions as set forth in subparagraphs (a)
 and (c) of the Commercial Computer Software - Restricted
 Rights clause in FAR 52.227-19.
  
 Gaussian, Inc.
 340 Quinnipiac St., Bldg. 40, Wallingford CT 06492
  
  
 ---------------------------------------------------------------
 Warning -- This program may not be used in any manner that
 competes with the business of Gaussian, Inc. or will provide
 assistance to any competitor of Gaussian, Inc.  The licensee
 of this program is prohibited from giving any competitor of
 Gaussian, Inc. access to this program.  By using this program,
 the user acknowledges that Gaussian, Inc. is engaged in the
 business of creating and licensing software in the field of
 computational chemistry and represents and warrants to the
 licensee that it is not a competitor of Gaussian, Inc. and that
 it will not use this program in any manner prohibited above.
 ---------------------------------------------------------------
  

 Cite this work as:
 Gaussian 16, Revision A.03,
 M. J. Frisch, G. W. Trucks, H. B. Schlegel, G. E. Scuseria, 
 M. A. Robb, J. R. Cheeseman, G. Scalmani, V. Barone, 
 G. A. Petersson, H. Nakatsuji, X. Li, M. Caricato, A. V. Marenich, 
 J. Bloino, B. G. Janesko, R. Gomperts, B. Mennucci, H. P. Hratchian, 
 J. V. Ortiz, A. F. Izmaylov, J. L. Sonnenberg, D. Williams-Young, 
 F. Ding, F. Lipparini, F. Egidi, J. Goings, B. Peng, A. Petrone, 
 T. Henderson, D. Ranasinghe, V. G. Zakrzewski, J. Gao, N. Rega, 
 G. Zheng, W. Liang, M. Hada, M. Ehara, K. Toyota, R. Fukuda, 
 J. Hasegawa, M. Ishida, T. Nakajima, Y. Honda, O. Kitao, H. Nakai, 
 T. Vreven, K. Throssell, J. A. Montgomery, Jr., J. E. Peralta, 
 F. Ogliaro, M. J. Bearpark, J. J. Heyd, E. N. Brothers, K. N. Kudin, 
 V. N. Staroverov, T. A. Keith, R. Kobayashi, J. Normand, 
 K. Raghavachari, A. P. Rendell, J. C. Burant, S. S. Iyengar, 
 J. Tomasi, M. Cossi, J. M. Millam, M. Klene, C. Adamo, R. Cammi, 
 J. W. Ochterski, R. L. Martin, K. Morokuma, O. Farkas, 
 J. B. Foresman, and D. J. Fox, Gaussian, Inc., Wallingford CT, 2016.
 
 ******************************************
 Gaussian 16:  ES64L-G16RevA.03 25-Dec-2016
                 7-Mar-2018 
 ******************************************
 %mem=80GB
 %cpu=0-31
 SetSPE:  set environment variable "MP_BIND" = "yes"
 SetSPE:  set environment variable "MP_BLIST" = "0,1,2,3,4,5,6,7,8,9,10,11,12,13,14,15,16,17,18,19,20,21,22,23,24,25,26,27,28,29,30,31"
 Will use up to   32 processors via shared memory.
 %chk=tz.chk
 %rwf=/scratch/04843/gwang18/feh/
 ----------------------------------------------------------------------
 #P ROCCSD(T)=(MaxCyc=150, FrzINGC)/Gen SCF=(maxcycle=400) Integral(DKH
 SO, NoXCTest) Pop=Regular MaxDisk=500GB Guess=Read IOp(5/15=2)
 ----------------------------------------------------------------------
 1/38=1,172=1/1;
 2/12=2,17=6,18=5,40=1/2;
 3/5=7,11=2,25=1,30=1,47=8,91=5,116=101/1,2,3;
 4/5=1/1;
 5/5=2,7=400,15=2,38=6/2;
 8/5=-1,6=4,9=120000,10=3/1,4;
 9/5=7,6=150,14=2/13;
 6//1;
 99/5=1,9=1/99;
 Leave Link    1 at Wed Mar  7 11:04:34 2018, MaxMem= 10737418240 cpu:               8.6 elap:               0.3
 (Enter /home1/apps/gaussian/16rA.03/g16/l101.exe)
 ---
 FeH
 ---
 Symbolic Z-matrix:
 Charge =  0 Multiplicity = 4
 Fe                    0.        0.        0. 
 H                     0.        0.        1.5 
 
 ITRead=  0  0
 MicOpt= -1 -1
 NAtoms=      2 NQM=        2 NQMF=       0 NMMI=      0 NMMIF=      0
                NMic=       0 NMicF=      0.
                    Isotopes and Nuclear Properties:
 (Nuclear quadrupole moments (NQMom) in fm**2, nuclear magnetic moments (NMagM)
  in nuclear magnetons)

  Atom         1           2
 IAtWgt=          56           1
 AtmWgt=  55.9349393   1.0078250
 NucSpn=           0           1
 AtZEff=  -0.0000000  -0.0000000
 NQMom=    0.0000000   0.0000000
 NMagM=    0.0000000   2.7928460
 AtZNuc=  26.0000000   1.0000000
 Leave Link  101 at Wed Mar  7 11:04:34 2018, MaxMem= 10737418240 cpu:               3.2 elap:               0.1
 (Enter /home1/apps/gaussian/16rA.03/g16/l202.exe)
                          Input orientation:                          
 ---------------------------------------------------------------------
 Center     Atomic      Atomic             Coordinates (Angstroms)
 Number     Number       Type             X           Y           Z
 ---------------------------------------------------------------------
      1         26           0        0.000000    0.000000    0.000000
      2          1           0        0.000000    0.000000    1.500000
 ---------------------------------------------------------------------
 Stoichiometry    FeH(4)
 Framework group  C*V[C*(HFe)]
 Deg. of freedom     1
 Full point group                 C*V     NOp   4
 Largest Abelian subgroup         C2V     NOp   4
 Largest concise Abelian subgroup C1      NOp   1
                         Standard orientation:                         
 ---------------------------------------------------------------------
 Center     Atomic      Atomic             Coordinates (Angstroms)
 Number     Number       Type             X           Y           Z
 ---------------------------------------------------------------------
      1         26           0        0.000000    0.000000    0.055556
      2          1           0        0.000000    0.000000   -1.444444
 ---------------------------------------------------------------------
 Rotational constants (GHZ):           0.0000000         226.8845452         226.8845452
 Leave Link  202 at Wed Mar  7 11:04:35 2018, MaxMem= 10737418240 cpu:               0.8 elap:               0.1
 (Enter /home1/apps/gaussian/16rA.03/g16/l301.exe)
 General basis read from cards:  (5D, 7F)
 Centers:       1
 S 1 1.00
     Exponent=  4.3162650000D+06 Coefficients=  1.0000000000D+00
 S 1 1.00
     Exponent=  6.4634240000D+05 Coefficients=  1.0000000000D+00
 S 1 1.00
     Exponent=  1.4708970000D+05 Coefficients=  1.0000000000D+00
 S 1 1.00
     Exponent=  4.1661520000D+04 Coefficients=  1.0000000000D+00
 S 1 1.00
     Exponent=  1.3590770000D+04 Coefficients=  1.0000000000D+00
 S 1 1.00
     Exponent=  4.9057500000D+03 Coefficients=  1.0000000000D+00
 S 1 1.00
     Exponent=  1.9127460000D+03 Coefficients=  1.0000000000D+00
 S 1 1.00
     Exponent=  7.9260430000D+02 Coefficients=  1.0000000000D+00
 S 1 1.00
     Exponent=  3.4480650000D+02 Coefficients=  1.0000000000D+00
 S 1 1.00
     Exponent=  1.5589990000D+02 Coefficients=  1.0000000000D+00
 S 1 1.00
     Exponent=  7.2230910000D+01 Coefficients=  1.0000000000D+00
 S 1 1.00
     Exponent=  3.2725060000D+01 Coefficients=  1.0000000000D+00
 S 1 1.00
     Exponent=  1.5667620000D+01 Coefficients=  1.0000000000D+00
 S 1 1.00
     Exponent=  7.5034830000D+00 Coefficients=  1.0000000000D+00
 S 1 1.00
     Exponent=  3.3122230000D+00 Coefficients=  1.0000000000D+00
 S 1 1.00
     Exponent=  1.5584710000D+00 Coefficients=  1.0000000000D+00
 S 1 1.00
     Exponent=  6.8391400000D-01 Coefficients=  1.0000000000D+00
 S 1 1.00
     Exponent=  1.4675700000D-01 Coefficients=  1.0000000000D+00
 S 1 1.00
     Exponent=  7.0583000000D-02 Coefficients=  1.0000000000D+00
 S 1 1.00
     Exponent=  3.1449000000D-02 Coefficients=  1.0000000000D+00
 S 1 1.00
     Exponent=  4.6844000000D+00 Coefficients=  1.0000000000D+00
 S 1 1.00
     Exponent=  1.2204000000D+00 Coefficients=  1.0000000000D+00
 S 1 1.00
     Exponent=  1.4010000000D-02 Coefficients=  1.0000000000D+00
 P 1 1.00
     Exponent=  1.7745690000D+04 Coefficients=  1.0000000000D+00
 P 1 1.00
     Exponent=  4.2007210000D+03 Coefficients=  1.0000000000D+00
 P 1 1.00
     Exponent=  1.3644290000D+03 Coefficients=  1.0000000000D+00
 P 1 1.00
     Exponent=  5.2208060000D+02 Coefficients=  1.0000000000D+00
 P 1 1.00
     Exponent=  2.2145950000D+02 Coefficients=  1.0000000000D+00
 P 1 1.00
     Exponent=  1.0090960000D+02 Coefficients=  1.0000000000D+00
 P 1 1.00
     Exponent=  4.8401150000D+01 Coefficients=  1.0000000000D+00
 P 1 1.00
     Exponent=  2.3985360000D+01 Coefficients=  1.0000000000D+00
 P 1 1.00
     Exponent=  1.2182500000D+01 Coefficients=  1.0000000000D+00
 P 1 1.00
     Exponent=  6.2422980000D+00 Coefficients=  1.0000000000D+00
 P 1 1.00
     Exponent=  3.1109440000D+00 Coefficients=  1.0000000000D+00
 P 1 1.00
     Exponent=  1.5099580000D+00 Coefficients=  1.0000000000D+00
 P 1 1.00
     Exponent=  7.1084500000D-01 Coefficients=  1.0000000000D+00
 P 1 1.00
     Exponent=  2.7259800000D-01 Coefficients=  1.0000000000D+00
 P 1 1.00
     Exponent=  1.0397200000D-01 Coefficients=  1.0000000000D+00
 P 1 1.00
     Exponent=  3.8166000000D-02 Coefficients=  1.0000000000D+00
 P 1 1.00
     Exponent=  6.8788000000D+00 Coefficients=  1.0000000000D+00
 P 1 1.00
     Exponent=  1.5748000000D+00 Coefficients=  1.0000000000D+00
 P 1 1.00
     Exponent=  1.4010000000D-02 Coefficients=  1.0000000000D+00
 D 1 1.00
     Exponent=  1.1488400000D+02 Coefficients=  1.0000000000D+00
 D 1 1.00
     Exponent=  3.3887800000D+01 Coefficients=  1.0000000000D+00
 D 1 1.00
     Exponent=  1.2373000000D+01 Coefficients=  1.0000000000D+00
 D 1 1.00
     Exponent=  4.9992500000D+00 Coefficients=  1.0000000000D+00
 D 1 1.00
     Exponent=  2.0704300000D+00 Coefficients=  1.0000000000D+00
 D 1 1.00
     Exponent=  8.2818300000D-01 Coefficients=  1.0000000000D+00
 D 1 1.00
     Exponent=  3.0754700000D-01 Coefficients=  1.0000000000D+00
 D 1 1.00
     Exponent=  9.9455000000D-02 Coefficients=  1.0000000000D+00
 D 1 1.00
     Exponent=  4.5305000000D+00 Coefficients=  1.0000000000D+00
 D 1 1.00
     Exponent=  2.1205000000D+00 Coefficients=  1.0000000000D+00
 D 1 1.00
     Exponent=  3.2160000000D-02 Coefficients=  1.0000000000D+00
 F 1 1.00
     Exponent=  6.0066000000D+00 Coefficients=  1.0000000000D+00
 F 1 1.00
     Exponent=  2.2522000000D+00 Coefficients=  1.0000000000D+00
 F 1 1.00
     Exponent=  7.7580000000D-01 Coefficients=  1.0000000000D+00
 F 1 1.00
     Exponent=  2.6723000000D-01 Coefficients=  1.0000000000D+00
 G 1 1.00
     Exponent=  5.5068000000D+00 Coefficients=  1.0000000000D+00
 G 1 1.00
     Exponent=  2.0515000000D+00 Coefficients=  1.0000000000D+00
 G 1 1.00
     Exponent=  7.6426000000D-01 Coefficients=  1.0000000000D+00
 ****
 Centers:       2
 S 1 1.00
     Exponent=  3.3870000000D+01 Coefficients=  1.0000000000D+00
 S 1 1.00
     Exponent=  5.0950000000D+00 Coefficients=  1.0000000000D+00
 S 1 1.00
     Exponent=  1.1590000000D+00 Coefficients=  1.0000000000D+00
 S 1 1.00
     Exponent=  3.2580000000D-01 Coefficients=  1.0000000000D+00
 S 1 1.00
     Exponent=  1.0270000000D-01 Coefficients=  1.0000000000D+00
 S 1 1.00
     Exponent=  2.5260000000D-02 Coefficients=  1.0000000000D+00
 P 1 1.00
     Exponent=  1.4070000000D+00 Coefficients=  1.0000000000D+00
 P 1 1.00
     Exponent=  3.8800000000D-01 Coefficients=  1.0000000000D+00
 P 1 1.00
     Exponent=  1.0200000000D-01 Coefficients=  1.0000000000D+00
 D 1 1.00
     Exponent=  1.0570000000D+00 Coefficients=  1.0000000000D+00
 D 1 1.00
     Exponent=  2.4700000000D-01 Coefficients=  1.0000000000D+00
 ****
 Ernie: Thresh=  0.10000D-02 Tol=  0.10000D-05 Strict=F.
 There are   120 symmetry adapted cartesian basis functions of A1  symmetry.
 There are    26 symmetry adapted cartesian basis functions of A2  symmetry.
 There are    56 symmetry adapted cartesian basis functions of B1  symmetry.
 There are    56 symmetry adapted cartesian basis functions of B2  symmetry.
 There are    94 symmetry adapted basis functions of A1  symmetry.
 There are    23 symmetry adapted basis functions of A2  symmetry.
 There are    49 symmetry adapted basis functions of B1  symmetry.
 There are    49 symmetry adapted basis functions of B2  symmetry.
   215 basis functions,   258 primitive gaussians,   258 cartesian basis functions
    15 alpha electrons       12 beta electrons
       nuclear repulsion energy         9.1724049893 Hartrees.
 IExCor=    0 DFT=F Ex=HF Corr=None ExCW=0 ScaHFX=  1.000000
 ScaDFX=  1.000000  1.000000  1.000000  1.000000 ScalE2=  1.000000  1.000000
 IRadAn=      5 IRanWt=     -1 IRanGd=            0 ICorTp=0 IEmpDi=  4
 NAtoms=    2 NActive=    2 NUniq=    2 SFac= 1.00D+00 NAtFMM=   60 NAOKFM=F Big=F
 Integral buffers will be    131072 words long.
 Raffenetti 2 integral format.
 Two-electron integral symmetry is turned on.
 FoFCou: FMM=F IPFlag=           8 FMFlag=           0 FMFlg1=           0
         NFxFlg=           0 DoJE=F BraDBF=T KetDBF=T FulRan=T
         wScrn=  0.000000 ICntrl=       600 IOpCl=  3 I1Cent=           6 NGrid=           0
         NMat0=    1 NMatS0=      2 NMatT0=    0 NMatD0=    1 NMtDS0=    0 NMtDT0=    0
 Symmetry not used in FoFCou.
 Finite nuclear repulsion energy         9.1724049893.
 Leave Link  301 at Wed Mar  7 11:04:35 2018, MaxMem= 10737418240 cpu:              12.7 elap:               0.4
 (Enter /home1/apps/gaussian/16rA.03/g16/l302.exe)
 Using DK4 one-electron Hamiltonian with SO, DoBoet=T.
 NPDir=0 NMtPBC=     1 NCelOv=     1 NCel=       1 NClECP=     1 NCelD=      1
         NCelK=      1 NCelE2=     1 NClLst=     1 CellRange=     0.0.
 One-electron integrals computed using PRISM.
 One-electron integral symmetry used in STVInt
 FoFCou: FMM=F IPFlag=           8 FMFlag=      100000 FMFlg1=           0
         NFxFlg=           0 DoJE=T BraDBF=F KetDBF=T FulRan=T
         wScrn=  0.000000 ICntrl=       500 IOpCl=  0 I1Cent=           4 NGrid=           0
         NMat0=    1 NMatS0=      1 NMatT0=    0 NMatD0=    1 NMtDS0=    0 NMtDT0=    0
 Symmetry not used in FoFCou.
 UnConB:  Uncontracting AO basis from    215 functions to    215 functions (excluding duplicates).
 RelInt: Using uncontracted basis, NUnBas=   215 NBsUse=   215 0.100E-13 EigKep=  8.69D-07 EigRej= -1.00D+00
 NBasis=   215 RedAO= T EigKep=  2.37D-06  NBF=    94    23    49    49
 NBsUse=   212 1.00D-06 EigRej=  9.66D-07 NBFU=    93    23    48    48
 Leave Link  302 at Wed Mar  7 11:04:41 2018, MaxMem= 10737418240 cpu:             134.4 elap:               5.2
 (Enter /home1/apps/gaussian/16rA.03/g16/l303.exe)
 DipDrv:  MaxL=1.
 Leave Link  303 at Wed Mar  7 11:04:41 2018, MaxMem= 10737418240 cpu:               1.9 elap:               0.1
 (Enter /home1/apps/gaussian/16rA.03/g16/l401.exe)
 Initial guess from the checkpoint file:  "tz.chk"
 B after Tr=     0.000000    0.000000    0.000000
         Rot=    1.000000    0.000000    0.000000    0.000000 Ang=   0.00 deg.
 Guess basis will be translated and rotated to current coordinates.
 JPrj=2 DoOrth=T DoCkMO=T.
 Initial guess orbital symmetries:
       Occupied  (SG) (SG) (PI) (PI) (SG) (SG) (SG) (PI) (PI) (SG)
                 (?A) (SG) (PI) (PI) (?A)
       Virtual   (SG) (PI) (PI) (SG) (SG) (PI) (PI) (SG) (DLTA)
                 (DLTA) (PI) (PI) (SG) (SG) (SG) (PI) (PI) (SG)
                 (PI) (PI) (?A) (?A) (SG) (PI) (PI) (SG) (SG) (SG)
                 (DLTA) (DLTA) (PI) (PI) (SG) (PHI) (PHI) (PI)
                 (PI) (SG) (PI) (PI) (?A) (?A) (PI) (PI) (SG) (?A)
                 (?A) (SG) (PI) (PI) (SG) (SG) (SG) (?B) (?B) (?B)
                 (?B) (SG) (DLTA) (?B) (?B) (DLTA) (SG) (SG) (PI)
                 (PI) (DLTA) (DLTA) (DLTA) (PHI) (PHI) (DLTA) (?C)
                 (?C) (PI) (PI) (DLTA) (DLTA) (SG) (PI) (PI) (PI)
                 (PI) (SG) (SG) (SG) (?D) (?D) (DLTA) (DLTA) (?D)
                 (?D) (DLTA) (DLTA) (SG) (?D) (?D) (PI) (PI) (SG)
                 (SG) (?E) (?E) (?C) (?C) (DLTA) (DLTA) (?E) (?E)
                 (SG) (SG) (SG) (DLTA) (DLTA) (PI) (PI) (SG) (PI)
                 (PI) (SG) (DLTA) (?E) (?E) (DLTA) (?E) (?E) (SG)
                 (?E) (?E) (DLTA) (?F) (?F) (DLTA) (?E) (?E) (?F)
                 (SG) (DLTA) (DLTA) (PI) (PI) (SG) (PI) (PI) (SG)
                 (DLTA) (DLTA) (PI) (PI) (SG) (SG) (SG) (PI) (PI)
                 (SG) (DLTA) (DLTA) (PI) (PI) (SG) (SG) (PI) (PI)
                 (SG) (SG) (PI) (PI) (SG) (DLTA) (DLTA) (PI) (PI)
                 (SG) (PI) (PI) (SG) (SG) (PI) (PI) (SG) (SG) (PI)
                 (PI) (SG) (SG) (SG) (PI) (PI) (SG) (SG) (PI) (PI)
                 (SG) (SG) (SG) (SG) (SG)
 Leave Link  401 at Wed Mar  7 11:04:42 2018, MaxMem= 10737418240 cpu:               9.8 elap:               0.4
 (Enter /home1/apps/gaussian/16rA.03/g16/l502.exe)
 Keep R1 and R2 ints in memory in symmetry-blocked form, NReq=338797193.
 FoFCou: FMM=F IPFlag=           8 FMFlag=           0 FMFlg1=           0
         NFxFlg=           0 DoJE=F BraDBF=F KetDBF=F FulRan=T
         wScrn=  0.000000 ICntrl=       600 IOpCl=  0 I1Cent=           0 NGrid=           0
         NMat0=    1 NMatS0=  23220 NMatT0=    0 NMatD0=    1 NMtDS0=    0 NMtDT0=    0
 Petite list used in FoFCou.
 Restricted open shell SCF:
 Using DIIS extrapolation, IDIIS=  1040.
 NGot= 10737418240 LenX= 10598929943 LenY= 10598862938
 Requested convergence on RMS density matrix=1.00D-08 within 400 cycles.
 Requested convergence on MAX density matrix=1.00D-06.
 Requested convergence on             energy=1.00D-06.
 No special actions if energy rises.

 Cycle   1  Pass 1  IDiag  1:
 E= -1271.81768166813    
 DIIS: error= 6.12D-03 at cycle   1 NSaved=   1.
 NSaved= 1 IEnMin= 1 EnMin= -1271.81768166813     IErMin= 1 ErrMin= 6.12D-03
 ErrMax= 6.12D-03  0.00D+00 EMaxC= 1.00D-01 BMatC= 1.37D-03 BMatP= 1.37D-03
 IDIUse=3 WtCom= 9.39D-01 WtEn= 6.12D-02
 Coeff-Com:  0.100D+01
 Coeff-En:   0.100D+01
 Coeff:      0.100D+01
 Gap=     0.037 Goal=   None    Shift=    0.000
 GapD=    0.037 DampG=0.250 DampE=1.000 DampFc=0.2500 IDamp=-1.
 Damping current iteration by 2.50D-01
 RMSDP=1.22D-04 MaxDP=5.71D-03              OVMax= 1.20D-02

 Cycle   2  Pass 1  IDiag  1:
 E= -1271.81778956322     Delta-E=       -0.000107895084 Rises=F Damp=T
 DIIS: error= 4.57D-03 at cycle   2 NSaved=   2.
 NSaved= 2 IEnMin= 2 EnMin= -1271.81778956322     IErMin= 2 ErrMin= 4.57D-03
 ErrMax= 4.57D-03  0.00D+00 EMaxC= 1.00D-01 BMatC= 7.90D-04 BMatP= 1.37D-03
 IDIUse=3 WtCom= 9.54D-01 WtEn= 4.57D-02
 Coeff-Com: -0.185D+01 0.285D+01
 Coeff-En:   0.000D+00 0.100D+01
 Coeff:     -0.176D+01 0.276D+01
 Gap=     0.014 Goal=   None    Shift=    0.000
 RMSDP=4.11D-04 MaxDP=3.13D-02 DE=-1.08D-04 OVMax= 1.35D-01

 Cycle   3  Pass 1  IDiag  1:
 E= -1271.80611233841     Delta-E=        0.011677224812 Rises=F Damp=F
 DIIS: error= 1.08D-02 at cycle   3 NSaved=   3.
 NSaved= 3 IEnMin= 2 EnMin= -1271.81778956322     IErMin= 2 ErrMin= 4.57D-03
 ErrMax= 1.08D-02  0.00D+00 EMaxC= 1.00D-01 BMatC= 4.95D-03 BMatP= 7.90D-04
 IDIUse=2 WtCom= 0.00D+00 WtEn= 1.00D+00
 Coeff-En:   0.000D+00 0.773D+00 0.227D+00
 Coeff:      0.000D+00 0.773D+00 0.227D+00
 Gap=     0.015 Goal=   None    Shift=    0.000
 RMSDP=9.68D-04 MaxDP=8.36D-02 DE= 1.17D-02 OVMax= 2.55D-01

 Cycle   4  Pass 1  IDiag  1:
 E= -1271.80393453131     Delta-E=        0.002177807096 Rises=F Damp=F
 DIIS: error= 1.05D-02 at cycle   4 NSaved=   4.
 NSaved= 4 IEnMin= 2 EnMin= -1271.81778956322     IErMin= 2 ErrMin= 4.57D-03
 ErrMax= 1.05D-02  0.00D+00 EMaxC= 1.00D-01 BMatC= 6.07D-03 BMatP= 7.90D-04
 IDIUse=2 WtCom= 0.00D+00 WtEn= 1.00D+00
 Coeff-En:   0.000D+00 0.000D+00 0.513D+00 0.487D+00
 Coeff:      0.000D+00 0.000D+00 0.513D+00 0.487D+00
 Gap=     0.023 Goal=   None    Shift=    0.000
 RMSDP=1.10D-03 MaxDP=8.58D-02 DE= 2.18D-03 OVMax= 1.72D-01

 Cycle   5  Pass 1  IDiag  1:
 E= -1271.81471740393     Delta-E=       -0.010782872617 Rises=F Damp=F
 DIIS: error= 4.86D-03 at cycle   5 NSaved=   5.
 NSaved= 5 IEnMin= 2 EnMin= -1271.81778956322     IErMin= 2 ErrMin= 4.57D-03
 ErrMax= 4.86D-03  0.00D+00 EMaxC= 1.00D-01 BMatC= 2.40D-03 BMatP= 7.90D-04
 IDIUse=3 WtCom= 1.25D-01 WtEn= 8.75D-01
 Rare condition: small coef for last iteration:  0.000D+00
 Coeff-Com: -0.517D+00 0.675D+00 0.301D+00 0.298D+00 0.243D+00
 Coeff-En:   0.000D+00 0.000D+00 0.267D+00 0.278D+00 0.454D+00
 Coeff:     -0.517D+00 0.675D+00 0.301D+00 0.298D+00 0.243D+00
 Gap=     0.017 Goal=   None    Shift=    0.000
 RMSDP=6.54D-04 MaxDP=3.98D-02 DE=-1.08D-02 OVMax= 6.86D-02

 Cycle   6  Pass 1  IDiag  1:
 E= -1271.81800960577     Delta-E=       -0.003292201841 Rises=F Damp=F
 DIIS: error= 1.72D-03 at cycle   6 NSaved=   6.
 NSaved= 6 IEnMin= 6 EnMin= -1271.81800960577     IErMin= 6 ErrMin= 1.72D-03
 ErrMax= 1.72D-03  0.00D+00 EMaxC= 1.00D-01 BMatC= 2.16D-04 BMatP= 7.90D-04
 IDIUse=3 WtCom= 9.83D-01 WtEn= 1.72D-02
 EnCoef did   100 forward-backward iterations
 Rare condition: small coef for last iteration:  0.000D+00
 Coeff-Com: -0.632D+00 0.822D+00 0.233D+00 0.212D+00 0.165D+00 0.200D+00
 Coeff-En:   0.000D+00 0.000D+00 0.255D+00 0.187D+00 0.146D+00 0.413D+00
 Coeff:     -0.632D+00 0.822D+00 0.233D+00 0.212D+00 0.165D+00 0.200D+00
 Gap=     0.016 Goal=   None    Shift=    0.000
 RMSDP=4.03D-04 MaxDP=2.92D-02 DE=-3.29D-03 OVMax= 7.70D-02

 Cycle   7  Pass 1  IDiag  1:
 E= -1271.81717524146     Delta-E=        0.000834364307 Rises=F Damp=F
 DIIS: error= 3.24D-03 at cycle   7 NSaved=   7.
 NSaved= 7 IEnMin= 6 EnMin= -1271.81800960577     IErMin= 6 ErrMin= 1.72D-03
 ErrMax= 3.24D-03  0.00D+00 EMaxC= 1.00D-01 BMatC= 4.36D-04 BMatP= 2.16D-04
 IDIUse=3 WtCom= 9.83D-01 WtEn= 1.72D-02
 EnCoef did   100 forward-backward iterations
 Rare condition: small coef for last iteration:  0.000D+00
 Coeff-Com: -0.650D+00 0.845D+00 0.205D+00 0.181D+00 0.137D+00 0.215D+00
 Coeff-Com:  0.670D-01
 Coeff-En:   0.000D+00 0.000D+00 0.250D+00 0.178D+00 0.107D+00 0.285D+00
 Coeff-En:   0.180D+00
 Coeff:     -0.650D+00 0.845D+00 0.205D+00 0.181D+00 0.137D+00 0.215D+00
 Coeff:      0.670D-01
 Gap=     0.015 Goal=   None    Shift=    0.000
 RMSDP=3.32D-04 MaxDP=2.43D-02 DE= 8.34D-04 OVMax= 6.45D-02

 Cycle   8  Pass 1  IDiag  1:
 E= -1271.81824543042     Delta-E=       -0.001070188954 Rises=F Damp=F
 DIIS: error= 8.79D-04 at cycle   8 NSaved=   8.
 NSaved= 8 IEnMin= 8 EnMin= -1271.81824543042     IErMin= 8 ErrMin= 8.79D-04
 ErrMax= 8.79D-04  0.00D+00 EMaxC= 1.00D-01 BMatC= 5.75D-05 BMatP= 2.16D-04
 IDIUse=3 WtCom= 9.91D-01 WtEn= 8.79D-03
 EnCoef did   100 forward-backward iterations
 Rare condition: small coef for last iteration:  0.000D+00
 Coeff-Com: -0.573D+00 0.742D+00 0.149D+00 0.135D+00 0.895D-01 0.983D-02
 Coeff-Com:  0.434D-01 0.405D+00
 Coeff-En:   0.000D+00 0.000D+00 0.252D+00 0.181D+00 0.901D-01 0.799D-01
 Coeff-En:   0.115D+00 0.282D+00
 Coeff:     -0.573D+00 0.742D+00 0.149D+00 0.135D+00 0.895D-01 0.983D-02
 Coeff:      0.434D-01 0.405D+00
 Gap=     0.015 Goal=   None    Shift=    0.000
 RMSDP=3.57D-05 MaxDP=2.20D-03 DE=-1.07D-03 OVMax= 6.30D-03

 Cycle   9  Pass 1  IDiag  1:
 E= -1271.81829476771     Delta-E=       -0.000049337293 Rises=F Damp=F
 DIIS: error= 6.58D-04 at cycle   9 NSaved=   9.
 NSaved= 9 IEnMin= 9 EnMin= -1271.81829476771     IErMin= 9 ErrMin= 6.58D-04
 ErrMax= 6.58D-04  0.00D+00 EMaxC= 1.00D-01 BMatC= 2.95D-05 BMatP= 5.75D-05
 IDIUse=3 WtCom= 9.93D-01 WtEn= 6.58D-03
 EnCoef did   100 forward-backward iterations
 Rare condition: small coef for last iteration:  0.761D-17
 Coeff-Com: -0.428D+00 0.551D+00 0.115D+00 0.110D+00 0.881D-01 0.824D-03
 Coeff-Com: -0.312D-01-0.261D+00 0.855D+00
 Coeff-En:   0.000D+00 0.000D+00 0.253D+00 0.180D+00 0.957D-01 0.103D+00
 Coeff-En:   0.841D-01 0.000D+00 0.284D+00
 Coeff:     -0.428D+00 0.551D+00 0.115D+00 0.110D+00 0.881D-01 0.824D-03
 Coeff:     -0.312D-01-0.261D+00 0.855D+00
 Gap=     0.014 Goal=   None    Shift=    0.000
 RMSDP=3.08D-05 MaxDP=2.08D-03 DE=-4.93D-05 OVMax= 3.47D-03

 Cycle  10  Pass 1  IDiag  1:
 E= -1271.81832611434     Delta-E=       -0.000031346626 Rises=F Damp=F
 DIIS: error= 5.82D-04 at cycle  10 NSaved=  10.
 NSaved=10 IEnMin=10 EnMin= -1271.81832611434     IErMin=10 ErrMin= 5.82D-04
 ErrMax= 5.82D-04  0.00D+00 EMaxC= 1.00D-01 BMatC= 2.08D-05 BMatP= 2.95D-05
 IDIUse=3 WtCom= 9.94D-01 WtEn= 5.82D-03
 EnCoef did   100 forward-backward iterations
 Rare condition: small coef for last iteration:  0.000D+00
 Coeff-Com: -0.114D+00 0.140D+00 0.648D-01 0.661D-01 0.941D-01 0.123D+00
 Coeff-Com: -0.131D+00-0.167D+01 0.125D+01 0.117D+01
 Coeff-En:   0.000D+00 0.000D+00 0.255D+00 0.177D+00 0.934D-01 0.904D-01
 Coeff-En:   0.875D-01 0.000D+00 0.000D+00 0.297D+00
 Coeff:     -0.114D+00 0.140D+00 0.648D-01 0.661D-01 0.941D-01 0.123D+00
 Coeff:     -0.131D+00-0.167D+01 0.125D+01 0.117D+01
 Gap=     0.014 Goal=   None    Shift=    0.000
 RMSDP=1.56D-04 MaxDP=1.41D-02 DE=-3.13D-05 OVMax= 7.46D-03

 Cycle  11  Pass 1  IDiag  1:
 E= -1271.81836187117     Delta-E=       -0.000035756830 Rises=F Damp=F
 DIIS: error= 4.08D-04 at cycle  11 NSaved=  11.
 NSaved=11 IEnMin=11 EnMin= -1271.81836187117     IErMin=11 ErrMin= 4.08D-04
 ErrMax= 4.08D-04  0.00D+00 EMaxC= 1.00D-01 BMatC= 1.37D-05 BMatP= 2.08D-05
 IDIUse=3 WtCom= 9.96D-01 WtEn= 4.08D-03
 EnCoef did   100 forward-backward iterations
 Rare condition: small coef for last iteration: -0.754D-17
 Coeff-Com: -0.110D-02-0.642D-02 0.496D-01 0.486D-01 0.848D-01 0.153D+00
 Coeff-Com: -0.120D+00-0.174D+01 0.925D+00 0.130D+01 0.302D+00
 Coeff-En:   0.000D+00 0.000D+00 0.257D+00 0.173D+00 0.887D-01 0.763D-01
 Coeff-En:   0.905D-01 0.000D+00 0.000D+00 0.382D-01 0.276D+00
 Coeff:     -0.110D-02-0.642D-02 0.496D-01 0.486D-01 0.848D-01 0.153D+00
 Coeff:     -0.120D+00-0.174D+01 0.925D+00 0.130D+01 0.302D+00
 Gap=     0.014 Goal=   None    Shift=    0.000
 RMSDP=3.30D-04 MaxDP=3.09D-02 DE=-3.58D-05 OVMax= 1.54D-02

 Cycle  12  Pass 1  IDiag  1:
 E= -1271.81836063143     Delta-E=        0.000001239738 Rises=F Damp=F
 DIIS: error= 4.92D-04 at cycle  12 NSaved=  12.
 NSaved=12 IEnMin=11 EnMin= -1271.81836187117     IErMin=11 ErrMin= 4.08D-04
 ErrMax= 4.92D-04  0.00D+00 EMaxC= 1.00D-01 BMatC= 1.86D-05 BMatP= 1.37D-05
 IDIUse=3 WtCom= 9.96D-01 WtEn= 4.08D-03
 EnCoef did   100 forward-backward iterations
 Rare condition: small coef for last iteration:  0.000D+00
 Coeff-Com:  0.260D+00-0.346D+00 0.180D-01 0.415D-02 0.276D-01 0.150D+00
 Coeff-Com:  0.266D-01-0.614D+00-0.885D+00 0.687D+00 0.998D+00 0.674D+00
 Coeff-En:   0.000D+00 0.000D+00 0.259D+00 0.171D+00 0.834D-01 0.508D-01
 Coeff-En:   0.919D-01 0.000D+00 0.000D+00 0.000D+00 0.173D+00 0.171D+00
 Coeff:      0.260D+00-0.346D+00 0.180D-01 0.415D-02 0.276D-01 0.150D+00
 Coeff:      0.266D-01-0.614D+00-0.885D+00 0.687D+00 0.998D+00 0.674D+00
 Gap=     0.015 Goal=   None    Shift=    0.000
 RMSDP=2.31D-04 MaxDP=2.15D-02 DE= 1.24D-06 OVMax= 9.33D-03

 Cycle  13  Pass 1  IDiag  1:
 E= -1271.81841996527     Delta-E=       -0.000059333839 Rises=F Damp=F
 DIIS: error= 3.08D-04 at cycle  13 NSaved=  13.
 NSaved=13 IEnMin=13 EnMin= -1271.81841996527     IErMin=13 ErrMin= 3.08D-04
 ErrMax= 3.08D-04  0.00D+00 EMaxC= 1.00D-01 BMatC= 2.93D-06 BMatP= 1.37D-05
 IDIUse=3 WtCom= 9.97D-01 WtEn= 3.08D-03
 EnCoef did   100 forward-backward iterations
 Rare condition: small coef for last iteration:  0.000D+00
 Coeff-Com:  0.244D+00-0.324D+00 0.151D-01 0.104D-01 0.130D-01 0.518D-01
 Coeff-Com:  0.171D-01-0.216D+00-0.512D+00 0.248D+00 0.528D+00 0.383D+00
 Coeff-Com:  0.542D+00
 Coeff-En:   0.000D+00 0.000D+00 0.262D+00 0.166D+00 0.681D-01 0.132D-01
 Coeff-En:   0.855D-01 0.000D+00 0.000D+00 0.000D+00 0.000D+00 0.000D+00
 Coeff-En:   0.405D+00
 Coeff:      0.244D+00-0.324D+00 0.151D-01 0.104D-01 0.130D-01 0.518D-01
 Coeff:      0.171D-01-0.216D+00-0.512D+00 0.248D+00 0.528D+00 0.383D+00
 Coeff:      0.542D+00
 Gap=     0.015 Goal=   None    Shift=    0.000
 RMSDP=1.38D-04 MaxDP=1.18D-02 DE=-5.93D-05 OVMax= 7.38D-03

 Cycle  14  Pass 1  IDiag  1:
 E= -1271.81841748326     Delta-E=        0.000002482006 Rises=F Damp=F
 DIIS: error= 3.40D-04 at cycle  14 NSaved=  14.
 NSaved=14 IEnMin=13 EnMin= -1271.81841996527     IErMin=13 ErrMin= 3.08D-04
 ErrMax= 3.40D-04  0.00D+00 EMaxC= 1.00D-01 BMatC= 5.17D-06 BMatP= 2.93D-06
 IDIUse=3 WtCom= 9.97D-01 WtEn= 3.08D-03
 EnCoef did   100 forward-backward iterations
 Rare condition: small coef for last iteration:  0.000D+00
 Coeff-Com:  0.190D+00-0.252D+00 0.130D-01 0.215D-01-0.133D-02-0.822D-01
 Coeff-Com: -0.284D-01 0.196D+00 0.219D+00-0.263D+00-0.204D+00-0.974D-01
 Coeff-Com:  0.846D+00 0.442D+00
 Coeff-En:   0.000D+00 0.000D+00 0.263D+00 0.164D+00 0.663D-01 0.303D-02
 Coeff-En:   0.768D-01 0.000D+00 0.000D+00 0.000D+00 0.000D+00 0.000D+00
 Coeff-En:   0.232D+00 0.194D+00
 Coeff:      0.190D+00-0.252D+00 0.130D-01 0.215D-01-0.133D-02-0.822D-01
 Coeff:     -0.284D-01 0.196D+00 0.219D+00-0.263D+00-0.204D+00-0.974D-01
 Coeff:      0.846D+00 0.442D+00
 Gap=     0.015 Goal=   None    Shift=    0.000
 RMSDP=8.62D-05 MaxDP=7.27D-03 DE= 2.48D-06 OVMax= 5.35D-03

 Cycle  15  Pass 1  IDiag  1:
 E= -1271.81842922754     Delta-E=       -0.000011744282 Rises=F Damp=F
 DIIS: error= 3.11D-04 at cycle  15 NSaved=  15.
 NSaved=15 IEnMin=15 EnMin= -1271.81842922754     IErMin=13 ErrMin= 3.08D-04
 ErrMax= 3.11D-04  0.00D+00 EMaxC= 1.00D-01 BMatC= 2.24D-06 BMatP= 2.93D-06
 IDIUse=3 WtCom= 9.97D-01 WtEn= 3.08D-03
 EnCoef did   100 forward-backward iterations
 Rare condition: small coef for last iteration:  0.698D-17
 Coeff-Com:  0.163D+00-0.216D+00 0.127D-01 0.215D-01-0.729D-03-0.956D-01
 Coeff-Com: -0.352D-01 0.186D+00 0.350D+00-0.269D+00-0.305D+00-0.177D+00
 Coeff-Com:  0.662D+00 0.407D+00 0.296D+00
 Coeff-En:   0.000D+00 0.000D+00 0.263D+00 0.163D+00 0.655D-01 0.000D+00
 Coeff-En:   0.736D-01 0.000D+00 0.000D+00 0.000D+00 0.000D+00 0.000D+00
 Coeff-En:   0.000D+00 0.954D-01 0.340D+00
 Coeff:      0.163D+00-0.216D+00 0.127D-01 0.215D-01-0.729D-03-0.956D-01
 Coeff:     -0.352D-01 0.186D+00 0.350D+00-0.269D+00-0.305D+00-0.177D+00
 Coeff:      0.662D+00 0.407D+00 0.296D+00
 Gap=     0.015 Goal=   None    Shift=    0.000
 RMSDP=2.63D-05 MaxDP=1.69D-03 DE=-1.17D-05 OVMax= 3.39D-03

 Cycle  16  Pass 1  IDiag  1:
 E= -1271.81843006672     Delta-E=       -0.000000839180 Rises=F Damp=F
 DIIS: error= 2.83D-04 at cycle  16 NSaved=  16.
 NSaved=16 IEnMin=16 EnMin= -1271.81843006672     IErMin=16 ErrMin= 2.83D-04
 ErrMax= 2.83D-04  0.00D+00 EMaxC= 1.00D-01 BMatC= 2.32D-06 BMatP= 2.24D-06
 IDIUse=3 WtCom= 9.97D-01 WtEn= 2.83D-03
 EnCoef did   100 forward-backward iterations
 Rare condition: small coef for last iteration:  0.000D+00
 Coeff-Com:  0.821D-01-0.108D+00 0.124D-01 0.160D-01 0.789D-02-0.815D-01
 Coeff-Com: -0.324D-01-0.356D-01 0.470D+00-0.623D-01-0.330D+00-0.239D+00
 Coeff-Com: -0.133D+00 0.789D-01 0.738D+00 0.616D+00
 Coeff-En:   0.000D+00 0.000D+00 0.263D+00 0.163D+00 0.650D-01 0.000D+00
 Coeff-En:   0.767D-01 0.000D+00 0.000D+00 0.000D+00 0.000D+00 0.000D+00
 Coeff-En:   0.000D+00 0.000D+00 0.205D+00 0.228D+00
 Coeff:      0.821D-01-0.108D+00 0.124D-01 0.160D-01 0.789D-02-0.815D-01
 Coeff:     -0.324D-01-0.356D-01 0.470D+00-0.623D-01-0.330D+00-0.239D+00
 Coeff:     -0.133D+00 0.789D-01 0.738D+00 0.616D+00
 Gap=     0.016 Goal=   None    Shift=    0.000
 RMSDP=2.78D-05 MaxDP=2.07D-03 DE=-8.39D-07 OVMax= 2.53D-03

 Cycle  17  Pass 1  IDiag  1:
 E= -1271.81843657763     Delta-E=       -0.000006510907 Rises=F Damp=F
 DIIS: error= 1.14D-04 at cycle  17 NSaved=  17.
 NSaved=17 IEnMin=17 EnMin= -1271.81843657763     IErMin=17 ErrMin= 1.14D-04
 ErrMax= 1.14D-04  0.00D+00 EMaxC= 1.00D-01 BMatC= 5.44D-07 BMatP= 2.24D-06
 IDIUse=3 WtCom= 9.99D-01 WtEn= 1.14D-03
 EnCoef did   100 forward-backward iterations
 Rare condition: small coef for last iteration:  0.000D+00
 Coeff-Com:  0.463D-01-0.606D-01 0.120D-01 0.122D-01 0.100D-01-0.493D-01
 Coeff-Com: -0.194D-01-0.124D+00 0.318D+00 0.322D-01-0.177D+00-0.136D+00
 Coeff-Com: -0.223D+00-0.313D-01 0.396D+00 0.397D+00 0.597D+00
 Coeff-En:   0.000D+00 0.000D+00 0.262D+00 0.162D+00 0.606D-01 0.000D+00
 Coeff-En:   0.660D-01 0.000D+00 0.000D+00 0.000D+00 0.000D+00 0.000D+00
 Coeff-En:   0.000D+00 0.000D+00 0.000D+00 0.000D+00 0.450D+00
 Coeff:      0.463D-01-0.606D-01 0.120D-01 0.122D-01 0.100D-01-0.493D-01
 Coeff:     -0.194D-01-0.124D+00 0.318D+00 0.322D-01-0.177D+00-0.136D+00
 Coeff:     -0.223D+00-0.313D-01 0.396D+00 0.397D+00 0.597D+00
 Gap=     0.016 Goal=   None    Shift=    0.000
 RMSDP=1.45D-05 MaxDP=1.09D-03 DE=-6.51D-06 OVMax= 1.30D-03

 Cycle  18  Pass 1  IDiag  1:
 E= -1271.81843739381     Delta-E=       -0.000000816179 Rises=F Damp=F
 DIIS: error= 9.03D-05 at cycle  18 NSaved=  18.
 NSaved=18 IEnMin=18 EnMin= -1271.81843739381     IErMin=18 ErrMin= 9.03D-05
 ErrMax= 9.03D-05  0.00D+00 EMaxC= 1.00D-01 BMatC= 4.07D-07 BMatP= 5.44D-07
 IDIUse=1 WtCom= 1.00D+00 WtEn= 0.00D+00
 Coeff-Com:  0.180D-01-0.234D-01 0.945D-02 0.723D-02 0.729D-02-0.199D-01
 Coeff-Com: -0.652D-02-0.146D+00 0.107D+00 0.776D-01 0.252D-02-0.550D-02
 Coeff-Com: -0.121D+00-0.609D-01-0.414D-01 0.257D-01 0.600D+00 0.570D+00
 Coeff:      0.180D-01-0.234D-01 0.945D-02 0.723D-02 0.729D-02-0.199D-01
 Coeff:     -0.652D-02-0.146D+00 0.107D+00 0.776D-01 0.252D-02-0.550D-02
 Coeff:     -0.121D+00-0.609D-01-0.414D-01 0.257D-01 0.600D+00 0.570D+00
 Gap=     0.016 Goal=   None    Shift=    0.000
 RMSDP=9.27D-06 MaxDP=8.55D-04 DE=-8.16D-07 OVMax= 7.23D-04

 Cycle  19  Pass 1  IDiag  1:
 E= -1271.81843801602     Delta-E=       -0.000000622211 Rises=F Damp=F
 DIIS: error= 4.79D-05 at cycle  19 NSaved=  19.
 NSaved=19 IEnMin=19 EnMin= -1271.81843801602     IErMin=19 ErrMin= 4.79D-05
 ErrMax= 4.79D-05  0.00D+00 EMaxC= 1.00D-01 BMatC= 1.09D-07 BMatP= 4.07D-07
 IDIUse=1 WtCom= 1.00D+00 WtEn= 0.00D+00
 Coeff-Com:  0.591D-02-0.785D-02 0.238D-02 0.340D-02-0.322D-03-0.144D-01
 Coeff-Com: -0.635D-02-0.227D-01 0.245D-01 0.395D-02 0.561D-02 0.564D-02
 Coeff-Com:  0.732D-01 0.335D-01-0.587D-01-0.796D-01-0.219D+00-0.713D-01
 Coeff-Com:  0.132D+01
 Coeff:      0.591D-02-0.785D-02 0.238D-02 0.340D-02-0.322D-03-0.144D-01
 Coeff:     -0.635D-02-0.227D-01 0.245D-01 0.395D-02 0.561D-02 0.564D-02
 Coeff:      0.732D-01 0.335D-01-0.587D-01-0.796D-01-0.219D+00-0.713D-01
 Coeff:      0.132D+01
 Gap=     0.016 Goal=   None    Shift=    0.000
 RMSDP=3.62D-06 MaxDP=2.77D-04 DE=-6.22D-07 OVMax= 3.13D-04

 Cycle  20  Pass 1  IDiag  1:
 E= -1271.81843812664     Delta-E=       -0.000000110622 Rises=F Damp=F
 DIIS: error= 1.25D-05 at cycle  20 NSaved=  20.
 NSaved=20 IEnMin=20 EnMin= -1271.81843812664     IErMin=20 ErrMin= 1.25D-05
 ErrMax= 1.25D-05  0.00D+00 EMaxC= 1.00D-01 BMatC= 1.06D-08 BMatP= 1.09D-07
 IDIUse=1 WtCom= 1.00D+00 WtEn= 0.00D+00
 Coeff-Com:  0.434D-02-0.578D-02 0.139D-02 0.212D-02-0.422D-03-0.975D-02
 Coeff-Com: -0.483D-02-0.940D-02 0.157D-01-0.986D-03 0.987D-03 0.238D-02
 Coeff-Com:  0.575D-01 0.256D-01-0.327D-01-0.511D-01-0.187D+00-0.944D-01
 Coeff-Com:  0.833D+00 0.453D+00
 Coeff:      0.434D-02-0.578D-02 0.139D-02 0.212D-02-0.422D-03-0.975D-02
 Coeff:     -0.483D-02-0.940D-02 0.157D-01-0.986D-03 0.987D-03 0.238D-02
 Coeff:      0.575D-01 0.256D-01-0.327D-01-0.511D-01-0.187D+00-0.944D-01
 Coeff:      0.833D+00 0.453D+00
 Gap=     0.016 Goal=   None    Shift=    0.000
 RMSDP=3.08D-06 MaxDP=2.29D-04 DE=-1.11D-07 OVMax= 1.63D-04

 Cycle  21  Pass 1  IDiag  1:
 E= -1271.81843813558     Delta-E=       -0.000000008941 Rises=F Damp=F
 DIIS: error= 7.19D-06 at cycle  21 NSaved=  20.
 NSaved=20 IEnMin=20 EnMin= -1271.81843813558     IErMin=20 ErrMin= 7.19D-06
 ErrMax= 7.19D-06  0.00D+00 EMaxC= 1.00D-01 BMatC= 4.17D-09 BMatP= 1.06D-08
 IDIUse=1 WtCom= 1.00D+00 WtEn= 0.00D+00
 Coeff-Com:  0.267D-02-0.352D-02 0.877D-05-0.126D-03-0.168D-02-0.182D-02
 Coeff-Com:  0.412D-03 0.459D-02-0.993D-03-0.265D-02-0.163D-02 0.127D-01
 Coeff-Com:  0.375D-02 0.504D-02 0.387D-03-0.546D-01-0.601D-01-0.317D-01
 Coeff-Com:  0.452D+00 0.677D+00
 Coeff:      0.267D-02-0.352D-02 0.877D-05-0.126D-03-0.168D-02-0.182D-02
 Coeff:      0.412D-03 0.459D-02-0.993D-03-0.265D-02-0.163D-02 0.127D-01
 Coeff:      0.375D-02 0.504D-02 0.387D-03-0.546D-01-0.601D-01-0.317D-01
 Coeff:      0.452D+00 0.677D+00
 Gap=     0.016 Goal=   None    Shift=    0.000
 RMSDP=1.76D-06 MaxDP=1.10D-04 DE=-8.94D-09 OVMax= 8.84D-05

 Cycle  22  Pass 1  IDiag  1:
 E= -1271.81843814121     Delta-E=       -0.000000005624 Rises=F Damp=F
 DIIS: error= 3.82D-06 at cycle  22 NSaved=  20.
 NSaved=20 IEnMin=20 EnMin= -1271.81843814121     IErMin=20 ErrMin= 3.82D-06
 ErrMax= 3.82D-06  0.00D+00 EMaxC= 1.00D-01 BMatC= 5.38D-10 BMatP= 4.17D-09
 IDIUse=1 WtCom= 1.00D+00 WtEn= 0.00D+00
 Coeff-Com:  0.189D-02-0.250D-02 0.188D-04-0.779D-03-0.118D-02 0.215D-02
 Coeff-Com:  0.643D-02-0.250D-02-0.522D-02-0.380D-02 0.465D-02 0.179D-02
 Coeff-Com:  0.885D-02 0.640D-02-0.224D-01-0.335D-01-0.881D-01 0.233D+00
 Coeff-Com:  0.430D+00 0.464D+00
 Coeff:      0.189D-02-0.250D-02 0.188D-04-0.779D-03-0.118D-02 0.215D-02
 Coeff:      0.643D-02-0.250D-02-0.522D-02-0.380D-02 0.465D-02 0.179D-02
 Coeff:      0.885D-02 0.640D-02-0.224D-01-0.335D-01-0.881D-01 0.233D+00
 Coeff:      0.430D+00 0.464D+00
 Gap=     0.016 Goal=   None    Shift=    0.000
 RMSDP=1.12D-06 MaxDP=9.05D-05 DE=-5.62D-09 OVMax= 3.98D-05

 Cycle  23  Pass 1  IDiag  1:
 E= -1271.81843814207     Delta-E=       -0.000000000866 Rises=F Damp=F
 DIIS: error= 2.61D-06 at cycle  23 NSaved=  20.
 NSaved=20 IEnMin=20 EnMin= -1271.81843814207     IErMin=20 ErrMin= 2.61D-06
 ErrMax= 2.61D-06  0.00D+00 EMaxC= 1.00D-01 BMatC= 1.80D-10 BMatP= 5.38D-10
 IDIUse=1 WtCom= 1.00D+00 WtEn= 0.00D+00
 Coeff-Com:  0.113D-02-0.149D-02-0.263D-03-0.541D-03 0.238D-02 0.357D-02
 Coeff-Com: -0.205D-02-0.335D-02-0.236D-02 0.132D-02 0.563D-03 0.523D-02
 Coeff-Com:  0.418D-02-0.709D-02-0.129D-01-0.551D-01 0.742D-01 0.164D+00
 Coeff-Com:  0.318D+00 0.511D+00
 Coeff:      0.113D-02-0.149D-02-0.263D-03-0.541D-03 0.238D-02 0.357D-02
 Coeff:     -0.205D-02-0.335D-02-0.236D-02 0.132D-02 0.563D-03 0.523D-02
 Coeff:      0.418D-02-0.709D-02-0.129D-01-0.551D-01 0.742D-01 0.164D+00
 Coeff:      0.318D+00 0.511D+00
 Gap=     0.016 Goal=   None    Shift=    0.000
 RMSDP=8.95D-07 MaxDP=8.64D-05 DE=-8.66D-10 OVMax= 1.97D-05

 Cycle  24  Pass 1  IDiag  1:
 E= -1271.81843814230     Delta-E=       -0.000000000228 Rises=F Damp=F
 DIIS: error= 1.57D-06 at cycle  24 NSaved=  20.
 NSaved=20 IEnMin=20 EnMin= -1271.81843814230     IErMin=20 ErrMin= 1.57D-06
 ErrMax= 1.57D-06  0.00D+00 EMaxC= 1.00D-01 BMatC= 8.47D-11 BMatP= 1.80D-10
 IDIUse=1 WtCom= 1.00D+00 WtEn= 0.00D+00
 Coeff-Com:  0.272D-03-0.357D-03 0.213D-03 0.578D-03 0.518D-03-0.152D-03
 Coeff-Com: -0.339D-03-0.203D-03-0.195D-02-0.803D-03 0.303D-03 0.857D-03
 Coeff-Com:  0.648D-02 0.773D-02-0.954D-03-0.757D-01-0.116D+00-0.263D-02
 Coeff-Com:  0.412D+00 0.770D+00
 Coeff:      0.272D-03-0.357D-03 0.213D-03 0.578D-03 0.518D-03-0.152D-03
 Coeff:     -0.339D-03-0.203D-03-0.195D-02-0.803D-03 0.303D-03 0.857D-03
 Coeff:      0.648D-02 0.773D-02-0.954D-03-0.757D-01-0.116D+00-0.263D-02
 Coeff:      0.412D+00 0.770D+00
 Gap=     0.016 Goal=   None    Shift=    0.000
 RMSDP=5.41D-07 MaxDP=4.60D-05 DE=-2.28D-10 OVMax= 1.94D-05

 Cycle  25  Pass 1  IDiag  1:
 E= -1271.81843814252     Delta-E=       -0.000000000221 Rises=F Damp=F
 DIIS: error= 4.41D-07 at cycle  25 NSaved=  20.
 NSaved=20 IEnMin=20 EnMin= -1271.81843814252     IErMin=20 ErrMin= 4.41D-07
 ErrMax= 4.41D-07  0.00D+00 EMaxC= 1.00D-01 BMatC= 6.98D-12 BMatP= 8.47D-11
 IDIUse=1 WtCom= 1.00D+00 WtEn= 0.00D+00
 Coeff-Com: -0.724D-06 0.298D-04-0.810D-03 0.483D-03 0.640D-03 0.278D-03
 Coeff-Com:  0.179D-03-0.125D-02-0.370D-03-0.606D-03-0.321D-03 0.287D-02
 Coeff-Com:  0.478D-02 0.135D-01-0.441D-01-0.785D-01-0.685D-01 0.658D-01
 Coeff-Com:  0.372D+00 0.734D+00
 Coeff:     -0.724D-06 0.298D-04-0.810D-03 0.483D-03 0.640D-03 0.278D-03
 Coeff:      0.179D-03-0.125D-02-0.370D-03-0.606D-03-0.321D-03 0.287D-02
 Coeff:      0.478D-02 0.135D-01-0.441D-01-0.785D-01-0.685D-01 0.658D-01
 Coeff:      0.372D+00 0.734D+00
 Gap=     0.016 Goal=   None    Shift=    0.000
 RMSDP=1.47D-07 MaxDP=1.21D-05 DE=-2.21D-10 OVMax= 5.88D-06

 Cycle  26  Pass 1  IDiag  1:
 E= -1271.81843814254     Delta-E=       -0.000000000016 Rises=F Damp=F
 DIIS: error= 1.23D-07 at cycle  26 NSaved=  20.
 NSaved=20 IEnMin=20 EnMin= -1271.81843814254     IErMin=20 ErrMin= 1.23D-07
 ErrMax= 1.23D-07  0.00D+00 EMaxC= 1.00D-01 BMatC= 9.94D-13 BMatP= 6.98D-12
 IDIUse=1 WtCom= 1.00D+00 WtEn= 0.00D+00
 Coeff-Com: -0.296D-04-0.585D-03 0.215D-03 0.397D-03 0.248D-03 0.161D-03
 Coeff-Com: -0.478D-03-0.729D-04-0.321D-03-0.301D-03 0.105D-02 0.189D-02
 Coeff-Com:  0.772D-02-0.159D-01-0.296D-01-0.383D-01-0.203D-01 0.112D+00
 Coeff-Com:  0.399D+00 0.583D+00
 Coeff:     -0.296D-04-0.585D-03 0.215D-03 0.397D-03 0.248D-03 0.161D-03
 Coeff:     -0.478D-03-0.729D-04-0.321D-03-0.301D-03 0.105D-02 0.189D-02
 Coeff:      0.772D-02-0.159D-01-0.296D-01-0.383D-01-0.203D-01 0.112D+00
 Coeff:      0.399D+00 0.583D+00
 Gap=     0.016 Goal=   None    Shift=    0.000
 RMSDP=2.84D-08 MaxDP=2.25D-06 DE=-1.64D-11 OVMax= 2.23D-06

 Cycle  27  Pass 1  IDiag  1:
 E= -1271.81843814254     Delta-E=       -0.000000000003 Rises=F Damp=F
 DIIS: error= 1.04D-07 at cycle  27 NSaved=  20.
 NSaved=20 IEnMin=20 EnMin= -1271.81843814254     IErMin=20 ErrMin= 1.04D-07
 ErrMax= 1.04D-07  0.00D+00 EMaxC= 1.00D-01 BMatC= 7.12D-13 BMatP= 9.94D-13
 IDIUse=1 WtCom= 1.00D+00 WtEn= 0.00D+00
 Coeff-Com: -0.187D-03-0.111D-03 0.902D-04 0.164D-03 0.119D-03 0.309D-03
 Coeff-Com:  0.156D-03-0.173D-03-0.266D-03-0.878D-03-0.878D-03 0.905D-03
 Coeff-Com:  0.713D-02 0.116D-01 0.245D-02-0.375D-01-0.589D-01-0.235D-01
 Coeff-Com:  0.486D+00 0.613D+00
 Coeff:     -0.187D-03-0.111D-03 0.902D-04 0.164D-03 0.119D-03 0.309D-03
 Coeff:      0.156D-03-0.173D-03-0.266D-03-0.878D-03-0.878D-03 0.905D-03
 Coeff:      0.713D-02 0.116D-01 0.245D-02-0.375D-01-0.589D-01-0.235D-01
 Coeff:      0.486D+00 0.613D+00
 Gap=     0.016 Goal=   None    Shift=    0.000
 RMSDP=1.55D-08 MaxDP=1.02D-06 DE=-2.73D-12 OVMax= 3.57D-06

 Cycle  28  Pass 1  IDiag  1:
 E= -1271.81843814254     Delta-E=       -0.000000000001 Rises=F Damp=F
 DIIS: error= 1.49D-07 at cycle  28 NSaved=  20.
 NSaved=20 IEnMin=20 EnMin= -1271.81843814254     IErMin=19 ErrMin= 1.04D-07
 ErrMax= 1.49D-07  0.00D+00 EMaxC= 1.00D-01 BMatC= 7.88D-13 BMatP= 7.12D-13
 IDIUse=1 WtCom= 1.00D+00 WtEn= 0.00D+00
 Coeff-Com: -0.117D-03-0.181D-04 0.574D-04 0.415D-04 0.872D-04 0.436D-04
 Coeff-Com:  0.551D-05 0.119D-04 0.167D-03-0.142D-03-0.120D-02 0.407D-02
 Coeff-Com:  0.755D-02 0.444D-02-0.265D-01-0.671D-01-0.991D-01 0.199D+00
 Coeff-Com:  0.365D+00 0.613D+00
 Coeff:     -0.117D-03-0.181D-04 0.574D-04 0.415D-04 0.872D-04 0.436D-04
 Coeff:      0.551D-05 0.119D-04 0.167D-03-0.142D-03-0.120D-02 0.407D-02
 Coeff:      0.755D-02 0.444D-02-0.265D-01-0.671D-01-0.991D-01 0.199D+00
 Coeff:      0.365D+00 0.613D+00
 Gap=     0.016 Goal=   None    Shift=    0.000
 RMSDP=1.74D-08 MaxDP=1.31D-06 DE=-6.82D-13 OVMax= 2.51D-06

 Cycle  29  Pass 1  IDiag  1:
 E= -1271.81843814254     Delta-E=       -0.000000000002 Rises=F Damp=F
 DIIS: error= 5.02D-08 at cycle  29 NSaved=  20.
 NSaved=20 IEnMin=20 EnMin= -1271.81843814254     IErMin=20 ErrMin= 5.02D-08
 ErrMax= 5.02D-08  0.00D+00 EMaxC= 1.00D-01 BMatC= 1.15D-13 BMatP= 7.12D-13
 IDIUse=1 WtCom= 1.00D+00 WtEn= 0.00D+00
 Coeff-Com:  0.230D-04-0.404D-05-0.110D-04-0.738D-04-0.121D-03-0.516D-04
 Coeff-Com:  0.438D-04 0.397D-03 0.329D-03-0.209D-03-0.371D-03-0.103D-02
 Coeff-Com:  0.225D-02 0.878D-02-0.433D-02-0.180D-01-0.185D+00-0.124D+00
 Coeff-Com:  0.308D+00 0.101D+01
 Coeff:      0.230D-04-0.404D-05-0.110D-04-0.738D-04-0.121D-03-0.516D-04
 Coeff:      0.438D-04 0.397D-03 0.329D-03-0.209D-03-0.371D-03-0.103D-02
 Coeff:      0.225D-02 0.878D-02-0.433D-02-0.180D-01-0.185D+00-0.124D+00
 Coeff:      0.308D+00 0.101D+01
 Gap=     0.016 Goal=   None    Shift=    0.000
 RMSDP=8.22D-09 MaxDP=5.35D-07 DE=-1.82D-12 OVMax= 9.72D-07

 SCF Done:  E(ROHF) =  -1271.81843814     A.U. after   29 cycles
            NFock= 29  Conv=0.82D-08     -V/T= 1.9595
 <Sx>= 0.0000 <Sy>= 0.0000 <Sz>= 1.5000 <S**2>= 3.7500 S= 1.5000
 <L.S>=  0.00000000000    
 KE= 1.325499234494D+03 PE=-3.104052576195D+03 EE= 4.975624985694D+02
 Annihilation of the first spin contaminant:
 S**2 before annihilation     3.7500,   after     3.7500
 Leave Link  502 at Wed Mar  7 11:04:58 2018, MaxMem= 10737418240 cpu:             409.5 elap:              15.4
 (Enter /home1/apps/gaussian/16rA.03/g16/l801.exe)
 Windowed orbitals will be sorted by symmetry type.
 GenMOA:  NOpAll=  4 NOp2=4 NOpUse=  4 JSym2X=1
 FoFJK:  IHMeth= 1 ICntrl=       0 DoSepK=F KAlg= 0 I1Cent=           0 FoldK=F
 IRaf=         0 NMat=       1 IRICut=       1 DoRegI=T DoRafI=F ISym2E= 1 IDoP0=0 IntGTp=1.
 FoFCou: FMM=F IPFlag=           8 FMFlag=      100000 FMFlg1=           0
         NFxFlg=           0 DoJE=F BraDBF=F KetDBF=F FulRan=T
         wScrn=  0.000000 ICntrl=         0 IOpCl=  1 I1Cent=           0 NGrid=           0
         NMat0=    1 NMatS0=      1 NMatT0=    0 NMatD0=    1 NMtDS0=    0 NMtDT0=    0
 Petite list used in FoFCou.
 <Sx>= 0.0000 <Sy>= 0.0000 <Sz>= 1.5000 <S**2>= 3.7500 S= 1.5000
 ExpMin= 1.40D-02 ExpMax= 4.32D+06 ExpMxC= 4.32D+06 IAcc=4 IRadAn=    199590 AccDes= 0.00D+00
 HarFok:  IExCor=  205 AccDes= 0.00D+00 IRadAn=    199590 IDoV=-2 UseB2=F ITyADJ=14
 ICtDFT= 12500011 ScaDFX=  1.000000  1.000000  1.000000  1.000000
 Spurious integrated density or basis function:
 NE=   27 NElCor=    0 El error=1.10D-07 rel=4.08D-09 Tolerance=1.00D-03
 Shell     1     absolute error=1.51D-02              Tolerance=1.20D-02
 Shell     2       signed error=3.25D-05              Tolerance=1.00D-01
 Largest valence mixing into a core orbital is  1.23D-04
 Largest core mixing into a valence orbital is  3.15D-05
 Largest valence mixing into a core orbital is  1.54D-04
 Largest core mixing into a valence orbital is  6.24D-05
 Range of M.O.s used for correlation:     6   212
 NBasis=   215 NAE=    15 NBE=    12 NFC=     5 NFV=     0
 NROrb=    207 NOA=    10 NOB=     7 NVA=   197 NVB=   200

 **** Warning!!: The largest alpha MO coefficient is  0.24312255D+03


 **** Warning!!: The largest beta MO coefficient is  0.24257496D+03

 Singles contribution to E2=   -0.6586190084D-02
 Leave Link  801 at Wed Mar  7 11:05:01 2018, MaxMem= 10737418240 cpu:             102.7 elap:               3.3
 (Enter /home1/apps/gaussian/16rA.03/g16/l804.exe)
 Open-shell transformation, MDV= 10737418240 ITran=4 ISComp=2.
 Unit  1 TFree=       1399425 TCopy=       1154413.
 Semi-Direct transformation.
 ModeAB=           2 MOrb=            10 LenV=   10735981701
 LASXX=     10991279 LTotXX=    10991279 LenRXX=    10991279
 LTotAB=    11212571 MaxLAS=    69160770 LenRXY=    69160770
 NonZer=    70603560 LenScr=   106676224 LnRSAI=           0
 LnScr1=           0 LExtra=     5309128 Total=    192137401
 MaxDsk= 67108864000 SrtSym=           F ITran=            4
 DoSDTr:  NPSUse= 32
 JobTyp=1 Pass  1:  I=   1 to  10.
 (rs|ai) integrals will be sorted in core.
 Complete sort for first half transformation.
 First half transformation complete.
 Begin second half transformation for I=  10.
 Begin second half transformation for I=  10.
 Complete sort for second half transformation.
 Second half transformation complete.
 ModeAB=           2 MOrb=             7 LenV=   10735981701
 LASXX=      7774332 LTotXX=     7774332 LenRXX=    48412539
 LTotAB=     7174273 MaxLAS=    48412539 LenRXY=     7174273
 NonZer=    49422492 LenScr=    74907648 LnRSAI=           0
 LnScr1=           0 LExtra=    85461177 Total=    215955637
 MaxDsk= 67108864000 SrtSym=           F ITran=            4
 DoSDTr:  NPSUse= 32
 JobTyp=2 Pass  1:  I=   1 to   7.
 (rs|ai) integrals will be sorted in core.
 Complete sort for first half transformation.
 First half transformation complete.
 Complete sort for second half transformation.
 Second half transformation complete.
 Spin components of T(2) and E(2):
     alpha-alpha T2 =       0.3004158830D-01 E2=     -0.1700269725D+00
     alpha-beta  T2 =       0.9118795896D-01 E2=     -0.5125557635D+00
     beta-beta   T2 =       0.1110925219D-01 E2=     -0.6945732944D-01
 ANorm=    0.1065499698D+01
 E2 =    -0.7586262555D+00 EUMP2 =    -0.12725770643981D+04
 (S**2,0)=  0.37500D+01           (S**2,1)=  0.37500D+01
 E(PUHF)=      -0.12718184381D+04        E(PMP2)=      -0.12725770644D+04
 Leave Link  804 at Wed Mar  7 11:06:34 2018, MaxMem= 10737418240 cpu:            2949.4 elap:              92.2
 (Enter /home1/apps/gaussian/16rA.03/g16/l913.exe)
 CIDS:  MDV= 10737418240.
 Frozen-core window:  NFC=   5 NFV=   0.
 IFCWin=0 IBDFC=1 NFBD=     0     0 NFCmp=     0     0 NFFFC=     0     0
 Using original routines for 1st iteration.
 Using DD4UQ or CC4UQ for 2nd and later iterations.
 Keep R2 and R3 ints in memory in symmetry-blocked form, NReq=338808056.
 FoFCou: FMM=F IPFlag=           8 FMFlag=           0 FMFlg1=           0
         NFxFlg=           0 DoJE=F BraDBF=F KetDBF=F FulRan=T
         wScrn=  0.000000 ICntrl=       600 IOpCl=  0 I1Cent=           0 NGrid=           0
         NMat0=    1 NMatS0=  23220 NMatT0=    0 NMatD0=    1 NMtDS0=    0 NMtDT0=    0
 Petite list used in FoFCou.
 CIDS: In Core Option IDoMem=           1.
 CCSD(T)
 =======
 Iterations= 150 Convergence= 0.100D-06
 Produce multiple copies of IABC intergrals
 Iteration Nr.   1
 **********************
 DD1Dir will call FoFMem   1 times, MxPair=       206
 NAB=    70 NAA=    45 NBB=    21.
 DD1Dir will call FoFMem   1 times, MxPair=       206
 NAB=    70 NAA=    45 NBB=    21.
 MP4(R+Q)= -0.69296866D-01
 Maximum subspace dimension=  5
 A-vector RMS=  5.4202552D-04 Max=  5.9174596D-03 conv= 1.00D-05.
 RLE energy=       -0.7544150430
 E3=        0.73172671D-01        EROMP3=      -0.12725038917D+04
 E4(SDQ)=  -0.47719769D-01        ROMP4(SDQ)=  -0.12725516115D+04
 VARIATIONAL ENERGIES WITH THE FIRST-ORDER WAVEFUNCTION:
 DE(Corr)= -0.75439079     E(Corr)=     -1272.5728289    
 NORM(A)=   0.10621641D+01
 Iteration Nr.   2
 **********************
 DD1Dir will call FoFMem   1 times, MxPair=       206
 NAB=    70 NAA=    45 NBB=    21.
 A-vector RMS=  4.4940978D-03 Max=  4.0469115D-02 conv= 1.00D-05.
 RLE energy=       -0.7381465154
 DE(Corr)= -0.67854172     E(CORR)=     -1272.4969799     Delta= 7.58D-02
 NORM(A)=   0.10593111D+01
 Iteration Nr.   3
 **********************
 DD1Dir will call FoFMem   1 times, MxPair=       206
 NAB=    70 NAA=    45 NBB=    21.
 A-vector RMS=  3.3117791D-03 Max=  3.1666854D-02 conv= 1.00D-05.
 RLE energy=       -0.7309004499
 DE(Corr)= -0.68749445     E(CORR)=     -1272.5059326     Delta=-8.95D-03
 NORM(A)=   0.10616500D+01
 Iteration Nr.   4
 **********************
 DD1Dir will call FoFMem   1 times, MxPair=       206
 NAB=    70 NAA=    45 NBB=    21.
 A-vector RMS=  2.9433553D-03 Max=  3.2445289D-02 conv= 1.00D-05.
 RLE energy=       -0.7034523444
 DE(Corr)= -0.69534155     E(CORR)=     -1272.5137797     Delta=-7.85D-03
 NORM(A)=   0.10876891D+01
 Iteration Nr.   5
 **********************
 DD1Dir will call FoFMem   1 times, MxPair=       206
 NAB=    70 NAA=    45 NBB=    21.
 A-vector RMS=  1.6086386D-03 Max=  1.3855212D-02 conv= 1.00D-05.
 RLE energy=       -0.7222914097
 DE(Corr)= -0.72676424     E(CORR)=     -1272.5452024     Delta=-3.14D-02
 NORM(A)=   0.10856816D+01
 Iteration Nr.   6
 **********************
 DD1Dir will call FoFMem   1 times, MxPair=       206
 NAB=    70 NAA=    45 NBB=    21.
 A-vector RMS=  1.2203218D-03 Max=  2.1877421D-02 conv= 1.00D-05.
 RLE energy=       -0.7177841263
 DE(Corr)= -0.71177453     E(CORR)=     -1272.5302127     Delta= 1.50D-02
 NORM(A)=   0.11118301D+01
 Iteration Nr.   7
 **********************
 DD1Dir will call FoFMem   1 times, MxPair=       206
 NAB=    70 NAA=    45 NBB=    21.
 A-vector RMS=  6.6352643D-04 Max=  9.7521589D-03 conv= 1.00D-05.
 RLE energy=       -0.7186874125
 DE(Corr)= -0.71829961     E(CORR)=     -1272.5367378     Delta=-6.53D-03
 NORM(A)=   0.11326750D+01
 Iteration Nr.   8
 **********************
 DD1Dir will call FoFMem   1 times, MxPair=       206
 NAB=    70 NAA=    45 NBB=    21.
 A-vector RMS=  6.2248942D-04 Max=  9.9077105D-03 conv= 1.00D-05.
 RLE energy=       -0.7195268074
 DE(Corr)= -0.71939778     E(CORR)=     -1272.5378359     Delta=-1.10D-03
 NORM(A)=   0.11510755D+01
 Iteration Nr.   9
 **********************
 DD1Dir will call FoFMem   1 times, MxPair=       206
 NAB=    70 NAA=    45 NBB=    21.
 A-vector RMS=  3.7440471D-04 Max=  5.0677513D-03 conv= 1.00D-05.
 RLE energy=       -0.7200416027
 DE(Corr)= -0.71911733     E(CORR)=     -1272.5375555     Delta= 2.80D-04
 NORM(A)=   0.11628424D+01
 Iteration Nr.  10
 **********************
 DD1Dir will call FoFMem   1 times, MxPair=       206
 NAB=    70 NAA=    45 NBB=    21.
 A-vector RMS=  2.7018474D-04 Max=  3.6536562D-03 conv= 1.00D-05.
 RLE energy=       -0.7193328282
 DE(Corr)= -0.71989035     E(CORR)=     -1272.5383285     Delta=-7.73D-04
 NORM(A)=   0.11628855D+01
 Iteration Nr.  11
 **********************
 DD1Dir will call FoFMem   1 times, MxPair=       206
 NAB=    70 NAA=    45 NBB=    21.
 A-vector RMS=  1.5337189D-04 Max=  2.2620866D-03 conv= 1.00D-05.
 RLE energy=       -0.7199165488
 DE(Corr)= -0.71976078     E(CORR)=     -1272.5381989     Delta= 1.30D-04
 NORM(A)=   0.11657935D+01
 Iteration Nr.  12
 **********************
 DD1Dir will call FoFMem   1 times, MxPair=       206
 NAB=    70 NAA=    45 NBB=    21.
 A-vector RMS=  1.3011463D-04 Max=  1.4131602D-03 conv= 1.00D-05.
 RLE energy=       -0.7196125641
 DE(Corr)= -0.71962836     E(CORR)=     -1272.5380665     Delta= 1.32D-04
 NORM(A)=   0.11680066D+01
 Iteration Nr.  13
 **********************
 DD1Dir will call FoFMem   1 times, MxPair=       206
 NAB=    70 NAA=    45 NBB=    21.
 A-vector RMS=  1.2650943D-04 Max=  2.1114121D-03 conv= 1.00D-05.
 RLE energy=       -0.7197941066
 DE(Corr)= -0.71996058     E(CORR)=     -1272.5383987     Delta=-3.32D-04
 NORM(A)=   0.11682519D+01
 Iteration Nr.  14
 **********************
 DD1Dir will call FoFMem   1 times, MxPair=       206
 NAB=    70 NAA=    45 NBB=    21.
 A-vector RMS=  1.1425067D-04 Max=  1.6458753D-03 conv= 1.00D-05.
 RLE energy=       -0.7200265193
 DE(Corr)= -0.71987695     E(CORR)=     -1272.5383151     Delta= 8.36D-05
 NORM(A)=   0.11697206D+01
 Iteration Nr.  15
 **********************
 DD1Dir will call FoFMem   1 times, MxPair=       206
 NAB=    70 NAA=    45 NBB=    21.
 A-vector RMS=  6.5669213D-05 Max=  6.8386254D-04 conv= 1.00D-05.
 RLE energy=       -0.7199321845
 DE(Corr)= -0.71988955     E(CORR)=     -1272.5383277     Delta=-1.26D-05
 NORM(A)=   0.11704157D+01
 Iteration Nr.  16
 **********************
 DD1Dir will call FoFMem   1 times, MxPair=       206
 NAB=    70 NAA=    45 NBB=    21.
 A-vector RMS=  3.7032771D-05 Max=  4.1931562D-04 conv= 1.00D-05.
 RLE energy=       -0.7200276001
 DE(Corr)= -0.72005429     E(CORR)=     -1272.5384924     Delta=-1.65D-04
 NORM(A)=   0.11706019D+01
 Iteration Nr.  17
 **********************
 DD1Dir will call FoFMem   1 times, MxPair=       206
 NAB=    70 NAA=    45 NBB=    21.
 A-vector RMS=  3.3445727D-05 Max=  4.2297925D-04 conv= 1.00D-05.
 RLE energy=       -0.7200472314
 DE(Corr)= -0.72001096     E(CORR)=     -1272.5384491     Delta= 4.33D-05
 NORM(A)=   0.11710098D+01
 Iteration Nr.  18
 **********************
 DD1Dir will call FoFMem   1 times, MxPair=       206
 NAB=    70 NAA=    45 NBB=    21.
 A-vector RMS=  1.7514207D-05 Max=  2.2237893D-04 conv= 1.00D-05.
 RLE energy=       -0.7200377599
 DE(Corr)= -0.72004292     E(CORR)=     -1272.5384811     Delta=-3.20D-05
 NORM(A)=   0.11713186D+01
 Iteration Nr.  19
 **********************
 DD1Dir will call FoFMem   1 times, MxPair=       206
 NAB=    70 NAA=    45 NBB=    21.
 A-vector RMS=  1.1404952D-05 Max=  1.1715803D-04 conv= 1.00D-05.
 RLE energy=       -0.7200673834
 DE(Corr)= -0.72008024     E(CORR)=     -1272.5385184     Delta=-3.73D-05
 NORM(A)=   0.11714939D+01
 Iteration Nr.  20
 **********************
 DD1Dir will call FoFMem   1 times, MxPair=       206
 NAB=    70 NAA=    45 NBB=    21.
 A-vector RMS=  1.1233166D-05 Max=  1.8573822D-04 conv= 1.00D-05.
 RLE energy=       -0.7200841642
 DE(Corr)= -0.72007183     E(CORR)=     -1272.5385100     Delta= 8.41D-06
 NORM(A)=   0.11717272D+01
 Iteration Nr.  21
 **********************
 DD1Dir will call FoFMem   1 times, MxPair=       206
 NAB=    70 NAA=    45 NBB=    21.
 A-vector RMS=  8.0865393D-06 Max=  1.0226121D-04 conv= 1.00D-05.
 RLE energy=       -0.7200781189
 DE(Corr)= -0.72007828     E(CORR)=     -1272.5385164     Delta=-6.44D-06
 NORM(A)=   0.11719164D+01
 Iteration Nr.  22
 **********************
 DD1Dir will call FoFMem   1 times, MxPair=       206
 NAB=    70 NAA=    45 NBB=    21.
 A-vector RMS=  4.6679198D-06 Max=  4.4003487D-05 conv= 1.00D-05.
 RLE energy=       -0.7200955743
 DE(Corr)= -0.72009308     E(CORR)=     -1272.5385312     Delta=-1.48D-05
 NORM(A)=   0.11720631D+01
 Iteration Nr.  23
 **********************
 DD1Dir will call FoFMem   1 times, MxPair=       206
 NAB=    70 NAA=    45 NBB=    21.
 A-vector RMS=  5.5473258D-06 Max=  7.4569086D-05 conv= 1.00D-05.
 RLE energy=       -0.7200937666
 DE(Corr)= -0.72008685     E(CORR)=     -1272.5385250     Delta= 6.23D-06
 NORM(A)=   0.11721728D+01
 Iteration Nr.  24
 **********************
 DD1Dir will call FoFMem   1 times, MxPair=       206
 NAB=    70 NAA=    45 NBB=    21.
 A-vector RMS=  2.5058400D-06 Max=  2.8893628D-05 conv= 1.00D-05.
 RLE energy=       -0.7200924843
 DE(Corr)= -0.72009395     E(CORR)=     -1272.5385321     Delta=-7.10D-06
 NORM(A)=   0.11722299D+01
 Iteration Nr.  25
 **********************
 DD1Dir will call FoFMem   1 times, MxPair=       206
 NAB=    70 NAA=    45 NBB=    21.
 A-vector RMS=  1.6543362D-06 Max=  2.2580103D-05 conv= 1.00D-05.
 RLE energy=       -0.7200955927
 DE(Corr)= -0.72009595     E(CORR)=     -1272.5385341     Delta=-2.00D-06
 NORM(A)=   0.11722472D+01
 Iteration Nr.  26
 **********************
 DD1Dir will call FoFMem   1 times, MxPair=       206
 NAB=    70 NAA=    45 NBB=    21.
 A-vector RMS=  1.1605129D-06 Max=  1.8551029D-05 conv= 1.00D-05.
 RLE energy=       -0.7200952525
 DE(Corr)= -0.72009386     E(CORR)=     -1272.5385320     Delta= 2.09D-06
 NORM(A)=   0.11722543D+01
 Iteration Nr.  27
 **********************
 DD1Dir will call FoFMem   1 times, MxPair=       206
 NAB=    70 NAA=    45 NBB=    21.
 A-vector RMS=  7.2021202D-07 Max=  7.0671035D-06 conv= 1.00D-05.
 RLE energy=       -0.7200939041
 DE(Corr)= -0.72009406     E(CORR)=     -1272.5385322     Delta=-1.96D-07
 NORM(A)=   0.11722602D+01
 Iteration Nr.  28
 **********************
 DD1Dir will call FoFMem   1 times, MxPair=       206
 NAB=    70 NAA=    45 NBB=    21.
 A-vector RMS=  6.0934471D-07 Max=  8.9209114D-06 conv= 1.00D-05.
 RLE energy=       -0.7200946545
 DE(Corr)= -0.72009474     E(CORR)=     -1272.5385329     Delta=-6.85D-07
 NORM(A)=   0.11722566D+01
 Iteration Nr.  29
 **********************
 DD1Dir will call FoFMem   1 times, MxPair=       206
 NAB=    70 NAA=    45 NBB=    21.
 A-vector RMS=  3.5852430D-07 Max=  4.6273815D-06 conv= 1.00D-05.
 RLE energy=       -0.7200940606
 DE(Corr)= -0.72009380     E(CORR)=     -1272.5385319     Delta= 9.47D-07
 NORM(A)=   0.11722547D+01
 Iteration Nr.  30
 **********************
 DD1Dir will call FoFMem   1 times, MxPair=       206
 NAB=    70 NAA=    45 NBB=    21.
 A-vector RMS=  3.5354336D-07 Max=  5.8403410D-06 conv= 1.00D-05.
 RLE energy=       -0.7200938232
 DE(Corr)= -0.72009409     E(CORR)=     -1272.5385322     Delta=-2.93D-07
 NORM(A)=   0.11722499D+01
 Iteration Nr.  31
 **********************
 DD1Dir will call FoFMem   1 times, MxPair=       206
 NAB=    70 NAA=    45 NBB=    21.
 A-vector RMS=  2.7436791D-07 Max=  4.3993486D-06 conv= 1.00D-05.
 RLE energy=       -0.7200938337
 DE(Corr)= -0.72009390     E(CORR)=     -1272.5385320     Delta= 1.90D-07
 NORM(A)=   0.11722436D+01
 Iteration Nr.  32
 **********************
 DD1Dir will call FoFMem   1 times, MxPair=       206
 NAB=    70 NAA=    45 NBB=    21.
 A-vector RMS=  2.1279188D-07 Max=  2.9248909D-06 conv= 1.00D-05.
 RLE energy=       -0.7200935506
 DE(Corr)= -0.72009354     E(CORR)=     -1272.5385317     Delta= 3.61D-07
 NORM(A)=   0.11722376D+01
 Iteration Nr.  33
 **********************
 DD1Dir will call FoFMem   1 times, MxPair=       206
 NAB=    70 NAA=    45 NBB=    21.
 A-vector RMS=  1.9503910D-07 Max=  3.3006471D-06 conv= 1.00D-05.
 RLE energy=       -0.7200932591
 DE(Corr)= -0.72009344     E(CORR)=     -1272.5385316     Delta= 1.02D-07
 NORM(A)=   0.11722328D+01
 Iteration Nr.  34
 **********************
 DD1Dir will call FoFMem   1 times, MxPair=       206
 NAB=    70 NAA=    45 NBB=    21.
 A-vector RMS=  1.4598607D-07 Max=  2.4696910D-06 conv= 1.00D-05.
 RLE energy=       -0.7200932042
 DE(Corr)= -0.72009335     E(CORR)=     -1272.5385315     Delta= 8.23D-08
 NORM(A)=   0.11722258D+01
 CI/CC converged in   34 iterations to DelEn= 8.23D-08 Conv= 1.00D-07 ErrA1= 1.46D-07 Conv= 1.00D-05
 Wavefunction amplitudes converged. E(Corr)=     -1272.5385315    
 Dominant configurations:
 ***********************
 Spin Case        I    J    A    B          Value
    BB           12        13            0.275204D+00
    BB           12        17            0.267823D+00
    BB           12        26           -0.150548D+00
 Largest amplitude= 2.75D-01
 Time for triples=    11674.07 seconds.
 T4(CCSD)= -0.36676738D-01
 T5(CCSD)=  0.89935562D-02
 CCSD(T)= -0.12725662147D+04
 Discarding MO integrals.
 Leave Link  913 at Wed Mar  7 11:18:06 2018, MaxMem= 10737418240 cpu:           22066.3 elap:             691.5
 (Enter /home1/apps/gaussian/16rA.03/g16/l601.exe)
 Copying SCF densities to generalized density rwf, IOpCl= 0 IROHF=1.

 **********************************************************************

            Population analysis using the SCF density.

 **********************************************************************

 Orbital symmetries:
       Occupied  (SG) (SG) (SG) (PI) (PI) (SG) (SG) (PI) (PI) (SG)
                 (?A) (SG) (PI) (PI) (?A)
       Virtual   (SG) (PI) (PI) (SG) (SG) (PI) (PI) (SG) (DLTA)
                 (DLTA) (PI) (PI) (SG) (SG) (SG) (PI) (PI) (SG)
                 (PI) (PI) (?A) (?A) (SG) (PI) (PI) (SG) (SG) (SG)
                 (DLTA) (DLTA) (PI) (PI) (SG) (?B) (?B) (?B) (?B)
                 (SG) (PI) (PI) (?A) (?A) (PI) (PI) (SG) (?A) (?A)
                 (SG) (PI) (PI) (SG) (SG) (SG) (?C) (?C) (?C) (?C)
                 (DLTA) (DLTA) (?C) (?C) (SG) (SG) (PI) (PI) (SG)
                 (DLTA) (DLTA) (DLTA) (DLTA) (PHI) (PHI) (?D) (?D)
                 (PI) (PI) (DLTA) (DLTA) (SG) (PI) (PI) (PI) (PI)
                 (SG) (SG) (SG) (?B) (?B) (DLTA) (DLTA) (PI) (PI)
                 (DLTA) (SG) (DLTA) (?B) (?B) (PI) (PI) (SG) (SG)
                 (?B) (?B) (?E) (?E) (DLTA) (DLTA) (?B) (?B) (?E)
                 (SG) (SG) (DLTA) (DLTA) (PI) (PI) (SG) (PI) (PI)
                 (SG) (?B) (?B) (DLTA) (DLTA) (?B) (?B) (SG) (?B)
                 (?B) (DLTA) (?F) (?F) (DLTA) (?B) (?B) (?F) (SG)
                 (DLTA) (DLTA) (PI) (PI) (SG) (PI) (PI) (SG) (DLTA)
                 (DLTA) (PI) (PI) (SG) (SG) (SG) (PI) (PI) (SG)
                 (DLTA) (DLTA) (PI) (PI) (SG) (SG) (PI) (PI) (SG)
                 (SG) (PI) (PI) (SG) (DLTA) (DLTA) (PI) (PI) (SG)
                 (PI) (PI) (SG) (SG) (PI) (PI) (SG) (SG) (PI) (PI)
                 (SG) (SG) (SG) (PI) (PI) (SG) (SG) (PI) (PI) (SG)
                 (SG) (SG) (SG) (SG)
 Unable to determine electronic state:  an orbital has unidentified symmetry.
 Alpha  occ. eigenvalues -- -263.54346 -32.32150 -27.38952 -27.38891 -27.38891
 Alpha  occ. eigenvalues --   -4.21750  -2.76943  -2.75930  -2.75930  -0.50877
 Alpha  occ. eigenvalues --   -0.50877  -0.49747  -0.46317  -0.44798  -0.31643
 Alpha virt. eigenvalues --   -0.00209   0.02458   0.02458   0.03127   0.04331
 Alpha virt. eigenvalues --    0.08440   0.08440   0.09600   0.10267   0.10306
 Alpha virt. eigenvalues --    0.10381   0.10381   0.10669   0.17093   0.24131
 Alpha virt. eigenvalues --    0.27629   0.27629   0.29700   0.35421   0.35421
 Alpha virt. eigenvalues --    0.37262   0.37709   0.38915   0.39041   0.39041
 Alpha virt. eigenvalues --    0.48401   0.62215   0.70098   0.87497   0.87633
 Alpha virt. eigenvalues --    0.91451   0.91451   0.96785   0.99690   0.99690
 Alpha virt. eigenvalues --    1.00481   1.00481   1.10759   1.13298   1.13298
 Alpha virt. eigenvalues --    1.14332   1.15014   1.16621   1.16621   1.18543
 Alpha virt. eigenvalues --    1.24968   1.26124   1.56681   1.78259   1.78259
 Alpha virt. eigenvalues --    1.96251   2.10511   2.70705   2.88131   2.88131
 Alpha virt. eigenvalues --    2.92674   2.93149   2.93149   2.94192   2.97314
 Alpha virt. eigenvalues --    2.97314   2.98438   3.25851   3.32279   3.32279
 Alpha virt. eigenvalues --    3.39134   3.39217   3.41548   3.50452   3.51508
 Alpha virt. eigenvalues --    3.52304   3.52304   3.54095   3.54100   3.81240
 Alpha virt. eigenvalues --    3.81240   4.11663   4.11910   4.15569   4.44286
 Alpha virt. eigenvalues --    4.44286   4.87456   4.87456   5.08165   5.53445
 Alpha virt. eigenvalues --    6.22562   7.72255   7.74078   7.74078   7.75104
 Alpha virt. eigenvalues --    7.80397   7.80397   7.81407   7.83920   7.84507
 Alpha virt. eigenvalues --    7.93495   7.93495   8.15667   8.15667   8.21529
 Alpha virt. eigenvalues --    8.88818   9.99324   9.99324  10.02454  10.02474
 Alpha virt. eigenvalues --   10.03326  10.05562  10.29264  10.29264  10.32725
 Alpha virt. eigenvalues --   10.79414  13.70981  15.59316  15.62761  15.66086
 Alpha virt. eigenvalues --   15.66086  15.82174  18.84499  18.84499  19.28701
 Alpha virt. eigenvalues --   20.60601  20.62793  20.62793  20.63443  20.70074
 Alpha virt. eigenvalues --   20.70074  21.05333  26.16862  26.16862  26.18620
 Alpha virt. eigenvalues --   26.19996  26.20046  26.21313  26.34110  26.34110
 Alpha virt. eigenvalues --   26.46035  28.50780  28.75181  28.78886  28.81758
 Alpha virt. eigenvalues --   28.81758  29.00284  38.62702  38.62702  39.21279
 Alpha virt. eigenvalues --   52.15595  52.18989  52.21826  52.21826  52.35723
 Alpha virt. eigenvalues --   58.64233  62.07753  75.85191  75.85191  76.61582
 Alpha virt. eigenvalues --  112.27598 112.29643 112.32630 112.32630 112.42544
 Alpha virt. eigenvalues --  130.51449 153.80728 153.80728 154.60816 318.38630
 Alpha virt. eigenvalues --  328.87539 328.87539 329.59772 346.25574 346.26160
 Alpha virt. eigenvalues --  346.28824 346.28824 346.36016 735.61156 735.61156
 Alpha virt. eigenvalues --  736.25190 794.568811710.675101710.675101711.21258
 Alpha virt. eigenvalues -- 1938.468494129.935394129.935394130.357374563.72674
 Alpha virt. eigenvalues -- **************************************************
 Alpha virt. eigenvalues -- **************************************************
 Alpha virt. eigenvalues -- ********************
     Molecular Orbital Coefficients:
                           8         9        10        11        12
                           O         O         O         O         O
     Eigenvalues --    -2.75930  -2.75930  -0.50877  -0.50877  -0.49747
   1 1   Fe 1S          0.00000   0.00000  -0.00000   0.00000  -0.00000
   2        2S          0.00000   0.00000  -0.00000   0.00000  -0.00001
   3        3S          0.00000   0.00000  -0.00001   0.00000  -0.00002
   4        4S          0.00000   0.00000  -0.00003   0.00000  -0.00005
   5        5S          0.00000   0.00000  -0.00007   0.00000  -0.00014
   6        6S          0.00000   0.00000  -0.00018   0.00000  -0.00038
   7        7S          0.00000   0.00000  -0.00048   0.00000  -0.00101
   8        8S          0.00000   0.00000  -0.00120   0.00000  -0.00252
   9        9S          0.00000   0.00000  -0.00266   0.00000  -0.00558
  10       10S          0.00000   0.00000  -0.00491   0.00000  -0.01029
  11       11S          0.00000   0.00000  -0.00553   0.00000  -0.01167
  12       12S          0.00000   0.00000   0.00179   0.00000   0.00393
  13       13S          0.00000   0.00000   0.02443   0.00000   0.05130
  14       14S          0.00000   0.00000   0.03407   0.00000   0.07620
  15       15S          0.00000   0.00000  -0.02274   0.00000  -0.03398
  16       16S          0.00000   0.00000  -0.04287   0.00000  -0.15981
  17       17S          0.00000   0.00000  -0.05243   0.00000  -0.16242
  18       18S          0.00000   0.00000   0.02771   0.00000   0.20168
  19       19S          0.00000   0.00000   0.02975   0.00000   0.26855
  20       20S          0.00000   0.00000   0.00685   0.00000   0.10689
  21       21S          0.00000   0.00000   0.00650   0.00000   0.00187
  22       22S          0.00000   0.00000  -0.03734   0.00000  -0.00229
  23       23S          0.00000   0.00000  -0.00797   0.00000  -0.01370
  24       24PX        -0.00004   0.00000   0.00000   0.00000   0.00000
  25       24PY         0.00000  -0.00004   0.00000   0.00000   0.00000
  26       24PZ         0.00000   0.00000  -0.00000   0.00000  -0.00000
  27       25PX        -0.00020   0.00000   0.00000   0.00000   0.00000
  28       25PY         0.00000  -0.00020   0.00000   0.00000   0.00000
  29       25PZ         0.00000   0.00000  -0.00002   0.00000  -0.00001
  30       26PX        -0.00094   0.00000   0.00000   0.00000   0.00000
  31       26PY         0.00000  -0.00094   0.00000   0.00000   0.00000
  32       26PZ         0.00000   0.00000  -0.00008   0.00000  -0.00006
  33       27PX        -0.00374   0.00000   0.00000   0.00000   0.00000
  34       27PY         0.00000  -0.00374   0.00000   0.00000   0.00000
  35       27PZ         0.00000   0.00000  -0.00032   0.00000  -0.00024
  36       28PX        -0.01276   0.00000   0.00000   0.00000   0.00000
  37       28PY         0.00000  -0.01276   0.00000   0.00000   0.00000
  38       28PZ         0.00000   0.00000  -0.00109   0.00000  -0.00083
  39       29PX        -0.03653   0.00000   0.00000   0.00000   0.00000
  40       29PY         0.00000  -0.03653   0.00000   0.00000   0.00000
  41       29PZ         0.00000   0.00000  -0.00316   0.00000  -0.00236
  42       30PX        -0.08207   0.00000   0.00000   0.00000   0.00000
  43       30PY         0.00000  -0.08207   0.00000   0.00000   0.00000
  44       30PZ         0.00000   0.00000  -0.00700   0.00000  -0.00541
  45       31PX        -0.13744   0.00000   0.00000   0.00000   0.00000
  46       31PY         0.00000  -0.13744   0.00000   0.00000   0.00000
  47       31PZ         0.00000   0.00000  -0.01212   0.00000  -0.00882
  48       32PX        -0.13621   0.00000   0.00000   0.00000   0.00000
  49       32PY         0.00000  -0.13621   0.00000   0.00000   0.00000
  50       32PZ         0.00000   0.00000  -0.01079   0.00000  -0.00971
  51       33PX         0.07490   0.00000   0.00000   0.00000   0.00000
  52       33PY         0.00000   0.07490   0.00000   0.00000   0.00000
  53       33PZ         0.00000   0.00000   0.01949   0.00000  -0.00168
  54       34PX         0.31794   0.00000   0.00000   0.00000   0.00000
  55       34PY         0.00000   0.31794   0.00000   0.00000   0.00000
  56       34PZ         0.00000   0.00000   0.02846   0.00000   0.02503
  57       35PX         0.24624   0.00000   0.00000   0.00000   0.00000
  58       35PY         0.00000   0.24624   0.00000   0.00000   0.00000
  59       35PZ         0.00000   0.00000   0.03646   0.00000   0.00719
  60       36PX         0.29124   0.00000   0.00000   0.00000   0.00000
  61       36PY         0.00000   0.29124   0.00000   0.00000   0.00000
  62       36PZ         0.00000   0.00000   0.02576   0.00000   0.02718
  63       37PX         0.04653   0.00000   0.00000   0.00000   0.00000
  64       37PY         0.00000   0.04653   0.00000   0.00000   0.00000
  65       37PZ         0.00000   0.00000  -0.02344   0.00000  -0.03150
  66       38PX        -0.00232   0.00000   0.00000   0.00000   0.00000
  67       38PY         0.00000  -0.00232   0.00000   0.00000   0.00000
  68       38PZ         0.00000   0.00000  -0.04192   0.00000  -0.01442
  69       39PX         0.00164   0.00000   0.00000   0.00000   0.00000
  70       39PY         0.00000   0.00164   0.00000   0.00000   0.00000
  71       39PZ         0.00000   0.00000  -0.01091   0.00000  -0.00323
  72       40PX        -0.03830   0.00000   0.00000   0.00000   0.00000
  73       40PY         0.00000  -0.03830   0.00000   0.00000   0.00000
  74       40PZ         0.00000   0.00000  -0.01432   0.00000   0.00467
  75       41PX         0.21041   0.00000   0.00000   0.00000   0.00000
  76       41PY         0.00000   0.21041   0.00000   0.00000   0.00000
  77       41PZ         0.00000   0.00000   0.01517   0.00000   0.02641
  78       42PX        -0.00049   0.00000   0.00000   0.00000   0.00000
  79       42PY         0.00000  -0.00049   0.00000   0.00000   0.00000
  80       42PZ         0.00000   0.00000   0.00410   0.00000   0.00275
  81       43D 0        0.00000   0.00000   0.00223   0.00000  -0.00215
  82       43D+1        0.00001   0.00000   0.00000   0.00000   0.00000
  83       43D-1        0.00000   0.00001   0.00000   0.00000   0.00000
  84       43D+2        0.00000   0.00000  -0.00000   0.00000   0.00000
  85       43D-2        0.00000   0.00000   0.00000   0.00346   0.00000
  86       44D 0        0.00000   0.00000   0.01614   0.00000  -0.01551
  87       44D+1        0.00011   0.00000   0.00000   0.00000   0.00000
  88       44D-1        0.00000   0.00011   0.00000   0.00000   0.00000
  89       44D+2        0.00000   0.00000  -0.00000   0.00000   0.00000
  90       44D-2        0.00000   0.00000   0.00000   0.02498   0.00000
  91       45D 0        0.00000   0.00000   0.06196   0.00000  -0.05975
  92       45D+1        0.00040   0.00000   0.00000   0.00000   0.00000
  93       45D-1        0.00000   0.00040   0.00000   0.00000   0.00000
  94       45D+2        0.00000   0.00000  -0.00000   0.00000   0.00000
  95       45D-2        0.00000   0.00000   0.00000   0.09629   0.00000
  96       46D 0        0.00000   0.00000   0.15408   0.00000  -0.14442
  97       46D+1        0.00167   0.00000   0.00000   0.00000   0.00000
  98       46D-1        0.00000   0.00167   0.00000   0.00000   0.00000
  99       46D+2        0.00000   0.00000  -0.00000   0.00000   0.00000
 100       46D-2        0.00000   0.00000   0.00000   0.23002   0.00000
 101       47D 0        0.00000   0.00000   0.14380   0.00000  -0.20841
 102       47D+1       -0.00423   0.00000   0.00000   0.00000   0.00000
 103       47D-1        0.00000  -0.00423   0.00000   0.00000   0.00000
 104       47D+2        0.00000   0.00000  -0.00000   0.00000   0.00000
 105       47D-2        0.00000   0.00000   0.00000   0.36339   0.00000
 106       48D 0        0.00000   0.00000   0.24432   0.00000  -0.22686
 107       48D+1        0.00416   0.00000   0.00000   0.00000   0.00000
 108       48D-1        0.00000   0.00416   0.00000   0.00000   0.00000
 109       48D+2        0.00000   0.00000  -0.00000   0.00000   0.00000
 110       48D-2        0.00000   0.00000   0.00000   0.35685   0.00000
 111       49D 0        0.00000   0.00000   0.17795   0.00000  -0.16606
 112       49D+1        0.00159   0.00000   0.00000   0.00000   0.00000
 113       49D-1        0.00000   0.00159   0.00000   0.00000   0.00000
 114       49D+2        0.00000   0.00000  -0.00000   0.00000   0.00000
 115       49D-2        0.00000   0.00000   0.00000   0.25776   0.00000
 116       50D 0        0.00000   0.00000   0.05843   0.00000  -0.07788
 117       50D+1       -0.00009   0.00000   0.00000   0.00000   0.00000
 118       50D-1        0.00000  -0.00009   0.00000   0.00000   0.00000
 119       50D+2        0.00000   0.00000  -0.00000   0.00000   0.00000
 120       50D-2        0.00000   0.00000   0.00000   0.08235   0.00000
 121       51D 0        0.00000   0.00000  -0.00559   0.00000   0.00025
 122       51D+1       -0.00083   0.00000   0.00000   0.00000   0.00000
 123       51D-1        0.00000  -0.00083   0.00000   0.00000   0.00000
 124       51D+2        0.00000   0.00000  -0.00000   0.00000   0.00000
 125       51D-2        0.00000   0.00000   0.00000   0.00270   0.00000
 126       52D 0        0.00000   0.00000   0.08060   0.00000  -0.00797
 127       52D+1        0.00607   0.00000   0.00000   0.00000   0.00000
 128       52D-1        0.00000   0.00607   0.00000   0.00000   0.00000
 129       52D+2        0.00000   0.00000   0.00000   0.00000  -0.00000
 130       52D-2        0.00000   0.00000   0.00000  -0.01677   0.00000
 131       53D 0        0.00000   0.00000  -0.00125   0.00000  -0.00405
 132       53D+1        0.00004   0.00000   0.00000   0.00000   0.00000
 133       53D-1        0.00000   0.00004   0.00000   0.00000   0.00000
 134       53D+2        0.00000   0.00000   0.00000   0.00000   0.00000
 135       53D-2        0.00000   0.00000   0.00000  -0.00211   0.00000
 136       54F 0        0.00000   0.00000  -0.00010   0.00000  -0.00032
 137       54F+1       -0.00048   0.00000   0.00000   0.00000   0.00000
 138       54F-1        0.00000  -0.00048   0.00000   0.00000   0.00000
 139       54F+2        0.00000   0.00000  -0.00000   0.00000   0.00000
 140       54F-2        0.00000   0.00000   0.00000   0.00023   0.00000
 141       54F+3       -0.00105   0.00000   0.00000   0.00000   0.00000
 142       54F-3        0.00000   0.00105   0.00000   0.00000   0.00000
 143       55F 0        0.00000   0.00000  -0.00029   0.00000  -0.00138
 144       55F+1       -0.00078   0.00000   0.00000   0.00000   0.00000
 145       55F-1        0.00000  -0.00078   0.00000   0.00000   0.00000
 146       55F+2        0.00000   0.00000  -0.00000   0.00000   0.00000
 147       55F-2        0.00000   0.00000   0.00000   0.00095   0.00000
 148       55F+3       -0.00247   0.00000   0.00000   0.00000   0.00000
 149       55F-3        0.00000   0.00247   0.00000   0.00000   0.00000
 150       56F 0        0.00000   0.00000  -0.00355   0.00000  -0.00622
 151       56F+1       -0.00132   0.00000   0.00000   0.00000   0.00000
 152       56F-1        0.00000  -0.00132   0.00000   0.00000   0.00000
 153       56F+2        0.00000   0.00000  -0.00000   0.00000   0.00000
 154       56F-2        0.00000   0.00000   0.00000   0.00404   0.00000
 155       56F+3       -0.00316   0.00000   0.00000   0.00000   0.00000
 156       56F-3        0.00000   0.00316   0.00000   0.00000   0.00000
 157       57F 0        0.00000   0.00000   0.00434   0.00000  -0.01320
 158       57F+1       -0.00087   0.00000   0.00000   0.00000   0.00000
 159       57F-1        0.00000  -0.00087   0.00000   0.00000   0.00000
 160       57F+2        0.00000   0.00000  -0.00000   0.00000   0.00000
 161       57F-2        0.00000   0.00000   0.00000   0.00922   0.00000
 162       57F+3       -0.00091   0.00000   0.00000   0.00000   0.00000
 163       57F-3        0.00000   0.00091   0.00000   0.00000   0.00000
 164       58G 0        0.00000   0.00000   0.00009   0.00000  -0.00005
[...]
   5        5S          0.00348   0.00174   0.00174   0.00000
   6        6S          0.01638   0.00819   0.00819   0.00000
   7        7S          0.06657   0.03328   0.03328  -0.00000
   8        8S          0.21677   0.10838   0.10838   0.00000
   9        9S          0.50699   0.25350   0.25350  -0.00000
  10       10S          0.70724   0.35362   0.35362   0.00000
  11       11S          0.38199   0.19100   0.19100  -0.00000
  12       12S          0.16631   0.08316   0.08316   0.00000
  13       13S          0.96575   0.48288   0.48288   0.00000
  14       14S          0.86795   0.43398   0.43398  -0.00000
  15       15S          0.34168   0.17084   0.17084   0.00000
  16       16S          1.08104   0.54052   0.54052  -0.00000
  17       17S          0.64778   0.32389   0.32389  -0.00000
  18       18S          0.26490   0.13245   0.13245   0.00000
  19       19S          0.38652   0.19326   0.19326   0.00000
  20       20S          0.14449   0.07225   0.07225   0.00000
  21       21S         -0.05243  -0.02622  -0.02622  -0.00000
  22       22S          0.05403   0.02701   0.02701   0.00000
  23       23S         -0.01679  -0.00840  -0.00840   0.00000
  24       24PX         0.00000   0.00000   0.00000   0.00000
  25       24PY         0.00000   0.00000   0.00000   0.00000
  26       24PZ         0.00000   0.00000   0.00000   0.00000
  27       25PX         0.00003   0.00001   0.00001   0.00000
  28       25PY         0.00003   0.00001   0.00001   0.00000
  29       25PZ         0.00003   0.00001   0.00001   0.00000
  30       26PX         0.00045   0.00022   0.00022   0.00000
  31       26PY         0.00045   0.00022   0.00022   0.00000
  32       26PZ         0.00045   0.00022   0.00022   0.00000
  33       27PX         0.00437   0.00219   0.00219   0.00000
  34       27PY         0.00437   0.00219   0.00219   0.00000
  35       27PZ         0.00438   0.00219   0.00219  -0.00000
  36       28PX         0.02925   0.01463   0.01463   0.00000
  37       28PY         0.02925   0.01463   0.01463   0.00000
  38       28PZ         0.02930   0.01465   0.01465  -0.00000
  39       29PX         0.13274   0.06637   0.06637   0.00000
  40       29PY         0.13274   0.06637   0.06637   0.00000
  41       29PZ         0.13293   0.06647   0.06647   0.00000
  42       30PX         0.38711   0.19356   0.19355   0.00001
  43       30PY         0.38711   0.19356   0.19355   0.00001
  44       30PZ         0.38762   0.19381   0.19381   0.00000
  45       31PX         0.67512   0.33756   0.33756   0.00000
  46       31PY         0.67512   0.33756   0.33756   0.00000
  47       31PZ         0.67554   0.33777   0.33777  -0.00000
  48       32PX         0.58093   0.29046   0.29047  -0.00000
  49       32PY         0.58093   0.29046   0.29047  -0.00000
  50       32PZ         0.58085   0.29043   0.29043  -0.00000
  51       33PX         0.26784   0.13392   0.13392   0.00001
  52       33PY         0.26784   0.13392   0.13392   0.00001
  53       33PZ         0.27228   0.13614   0.13614   0.00000
  54       34PX         0.51745   0.25876   0.25869   0.00007
  55       34PY         0.51745   0.25876   0.25869   0.00007
  56       34PZ         0.52323   0.26161   0.26161   0.00000
  57       35PX         0.48938   0.24470   0.24468   0.00002
  58       35PY         0.48938   0.24470   0.24468   0.00002
  59       35PZ         0.49331   0.24665   0.24665  -0.00000
  60       36PX         0.49891   0.24945   0.24946  -0.00001
  61       36PY         0.49891   0.24945   0.24946  -0.00001
  62       36PZ         0.49112   0.24556   0.24556  -0.00000
  63       37PX         0.04939   0.02483   0.02455   0.00028
  64       37PY         0.04939   0.02483   0.02455   0.00028
  65       37PZ         0.06946   0.03473   0.03473  -0.00000
  66       38PX        -0.00093  -0.00038  -0.00055   0.00017
  67       38PY        -0.00093  -0.00038  -0.00055   0.00017
  68       38PZ         0.03388   0.01694   0.01694  -0.00000
  69       39PX         0.00026   0.00012   0.00014  -0.00002
  70       39PY         0.00026   0.00012   0.00014  -0.00002
  71       39PZ         0.00786   0.00393   0.00393   0.00000
  72       40PX        -0.00260  -0.00130  -0.00130  -0.00000
  73       40PY        -0.00260  -0.00130  -0.00130  -0.00000
  74       40PZ        -0.00647  -0.00324  -0.00324  -0.00000
  75       41PX         0.37071   0.18539   0.18532   0.00007
  76       41PY         0.37071   0.18539   0.18532   0.00007
  77       41PZ         0.37401   0.18701   0.18701   0.00000
  78       42PX        -0.00002  -0.00001  -0.00001   0.00000
  79       42PY        -0.00002  -0.00001  -0.00001   0.00000
  80       42PZ        -0.00165  -0.00083  -0.00083   0.00000
  81       43D 0        0.00025   0.00013   0.00013   0.00000
  82       43D+1        0.00017   0.00017   0.00000   0.00017
  83       43D-1        0.00017   0.00017   0.00000   0.00017
  84       43D+2        0.00017   0.00017   0.00000   0.00017
  85       43D-2        0.00032   0.00016   0.00016  -0.00000
  86       44D 0        0.00711   0.00356   0.00356   0.00000
  87       44D+1        0.00464   0.00464   0.00000   0.00464
  88       44D-1        0.00464   0.00464   0.00000   0.00464
  89       44D+2        0.00467   0.00467   0.00000   0.00467
  90       44D-2        0.00884   0.00442   0.00442  -0.00000
  91       45D 0        0.06353   0.03176   0.03176   0.00000
  92       45D+1        0.04136   0.04136   0.00000   0.04135
  93       45D-1        0.04136   0.04136   0.00000   0.04135
  94       45D+2        0.04164   0.04164   0.00000   0.04164
  95       45D-2        0.07893   0.03947   0.03947  -0.00000
  96       46D 0        0.25884   0.12942   0.12942   0.00000
  97       46D+1        0.16528   0.16527   0.00001   0.16526
  98       46D-1        0.16528   0.16527   0.00001   0.16526
  99       46D+2        0.16491   0.16491   0.00000   0.16491
 100       46D-2        0.31125   0.15563   0.15563  -0.00000
 101       47D 0        0.39110   0.19555   0.19555   0.00000
 102       47D+1        0.29691   0.29693  -0.00002   0.29696
 103       47D-1        0.29691   0.29693  -0.00002   0.29696
 104       47D+2        0.31779   0.31779   0.00000   0.31779
 105       47D-2        0.62617   0.31308   0.31308  -0.00000
 106       48D 0        0.54908   0.27454   0.27454   0.00000
 107       48D+1        0.31223   0.31221   0.00003   0.31218
 108       48D-1        0.31223   0.31221   0.00003   0.31218
 109       48D+2        0.31185   0.31185   0.00000   0.31185
 110       48D-2        0.61401   0.30701   0.30701  -0.00000
 111       49D 0        0.33136   0.16568   0.16568   0.00000
 112       49D+1        0.14525   0.14524   0.00001   0.14524
 113       49D-1        0.14525   0.14524   0.00001   0.14524
 114       49D+2        0.14521   0.14521   0.00000   0.14521
 115       49D-2        0.33303   0.16652   0.16652   0.00000
 116       50D 0        0.06313   0.03157   0.03157   0.00000
 117       50D+1        0.01632   0.01632  -0.00000   0.01632
 118       50D-1        0.01632   0.01632  -0.00000   0.01632
 119       50D+2        0.01576   0.01576   0.00000   0.01576
 120       50D-2        0.05248   0.02624   0.02624  -0.00000
 121       51D 0       -0.00538  -0.00269  -0.00269  -0.00000
 122       51D+1       -0.00038  -0.00038  -0.00000  -0.00038
 123       51D-1       -0.00038  -0.00038  -0.00000  -0.00038
 124       51D+2        0.00134   0.00134   0.00000   0.00134
 125       51D-2        0.00380   0.00190   0.00190  -0.00000
 126       52D 0        0.10204   0.05102   0.05102   0.00000
 127       52D+1        0.01623   0.01620   0.00004   0.01616
 128       52D-1        0.01623   0.01620   0.00004   0.01616
 129       52D+2       -0.00336  -0.00336  -0.00000  -0.00336
 130       52D-2       -0.02879  -0.01440  -0.01440   0.00000
 131       53D 0       -0.00042  -0.00021  -0.00021  -0.00000
 132       53D+1       -0.00018  -0.00018   0.00000  -0.00018
 133       53D-1       -0.00018  -0.00018   0.00000  -0.00018
 134       53D+2       -0.00022  -0.00022   0.00000  -0.00022
 135       53D-2       -0.00043  -0.00021  -0.00021   0.00000
 136       54F 0        0.00001   0.00000   0.00000   0.00000
 137       54F+1        0.00000   0.00000   0.00000   0.00000
 138       54F-1        0.00000   0.00000   0.00000   0.00000
 139       54F+2        0.00000   0.00000   0.00000   0.00000
 140       54F-2        0.00000   0.00000   0.00000  -0.00000
 141       54F+3        0.00001   0.00000   0.00000   0.00000
 142       54F-3        0.00001   0.00000   0.00000   0.00000
 143       55F 0        0.00007   0.00004   0.00004   0.00000
 144       55F+1        0.00001   0.00001   0.00000   0.00000
 145       55F-1        0.00001   0.00001   0.00000   0.00000
 146       55F+2        0.00000   0.00000   0.00000   0.00000
 147       55F-2        0.00001   0.00000   0.00000  -0.00000
 148       55F+3        0.00002   0.00001   0.00001   0.00000
 149       55F-3        0.00002   0.00001   0.00001   0.00000
 150       56F 0        0.00111   0.00055   0.00055   0.00000
 151       56F+1        0.00004   0.00004   0.00000   0.00003
 152       56F-1        0.00004   0.00004   0.00000   0.00003
 153       56F+2        0.00004   0.00004   0.00000   0.00004
 154       56F-2        0.00008   0.00004   0.00004  -0.00000
 155       56F+3        0.00003   0.00002   0.00002   0.00000
 156       56F-3        0.00003   0.00002   0.00002   0.00000
 157       57F 0        0.00157   0.00078   0.00078   0.00000
 158       57F+1        0.00005   0.00005   0.00000   0.00005
 159       57F-1        0.00005   0.00005   0.00000   0.00005
 160       57F+2        0.00008   0.00008   0.00000   0.00008
 161       57F-2        0.00021   0.00010   0.00010  -0.00000
 162       57F+3        0.00001   0.00000   0.00000   0.00000
 163       57F-3        0.00001   0.00000   0.00000   0.00000
 164       58G 0        0.00000   0.00000   0.00000   0.00000
 165       58G+1       -0.00000  -0.00000   0.00000  -0.00000
 166       58G-1       -0.00000  -0.00000   0.00000  -0.00000
 167       58G+2        0.00000   0.00000   0.00000   0.00000
 168       58G-2       -0.00000  -0.00000  -0.00000   0.00000
 169       58G+3        0.00000   0.00000   0.00000   0.00000
 170       58G-3        0.00000   0.00000   0.00000   0.00000
 171       58G+4        0.00000   0.00000   0.00000   0.00000
 172       58G-4        0.00000   0.00000   0.00000  -0.00000
 173       59G 0        0.00001   0.00001   0.00001   0.00000
 174       59G+1        0.00000   0.00000  -0.00000   0.00000
 175       59G-1        0.00000   0.00000  -0.00000   0.00000
 176       59G+2        0.00000   0.00000   0.00000   0.00000
 177       59G-2        0.00000   0.00000   0.00000  -0.00000
 178       59G+3        0.00000   0.00000   0.00000   0.00000
 179       59G-3        0.00000   0.00000   0.00000   0.00000
 180       59G+4        0.00000   0.00000   0.00000   0.00000
 181       59G-4        0.00000   0.00000   0.00000  -0.00000
 182       60G 0        0.00031   0.00016   0.00016  -0.00000
 183       60G+1        0.00001   0.00001   0.00000   0.00001
 184       60G-1        0.00001   0.00001   0.00000   0.00001
 185       60G+2        0.00001   0.00001   0.00000   0.00001
 186       60G-2        0.00000   0.00000   0.00000  -0.00000
 187       60G+3        0.00000   0.00000   0.00000   0.00000
 188       60G-3        0.00000   0.00000   0.00000   0.00000
 189       60G+4        0.00000   0.00000   0.00000   0.00000
 190       60G-4        0.00000   0.00000   0.00000  -0.00000
 191 2   H  1S          0.00102   0.00051   0.00051   0.00000
 192        2S          0.02348   0.01174   0.01174   0.00000
 193        3S          0.19084   0.09542   0.09542   0.00000
 194        4S          0.58365   0.29183   0.29183   0.00000
 195        5S          0.54285   0.27143   0.27143  -0.00000
 196        6S          0.06242   0.03121   0.03121  -0.00000
 197        7PX         0.00022   0.00022   0.00000   0.00021
 198        7PY         0.00022   0.00022   0.00000   0.00021
 199        7PZ         0.00227   0.00113   0.00113   0.00000
 200        8PX         0.00173   0.00170   0.00003   0.00167
 201        8PY         0.00173   0.00170   0.00003   0.00167
 202        8PZ         0.00754   0.00377   0.00377   0.00000
 203        9PX        -0.00044  -0.00044   0.00000  -0.00045
 204        9PY        -0.00044  -0.00044   0.00000  -0.00045
 205        9PZ         0.00113   0.00057   0.00057  -0.00000
 206       10D 0        0.00080   0.00040   0.00040   0.00000
 207       10D+1        0.00024   0.00023   0.00001   0.00022
 208       10D-1        0.00024   0.00023   0.00001   0.00022
 209       10D+2        0.00001   0.00001   0.00000   0.00001
 210       10D-2        0.00004   0.00002   0.00002  -0.00000
 211       11D 0        0.00070   0.00035   0.00035   0.00000
 212       11D+1       -0.00013  -0.00011  -0.00003  -0.00008
 213       11D-1       -0.00013  -0.00011  -0.00003  -0.00008
 214       11D+2        0.00010   0.00010   0.00000   0.00010
 215       11D-2        0.00005   0.00002   0.00002  -0.00000
          Condensed to atoms (all electrons):
               1          2
     1  Fe  25.216242   0.363618
     2  H    0.363618   1.056522
          Atomic-Atomic Spin Densities.
               1          2
     1  Fe   2.993606   0.003110
     2  H    0.003110   0.000175
 Mulliken charges and spin densities:
               1          2
     1  Fe   0.420140   2.996715
     2  H   -0.420140   0.003285
 Sum of Mulliken charges =  -0.00000   3.00000
 Mulliken charges and spin densities with hydrogens summed into heavy atoms:
               1          2
     1  Fe  -0.000000   3.000000
 Electronic spatial extent (au):  <R**2>=             44.4809
 Charge=             -0.0000 electrons
 Dipole moment (field-independent basis, Debye):
    X=              0.0000    Y=              0.0000    Z=              4.0857  Tot=              4.0857
 Quadrupole moment (field-independent basis, Debye-Ang):
   XX=            -16.1460   YY=            -16.1460   ZZ=            -17.1293
   XY=              0.0000   XZ=              0.0000   YZ=              0.0000
 Traceless Quadrupole moment (field-independent basis, Debye-Ang):
   XX=              0.3278   YY=              0.3278   ZZ=             -0.6556
   XY=              0.0000   XZ=              0.0000   YZ=              0.0000
 Octapole moment (field-independent basis, Debye-Ang**2):
  XXX=              0.0000  YYY=              0.0000  ZZZ=             14.8951  XYY=              0.0000
  XXY=              0.0000  XXZ=              3.6566  XZZ=              0.0000  YZZ=              0.0000
  YYZ=              3.6566  XYZ=              0.0000
 Hexadecapole moment (field-independent basis, Debye-Ang**3):
 XXXX=            -25.4067 YYYY=            -25.4066 ZZZZ=            -48.5379 XXXY=              0.0000
 XXXZ=              0.0000 YYYX=              0.0000 YYYZ=              0.0000 ZZZX=              0.0000
 ZZZY=              0.0000 XXYY=             -8.7979 XXZZ=            -11.7091 YYZZ=            -11.7091
 XXYZ=              0.0000 YYXZ=              0.0000 ZZXY=              0.0000
 N-N= 9.172404989280D+00 E-N=-3.104052578211D+03  KE= 1.325499234494D+03
 Symmetry A1   KE= 1.014649388022D+03
 Symmetry A2   KE= 1.316822357363D+01
 Symmetry B1   KE= 1.488408111750D+02
 Symmetry B2   KE= 1.488408117253D+02
 Symmetry A1   SP= 1.000000000000D+00
 Symmetry A2   SP=-2.196644375313D-16
 Symmetry B1   SP= 1.000000000000D+00
 Symmetry B2   SP= 1.000000000000D+00
 Orbital energies and kinetic energies (alpha):
                                 1                 2
   8         O                -2.759298         11.050471
   9         O                -2.759298         11.050471
  10         O                -0.508772          3.266723
  11         O                -0.508772          6.584112
  12         O                -0.497471          3.084374
  13         O                -0.463172          6.877843
  14         O                -0.447976          6.877843
  15         O                -0.316433          6.908862
  16         V                -0.002085          0.305401
  17         V                 0.024584          0.053793
  18         V                 0.024584          0.053793
  19         V                 0.031270          0.042591
  20         V                 0.043309          0.372612
 Total kinetic energy from orbitals= 1.346163782310D+03
 FoFCou: FMM=F IPFlag=           8 FMFlag=           0 FMFlg1=           0
         NFxFlg=           0 DoJE=F BraDBF=T KetDBF=F FulRan=T
         wScrn=  0.000000 ICntrl=   2000500 IOpCl=  0 I1Cent=           5 NGrid=           0
         NMat0=    1 NMatS0=      1 NMatT0=    0 NMatD0=    1 NMtDS0=    0 NMtDT0=    0
 Symmetry not used in FoFCou.
                          Isotropic Fermi Contact Couplings
        Atom                 a.u.       MegaHertz       Gauss      10(-4) cm-1
     1  Fe(57)             0.00000       0.00000       0.00000       0.00000
     2  H(1)               0.00000       0.00000       0.00000       0.00000
 --------------------------------------------------------
       Center         ----  Spin Dipole Couplings  ----
                      3XX-RR        3YY-RR        3ZZ-RR
 --------------------------------------------------------
     1   Atom        0.011626      0.011652     -0.023278
     2   Atom       -0.113086     -0.113086      0.226173
 --------------------------------------------------------
                        XY            XZ            YZ
 --------------------------------------------------------
     1   Atom        0.000000      0.000000      0.000000
     2   Atom        0.000000      0.000000      0.000000
 --------------------------------------------------------


 ---------------------------------------------------------------------------------
              Anisotropic Spin Dipole Couplings in Principal Axis System
 ---------------------------------------------------------------------------------

       Atom             a.u.   MegaHertz   Gauss  10(-4) cm-1        Axes

              Baa    -0.0233    -0.403    -0.144    -0.134  0.0000  0.0000  1.0000
     1 Fe(57) Bbb     0.0116     0.201     0.072     0.067  1.0000  0.0000  0.0000
              Bcc     0.0117     0.202     0.072     0.067 -0.0000  1.0000  0.0000
 
              Baa    -0.1131   -60.337   -21.530   -20.126  1.0000  0.0000  0.0000
     2 H(1)   Bbb    -0.1131   -60.337   -21.530   -20.126 -0.0000  1.0000  0.0000
              Bcc     0.2262   120.675    43.060    40.253  0.0000  0.0000  1.0000
 

 ---------------------------------------------------------------------------------

 No NMR shielding tensors so no spin-rotation constants.
 Leave Link  601 at Wed Mar  7 11:18:09 2018, MaxMem= 10737418240 cpu:              87.0 elap:               2.8
 (Enter /home1/apps/gaussian/16rA.03/g16/l9999.exe)

 Test job not archived.
 1\1\GINC-C413-014\SP\ROCCSD(T)-FC1\Gen\Fe1H1(4)\GWANG18\07-Mar-2018\0\
 \#P ROCCSD(T)=(MaxCyc=150, FrzINGC)/Gen SCF=(maxcycle=400) Integral(DK
 HSO, NoXCTest) Pop=Regular MaxDisk=500GB Guess=Read IOp(5/15=2)\\FeH\\
 0,4\Fe,0,0.,0.,0.\H,0,0.,0.,1.5\\Version=ES64L-G16RevA.03\HF=-1271.818
 4381\MP2=-1272.5770644\MP3=-1272.5038917\PUHF=-1271.8184381\PMP2-0=-12
 72.5770644\MP4SDQ=-1272.5516115\CCSD=-1272.5385315\CCSD(T)=-1272.56621
 47\RMSD=8.216e-09\PG=C*V [C*(H1Fe1)]\\@


 "WOULD YOU TELL ME PLEASE, WHICH WAY I OUGHT TO WALK FROM HERE?"
 "THAT DEPENDS A GREAT DEAL ON WHERE YOU WANT TO GO," SAID THE CAT.
 "I DON'T MUCH CARE WHERE -- ", SAID ALICE.
 "THEN IT DOESN'T MATTER WHICH WAY YOU WALK," SAID THE CAT.

                                      -- LEWIS CARROLL
 Job cpu time:       0 days  7 hours  9 minutes 51.5 seconds.
 Elapsed time:       0 days  0 hours 13 minutes 32.1 seconds.
 File lengths (MBytes):  RWF=   2529 Int=      0 D2E=      0 Chk=      6 Scr=      1
 Normal termination of Gaussian 16 at Wed Mar  7 11:18:10 2018.
