 Entering Gaussian System, Link 0=g16
 Initial command:
 /home1/apps/gaussian/16rA.03/g16/l1.exe "/tmp/Gau-36729.inp" -scrdir="/tmp/"
 Entering Link 1 = /home1/apps/gaussian/16rA.03/g16/l1.exe PID=     36730.
  
 Copyright (c) 1988,1990,1992,1993,1995,1998,2003,2009,2016,
            Gaussian, Inc.  All Rights Reserved.
  
 This is part of the Gaussian(R) 16 program.  It is based on
 the Gaussian(R) 09 system (copyright 2009, Gaussian, Inc.),
 the Gaussian(R) 03 system (copyright 2003, Gaussian, Inc.),
 the Gaussian(R) 98 system (copyright 1998, Gaussian, Inc.),
 the Gaussian(R) 94 system (copyright 1995, Gaussian, Inc.),
 the Gaussian 92(TM) system (copyright 1992, Gaussian, Inc.),
 the Gaussian 90(TM) system (copyright 1990, Gaussian, Inc.),
 the Gaussian 88(TM) system (copyright 1988, Gaussian, Inc.),
 the Gaussian 86(TM) system (copyright 1986, Carnegie Mellon
 University), and the Gaussian 82(TM) system (copyright 1983,
 Carnegie Mellon University). Gaussian is a federally registered
 trademark of Gaussian, Inc.
  
 This software contains proprietary and confidential information,
 including trade secrets, belonging to Gaussian, Inc.
  
 This software is provided under written license and may be
 used, copied, transmitted, or stored only in accord with that
 written license.
  
 The following legend is applicable only to US Government
 contracts under FAR:
  
                    RESTRICTED RIGHTS LEGEND
  
 Use, reproduction and disclosure by the US Government is
 subject to restrictions as set forth in subparagraphs (a)
 and (c) of the Commercial Computer Software - Restricted
 Rights clause in FAR 52.227-19.
  
 Gaussian, Inc.
 340 Quinnipiac St., Bldg. 40, Wallingford CT 06492
  
  
 ---------------------------------------------------------------
 Warning -- This program may not be used in any manner that
 competes with the business of Gaussian, Inc. or will provide
 assistance to any competitor of Gaussian, Inc.  The licensee
 of this program is prohibited from giving any competitor of
 Gaussian, Inc. access to this program.  By using this program,
 the user acknowledges that Gaussian, Inc. is engaged in the
 business of creating and licensing software in the field of
 computational chemistry and represents and warrants to the
 licensee that it is not a competitor of Gaussian, Inc. and that
 it will not use this program in any manner prohibited above.
 ---------------------------------------------------------------
  

 Cite this work as:
 Gaussian 16, Revision A.03,
 M. J. Frisch, G. W. Trucks, H. B. Schlegel, G. E. Scuseria, 
 M. A. Robb, J. R. Cheeseman, G. Scalmani, V. Barone, 
 G. A. Petersson, H. Nakatsuji, X. Li, M. Caricato, A. V. Marenich, 
 J. Bloino, B. G. Janesko, R. Gomperts, B. Mennucci, H. P. Hratchian, 
 J. V. Ortiz, A. F. Izmaylov, J. L. Sonnenberg, D. Williams-Young, 
 F. Ding, F. Lipparini, F. Egidi, J. Goings, B. Peng, A. Petrone, 
 T. Henderson, D. Ranasinghe, V. G. Zakrzewski, J. Gao, N. Rega, 
 G. Zheng, W. Liang, M. Hada, M. Ehara, K. Toyota, R. Fukuda, 
 J. Hasegawa, M. Ishida, T. Nakajima, Y. Honda, O. Kitao, H. Nakai, 
 T. Vreven, K. Throssell, J. A. Montgomery, Jr., J. E. Peralta, 
 F. Ogliaro, M. J. Bearpark, J. J. Heyd, E. N. Brothers, K. N. Kudin, 
 V. N. Staroverov, T. A. Keith, R. Kobayashi, J. Normand, 
 K. Raghavachari, A. P. Rendell, J. C. Burant, S. S. Iyengar, 
 J. Tomasi, M. Cossi, J. M. Millam, M. Klene, C. Adamo, R. Cammi, 
 J. W. Ochterski, R. L. Martin, K. Morokuma, O. Farkas, 
 J. B. Foresman, and D. J. Fox, Gaussian, Inc., Wallingford CT, 2016.
 
 ******************************************
 Gaussian 16:  ES64L-G16RevA.03 25-Dec-2016
                14-Mar-2018 
 ******************************************
 %MEM=80GB
 %CPU=0-15
 SetSPE:  set environment variable "MP_BIND" = "yes"
 SetSPE:  set environment variable "MP_BLIST" = "0,1,2,3,4,5,6,7,8,9,10,11,12,13,14,15"
 Will use up to   16 processors via shared memory.
 %RWF=/scratch/04843/aannabe/gaussian/
 %Int=/scratch/04843/aannabe/gaussian/
 %D2E=/scratch/04843/aannabe/gaussian/
 %NoSave
 %CHK=MnO
 ----------------------------------------------------------------------
 #P ROCCSD(T)=(maxcyc=150, Full, SaveAmplitudes, ReadAmplitudes)/Gen 5d
  7f SCF=(maxcycles=300) Integral(NoXCTest) MaxDisk=500GB Pop=Regular P
 seudo=Read Guess=Read
 ----------------------------------------------------------------------
 1/38=1,172=1/1;
 2/12=2,17=6,18=5,40=1/2;
 3/5=7,8=11,11=2,16=1,17=8,25=1,30=1,47=8,116=101/1,2,3;
 4/5=1/1;
 5/5=2,7=300,38=6/2;
 8/5=-1,6=4,9=120000,10=90,24=1/1,4;
 9/5=7,6=150,14=2,77=1/13;
 6//1;
 99/5=1,9=1/99;
 Leave Link    1 at Wed Mar 14 04:59:55 2018, MaxMem= 10737418240 cpu:               3.5 elap:               0.2
 (Enter /home1/apps/gaussian/16rA.03/g16/l101.exe)
 ---
 MnO
 ---
 Symbolic Z-matrix:
 Charge =  0 Multiplicity = 6
 Mn                    0.        0.        0. 
 O                     0.        0.        1.7 
 
 ITRead=  0  0
 MicOpt= -1 -1
 NAtoms=      2 NQM=        2 NQMF=       0 NMMI=      0 NMMIF=      0
                NMic=       0 NMicF=      0.
                    Isotopes and Nuclear Properties:
 (Nuclear quadrupole moments (NQMom) in fm**2, nuclear magnetic moments (NMagM)
  in nuclear magnetons)

  Atom         1           2
 IAtWgt=          55          16
 AtmWgt=  54.9380463  15.9949146
 NucSpn=           5           0
 AtZEff=  -0.0000000  -0.0000000
 NQMom=   33.0000000   0.0000000
 NMagM=    3.4532000   0.0000000
 AtZNuc=  25.0000000   8.0000000
 Leave Link  101 at Wed Mar 14 04:59:55 2018, MaxMem= 10737418240 cpu:               1.5 elap:               0.1
 (Enter /home1/apps/gaussian/16rA.03/g16/l202.exe)
                          Input orientation:                          
 ---------------------------------------------------------------------
 Center     Atomic      Atomic             Coordinates (Angstroms)
 Number     Number       Type             X           Y           Z
 ---------------------------------------------------------------------
      1         25           0        0.000000    0.000000    0.000000
      2          8           0        0.000000    0.000000    1.700000
 ---------------------------------------------------------------------
 Stoichiometry    MnO(6)
 Framework group  C*V[C*(OMn)]
 Deg. of freedom     1
 Full point group                 C*V     NOp   4
 Largest Abelian subgroup         C2V     NOp   4
 Largest concise Abelian subgroup C1      NOp   1
                         Standard orientation:                         
 ---------------------------------------------------------------------
 Center     Atomic      Atomic             Coordinates (Angstroms)
 Number     Number       Type             X           Y           Z
 ---------------------------------------------------------------------
      1         25           0        0.000000    0.000000    0.412121
      2          8           0        0.000000    0.000000   -1.287879
 ---------------------------------------------------------------------
 Rotational constants (GHZ):           0.0000000          14.1160214          14.1160214
 Leave Link  202 at Wed Mar 14 04:59:55 2018, MaxMem= 10737418240 cpu:               0.4 elap:               0.1
 (Enter /home1/apps/gaussian/16rA.03/g16/l301.exe)
 General basis read from cards:  (5D, 7F)
 Centers:       1
 S 1 1.00
     Exponent=  1.2210500000D+07 Coefficients=  1.0000000000D+00
 S 1 1.00
     Exponent=  1.8281570000D+06 Coefficients=  1.0000000000D+00
 S 1 1.00
     Exponent=  4.1603030000D+05 Coefficients=  1.0000000000D+00
 S 1 1.00
     Exponent=  1.1784360000D+05 Coefficients=  1.0000000000D+00
 S 1 1.00
     Exponent=  3.8448140000D+04 Coefficients=  1.0000000000D+00
 S 1 1.00
     Exponent=  1.3881710000D+04 Coefficients=  1.0000000000D+00
 S 1 1.00
     Exponent=  5.4150020000D+03 Coefficients=  1.0000000000D+00
 S 1 1.00
     Exponent=  2.2464600000D+03 Coefficients=  1.0000000000D+00
 S 1 1.00
     Exponent=  9.8014630000D+02 Coefficients=  1.0000000000D+00
 S 1 1.00
     Exponent=  4.4589520000D+02 Coefficients=  1.0000000000D+00
 S 1 1.00
     Exponent=  2.1005580000D+02 Coefficients=  1.0000000000D+00
 S 1 1.00
     Exponent=  1.0180460000D+02 Coefficients=  1.0000000000D+00
 S 1 1.00
     Exponent=  5.0011260000D+01 Coefficients=  1.0000000000D+00
 S 1 1.00
     Exponent=  2.2939390000D+01 Coefficients=  1.0000000000D+00
 S 1 1.00
     Exponent=  1.1522640000D+01 Coefficients=  1.0000000000D+00
 S 1 1.00
     Exponent=  5.7763380000D+00 Coefficients=  1.0000000000D+00
 S 1 1.00
     Exponent=  2.6259590000D+00 Coefficients=  1.0000000000D+00
 S 1 1.00
     Exponent=  1.2603220000D+00 Coefficients=  1.0000000000D+00
 S 1 1.00
     Exponent=  5.7713000000D-01 Coefficients=  1.0000000000D+00
 S 1 1.00
     Exponent=  1.3658200000D-01 Coefficients=  1.0000000000D+00
 S 1 1.00
     Exponent=  6.3535000000D-02 Coefficients=  1.0000000000D+00
 S 1 1.00
     Exponent=  2.8521000000D-02 Coefficients=  1.0000000000D+00
 S 1 1.00
     Exponent=  5.3389000000D+00 Coefficients=  1.0000000000D+00
 S 1 1.00
     Exponent=  1.6013000000D+00 Coefficients=  1.0000000000D+00
 S 1 1.00
     Exponent=  1.2800000000D-02 Coefficients=  1.0000000000D+00
 P 1 1.00
     Exponent=  3.5005120000D+04 Coefficients=  1.0000000000D+00
 P 1 1.00
     Exponent=  8.2794620000D+03 Coefficients=  1.0000000000D+00
 P 1 1.00
     Exponent=  2.6884650000D+03 Coefficients=  1.0000000000D+00
 P 1 1.00
     Exponent=  1.0294900000D+03 Coefficients=  1.0000000000D+00
 P 1 1.00
     Exponent=  4.3807080000D+02 Coefficients=  1.0000000000D+00
 P 1 1.00
     Exponent=  2.0061530000D+02 Coefficients=  1.0000000000D+00
 P 1 1.00
     Exponent=  9.7007690000D+01 Coefficients=  1.0000000000D+00
 P 1 1.00
     Exponent=  4.8870520000D+01 Coefficients=  1.0000000000D+00
 P 1 1.00
     Exponent=  2.5292810000D+01 Coefficients=  1.0000000000D+00
 P 1 1.00
     Exponent=  1.3353820000D+01 Coefficients=  1.0000000000D+00
 P 1 1.00
     Exponent=  7.1317860000D+00 Coefficients=  1.0000000000D+00
 P 1 1.00
     Exponent=  3.7643650000D+00 Coefficients=  1.0000000000D+00
 P 1 1.00
     Exponent=  1.9462650000D+00 Coefficients=  1.0000000000D+00
 P 1 1.00
     Exponent=  9.8545500000D-01 Coefficients=  1.0000000000D+00
 P 1 1.00
     Exponent=  4.8186500000D-01 Coefficients=  1.0000000000D+00
 P 1 1.00
     Exponent=  1.8822219000D-01 Coefficients=  1.0000000000D+00
 P 1 1.00
     Exponent=  7.7539570000D-02 Coefficients=  1.0000000000D+00
 P 1 1.00
     Exponent=  3.1549450000D-02 Coefficients=  1.0000000000D+00
 P 1 1.00
     Exponent=  7.3423000000D+00 Coefficients=  1.0000000000D+00
 P 1 1.00
     Exponent=  1.9340000000D+00 Coefficients=  1.0000000000D+00
 P 1 1.00
     Exponent=  1.2840000000D-02 Coefficients=  1.0000000000D+00
 D 1 1.00
     Exponent=  3.1310900000D+02 Coefficients=  1.0000000000D+00
 D 1 1.00
     Exponent=  9.2527600000D+01 Coefficients=  1.0000000000D+00
 D 1 1.00
     Exponent=  3.5419100000D+01 Coefficients=  1.0000000000D+00
 D 1 1.00
     Exponent=  1.5157700000D+01 Coefficients=  1.0000000000D+00
 D 1 1.00
     Exponent=  6.9096400000D+00 Coefficients=  1.0000000000D+00
 D 1 1.00
     Exponent=  3.2725600000D+00 Coefficients=  1.0000000000D+00
 D 1 1.00
     Exponent=  1.5493600000D+00 Coefficients=  1.0000000000D+00
 D 1 1.00
     Exponent=  7.1709400000D-01 Coefficients=  1.0000000000D+00
 D 1 1.00
     Exponent=  3.1931000000D-01 Coefficients=  1.0000000000D+00
 D 1 1.00
     Exponent=  1.3415700000D-01 Coefficients=  1.0000000000D+00
 D 1 1.00
     Exponent=  5.1400000000D-02 Coefficients=  1.0000000000D+00
 D 1 1.00
     Exponent=  4.6851000000D+00 Coefficients=  1.0000000000D+00
 D 1 1.00
     Exponent=  2.4217000000D+00 Coefficients=  1.0000000000D+00
 D 1 1.00
     Exponent=  1.9690000000D-02 Coefficients=  1.0000000000D+00
 F 1 1.00
     Exponent=  6.6540000000D+00 Coefficients=  1.0000000000D+00
 F 1 1.00
     Exponent=  2.7676000000D+00 Coefficients=  1.0000000000D+00
 F 1 1.00
     Exponent=  1.1511000000D+00 Coefficients=  1.0000000000D+00
 F 1 1.00
     Exponent=  3.8120000000D-01 Coefficients=  1.0000000000D+00
 F 1 1.00
     Exponent=  1.2624000000D-01 Coefficients=  1.0000000000D+00
 G 1 1.00
     Exponent=  5.4683000000D+00 Coefficients=  1.0000000000D+00
 G 1 1.00
     Exponent=  2.3327000000D+00 Coefficients=  1.0000000000D+00
 G 1 1.00
     Exponent=  8.5200000000D-01 Coefficients=  1.0000000000D+00
 G 1 1.00
     Exponent=  3.1119000000D-01 Coefficients=  1.0000000000D+00
 H 1 1.00
     Exponent=  5.1185000000D+00 Coefficients=  1.0000000000D+00
 H 1 1.00
     Exponent=  1.9660000000D+00 Coefficients=  1.0000000000D+00
 H 1 1.00
     Exponent=  7.5513000000D-01 Coefficients=  1.0000000000D+00
 ****
 Centers:       2
 S 1 1.00
     Exponent=  6.1420000000D+04 Coefficients=  1.0000000000D+00
 S 1 1.00
     Exponent=  9.1990000000D+03 Coefficients=  1.0000000000D+00
 S 1 1.00
     Exponent=  2.0910000000D+03 Coefficients=  1.0000000000D+00
 S 1 1.00
     Exponent=  5.9090000000D+02 Coefficients=  1.0000000000D+00
 S 1 1.00
     Exponent=  1.9230000000D+02 Coefficients=  1.0000000000D+00
 S 1 1.00
     Exponent=  6.9320000000D+01 Coefficients=  1.0000000000D+00
 S 1 1.00
     Exponent=  2.6970000000D+01 Coefficients=  1.0000000000D+00
 S 1 1.00
     Exponent=  1.1100000000D+01 Coefficients=  1.0000000000D+00
 S 1 1.00
     Exponent=  4.6820000000D+00 Coefficients=  1.0000000000D+00
 S 1 1.00
     Exponent=  1.4280000000D+00 Coefficients=  1.0000000000D+00
 S 1 1.00
     Exponent=  5.5470000000D-01 Coefficients=  1.0000000000D+00
 S 1 1.00
     Exponent=  2.0670000000D-01 Coefficients=  1.0000000000D+00
 S 1 1.00
     Exponent=  1.2974000000D+01 Coefficients=  1.0000000000D+00
 S 1 1.00
     Exponent=  3.4900000000D+01 Coefficients=  1.0000000000D+00
 S 1 1.00
     Exponent=  9.3881000000D+01 Coefficients=  1.0000000000D+00
 S 1 1.00
     Exponent=  6.9590000000D-02 Coefficients=  1.0000000000D+00
 P 1 1.00
     Exponent=  6.3420000000D+01 Coefficients=  1.0000000000D+00
 P 1 1.00
     Exponent=  1.4660000000D+01 Coefficients=  1.0000000000D+00
 P 1 1.00
     Exponent=  4.4590000000D+00 Coefficients=  1.0000000000D+00
 P 1 1.00
     Exponent=  1.5310000000D+00 Coefficients=  1.0000000000D+00
 P 1 1.00
     Exponent=  5.3020000000D-01 Coefficients=  1.0000000000D+00
 P 1 1.00
     Exponent=  1.7500000000D-01 Coefficients=  1.0000000000D+00
 P 1 1.00
     Exponent=  1.4475000000D+01 Coefficients=  1.0000000000D+00
 P 1 1.00
     Exponent=  4.2730000000D+01 Coefficients=  1.0000000000D+00
 P 1 1.00
     Exponent=  1.2614000000D+02 Coefficients=  1.0000000000D+00
 P 1 1.00
     Exponent=  5.3480000000D-02 Coefficients=  1.0000000000D+00
 D 1 1.00
     Exponent=  3.7750000000D+00 Coefficients=  1.0000000000D+00
 D 1 1.00
     Exponent=  1.3000000000D+00 Coefficients=  1.0000000000D+00
 D 1 1.00
     Exponent=  4.4400000000D-01 Coefficients=  1.0000000000D+00
 D 1 1.00
     Exponent=  1.4927000000D+01 Coefficients=  1.0000000000D+00
 D 1 1.00
     Exponent=  5.7544000000D+01 Coefficients=  1.0000000000D+00
 D 1 1.00
     Exponent=  1.5400000000D-01 Coefficients=  1.0000000000D+00
 F 1 1.00
     Exponent=  2.6660000000D+00 Coefficients=  1.0000000000D+00
 F 1 1.00
     Exponent=  8.5900000000D-01 Coefficients=  1.0000000000D+00
 F 1 1.00
     Exponent=  2.6483000000D+01 Coefficients=  1.0000000000D+00
 F 1 1.00
     Exponent=  3.2400000000D-01 Coefficients=  1.0000000000D+00
 G 1 1.00
     Exponent=  1.8460000000D+00 Coefficients=  1.0000000000D+00
 G 1 1.00
     Exponent=  7.1400000000D-01 Coefficients=  1.0000000000D+00
 ****
 ======================================================================================================
                                       Pseudopotential Parameters
 ======================================================================================================
  Center     Atomic      Valence      Angular      Power
  Number     Number     Electrons     Momentum     of R      Exponent        Coefficient   SO-Coeffient
 ======================================================================================================
    1         25           15
                                      F and up 
                                                     1       18.4343224       15.00000000    0.00000000
                                                     2       12.7417521    31301.56494509    0.00000000
                                                     2       11.6741091    -4576.35463180    0.00000000
                                                     2       12.9037616    **************    0.00000000
                                                     2        4.9717187       -4.09339906    0.00000000
                                                     3        8.7926482      276.51483655    0.00000000
                                      S - F
                                                     2       13.5618787     2771.78238977    0.00000000
                                                     2        9.4481253    12553.69429672    0.00000000
                                                     2       10.7650385     1886.79316638    0.00000000
                                                     2       11.6534559    -9260.55332402    0.00000000
                                                     2        8.4807300    -8943.95003535    0.00000000
                                                     2        6.9670703     1041.73211249    0.00000000
                                      P - F
                                                     2       12.7134292    **************    0.00000000
                                                     2       18.0317451    **************    0.00000000
                                                     2       16.6827906    **************    0.00000000
                                                     2       13.1886712    16025.79106608    0.00000000
                                                     2       18.4286113    **************    0.00000000
                                                     2       12.9092897    14270.47832347    0.00000000
                                      D - F
                                                     2        8.1338423     -382.83904013    0.00000000
                                                     2       14.2869922     5676.99013005    0.00000000
                                                     2       11.1440663    35338.03440844    0.00000000
                                                     2       11.3767498    **************    0.00000000
                                                     2       18.2581823     3550.66026420    0.00000000
                                                     2       17.7314631    -5317.47975296    0.00000000
    2          8            6
                                      P and up 
                                                     1       12.3099700        6.00000000    0.00000000
                                                     3       14.7696200       73.85984000    0.00000000
                                                     2       13.7141900      -47.87600000    0.00000000
                                      S - P
                                                     2       13.6551200       85.86406000    0.00000000
 ======================================================================================================
 Ernie: Thresh=  0.10000D-02 Tol=  0.10000D-05 Strict=F.
 There are   213 symmetry adapted cartesian basis functions of A1  symmetry.
 There are    56 symmetry adapted cartesian basis functions of A2  symmetry.
 There are   114 symmetry adapted cartesian basis functions of B1  symmetry.
 There are   114 symmetry adapted cartesian basis functions of B2  symmetry.
 There are   157 symmetry adapted basis functions of A1  symmetry.
 There are    47 symmetry adapted basis functions of A2  symmetry.
 There are    90 symmetry adapted basis functions of B1  symmetry.
 There are    90 symmetry adapted basis functions of B2  symmetry.
   384 basis functions,   497 primitive gaussians,   497 cartesian basis functions
    13 alpha electrons        8 beta electrons
       nuclear repulsion energy        28.0152641075 Hartrees.
 IExCor=    0 DFT=F Ex=HF Corr=None ExCW=0 ScaHFX=  1.000000
 ScaDFX=  1.000000  1.000000  1.000000  1.000000 ScalE2=  1.000000  1.000000
 IRadAn=      5 IRanWt=     -1 IRanGd=            0 ICorTp=0 IEmpDi=  4
 NAtoms=    2 NActive=    2 NUniq=    2 SFac= 1.00D+00 NAtFMM=   60 NAOKFM=F Big=F
 Integral buffers will be    131072 words long.
 Raffenetti 2 integral format.
 Two-electron integral symmetry is turned on.
 Leave Link  301 at Wed Mar 14 04:59:55 2018, MaxMem= 10737418240 cpu:               5.0 elap:               0.3
 (Enter /home1/apps/gaussian/16rA.03/g16/l302.exe)
 NPDir=0 NMtPBC=     1 NCelOv=     1 NCel=       1 NClECP=     1 NCelD=      1
         NCelK=      1 NCelE2=     1 NClLst=     1 CellRange=     0.0.
 One-electron integrals computed using PRISM.
 One-electron integral symmetry used in STVInt
   4 Symmetry operations used in ECPInt.
 ECPInt:  NShTT=    6105 NPrTT=    6105 LenC2=    5553 LenP2D=    5552.
 LDataN:  DoStor=T MaxTD1=10 Len=  848
 NBasis=   384 RedAO= T EigKep=  2.16D-06  NBF=   157    47    90    90
 NBsUse=   377 1.00D-06 EigRej=  3.89D-07 NBFU=   154    47    88    88
 Leave Link  302 at Wed Mar 14 04:59:59 2018, MaxMem= 10737418240 cpu:              50.5 elap:               3.2
 (Enter /home1/apps/gaussian/16rA.03/g16/l303.exe)
 DipDrv:  MaxL=1.
 Leave Link  303 at Wed Mar 14 04:59:59 2018, MaxMem= 10737418240 cpu:               1.9 elap:               0.2
 (Enter /home1/apps/gaussian/16rA.03/g16/l401.exe)
 Initial guess from the checkpoint file:  "MnO.chk"
 B after Tr=     0.000000    0.000000    0.000000
         Rot=    1.000000    0.000000    0.000000    0.000000 Ang=   0.00 deg.
 Guess basis will be translated and rotated to current coordinates.
 JPrj=2 DoOrth=T DoCkMO=T.
 Initial guess orbital symmetries:
       Occupied  (SG) (SG) (PI) (PI) (SG) (SG) (PI) (PI) (DLTA)
                 (DLTA) (SG) (PI) (PI)
       Virtual   (SG) (PI) (PI) (SG) (SG) (PI) (PI) (SG) (DLTA)
                 (DLTA) (PI) (PI) (SG) (SG) (PI) (PI) (SG) (SG)
                 (PI) (PI) (DLTA) (DLTA) (PI) (PI) (SG) (SG) (SG)
                 (DLTA) (DLTA) (PHI) (PHI) (PI) (PI) (PI) (PI)
                 (SG) (SG) (DLTA) (DLTA) (PI) (PI) (SG) (DLTA)
                 (DLTA) (PI) (PI) (SG) (PI) (PI) (SG) (SG) (SG)
                 (DLTA) (DLTA) (PI) (PI) (PHI) (PHI) (SG) (PHI)
                 (PHI) (DLTA) (DLTA) (DLTA) (DLTA) (PI) (PI) (SG)
                 (PI) (PI) (?A) (?A) (PI) (PI) (PHI) (PHI) (DLTA)
                 (DLTA) (SG) (SG) (PI) (PI) (DLTA) (DLTA) (SG)
                 (PI) (PI) (SG) (PI) (PI) (SG) (SG) (SG) (PHI)
                 (PHI) (DLTA) (DLTA) (PI) (PI) (PHI) (PHI) (SG)
                 (DLTA) (DLTA) (PI) (PI) (DLTA) (DLTA) (SG) (PI)
                 (PI) (DLTA) (DLTA) (SG) (PI) (PI) (PI) (PI) (SG)
                 (?A) (?A) (PHI) (PHI) (DLTA) (DLTA) (PI) (PI)
                 (SG) (SG) (SG) (DLTA) (DLTA) (PI) (PI) (SG) (PI)
                 (PI) (SG) (SG) (PI) (PI) (PHI) (PHI) (DLTA) (DLTA)
                 (PI) (PI) (SG) (SG) (?A) (?A) (PHI) (PHI) (DLTA)
                 (DLTA) (PI) (PI) (SG) (SG) (DLTA) (DLTA) (PI)
                 (PI) (SG) (PI) (PI) (SG) (SG) (SG) (DLTA) (DLTA)
                 (PI) (PI) (SG) (PI) (PI) (SG) (DLTA) (DLTA) (PI)
                 (PI) (SG) (PI) (PI) (SG) (SG) (SG) (PI) (PI) (SG)
                 (PI) (PI) (SG) (DLTA) (DLTA) (PI) (PI) (SG) (SG)
                 (SG) (PI) (PI) (SG) (SG) (SG) (PI) (PI) (SG) (DLTA)
                 (DLTA) (PI) (PI) (SG) (PI) (PI) (SG) (SG) (SG)
                 (PI) (PI) (SG) (SG) (SG) (PI) (PI) (SG) (SG) (PI)
                 (PI) (SG) (SG) (SG) (PI) (PI) (SG) (SG) (SG) (SG)
                 (PI) (PI) (SG) (SG) (SG) (SG) (SG) (DLTA) (SG)
                 (SG) (DLTA) (SG) (SG) (SG) (SG) (SG) (DLTA) (SG)
                 (DLTA) (SG) (SG) (DLTA) (SG) (DLTA) (SG) (?A)
                 (SG) (SG) (DLTA) (SG) (DLTA) (SG) (?A) (DLTA)
                 (SG) (DLTA) (?A) (SG) (DLTA) (DLTA) (SG) (DLTA)
                 (SG) (DLTA) (SG) (?A) (?A) (?A) (DLTA) (DLTA)
                 (DLTA) (DLTA) (DLTA) (DLTA) (?A) (DLTA) (DLTA)
                 (?A) (DLTA) (DLTA) (?A) (DLTA) (DLTA) (DLTA) (DLTA)
                 (?A) (?A) (?A) (PI) (PI) (PI) (PI) (PI) (PI) (PI)
                 (PHI) (PI) (PHI) (PI) (PI) (PI) (PHI) (PI) (PHI)
                 (PI) (?B) (PI) (PHI) (PHI) (PI) (PI) (PI) (PHI)
                 (?B) (PHI) (PHI) (?B) (PI) (PI) (PI) (PI) (PI)
                 (PI) (PI) (PHI) (PI) (PHI) (PI) (PI) (PI) (PHI)
                 (PI) (PHI) (PI) (?B) (PI) (PHI) (PHI) (PI) (PI)
                 (PI) (PHI) (?B) (PHI) (PHI) (?B)
 The electronic state of the initial guess is 6-SG.
 Leave Link  401 at Wed Mar 14 05:00:00 2018, MaxMem= 10737418240 cpu:              12.2 elap:               0.9
 (Enter /home1/apps/gaussian/16rA.03/g16/l502.exe)
 Keep R1 and R2 ints in memory in symmetry-blocked form, NReq=3425113631.
 FoFCou: FMM=F IPFlag=           8 FMFlag=           0 FMFlg1=           0
         NFxFlg=           0 DoJE=F BraDBF=F KetDBF=F FulRan=T
         wScrn=  0.000000 ICntrl=       600 IOpCl=  0 I1Cent=           0 NGrid=           0
         NMat0=    1 NMatS0=  73920 NMatT0=    0 NMatD0=    1 NMtDS0=    0 NMtDT0=    0
 Petite list used in FoFCou.
 Restricted open shell SCF:
 Using DIIS extrapolation, IDIIS=  1040.
 NGot= 10737418240 LenX=  9351093905 LenY=  9350846399
 Requested convergence on RMS density matrix=1.00D-08 within 300 cycles.
 Requested convergence on MAX density matrix=1.00D-06.
 Requested convergence on             energy=1.00D-06.
 No special actions if energy rises.

 Cycle   1  Pass 1  IDiag  1:
 E= -119.160294839706    
 DIIS: error= 7.95D+00 at cycle   1 NSaved=   1.
 NSaved= 1 IEnMin= 1 EnMin= -119.160294839706     IErMin= 1 ErrMin= 7.95D+00
 ErrMax= 7.95D+00  0.00D+00 EMaxC= 1.00D-01 BMatC= 9.75D+03 BMatP= 9.75D+03
 IDIUse=3 WtCom= 0.00D+00 WtEn= 1.00D+00
 Coeff-Com:  0.100D+01
 Coeff-En:   0.100D+01
 Coeff:      0.100D+01
 Gap=     0.047 Goal=   None    Shift=    0.000
 GapD=    0.047 DampG=0.250 DampE=0.125 DampFc=0.1250 IDamp=-1.
 Damping current iteration by 1.25D-01
 RMSDP=1.38D-02 MaxDP=2.02D+00              OVMax= 4.48D-03

 Cycle   2  Pass 1  IDiag  1:
 E= -119.162188884986     Delta-E=       -0.001894045280 Rises=F Damp=T
 DIIS: error= 6.96D+00 at cycle   2 NSaved=   2.
 NSaved= 2 IEnMin= 2 EnMin= -119.162188884986     IErMin= 2 ErrMin= 6.96D+00
 ErrMax= 6.96D+00  0.00D+00 EMaxC= 1.00D-01 BMatC= 7.46D+03 BMatP= 9.75D+03
 IDIUse=3 WtCom= 0.00D+00 WtEn= 1.00D+00
 Coeff-Com: -0.700D+01 0.800D+01
 Coeff-En:   0.000D+00 0.100D+01
 Coeff:      0.000D+00 0.100D+01
 Gap=     0.046 Goal=   None    Shift=    0.000
 RMSDP=1.21D-02 MaxDP=1.76D+00 DE=-1.89D-03 OVMax= 5.01D-03

 Cycle   3  Pass 1  IDiag  1:
 E= -119.175475261201     Delta-E=       -0.013286376215 Rises=F Damp=F
 DIIS: error= 7.50D-04 at cycle   3 NSaved=   3.
 NSaved= 3 IEnMin= 3 EnMin= -119.175475261201     IErMin= 3 ErrMin= 7.50D-04
 ErrMax= 7.50D-04  0.00D+00 EMaxC= 1.00D-01 BMatC= 4.12D-05 BMatP= 7.46D+03
 IDIUse=3 WtCom= 9.92D-01 WtEn= 7.50D-03
 Coeff-Com: -0.115D+01 0.132D+01 0.835D+00
 Coeff-En:   0.000D+00 0.000D+00 0.100D+01
 Coeff:     -0.115D+01 0.131D+01 0.836D+00
 Gap=     0.045 Goal=   None    Shift=    0.000
 RMSDP=2.56D-04 MaxDP=3.68D-02 DE=-1.33D-02 OVMax= 8.40D-03

 Cycle   4  Pass 1  IDiag  1:
 E= -119.175480137335     Delta-E=       -0.000004876133 Rises=F Damp=F
 DIIS: error= 3.81D-04 at cycle   4 NSaved=   4.
 NSaved= 4 IEnMin= 4 EnMin= -119.175480137335     IErMin= 4 ErrMin= 3.81D-04
 ErrMax= 3.81D-04  0.00D+00 EMaxC= 1.00D-01 BMatC= 2.40D-05 BMatP= 4.12D-05
 IDIUse=3 WtCom= 9.96D-01 WtEn= 3.81D-03
 Coeff-Com: -0.829D+00 0.947D+00 0.392D+00 0.490D+00
 Coeff-En:   0.000D+00 0.000D+00 0.480D+00 0.520D+00
 Coeff:     -0.826D+00 0.944D+00 0.392D+00 0.490D+00
 Gap=     0.046 Goal=   None    Shift=    0.000
 RMSDP=8.42D-05 MaxDP=8.36D-03 DE=-4.88D-06 OVMax= 1.70D-02

 Cycle   5  Pass 1  IDiag  1:
 E= -119.175439292434     Delta-E=        0.000040844901 Rises=F Damp=F
 DIIS: error= 6.89D-04 at cycle   5 NSaved=   5.
 NSaved= 5 IEnMin= 4 EnMin= -119.175480137335     IErMin= 4 ErrMin= 3.81D-04
 ErrMax= 6.89D-04  0.00D+00 EMaxC= 1.00D-01 BMatC= 3.84D-05 BMatP= 2.40D-05
 IDIUse=3 WtCom= 2.76D-01 WtEn= 7.24D-01
 Coeff-Com: -0.776D+00 0.887D+00 0.510D-01 0.460D+00 0.378D+00
 Coeff-En:   0.000D+00 0.000D+00 0.000D+00 0.580D+00 0.420D+00
 Coeff:     -0.214D+00 0.245D+00 0.141D-01 0.547D+00 0.408D+00
 Gap=     0.045 Goal=   None    Shift=    0.000
 RMSDP=1.96D-04 MaxDP=2.28D-02 DE= 4.08D-05 OVMax= 2.06D-02

 Cycle   6  Pass 1  IDiag  1:
 E= -119.175479117347     Delta-E=       -0.000039824914 Rises=F Damp=F
 DIIS: error= 4.91D-04 at cycle   6 NSaved=   6.
 NSaved= 6 IEnMin= 4 EnMin= -119.175480137335     IErMin= 4 ErrMin= 3.81D-04
 ErrMax= 4.91D-04  0.00D+00 EMaxC= 1.00D-01 BMatC= 1.66D-05 BMatP= 2.40D-05
 IDIUse=3 WtCom= 9.95D-01 WtEn= 4.91D-03
 EnCoef did    15 forward-backward iterations
 Coeff-Com: -0.533D+00 0.610D+00-0.584D-01 0.298D+00 0.405D+00 0.279D+00
 Coeff-En:   0.000D+00 0.000D+00 0.000D+00 0.243D+00 0.401D+00 0.357D+00
 Coeff:     -0.531D+00 0.607D+00-0.582D-01 0.298D+00 0.405D+00 0.280D+00
 Gap=     0.046 Goal=   None    Shift=    0.000
 RMSDP=1.59D-04 MaxDP=1.82D-02 DE=-3.98D-05 OVMax= 8.13D-03

 Cycle   7  Pass 1  IDiag  1:
 E= -119.175503407384     Delta-E=       -0.000024290037 Rises=F Damp=F
 DIIS: error= 2.60D-04 at cycle   7 NSaved=   7.
 NSaved= 7 IEnMin= 7 EnMin= -119.175503407384     IErMin= 7 ErrMin= 2.60D-04
 ErrMax= 2.60D-04  0.00D+00 EMaxC= 1.00D-01 BMatC= 4.98D-06 BMatP= 1.66D-05
 IDIUse=3 WtCom= 9.97D-01 WtEn= 2.60D-03
 Rare condition: small coef for last iteration:  0.000D+00
 Coeff-Com: -0.538D+00 0.615D+00-0.929D-01 0.120D+00 0.233D+00 0.109D+00
 Coeff-Com:  0.554D+00
 Coeff-En:   0.000D+00 0.000D+00 0.000D+00 0.222D+00 0.205D+00 0.123D+00
 Coeff-En:   0.450D+00
 Coeff:     -0.538D+00 0.615D+00-0.929D-01 0.120D+00 0.233D+00 0.109D+00
 Coeff:      0.554D+00
 Gap=     0.045 Goal=   None    Shift=    0.000
 RMSDP=3.85D-05 MaxDP=4.53D-03 DE=-2.43D-05 OVMax= 1.84D-03

 Cycle   8  Pass 1  IDiag  1:
 E= -119.175506367862     Delta-E=       -0.000002960477 Rises=F Damp=F
 DIIS: error= 1.70D-04 at cycle   8 NSaved=   8.
 NSaved= 8 IEnMin= 8 EnMin= -119.175506367862     IErMin= 8 ErrMin= 1.70D-04
 ErrMax= 1.70D-04  0.00D+00 EMaxC= 1.00D-01 BMatC= 3.32D-06 BMatP= 4.98D-06
 IDIUse=3 WtCom= 9.98D-01 WtEn= 1.70D-03
 EnCoef did   100 forward-backward iterations
 Coeff-Com: -0.506D+00 0.578D+00-0.882D-01 0.490D-01 0.136D+00 0.486D-01
 Coeff-Com:  0.453D+00 0.329D+00
 Coeff-En:   0.000D+00 0.000D+00 0.000D+00 0.242D+00 0.397D+00 0.353D+00
 Coeff-En:   0.240D-03 0.706D-02
 Coeff:     -0.505D+00 0.577D+00-0.880D-01 0.493D-01 0.137D+00 0.491D-01
 Coeff:      0.452D+00 0.328D+00
 Gap=     0.045 Goal=   None    Shift=    0.000
 RMSDP=6.83D-06 MaxDP=5.20D-04 DE=-2.96D-06 OVMax= 4.84D-04

 Cycle   9  Pass 1  IDiag  1:
 E= -119.175506946190     Delta-E=       -0.000000578328 Rises=F Damp=F
 DIIS: error= 1.55D-04 at cycle   9 NSaved=   9.
 NSaved= 9 IEnMin= 9 EnMin= -119.175506946190     IErMin= 9 ErrMin= 1.55D-04
 ErrMax= 1.55D-04  0.00D+00 EMaxC= 1.00D-01 BMatC= 2.75D-06 BMatP= 3.32D-06
 IDIUse=3 WtCom= 9.98D-01 WtEn= 1.55D-03
 EnCoef did   100 forward-backward iterations
 Rare condition: small coef for last iteration:  0.562D-16
 Coeff-Com: -0.467D+00 0.533D+00-0.796D-01 0.158D-02 0.677D-01 0.114D-01
 Coeff-Com:  0.321D+00 0.247D+00 0.365D+00
 Coeff-En:   0.000D+00 0.000D+00 0.000D+00 0.204D+00 0.177D+00 0.140D+00
 Coeff-En:   0.000D+00 0.000D+00 0.479D+00
 Coeff:     -0.467D+00 0.533D+00-0.796D-01 0.158D-02 0.677D-01 0.114D-01
 Coeff:      0.321D+00 0.247D+00 0.365D+00
 Gap=     0.045 Goal=   None    Shift=    0.000
 RMSDP=5.50D-06 MaxDP=5.71D-04 DE=-5.78D-07 OVMax= 1.82D-04

 Cycle  10  Pass 1  IDiag  1:
 E= -119.175507231163     Delta-E=       -0.000000284974 Rises=F Damp=F
 DIIS: error= 1.43D-04 at cycle  10 NSaved=  10.
 NSaved=10 IEnMin=10 EnMin= -119.175507231163     IErMin=10 ErrMin= 1.43D-04
 ErrMax= 1.43D-04  0.00D+00 EMaxC= 1.00D-01 BMatC= 2.36D-06 BMatP= 2.75D-06
 IDIUse=3 WtCom= 9.99D-01 WtEn= 1.43D-03
 EnCoef did   100 forward-backward iterations
 Coeff-Com: -0.408D+00 0.467D+00-0.671D-01-0.465D-01-0.608D-02-0.274D-01
 Coeff-Com:  0.164D+00 0.107D+00 0.342D+00 0.476D+00
 Coeff-En:   0.000D+00 0.000D+00 0.000D+00 0.242D+00 0.397D+00 0.353D+00
 Coeff-En:   0.000D+00 0.000D+00 0.000D+00 0.753D-02
 Coeff:     -0.408D+00 0.466D+00-0.670D-01-0.461D-01-0.550D-02-0.268D-01
 Coeff:      0.164D+00 0.107D+00 0.341D+00 0.475D+00
 Gap=     0.045 Goal=   None    Shift=    0.000
 RMSDP=1.08D-05 MaxDP=1.15D-03 DE=-2.85D-07 OVMax= 1.27D-04

 Cycle  11  Pass 1  IDiag  1:
 E= -119.175507676700     Delta-E=       -0.000000445537 Rises=F Damp=F
 DIIS: error= 1.25D-04 at cycle  11 NSaved=  11.
 NSaved=11 IEnMin=11 EnMin= -119.175507676700     IErMin=11 ErrMin= 1.25D-04
 ErrMax= 1.25D-04  0.00D+00 EMaxC= 1.00D-01 BMatC= 1.80D-06 BMatP= 2.36D-06
 IDIUse=3 WtCom= 9.99D-01 WtEn= 1.25D-03
 EnCoef did   100 forward-backward iterations
 Rare condition: small coef for last iteration:  0.000D+00
 Coeff-Com: -0.361D+00 0.412D+00-0.584D-01-0.564D-01-0.274D-01-0.362D-01
 Coeff-Com:  0.106D+00 0.332D-01 0.133D+00 0.413D+00 0.441D+00
 Coeff-En:   0.000D+00 0.000D+00 0.000D+00 0.199D+00 0.176D+00 0.135D+00
 Coeff-En:   0.000D+00 0.000D+00 0.000D+00 0.000D+00 0.490D+00
 Coeff:     -0.361D+00 0.412D+00-0.584D-01-0.564D-01-0.274D-01-0.362D-01
 Coeff:      0.106D+00 0.332D-01 0.133D+00 0.413D+00 0.441D+00
 Gap=     0.045 Goal=   None    Shift=    0.000
 RMSDP=8.84D-06 MaxDP=9.68D-04 DE=-4.46D-07 OVMax= 1.06D-04

 Cycle  12  Pass 1  IDiag  1:
 E= -119.175507979005     Delta-E=       -0.000000302305 Rises=F Damp=F
 DIIS: error= 1.10D-04 at cycle  12 NSaved=  12.
 NSaved=12 IEnMin=12 EnMin= -119.175507979005     IErMin=12 ErrMin= 1.10D-04
 ErrMax= 1.10D-04  0.00D+00 EMaxC= 1.00D-01 BMatC= 1.41D-06 BMatP= 1.80D-06
 IDIUse=3 WtCom= 9.99D-01 WtEn= 1.10D-03
 EnCoef did   100 forward-backward iterations
 Coeff-Com: -0.278D+00 0.318D+00-0.446D-01-0.451D-01-0.259D-01-0.308D-01
 Coeff-Com:  0.715D-01-0.295D-01-0.160D+00 0.121D+00 0.138D+00 0.965D+00
 Coeff-En:   0.000D+00 0.000D+00 0.000D+00 0.242D+00 0.397D+00 0.352D+00
 Coeff-En:   0.000D+00 0.000D+00 0.000D+00 0.000D+00 0.000D+00 0.788D-02
 Coeff:     -0.278D+00 0.317D+00-0.446D-01-0.448D-01-0.255D-01-0.304D-01
 Coeff:      0.714D-01-0.295D-01-0.160D+00 0.121D+00 0.138D+00 0.964D+00
 Gap=     0.045 Goal=   None    Shift=    0.000
 RMSDP=1.35D-05 MaxDP=1.43D-03 DE=-3.02D-07 OVMax= 1.39D-04

 Cycle  13  Pass 1  IDiag  1:
 E= -119.175508436718     Delta-E=       -0.000000457713 Rises=F Damp=F
 DIIS: error= 8.50D-05 at cycle  13 NSaved=  13.
 NSaved=13 IEnMin=13 EnMin= -119.175508436718     IErMin=13 ErrMin= 8.50D-05
 ErrMax= 8.50D-05  0.00D+00 EMaxC= 1.00D-01 BMatC= 8.34D-07 BMatP= 1.41D-06
 IDIUse=1 WtCom= 1.00D+00 WtEn= 0.00D+00
 Coeff-Com: -0.118D+00 0.134D+00-0.189D-01-0.101D-01-0.751D-03-0.103D-01
 Coeff-Com:  0.442D-01-0.608D-01-0.331D+00-0.255D+00-0.882D+00 0.132D+01
 Coeff-Com:  0.119D+01
 Coeff:     -0.118D+00 0.134D+00-0.189D-01-0.101D-01-0.751D-03-0.103D-01
 Coeff:      0.442D-01-0.608D-01-0.331D+00-0.255D+00-0.882D+00 0.132D+01
 Coeff:      0.119D+01
 Gap=     0.046 Goal=   None    Shift=    0.000
 RMSDP=2.79D-05 MaxDP=3.00D-03 DE=-4.58D-07 OVMax= 2.65D-04

 Cycle  14  Pass 1  IDiag  1:
 E= -119.175508972246     Delta-E=       -0.000000535528 Rises=F Damp=F
 DIIS: error= 3.60D-05 at cycle  14 NSaved=  14.
 NSaved=14 IEnMin=14 EnMin= -119.175508972246     IErMin=14 ErrMin= 3.60D-05
 ErrMax= 3.60D-05  0.00D+00 EMaxC= 1.00D-01 BMatC= 1.51D-07 BMatP= 8.34D-07
 IDIUse=1 WtCom= 1.00D+00 WtEn= 0.00D+00
 Coeff-Com: -0.854D-01 0.976D-01-0.139D-01-0.785D-02 0.141D-02-0.645D-02
 Coeff-Com:  0.362D-01 0.133D-01 0.372D-01-0.240D-01-0.378D+00 0.728D-01
 Coeff-Com:  0.337D+00 0.920D+00
 Coeff:     -0.854D-01 0.976D-01-0.139D-01-0.785D-02 0.141D-02-0.645D-02
 Coeff:      0.362D-01 0.133D-01 0.372D-01-0.240D-01-0.378D+00 0.728D-01
 Coeff:      0.337D+00 0.920D+00
 Gap=     0.046 Goal=   None    Shift=    0.000
 RMSDP=5.89D-06 MaxDP=6.32D-04 DE=-5.36D-07 OVMax= 6.82D-05

 Cycle  15  Pass 1  IDiag  1:
 E= -119.175509029437     Delta-E=       -0.000000057191 Rises=F Damp=F
 DIIS: error= 2.61D-05 at cycle  15 NSaved=  15.
 NSaved=15 IEnMin=15 EnMin= -119.175509029437     IErMin=15 ErrMin= 2.61D-05
 ErrMax= 2.61D-05  0.00D+00 EMaxC= 1.00D-01 BMatC= 7.89D-08 BMatP= 1.51D-07
 IDIUse=1 WtCom= 1.00D+00 WtEn= 0.00D+00
 Coeff-Com: -0.524D-01 0.599D-01-0.857D-02-0.584D-02 0.606D-03-0.411D-02
 Coeff-Com:  0.220D-01 0.304D-01 0.137D+00 0.432D-01-0.984D-01-0.339D+00
 Coeff-Com: -0.974D-01 0.848D+00 0.465D+00
 Coeff:     -0.524D-01 0.599D-01-0.857D-02-0.584D-02 0.606D-03-0.411D-02
 Coeff:      0.220D-01 0.304D-01 0.137D+00 0.432D-01-0.984D-01-0.339D+00
 Coeff:     -0.974D-01 0.848D+00 0.465D+00
 Gap=     0.046 Goal=   None    Shift=    0.000
 RMSDP=5.73D-06 MaxDP=6.14D-04 DE=-5.72D-08 OVMax= 6.48D-05

 Cycle  16  Pass 1  IDiag  1:
 E= -119.175509068275     Delta-E=       -0.000000038838 Rises=F Damp=F
 DIIS: error= 1.61D-05 at cycle  16 NSaved=  16.
 NSaved=16 IEnMin=16 EnMin= -119.175509068275     IErMin=16 ErrMin= 1.61D-05
 ErrMax= 1.61D-05  0.00D+00 EMaxC= 1.00D-01 BMatC= 2.97D-08 BMatP= 7.89D-08
 IDIUse=1 WtCom= 1.00D+00 WtEn= 0.00D+00
 Coeff-Com: -0.238D-01 0.272D-01-0.388D-02-0.414D-02-0.103D-02-0.302D-02
 Coeff-Com:  0.738D-02 0.221D-01 0.132D+00 0.599D-01 0.405D-01-0.376D+00
 Coeff-Com: -0.272D+00 0.446D+00 0.470D+00 0.479D+00
 Coeff:     -0.238D-01 0.272D-01-0.388D-02-0.414D-02-0.103D-02-0.302D-02
 Coeff:      0.738D-02 0.221D-01 0.132D+00 0.599D-01 0.405D-01-0.376D+00
 Coeff:     -0.272D+00 0.446D+00 0.470D+00 0.479D+00
 Gap=     0.046 Goal=   None    Shift=    0.000
 RMSDP=4.93D-06 MaxDP=5.31D-04 DE=-3.88D-08 OVMax= 5.81D-05

 Cycle  17  Pass 1  IDiag  1:
 E= -119.175509086817     Delta-E=       -0.000000018542 Rises=F Damp=F
 DIIS: error= 7.29D-06 at cycle  17 NSaved=  17.
 NSaved=17 IEnMin=17 EnMin= -119.175509086817     IErMin=17 ErrMin= 7.29D-06
 ErrMax= 7.29D-06  0.00D+00 EMaxC= 1.00D-01 BMatC= 6.29D-09 BMatP= 2.97D-08
 IDIUse=1 WtCom= 1.00D+00 WtEn= 0.00D+00
 Coeff-Com: -0.222D-02 0.254D-02-0.296D-03-0.300D-02-0.288D-02-0.277D-02
 Coeff-Com: -0.493D-02 0.539D-02 0.914D-01 0.698D-01 0.116D+00-0.258D+00
 Coeff-Com: -0.309D+00-0.509D-01 0.284D+00 0.622D+00 0.443D+00
 Coeff:     -0.222D-02 0.254D-02-0.296D-03-0.300D-02-0.288D-02-0.277D-02
 Coeff:     -0.493D-02 0.539D-02 0.914D-01 0.698D-01 0.116D+00-0.258D+00
 Coeff:     -0.309D+00-0.509D-01 0.284D+00 0.622D+00 0.443D+00
 Gap=     0.046 Goal=   None    Shift=    0.000
 RMSDP=3.73D-06 MaxDP=4.11D-04 DE=-1.85D-08 OVMax= 4.07D-05

 Cycle  18  Pass 1  IDiag  1:
 E= -119.175509092003     Delta-E=       -0.000000005186 Rises=F Damp=F
 DIIS: error= 6.78D-07 at cycle  18 NSaved=  18.
 NSaved=18 IEnMin=18 EnMin= -119.175509092003     IErMin=18 ErrMin= 6.78D-07
 ErrMax= 6.78D-07  0.00D+00 EMaxC= 1.00D-01 BMatC= 1.05D-10 BMatP= 6.29D-09
 IDIUse=1 WtCom= 1.00D+00 WtEn= 0.00D+00
 Coeff-Com:  0.235D-02-0.269D-02 0.476D-03-0.170D-02-0.240D-02-0.221D-02
 Coeff-Com: -0.606D-02-0.776D-02 0.291D-01 0.515D-01 0.452D-01-0.251D-01
 Coeff-Com: -0.109D+00-0.277D+00 0.100D-01 0.239D+00 0.365D+00 0.692D+00
 Coeff:      0.235D-02-0.269D-02 0.476D-03-0.170D-02-0.240D-02-0.221D-02
 Coeff:     -0.606D-02-0.776D-02 0.291D-01 0.515D-01 0.452D-01-0.251D-01
 Coeff:     -0.109D+00-0.277D+00 0.100D-01 0.239D+00 0.365D+00 0.692D+00
 Gap=     0.046 Goal=   None    Shift=    0.000
 RMSDP=8.18D-07 MaxDP=9.09D-05 DE=-5.19D-09 OVMax= 1.49D-05

 Cycle  19  Pass 1  IDiag  1:
 E= -119.175509092140     Delta-E=       -0.000000000137 Rises=F Damp=F
 DIIS: error= 7.18D-07 at cycle  19 NSaved=  19.
 NSaved=19 IEnMin=19 EnMin= -119.175509092140     IErMin=18 ErrMin= 6.78D-07
 ErrMax= 7.18D-07  0.00D+00 EMaxC= 1.00D-01 BMatC= 7.32D-11 BMatP= 1.05D-10
 IDIUse=1 WtCom= 1.00D+00 WtEn= 0.00D+00
 Coeff-Com:  0.128D-01-0.147D-01 0.208D-02 0.215D-02 0.941D-03 0.116D-02
 Coeff-Com: -0.394D-02-0.880D-02-0.271D-01-0.137D-01-0.662D-01 0.125D+00
 Coeff-Com:  0.125D+00-0.198D+00-0.141D+00-0.156D+00 0.170D-01 0.484D+00
 Coeff-Com:  0.860D+00
 Coeff:      0.128D-01-0.147D-01 0.208D-02 0.215D-02 0.941D-03 0.116D-02
 Coeff:     -0.394D-02-0.880D-02-0.271D-01-0.137D-01-0.662D-01 0.125D+00
 Coeff:      0.125D+00-0.198D+00-0.141D+00-0.156D+00 0.170D-01 0.484D+00
 Coeff:      0.860D+00
 Gap=     0.046 Goal=   None    Shift=    0.000
 RMSDP=1.87D-06 MaxDP=1.99D-04 DE=-1.37D-10 OVMax= 2.21D-05

 Cycle  20  Pass 1  IDiag  1:
 E= -119.175509090875     Delta-E=        0.000000001265 Rises=F Damp=F
 DIIS: error= 3.95D-06 at cycle  20 NSaved=  20.
 NSaved=20 IEnMin=19 EnMin= -119.175509092140     IErMin=18 ErrMin= 6.78D-07
 ErrMax= 3.95D-06  0.00D+00 EMaxC= 1.00D-01 BMatC= 1.77D-09 BMatP= 7.32D-11
 IDIUse=1 WtCom= 1.00D+00 WtEn= 0.00D+00
 Coeff-Com: -0.108D-02 0.123D-02-0.212D-03 0.873D-03 0.130D-02 0.121D-02
 Coeff-Com:  0.311D-02 0.489D-02-0.534D-02-0.142D-01-0.361D-01 0.385D-01
 Coeff-Com:  0.114D+00 0.597D-01-0.640D-01-0.212D+00-0.211D+00-0.130D+00
 Coeff-Com:  0.635D+00 0.813D+00
 Coeff:     -0.108D-02 0.123D-02-0.212D-03 0.873D-03 0.130D-02 0.121D-02
 Coeff:      0.311D-02 0.489D-02-0.534D-02-0.142D-01-0.361D-01 0.385D-01
 Coeff:      0.114D+00 0.597D-01-0.640D-01-0.212D+00-0.211D+00-0.130D+00
 Coeff:      0.635D+00 0.813D+00
 Gap=     0.046 Goal=   None    Shift=    0.000
 RMSDP=2.44D-06 MaxDP=2.60D-04 DE= 1.26D-09 OVMax= 2.28D-05

 Cycle  21  Pass 1  IDiag  1:
 E= -119.175509092239     Delta-E=       -0.000000001364 Rises=F Damp=F
 DIIS: error= 3.30D-07 at cycle  21 NSaved=  20.
 NSaved=20 IEnMin=20 EnMin= -119.175509092239     IErMin=20 ErrMin= 3.30D-07
 ErrMax= 3.30D-07  0.00D+00 EMaxC= 1.00D-01 BMatC= 1.44D-11 BMatP= 7.32D-11
 IDIUse=1 WtCom= 1.00D+00 WtEn= 0.00D+00
 Coeff-Com:  0.312D-10-0.314D-04 0.703D-03 0.988D-03 0.105D-02 0.200D-02
 Coeff-Com:  0.513D-02-0.236D-02-0.152D-01-0.169D-01 0.104D-02 0.612D-01
 Coeff-Com:  0.967D-01-0.105D-01-0.116D+00-0.166D+00-0.238D+00 0.269D+00
 Coeff-Com:  0.600D+00 0.527D+00
 Coeff:      0.312D-10-0.314D-04 0.703D-03 0.988D-03 0.105D-02 0.200D-02
 Coeff:      0.513D-02-0.236D-02-0.152D-01-0.169D-01 0.104D-02 0.612D-01
 Coeff:      0.967D-01-0.105D-01-0.116D+00-0.166D+00-0.238D+00 0.269D+00
 Coeff:      0.600D+00 0.527D+00
 Gap=     0.046 Goal=   None    Shift=    0.000
 RMSDP=1.93D-07 MaxDP=2.10D-05 DE=-1.36D-09 OVMax= 3.50D-06

 Cycle  22  Pass 1  IDiag  1:
 E= -119.175509092252     Delta-E=       -0.000000000013 Rises=F Damp=F
 DIIS: error= 5.42D-08 at cycle  22 NSaved=  20.
 NSaved=20 IEnMin=20 EnMin= -119.175509092252     IErMin=20 ErrMin= 5.42D-08
 ErrMax= 5.42D-08  0.00D+00 EMaxC= 1.00D-01 BMatC= 6.41D-13 BMatP= 1.44D-11
 IDIUse=1 WtCom= 1.00D+00 WtEn= 0.00D+00
 Coeff-Com: -0.172D-04 0.299D-03 0.458D-03 0.485D-03 0.869D-03 0.290D-02
 Coeff-Com:  0.111D-03-0.831D-02-0.240D-02-0.141D-01 0.132D-01 0.686D-01
 Coeff-Com:  0.153D-01-0.247D-01-0.701D-01-0.164D+00 0.118D-01 0.238D+00
 Coeff-Com:  0.404D+00 0.527D+00
 Coeff:     -0.172D-04 0.299D-03 0.458D-03 0.485D-03 0.869D-03 0.290D-02
 Coeff:      0.111D-03-0.831D-02-0.240D-02-0.141D-01 0.132D-01 0.686D-01
 Coeff:      0.153D-01-0.247D-01-0.701D-01-0.164D+00 0.118D-01 0.238D+00
 Coeff:      0.404D+00 0.527D+00
 Gap=     0.046 Goal=   None    Shift=    0.000
 RMSDP=2.06D-08 MaxDP=2.55D-06 DE=-1.34D-11 OVMax= 1.09D-06

 Cycle  23  Pass 1  IDiag  1:
 E= -119.175509092253     Delta-E=       -0.000000000001 Rises=F Damp=F
 DIIS: error= 3.40D-08 at cycle  23 NSaved=  20.
 NSaved=20 IEnMin=20 EnMin= -119.175509092253     IErMin=20 ErrMin= 3.40D-08
 ErrMax= 3.40D-08  0.00D+00 EMaxC= 1.00D-01 BMatC= 1.58D-13 BMatP= 6.41D-13
 IDIUse=1 WtCom= 1.00D+00 WtEn= 0.00D+00
 Coeff-Com:  0.622D-07-0.164D-04-0.478D-04-0.659D-04 0.181D-03 0.138D-02
 Coeff-Com:  0.421D-03 0.361D-02-0.115D-01-0.124D-01 0.160D-01 0.124D-01
 Coeff-Com:  0.219D-01 0.106D-01-0.298D-01-0.988D-01-0.468D-01 0.841D-01
 Coeff-Com:  0.357D+00 0.692D+00
 Coeff:      0.622D-07-0.164D-04-0.478D-04-0.659D-04 0.181D-03 0.138D-02
 Coeff:      0.421D-03 0.361D-02-0.115D-01-0.124D-01 0.160D-01 0.124D-01
 Coeff:      0.219D-01 0.106D-01-0.298D-01-0.988D-01-0.468D-01 0.841D-01
 Coeff:      0.357D+00 0.692D+00
 Gap=     0.046 Goal=   None    Shift=    0.000
 RMSDP=9.75D-09 MaxDP=1.13D-06 DE=-9.95D-13 OVMax= 6.90D-07

 Cycle  24  Pass 1  IDiag  1:
 E= -119.175509092252     Delta-E=        0.000000000001 Rises=F Damp=F
 DIIS: error= 1.19D-08 at cycle  24 NSaved=  20.
 NSaved=20 IEnMin=19 EnMin= -119.175509092253     IErMin=20 ErrMin= 1.19D-08
 ErrMax= 1.19D-08  0.00D+00 EMaxC= 1.00D-01 BMatC= 2.19D-14 BMatP= 1.58D-13
 IDIUse=1 WtCom= 1.00D+00 WtEn= 0.00D+00
 Coeff-Com: -0.538D-05-0.481D-04-0.419D-04-0.103D-03 0.767D-03 0.799D-03
 Coeff-Com:  0.157D-02-0.553D-02-0.781D-02 0.435D-02 0.568D-02 0.150D-01
 Coeff-Com:  0.129D-01-0.244D-02-0.606D-01-0.483D-01 0.715D-02 0.148D+00
 Coeff-Com:  0.398D+00 0.531D+00
 Coeff:     -0.538D-05-0.481D-04-0.419D-04-0.103D-03 0.767D-03 0.799D-03
 Coeff:      0.157D-02-0.553D-02-0.781D-02 0.435D-02 0.568D-02 0.150D-01
 Coeff:      0.129D-01-0.244D-02-0.606D-01-0.483D-01 0.715D-02 0.148D+00
 Coeff:      0.398D+00 0.531D+00
 Gap=     0.046 Goal=   None    Shift=    0.000
 RMSDP=4.38D-09 MaxDP=4.74D-07 DE= 5.68D-13 OVMax= 3.48D-07

 SCF Done:  E(ROHF) =  -119.175509092     A.U. after   24 cycles
            NFock= 24  Conv=0.44D-08     -V/T= 2.7443
 <Sx>= 0.0000 <Sy>= 0.0000 <Sz>= 2.5000 <S**2>= 8.7500 S= 2.5000
 <L.S>=  0.00000000000    
 KE= 6.832303237619D+01 PE=-3.320051906900D+02 EE= 1.164913851140D+02
 Annihilation of the first spin contaminant:
 S**2 before annihilation     8.7500,   after     8.7500
 Leave Link  502 at Wed Mar 14 05:02:22 2018, MaxMem= 10737418240 cpu:            1937.2 elap:             141.9
 (Enter /home1/apps/gaussian/16rA.03/g16/l801.exe)
 Windowed orbitals will be sorted by symmetry type.
 GenMOA:  NOpAll=  4 NOp2=4 NOpUse=  4 JSym2X=1
 FoFJK:  IHMeth= 1 ICntrl=       0 DoSepK=F KAlg= 0 I1Cent=           0 FoldK=F
 IRaf=         0 NMat=       1 IRICut=       1 DoRegI=T DoRafI=F ISym2E= 1 IDoP0=0 IntGTp=1.
 FoFCou: FMM=F IPFlag=           8 FMFlag=      100000 FMFlg1=           0
         NFxFlg=           0 DoJE=F BraDBF=F KetDBF=F FulRan=T
         wScrn=  0.000000 ICntrl=         0 IOpCl=  1 I1Cent=           0 NGrid=           0
         NMat0=    1 NMatS0=      1 NMatT0=    0 NMatD0=    1 NMtDS0=    0 NMtDT0=    0
 Petite list used in FoFCou.
 <Sx>= 0.0000 <Sy>= 0.0000 <Sz>= 2.5000 <S**2>= 8.7500 S= 2.5000
 Range of M.O.s used for correlation:     1   377
 NBasis=   384 NAE=    13 NBE=     8 NFC=     0 NFV=     0
 NROrb=    377 NOA=    13 NOB=     8 NVA=   364 NVB=   369

 **** Warning!!: The largest alpha MO coefficient is  0.28149134D+03


 **** Warning!!: The largest beta MO coefficient is  0.28149167D+03

 Singles contribution to E2=   -0.6781511550D-02
 Leave Link  801 at Wed Mar 14 05:02:55 2018, MaxMem= 10737418240 cpu:             530.8 elap:              33.2
 (Enter /home1/apps/gaussian/16rA.03/g16/l804.exe)
 Open-shell transformation, MDV= 10737418240 ITran=4 ISComp=2.
 Unit  1 TFree=       4469213 TCopy=       3195938.
 Semi-Direct transformation.
 ModeAB=           4 MOrb=            13 LenV=   10733160050
 LASXX=     86562733 LTotXX=    86562733 LenRXX=   174043909
 LTotAB=    87481176 MaxLAS=   595878283 LenRXY=           0
 NonZer=   260606642 LenScr=   392443904 LnRSAI=   595878283
 LnScr1=   897323008 LExtra=    24337683 Total=   2084026787
 MaxDsk= 67108864000 SrtSym=           T ITran=            4
 DoSDTr:  NPSUse= 16
 JobTyp=1 Pass  1:  I=   1 to  13.
 (rs|ai) integrals will be sorted in core.
 Complete sort for first half transformation.
 First half transformation complete.
 Begin second half transformation for I=  10.
 Complete sort for second half transformation.
 Second half transformation complete.
 ModeAB=           4 MOrb=             8 LenV=   10733160050
 LASXX=     53932406 LTotXX=    53932406 LenRXX=   104697494
 LTotAB=    50765088 MaxLAS=   366694328 LenRXY=           0
 NonZer=   158629900 LenScr=   238878720 LnRSAI=   366694328
 LnScr1=   552199168 LExtra=   198381592 Total=   1460851302
 MaxDsk= 67108864000 SrtSym=           T ITran=            4
 DoSDTr:  NPSUse= 16
 JobTyp=2 Pass  1:  I=   1 to   8.
 (rs|ai) integrals will be sorted in core.
 Complete sort for first half transformation.
 First half transformation complete.
 Complete sort for second half transformation.
 Second half transformation complete.
 Spin components of T(2) and E(2):
     alpha-alpha T2 =       0.4215409187D-01 E2=     -0.1979687607D+00
     alpha-beta  T2 =       0.1354905711D+00 E2=     -0.6385067442D+00
     beta-beta   T2 =       0.2547937329D-01 E2=     -0.9087970711D-01
 ANorm=    0.1100936974D+01
 E2 =    -0.9341367236D+00 EUMP2 =    -0.12010964581586D+03
 (S**2,0)=  0.87500D+01           (S**2,1)=  0.87500D+01
 E(PUHF)=      -0.11917550909D+03        E(PMP2)=      -0.12010964582D+03
 Recovering and transforming amplitudes from chk file.
 B after Tr=     0.000000    0.000000    0.000000
         Rot=    1.000000    0.000000    0.000000    0.000000 Ang=   0.00 deg.
 Alpha occ  Sing. vals= 9.999994D-01 9.999994D-01 9.999992D-01 9.999968D-01 9.999922D-01 9.999922D-01 9.999913D-01 9.999913D-01 9.999911D-01 9.999862D-01
 Alpha occ  Sing. vals= 9.999778D-01 9.999732D-01 9.999732D-01
 Alpha occ  NOrbO=    13 NOrbN=    13 NSVal=    13 ThrEig=  0.900000.
 TrMax= 1.000000D+00 PrMax= 1.000000D+00 Trace(Pr)= 1.300000D+01
 B after Tr=     0.000000    0.000000    0.000000
         Rot=    1.000000    0.000000    0.000000    0.000000 Ang=   0.00 deg.
 Alpha virt Sing. vals= 1.000000D+00 1.000000D+00 1.000000D+00 1.000000D+00 1.000000D+00 1.000000D+00 1.000000D+00 1.000000D+00 1.000000D+00 1.000000D+00
 Alpha virt Sing. vals= 1.000000D+00 1.000000D+00 1.000000D+00 1.000000D+00 1.000000D+00 1.000000D+00 1.000000D+00 1.000000D+00 1.000000D+00 1.000000D+00
 Alpha virt Sing. vals= 1.000000D+00 1.000000D+00 1.000000D+00 1.000000D+00 9.999999D-01 9.999999D-01 9.999999D-01 9.999999D-01 9.999999D-01 9.999999D-01
 Alpha virt Sing. vals= 9.999999D-01 9.999999D-01 9.999998D-01 9.999998D-01 9.999997D-01 9.999997D-01 9.999996D-01 9.999994D-01 9.999994D-01 9.999994D-01
 Alpha virt Sing. vals= 9.999992D-01 9.999991D-01 9.999988D-01 9.999988D-01 9.999987D-01 9.999986D-01 9.999986D-01 9.999984D-01 9.999984D-01 9.999982D-01
 Alpha virt Sing. vals= 9.999978D-01 9.999966D-01 9.999965D-01 9.999965D-01 9.999965D-01 9.999958D-01 9.999958D-01 9.999958D-01 9.999945D-01 9.999942D-01
 Alpha virt Sing. vals= 9.999942D-01 9.999941D-01 9.999941D-01 9.999876D-01 9.999861D-01 9.999803D-01 9.999790D-01 9.999790D-01 9.999778D-01 9.999744D-01
 Alpha virt Sing. vals= 9.999740D-01 9.999740D-01 9.999740D-01 9.999740D-01 9.999608D-01 9.999585D-01 9.999585D-01 9.999560D-01 9.999397D-01 9.999397D-01
 Alpha virt Sing. vals= 9.999221D-01 9.999209D-01 9.999173D-01 9.999117D-01 9.999100D-01 9.999100D-01 9.999077D-01 9.999018D-01 9.999018D-01 9.998517D-01
 Alpha virt Sing. vals= 9.998517D-01 9.998456D-01 9.998137D-01 9.998137D-01 9.998039D-01 9.998039D-01 9.997995D-01 9.997995D-01 9.997931D-01 9.997923D-01
 Alpha virt Sing. vals= 9.997923D-01 9.997829D-01 9.997825D-01 9.997825D-01 9.996988D-01 9.996988D-01 9.996808D-01 9.996666D-01 9.996644D-01 9.996644D-01
 Alpha virt Sing. vals= 9.996443D-01 9.996119D-01 9.996119D-01 9.995887D-01 9.995828D-01 9.995828D-01 9.995826D-01 9.995826D-01 9.995813D-01 9.995773D-01
 Alpha virt Sing. vals= 9.995587D-01 9.995446D-01 9.995446D-01 9.994946D-01 9.994946D-01 9.994858D-01 9.994858D-01 9.994727D-01 9.994727D-01 9.994529D-01
 Alpha virt Sing. vals= 9.994529D-01 9.993262D-01 9.992407D-01 9.992407D-01 9.991549D-01 9.991549D-01 9.990674D-01 9.987619D-01 9.986510D-01 9.986510D-01
 Alpha virt Sing. vals= 9.983786D-01 9.983620D-01 9.983620D-01 9.982805D-01 9.982805D-01 9.982530D-01 9.977059D-01 9.977059D-01 9.973077D-01 9.973077D-01
 Alpha virt Sing. vals= 9.973063D-01 9.973063D-01 9.971952D-01 9.971952D-01 9.968772D-01 9.968407D-01 9.968407D-01 9.967839D-01 9.963251D-01 9.961038D-01
 Alpha virt Sing. vals= 9.959531D-01 9.959531D-01 9.959193D-01 9.959193D-01 9.955972D-01 9.955972D-01 9.954393D-01 9.954393D-01 9.952037D-01 9.951936D-01
 Alpha virt Sing. vals= 9.951936D-01 9.951680D-01 9.947123D-01 9.947123D-01 9.946134D-01 9.946134D-01 9.945695D-01 9.945695D-01 9.942480D-01 9.938086D-01
 Alpha virt Sing. vals= 9.938086D-01 9.924324D-01 9.914150D-01 9.904165D-01 9.904165D-01 9.901009D-01 9.847229D-01 9.847229D-01 9.843045D-01 9.835364D-01
 Alpha virt Sing. vals= 9.835364D-01 9.826211D-01 9.826211D-01 9.820656D-01 9.820656D-01 9.816488D-01 9.804614D-01 9.804614D-01 9.800669D-01 9.768325D-01
 Alpha virt Sing. vals= 9.692351D-01 9.692054D-01 9.692054D-01 9.681369D-01 9.681369D-01 9.544438D-01 9.544438D-01 9.485563D-01 9.419909D-01 9.417595D-01
 Alpha virt Sing. vals= 9.411892D-01 9.411892D-01 9.373856D-01 9.373814D-01 9.373814D-01 9.365859D-01 9.365859D-01 9.287942D-01 9.287942D-01 9.257635D-01
 Alpha virt Sing. vals= 9.257635D-01 9.244683D-01 9.244683D-01 9.237964D-01 9.237964D-01 9.235503D-01 9.228955D-01 9.228955D-01 9.219400D-01 9.219400D-01
 Alpha virt Sing. vals= 9.026131D-01 8.990519D-01 8.990519D-01 8.751451D-01 8.521197D-01 8.521197D-01 8.479656D-01 8.479656D-01 8.429808D-01 8.429808D-01
 Alpha virt Sing. vals= 7.954654D-01 7.954654D-01 7.934200D-01 7.197006D-01 4.672965D-01
 Alpha virt NOrbO=   245 NOrbN=   364 NSVal=   231 ThrEig=  0.900000.
 TrMax= 9.999503D-01 PrMax= 9.999333D-01 Trace(Pr)= 2.310000D+02
 B after Tr=     0.000000    0.000000    0.000000
         Rot=    1.000000    0.000000    0.000000    0.000000 Ang=   0.00 deg.
 Beta  occ  Sing. vals= 9.999994D-01 9.999994D-01 9.999992D-01 9.999968D-01 9.999862D-01 9.999784D-01 9.999755D-01 9.999755D-01
 Beta  occ  NOrbO=     8 NOrbN=     8 NSVal=     8 ThrEig=  0.900000.
 TrMax= 1.000000D+00 PrMax= 1.000000D+00 Trace(Pr)= 8.000000D+00
 B after Tr=     0.000000    0.000000    0.000000
         Rot=    1.000000    0.000000    0.000000    0.000000 Ang=   0.00 deg.
 Beta  virt Sing. vals= 1.000000D+00 1.000000D+00 1.000000D+00 1.000000D+00 1.000000D+00 1.000000D+00 1.000000D+00 1.000000D+00 1.000000D+00 1.000000D+00
 Beta  virt Sing. vals= 1.000000D+00 1.000000D+00 1.000000D+00 1.000000D+00 1.000000D+00 1.000000D+00 1.000000D+00 1.000000D+00 1.000000D+00 1.000000D+00
 Beta  virt Sing. vals= 1.000000D+00 1.000000D+00 1.000000D+00 1.000000D+00 1.000000D+00 1.000000D+00 1.000000D+00 1.000000D+00 1.000000D+00 9.999999D-01
 Beta  virt Sing. vals= 9.999999D-01 9.999999D-01 9.999999D-01 9.999999D-01 9.999999D-01 9.999999D-01 9.999999D-01 9.999998D-01 9.999998D-01 9.999997D-01
 Beta  virt Sing. vals= 9.999997D-01 9.999996D-01 9.999994D-01 9.999994D-01 9.999994D-01 9.999992D-01 9.999991D-01 9.999988D-01 9.999988D-01 9.999987D-01
 Beta  virt Sing. vals= 9.999986D-01 9.999986D-01 9.999983D-01 9.999983D-01 9.999982D-01 9.999978D-01 9.999965D-01 9.999965D-01 9.999965D-01 9.999965D-01
 Beta  virt Sing. vals= 9.999958D-01 9.999957D-01 9.999957D-01 9.999946D-01 9.999942D-01 9.999942D-01 9.999940D-01 9.999940D-01 9.999876D-01 9.999861D-01
 Beta  virt Sing. vals= 9.999803D-01 9.999790D-01 9.999790D-01 9.999778D-01 9.999744D-01 9.999740D-01 9.999740D-01 9.999740D-01 9.999740D-01 9.999606D-01
 Beta  virt Sing. vals= 9.999583D-01 9.999583D-01 9.999560D-01 9.999386D-01 9.999386D-01 9.999221D-01 9.999209D-01 9.999173D-01 9.999117D-01 9.999100D-01
 Beta  virt Sing. vals= 9.999100D-01 9.999077D-01 9.999008D-01 9.999008D-01 9.998515D-01 9.998515D-01 9.998456D-01 9.998136D-01 9.998136D-01 9.998038D-01
 Beta  virt Sing. vals= 9.998038D-01 9.997995D-01 9.997995D-01 9.997930D-01 9.997923D-01 9.997923D-01 9.997829D-01 9.997825D-01 9.997825D-01 9.996988D-01
 Beta  virt Sing. vals= 9.996988D-01 9.996808D-01 9.996664D-01 9.996643D-01 9.996643D-01 9.996440D-01 9.996119D-01 9.996119D-01 9.995887D-01 9.995828D-01
 Beta  virt Sing. vals= 9.995828D-01 9.995826D-01 9.995826D-01 9.995813D-01 9.995773D-01 9.995585D-01 9.995446D-01 9.995446D-01 9.994946D-01 9.994946D-01
 Beta  virt Sing. vals= 9.994858D-01 9.994858D-01 9.994727D-01 9.994727D-01 9.994527D-01 9.994527D-01 9.993262D-01 9.992407D-01 9.992407D-01 9.991548D-01
 Beta  virt Sing. vals= 9.991548D-01 9.990672D-01 9.987619D-01 9.986497D-01 9.986497D-01 9.983784D-01 9.983603D-01 9.983603D-01 9.982801D-01 9.982801D-01
 Beta  virt Sing. vals= 9.982529D-01 9.977059D-01 9.977059D-01 9.973074D-01 9.973074D-01 9.973063D-01 9.973063D-01 9.971952D-01 9.971952D-01 9.968772D-01
 Beta  virt Sing. vals= 9.968406D-01 9.968406D-01 9.967839D-01 9.963251D-01 9.961025D-01 9.959520D-01 9.959520D-01 9.959186D-01 9.959186D-01 9.955971D-01
 Beta  virt Sing. vals= 9.955971D-01 9.954393D-01 9.954393D-01 9.952037D-01 9.951936D-01 9.951936D-01 9.951680D-01 9.947123D-01 9.947123D-01 9.946133D-01
 Beta  virt Sing. vals= 9.946133D-01 9.945695D-01 9.945695D-01 9.942480D-01 9.938086D-01 9.938086D-01 9.924325D-01 9.914149D-01 9.904165D-01 9.904165D-01
 Beta  virt Sing. vals= 9.901010D-01 9.847228D-01 9.847228D-01 9.843044D-01 9.835359D-01 9.835359D-01 9.826208D-01 9.826208D-01 9.820656D-01 9.820656D-01
 Beta  virt Sing. vals= 9.816475D-01 9.804609D-01 9.804609D-01 9.800669D-01 9.768323D-01 9.692352D-01 9.692048D-01 9.692048D-01 9.681359D-01 9.681359D-01
 Beta  virt Sing. vals= 9.544436D-01 9.544436D-01 9.485564D-01 9.419909D-01 9.417595D-01 9.411890D-01 9.411890D-01 9.373856D-01 9.373814D-01 9.373814D-01
 Beta  virt Sing. vals= 9.365858D-01 9.365858D-01 9.287942D-01 9.287942D-01 9.257635D-01 9.257635D-01 9.244683D-01 9.244683D-01 9.237964D-01 9.237964D-01
 Beta  virt Sing. vals= 9.235502D-01 9.228955D-01 9.228955D-01 9.219400D-01 9.219400D-01 9.026128D-01 8.990518D-01 8.990518D-01 8.751451D-01 8.521194D-01
 Beta  virt Sing. vals= 8.521194D-01 8.479656D-01 8.479656D-01 8.429806D-01 8.429806D-01 7.954651D-01 7.954651D-01 7.934197D-01 7.197006D-01 4.672965D-01
 Beta  virt NOrbO=   250 NOrbN=   369 NSVal=   236 ThrEig=  0.900000.
 TrMax= 9.999119D-01 PrMax= 9.999017D-01 Trace(Pr)= 2.360000D+02
 Leave Link  804 at Wed Mar 14 05:16:44 2018, MaxMem= 10737418240 cpu:           13241.5 elap:             828.3
 (Enter /home1/apps/gaussian/16rA.03/g16/l913.exe)
 CIDS:  MDV= 10737418240.
 IFCWin=0 IBDFC=1 NFBD=     0     0 NFCmp=     0     0 NFFFC=     0     0
 Amplitudes recovered.
 Using DD4UQ or CC4UQ for all iterations.
 Keep R2 and R3 ints in memory in symmetry-blocked form, NReq=3425134911.
 FoFCou: FMM=F IPFlag=           8 FMFlag=           0 FMFlg1=           0
         NFxFlg=           0 DoJE=F BraDBF=F KetDBF=F FulRan=T
         wScrn=  0.000000 ICntrl=       600 IOpCl=  0 I1Cent=           0 NGrid=           0
         NMat0=    1 NMatS0=  73920 NMatT0=    0 NMatD0=    1 NMtDS0=    0 NMtDT0=    0
 Petite list used in FoFCou.
 CIDS: In Core Option IDoMem=           1.
 CCSD(T)
 =======
 Iterations= 150 Convergence= 0.100D-06
 Produce multiple copies of IABC intergrals
 Iteration Nr.   1
 **********************
 DD1Dir will call FoFMem   1 times, MxPair=       314
 NAB=   104 NAA=    78 NBB=    28.
 Maximum subspace dimension=  5
 A-vector RMS=  2.1516470D-04 Max=  7.2431774D-03 conv= 1.00D-05.
 RLE energy=       -0.9185376666
 DE(Corr)= -0.91840156     E(Corr)=     -120.09391065    
 NORM(A)=   0.12291424D+01
 Iteration Nr.   2
 **********************
 DD1Dir will call FoFMem   1 times, MxPair=       314
 NAB=   104 NAA=    78 NBB=    28.
 A-vector RMS=  1.1815191D-04 Max=  3.0290950D-03 conv= 1.00D-05.
 RLE energy=       -0.9183781076
 DE(Corr)= -0.91838764     E(CORR)=     -120.09389673     Delta= 1.39D-05
 NORM(A)=   0.12306390D+01
 Iteration Nr.   3
 **********************
 DD1Dir will call FoFMem   1 times, MxPair=       314
 NAB=   104 NAA=    78 NBB=    28.
 A-vector RMS=  1.0588447D-04 Max=  3.0106303D-03 conv= 1.00D-05.
 RLE energy=       -0.9189037153
 DE(Corr)= -0.91912981     E(CORR)=     -120.09463890     Delta=-7.42D-04
 NORM(A)=   0.12301013D+01
 Iteration Nr.   4
 **********************
 DD1Dir will call FoFMem   1 times, MxPair=       314
 NAB=   104 NAA=    78 NBB=    28.
 A-vector RMS=  4.5738326D-05 Max=  6.8534853D-04 conv= 1.00D-05.
 RLE energy=       -0.9187581477
 DE(Corr)= -0.91864033     E(CORR)=     -120.09414943     Delta= 4.89D-04
 NORM(A)=   0.12302419D+01
 Iteration Nr.   5
 **********************
 DD1Dir will call FoFMem   1 times, MxPair=       314
 NAB=   104 NAA=    78 NBB=    28.
 A-vector RMS=  2.7992560D-05 Max=  7.7929023D-04 conv= 1.00D-05.
 RLE energy=       -0.9188401146
 DE(Corr)= -0.91887017     E(CORR)=     -120.09437927     Delta=-2.30D-04
 NORM(A)=   0.12302988D+01
 Iteration Nr.   6
 **********************
 DD1Dir will call FoFMem   1 times, MxPair=       314
 NAB=   104 NAA=    78 NBB=    28.
 A-vector RMS=  1.3573949D-05 Max=  4.0373586D-04 conv= 1.00D-05.
 RLE energy=       -0.9188470294
 DE(Corr)= -0.91880890     E(CORR)=     -120.09431800     Delta= 6.13D-05
 NORM(A)=   0.12302981D+01
 Iteration Nr.   7
 **********************
 DD1Dir will call FoFMem   1 times, MxPair=       314
 NAB=   104 NAA=    78 NBB=    28.
 A-vector RMS=  9.4548879D-06 Max=  2.9586960D-04 conv= 1.00D-05.
 RLE energy=       -0.9188531757
 DE(Corr)= -0.91885180     E(CORR)=     -120.09436089     Delta=-4.29D-05
 NORM(A)=   0.12303214D+01
 Iteration Nr.   8
 **********************
 DD1Dir will call FoFMem   1 times, MxPair=       314
 NAB=   104 NAA=    78 NBB=    28.
 A-vector RMS=  3.7968582D-06 Max=  9.3433530D-05 conv= 1.00D-05.
 RLE energy=       -0.9188541182
 DE(Corr)= -0.91885613     E(CORR)=     -120.09436523     Delta=-4.33D-06
 NORM(A)=   0.12303279D+01
 Iteration Nr.   9
 **********************
 DD1Dir will call FoFMem   1 times, MxPair=       314
 NAB=   104 NAA=    78 NBB=    28.
 A-vector RMS=  2.6279188D-06 Max=  7.7338571D-05 conv= 1.00D-05.
 RLE energy=       -0.9188697591
 DE(Corr)= -0.91886456     E(CORR)=     -120.09437366     Delta=-8.43D-06
 NORM(A)=   0.12303164D+01
 Iteration Nr.  10
 **********************
 DD1Dir will call FoFMem   1 times, MxPair=       314
 NAB=   104 NAA=    78 NBB=    28.
 A-vector RMS=  2.7433527D-06 Max=  5.7164617D-05 conv= 1.00D-05.
 RLE energy=       -0.9188575539
 DE(Corr)= -0.91885286     E(CORR)=     -120.09436196     Delta= 1.17D-05
 NORM(A)=   0.12303253D+01
 Iteration Nr.  11
 **********************
 DD1Dir will call FoFMem   1 times, MxPair=       314
 NAB=   104 NAA=    78 NBB=    28.
 A-vector RMS=  1.9010962D-06 Max=  4.7917184D-05 conv= 1.00D-05.
 RLE energy=       -0.9188641790
 DE(Corr)= -0.91886847     E(CORR)=     -120.09437757     Delta=-1.56D-05
 NORM(A)=   0.12303189D+01
 Iteration Nr.  12
 **********************
 DD1Dir will call FoFMem   1 times, MxPair=       314
 NAB=   104 NAA=    78 NBB=    28.
 A-vector RMS=  1.0561172D-06 Max=  2.9507542D-05 conv= 1.00D-05.
 RLE energy=       -0.9188630575
 DE(Corr)= -0.91886101     E(CORR)=     -120.09437011     Delta= 7.46D-06
 NORM(A)=   0.12303153D+01
 Iteration Nr.  13
 **********************
 DD1Dir will call FoFMem   1 times, MxPair=       314
 NAB=   104 NAA=    78 NBB=    28.
 A-vector RMS=  4.8366281D-07 Max=  1.1312172D-05 conv= 1.00D-05.
 RLE energy=       -0.9188628297
 DE(Corr)= -0.91886340     E(CORR)=     -120.09437249     Delta=-2.39D-06
 NORM(A)=   0.12303132D+01
 Iteration Nr.  14
 **********************
 DD1Dir will call FoFMem   1 times, MxPair=       314
 NAB=   104 NAA=    78 NBB=    28.
 A-vector RMS=  5.0327596D-07 Max=  1.5311260D-05 conv= 1.00D-05.
 RLE energy=       -0.9188624618
 DE(Corr)= -0.91886270     E(CORR)=     -120.09437179     Delta= 6.99D-07
 NORM(A)=   0.12303098D+01
 Iteration Nr.  15
 **********************
 DD1Dir will call FoFMem   1 times, MxPair=       314
 NAB=   104 NAA=    78 NBB=    28.
 A-vector RMS=  2.4283837D-07 Max=  5.3551802D-06 conv= 1.00D-05.
 RLE energy=       -0.9188629599
 DE(Corr)= -0.91886288     E(CORR)=     -120.09437198     Delta=-1.81D-07
 NORM(A)=   0.12303073D+01
 Iteration Nr.  16
 **********************
 DD1Dir will call FoFMem   1 times, MxPair=       314
 NAB=   104 NAA=    78 NBB=    28.
 A-vector RMS=  2.3630705D-07 Max=  6.9029753D-06 conv= 1.00D-05.
 RLE energy=       -0.9188617939
 DE(Corr)= -0.91886181     E(CORR)=     -120.09437090     Delta= 1.08D-06
 NORM(A)=   0.12303070D+01
 Iteration Nr.  17
 **********************
 DD1Dir will call FoFMem   1 times, MxPair=       314
 NAB=   104 NAA=    78 NBB=    28.
 A-vector RMS=  1.8030406D-07 Max=  3.5386687D-06 conv= 1.00D-05.
 RLE energy=       -0.9188623850
 DE(Corr)= -0.91886272     E(CORR)=     -120.09437181     Delta=-9.10D-07
 NORM(A)=   0.12303051D+01
 Iteration Nr.  18
 **********************
 DD1Dir will call FoFMem   1 times, MxPair=       314
 NAB=   104 NAA=    78 NBB=    28.
 A-vector RMS=  1.7029075D-07 Max=  4.7159436D-06 conv= 1.00D-05.
 RLE energy=       -0.9188618962
 DE(Corr)= -0.91886159     E(CORR)=     -120.09437068     Delta= 1.13D-06
 NORM(A)=   0.12303045D+01
 Iteration Nr.  19
 **********************
 DD1Dir will call FoFMem   1 times, MxPair=       314
 NAB=   104 NAA=    78 NBB=    28.
 A-vector RMS=  7.2175686D-08 Max=  1.4357488D-06 conv= 1.00D-05.
 RLE energy=       -0.9188618470
 DE(Corr)= -0.91886197     E(CORR)=     -120.09437107     Delta=-3.88D-07
 NORM(A)=   0.12303041D+01
 Iteration Nr.  20
 **********************
 DD1Dir will call FoFMem   1 times, MxPair=       314
 NAB=   104 NAA=    78 NBB=    28.
 A-vector RMS=  7.0714996D-08 Max=  1.7025081D-06 conv= 1.00D-05.
 RLE energy=       -0.9188617487
 DE(Corr)= -0.91886172     E(CORR)=     -120.09437081     Delta= 2.54D-07
 NORM(A)=   0.12303037D+01
 Iteration Nr.  21
 **********************
 DD1Dir will call FoFMem   1 times, MxPair=       314
 NAB=   104 NAA=    78 NBB=    28.
 A-vector RMS=  3.2895530D-08 Max=  6.1915914D-07 conv= 1.00D-05.
 RLE energy=       -0.9188617530
 DE(Corr)= -0.91886174     E(CORR)=     -120.09437083     Delta=-1.82D-08
 NORM(A)=   0.12303035D+01
 CI/CC converged in   21 iterations to DelEn=-1.82D-08 Conv= 1.00D-07 ErrA1= 3.29D-08 Conv= 1.00D-05
 Wavefunction amplitudes converged. E(Corr)=     -120.09437083    
 Dominant configurations:
 ***********************
 Spin Case        I    J    A    B          Value
    AA           13        14           -0.382958D+00
    AA           13        17           -0.140604D+00
    AA           13        26            0.125821D+00
    BB            6         9            0.116871D+00
    BB            8        37           -0.103915D+00
    BB            7        36           -0.103915D+00
 Largest amplitude= 3.83D-01
 Time for triples=    57575.41 seconds.
 T4(CCSD)= -0.62738249D-01
 T5(CCSD)=  0.19453156D-01
 CCSD(T)= -0.12013765592D+03
 Discarding MO integrals.
 Leave Link  913 at Wed Mar 14 06:37:01 2018, MaxMem= 10737418240 cpu:           77040.3 elap:            4817.7
 (Enter /home1/apps/gaussian/16rA.03/g16/l601.exe)
 Copying SCF densities to generalized density rwf, IOpCl= 0 IROHF=1.

 **********************************************************************

            Population analysis using the SCF density.

 **********************************************************************

 Orbital symmetries:
       Occupied  (SG) (SG) (PI) (PI) (SG) (SG) (PI) (PI) (DLTA)
                 (DLTA) (SG) (PI) (PI)
       Virtual   (SG) (PI) (PI) (SG) (SG) (DLTA) (DLTA) (PI) (PI)
                 (SG) (PI) (PI) (SG) (SG) (SG) (PI) (PI) (DLTA)
                 (DLTA) (PI) (PI) (SG) (PI) (PI) (SG) (SG) (SG)
                 (DLTA) (DLTA) (PHI) (PHI) (PI) (PI) (SG) (DLTA)
                 (DLTA) (PI) (PI) (PI) (PI) (SG) (DLTA) (DLTA)
                 (SG) (PI) (PI) (SG) (SG) (PI) (PI) (DLTA) (DLTA)
                 (PI) (PI) (SG) (PHI) (PHI) (DLTA) (DLTA) (PI)
                 (PI) (?A) (?A) (PHI) (PHI) (SG) (DLTA) (DLTA)
                 (SG) (PI) (PI) (PHI) (PHI) (SG) (DLTA) (DLTA)
                 (PI) (PI) (SG) (PI) (PI) (SG) (DLTA) (DLTA) (SG)
                 (PI) (PI) (SG) (PI) (PI) (DLTA) (DLTA) (PI) (PI)
                 (SG) (PHI) (PHI) (?A) (?A) (DLTA) (DLTA) (PI)
                 (PI) (SG) (SG) (PHI) (PHI) (DLTA) (DLTA) (PHI)
                 (PHI) (?B) (?B) (?A) (?A) (PI) (PI) (SG) (?A)
                 (?A) (PI) (PI) (PHI) (PHI) (DLTA) (DLTA) (SG)
                 (SG) (DLTA) (DLTA) (DLTA) (DLTA) (PHI) (PHI) (PI)
                 (PI) (SG) (PI) (PI) (SG) (PI) (PI) (DLTA) (DLTA)
                 (SG) (PI) (PI) (SG) (SG) (DLTA) (DLTA) (PI) (PI)
                 (SG) (PI) (PI) (PHI) (PHI) (DLTA) (DLTA) (PI)
                 (PI) (SG) (?A) (?A) (SG) (PHI) (PHI) (PI) (PI)
                 (DLTA) (DLTA) (SG) (?A) (?A) (PHI) (PHI) (DLTA)
                 (DLTA) (PI) (PI) (SG) (?B) (?B) (?A) (?A) (PHI)
                 (PHI) (PHI) (PHI) (DLTA) (DLTA) (SG) (DLTA) (DLTA)
                 (PI) (PI) (SG) (PI) (PI) (DLTA) (DLTA) (PI) (PI)
                 (SG) (PI) (PI) (DLTA) (DLTA) (SG) (PI) (PI) (SG)
                 (SG) (SG) (DLTA) (DLTA) (PI) (PI) (SG) (PHI) (PHI)
                 (DLTA) (DLTA) (PI) (PI) (SG) (?A) (?A) (PHI) (PHI)
                 (DLTA) (DLTA) (PI) (PI) (SG) (PI) (PI) (SG) (PI)
                 (PI) (SG) (SG) (?B) (?B) (?A) (?A) (PHI) (PHI)
                 (DLTA) (DLTA) (PI) (PI) (SG) (SG) (DLTA) (DLTA)
                 (PI) (PI) (SG) (DLTA) (DLTA) (PI) (PI) (SG) (SG)
                 (PI) (PI) (SG) (SG) (PI) (PI) (SG) (DLTA) (DLTA)
                 (PI) (PI) (SG) (PHI) (PHI) (DLTA) (DLTA) (PI)
                 (PI) (SG) (SG) (PI) (PI) (SG) (SG) (PI) (PI) (SG)
                 (DLTA) (DLTA) (PI) (PI) (SG) (DLTA) (DLTA) (SG)
                 (PI) (PI) (SG) (SG) (PI) (PI) (SG) (PI) (PI) (SG)
                 (SG) (SG) (DLTA) (DLTA) (PI) (PI) (SG) (PI) (PI)
                 (SG) (SG) (PI) (PI) (SG) (SG) (PI) (PI) (SG) (SG)
                 (DLTA) (DLTA) (PI) (PI) (SG) (SG) (PI) (PI) (SG)
                 (SG) (SG) (PI) (PI) (SG) (SG) (SG) (PI) (PI) (SG)
                 (SG) (SG) (PI) (PI) (SG) (SG) (PI) (PI) (SG) (SG)
                 (SG) (SG) (SG) (SG) (SG)
 The electronic state is 6-SG.
 Alpha  occ. eigenvalues --   -4.23031  -2.78717  -2.78717  -2.78048  -1.11999
 Alpha  occ. eigenvalues --   -0.64460  -0.64460  -0.63687  -0.63687  -0.59567
 Alpha  occ. eigenvalues --   -0.33890  -0.33890  -0.33815
 Alpha virt. eigenvalues --   -0.04588   0.01336   0.01336   0.01603   0.03379
 Alpha virt. eigenvalues --    0.05759   0.05759   0.05866   0.05866   0.06360
 Alpha virt. eigenvalues --    0.07070   0.07070   0.11368   0.12687   0.17844
 Alpha virt. eigenvalues --    0.17972   0.17972   0.18142   0.18142   0.21167
 Alpha virt. eigenvalues --    0.21167   0.22655   0.25130   0.25130   0.32294
 Alpha virt. eigenvalues --    0.42573   0.44782   0.46183   0.46183   0.47003
 Alpha virt. eigenvalues --    0.47003   0.49249   0.49249   0.51559   0.51796
 Alpha virt. eigenvalues --    0.51796   0.55876   0.55876   0.63050   0.63050
 Alpha virt. eigenvalues --    0.66643   0.69849   0.69849   0.72154   0.73437
 Alpha virt. eigenvalues --    0.73437   0.88718   1.07082   1.15766   1.15766
 Alpha virt. eigenvalues --    1.32632   1.32632   1.34197   1.34197   1.36904
 Alpha virt. eigenvalues --    1.38414   1.38414   1.38978   1.38978   1.43412
 Alpha virt. eigenvalues --    1.43412   1.44228   1.44228   1.45916   1.45916
 Alpha virt. eigenvalues --    1.51068   1.55698   1.55698   1.61427   1.62356
 Alpha virt. eigenvalues --    1.62356   1.70116   1.70116   1.71759   1.76477
 Alpha virt. eigenvalues --    1.76477   1.84089   1.84089   1.87825   2.02537
 Alpha virt. eigenvalues --    2.02537   2.04630   2.14008   2.14008   2.33588
 Alpha virt. eigenvalues --    2.61943   2.61943   2.72014   3.15675   3.15675
 Alpha virt. eigenvalues --    3.23666   3.23666   3.29638   3.29638   3.34274
 Alpha virt. eigenvalues --    3.74465   3.74465   3.77893   3.77893   3.82395
 Alpha virt. eigenvalues --    3.82395   3.83056   3.83056   3.83694   3.94815
 Alpha virt. eigenvalues --    3.94815   3.99362   4.00422   4.00422   4.23406
 Alpha virt. eigenvalues --    4.23406   4.26334   4.26334   4.26481   4.26481
 Alpha virt. eigenvalues --    4.28028   4.28028   4.31439   4.33762   4.33762
 Alpha virt. eigenvalues --    4.35967   4.35967   4.36278   4.36278   4.42347
 Alpha virt. eigenvalues --    4.42347   4.43982   4.53828   4.56320   4.56320
 Alpha virt. eigenvalues --    4.64859   4.64859   4.75088   4.75088   4.84185
 Alpha virt. eigenvalues --    4.84185   4.86060   5.20215   5.20215   5.29638
 Alpha virt. eigenvalues --    5.53866   5.53866   5.62623   5.62623   5.92823
 Alpha virt. eigenvalues --    6.30928   6.30928   6.39182   6.81654   7.01349
 Alpha virt. eigenvalues --    7.01349   7.19987   7.19987   7.70643   9.71896
 Alpha virt. eigenvalues --    9.71896   9.93122   9.93122   9.99907   9.99907
 Alpha virt. eigenvalues --   10.25525  10.25525  10.33669  10.81691  10.81691
 Alpha virt. eigenvalues --   10.85665  10.90414  10.90414  11.10044  11.10044
 Alpha virt. eigenvalues --   11.10919  11.10919  11.12398  11.18893  11.18893
 Alpha virt. eigenvalues --   11.20691  11.20691  11.31697  11.31697  11.59975
 Alpha virt. eigenvalues --   11.59975  11.67967  11.88162  11.88162  11.89739
 Alpha virt. eigenvalues --   11.89739  11.98805  11.98805  12.07355  12.07355
 Alpha virt. eigenvalues --   12.07748  12.07748  12.19672  12.34884  12.34884
 Alpha virt. eigenvalues --   12.34936  12.34936  12.73015  12.80127  12.80127
 Alpha virt. eigenvalues --   12.86418  12.86418  13.09080  13.09080  13.33877
 Alpha virt. eigenvalues --   13.35347  13.35347  13.64195  13.64195  13.67739
 Alpha virt. eigenvalues --   13.79166  13.79166  14.24427  14.48951  15.32890
 Alpha virt. eigenvalues --   24.90220  24.90220  24.96992  24.96992  25.15560
 Alpha virt. eigenvalues --   25.31453  25.31453  25.37010  25.37010  25.59607
 Alpha virt. eigenvalues --   25.59607  26.14728  27.13664  27.13664  27.14847
 Alpha virt. eigenvalues --   27.14847  27.22389  27.22389  27.42819  27.42819
 Alpha virt. eigenvalues --   27.55008  28.26478  28.26478  28.91306  29.06197
 Alpha virt. eigenvalues --   29.06197  29.36108  29.87640  30.63267  30.63267
 Alpha virt. eigenvalues --   30.63793  30.63793  30.67806  30.67806  30.78000
 Alpha virt. eigenvalues --   30.78000  30.84950  30.84950  30.90649  34.54944
 Alpha virt. eigenvalues --   43.47709  43.47709  43.55496  43.55496  43.75537
 Alpha virt. eigenvalues --   46.84503  46.84503  47.08449  47.08449  47.52309
 Alpha virt. eigenvalues --   54.91268  60.38510  60.38510  60.72229  67.92186
 Alpha virt. eigenvalues --   69.65245  69.65245  70.54032  77.52958  77.52958
 Alpha virt. eigenvalues --   77.60017  77.60017  77.78175 103.05552 103.05552
 Alpha virt. eigenvalues --  103.06313 103.06313 103.10645 103.10645 103.12120
 Alpha virt. eigenvalues --  105.69947 121.20396 121.20396 121.24646 121.54591
 Alpha virt. eigenvalues --  154.42685 154.42685 155.18759 164.49668 164.49668
 Alpha virt. eigenvalues --  164.55478 164.55478 164.70403 206.81964 206.81964
 Alpha virt. eigenvalues --  206.83280 206.95132 206.95132 207.14886 209.75900
 Alpha virt. eigenvalues --  238.73664 238.73664 239.01538 324.66116 324.66116
 Alpha virt. eigenvalues --  325.35270 357.72775 411.66717 422.93057 422.93057
 Alpha virt. eigenvalues --  422.97428 422.97428 423.08929 472.04274 472.04274
 Alpha virt. eigenvalues --  472.30025 611.88207 690.92186 690.92186 691.56129
 Alpha virt. eigenvalues --  835.58281 954.97099 954.97099 955.207141089.77468
 Alpha virt. eigenvalues -- 1345.103721345.103721345.132321345.132321345.20756
 Alpha virt. eigenvalues -- 1734.199202011.239052011.239052011.453272262.11918
 Alpha virt. eigenvalues -- 3700.402004497.999344497.999344498.190136140.81037
 Alpha virt. eigenvalues -- 8177.71188****************************************
 Alpha virt. eigenvalues -- **************************************************
 Alpha virt. eigenvalues -- **************************************************
 Alpha virt. eigenvalues -- ****************************************
     Molecular Orbital Coefficients:
                           4         5         6         7         8
                           O         O         O         O         O
     Eigenvalues --    -2.78048  -1.11999  -0.64460  -0.64460  -0.63687
   1 1   Mn 1S          0.00000   0.00000  -0.00000   0.00000   0.00000
   2        2S          0.00000  -0.00000   0.00000   0.00000   0.00000
   3        3S          0.00000   0.00000  -0.00000   0.00000   0.00000
   4        4S          0.00000  -0.00000   0.00000   0.00000   0.00000
   5        5S          0.00000   0.00000  -0.00000   0.00000   0.00000
   6        6S          0.00000  -0.00000   0.00000   0.00000   0.00000
   7        7S          0.00000   0.00001  -0.00001   0.00000   0.00000
   8        8S          0.00000  -0.00002   0.00005   0.00000   0.00000
   9        9S          0.00000   0.00006  -0.00015   0.00000   0.00000
  10       10S          0.00000  -0.00018   0.00041   0.00000   0.00000
  11       11S          0.00000   0.00048  -0.00108   0.00000   0.00000
  12       12S          0.00000  -0.00113   0.00257   0.00000   0.00000
  13       13S          0.00000   0.00232  -0.00530   0.00000   0.00000
  14       14S          0.00000  -0.00352   0.00844   0.00000   0.00000
  15       15S          0.00000  -0.01072   0.02155   0.00000   0.00000
  16       16S          0.00000   0.07558  -0.16566   0.00000   0.00000
  17       17S          0.00000  -0.08659   0.18213   0.00000   0.00000
  18       18S          0.00000  -0.18941   0.39824   0.00000   0.00000
  19       19S          0.00000  -0.01758   0.09631   0.00000   0.00000
  20       20S          0.00000   0.03631  -0.21891   0.00000   0.00000
  21       21S          0.00000  -0.01844  -0.18059   0.00000   0.00000
  22       22S          0.00000  -0.00019  -0.02181   0.00000   0.00000
  23       23S          0.00000  -0.01048   0.02576   0.00000   0.00000
  24       24S          0.00000   0.14385  -0.29004   0.00000   0.00000
  25       25S          0.00000   0.00020  -0.00085   0.00000   0.00000
  26       26PX         0.00000   0.00000   0.00000   0.00000  -0.00000
  27       26PY         0.00000   0.00000   0.00000  -0.00000   0.00000
  28       26PZ         0.00000   0.00000  -0.00000   0.00000   0.00000
  29       27PX         0.00000   0.00000   0.00000   0.00000   0.00000
  30       27PY        -0.00000   0.00000   0.00000   0.00000   0.00000
  31       27PZ         0.00000  -0.00000   0.00000   0.00000   0.00000
  32       28PX         0.00000   0.00000   0.00000   0.00000  -0.00000
  33       28PY         0.00002   0.00000   0.00000  -0.00000   0.00000
  34       28PZ         0.00000   0.00000  -0.00000   0.00000   0.00000
  35       29PX         0.00000   0.00000   0.00000   0.00000   0.00001
  36       29PY        -0.00009   0.00000   0.00000   0.00001   0.00000
  37       29PZ         0.00000  -0.00001   0.00001   0.00000   0.00000
  38       30PX         0.00000   0.00000   0.00000   0.00000  -0.00002
  39       30PY         0.00033   0.00000   0.00000  -0.00002   0.00000
  40       30PZ         0.00000   0.00004  -0.00003   0.00000   0.00000
  41       31PX         0.00000   0.00000   0.00000   0.00000   0.00008
  42       31PY        -0.00110   0.00000   0.00000   0.00008   0.00000
  43       31PZ         0.00000  -0.00013   0.00010   0.00000   0.00000
  44       32PX         0.00000   0.00000   0.00000   0.00000  -0.00024
  45       32PY         0.00328   0.00000   0.00000  -0.00024   0.00000
  46       32PZ         0.00000   0.00040  -0.00029   0.00000   0.00000
[...]
 167       62F+1        0.00002   0.00001   0.00001   0.00001
 168       62F-1        0.00002   0.00001   0.00001   0.00001
 169       62F+2        0.00000   0.00000   0.00000   0.00000
 170       62F-2        0.00000   0.00000   0.00000   0.00000
 171       62F+3        0.00000   0.00000   0.00000   0.00000
 172       62F-3        0.00000   0.00000   0.00000  -0.00000
 173       63F 0        0.00103   0.00061   0.00042   0.00019
 174       63F+1        0.00055   0.00037   0.00018   0.00019
 175       63F-1        0.00055   0.00037   0.00018   0.00019
 176       63F+2        0.00006   0.00006   0.00000   0.00006
 177       63F-2        0.00006   0.00006   0.00000   0.00006
 178       63F+3       -0.00000  -0.00000   0.00000  -0.00000
 179       63F-3       -0.00000  -0.00000  -0.00000  -0.00000
 180       64F 0        0.00581   0.00347   0.00234   0.00112
 181       64F+1        0.00896   0.00544   0.00352   0.00193
 182       64F-1        0.00896   0.00544   0.00352   0.00193
 183       64F+2        0.00027   0.00027  -0.00000   0.00027
 184       64F-2        0.00027   0.00027  -0.00000   0.00027
 185       64F+3       -0.00000  -0.00000   0.00000  -0.00000
 186       64F-3       -0.00000  -0.00000  -0.00000  -0.00000
 187       65F 0       -0.00078  -0.00034  -0.00043   0.00009
 188       65F+1        0.00308   0.00206   0.00102   0.00104
 189       65F-1        0.00308   0.00206   0.00102   0.00104
 190       65F+2        0.00007   0.00007  -0.00000   0.00007
 191       65F-2        0.00007   0.00007  -0.00000   0.00007
 192       65F+3        0.00000   0.00000   0.00000   0.00000
 193       65F-3        0.00000   0.00000   0.00000   0.00000
 194       66G 0        0.00000   0.00000   0.00000   0.00000
 195       66G+1        0.00000   0.00000   0.00000   0.00000
 196       66G-1        0.00000   0.00000   0.00000   0.00000
 197       66G+2       -0.00000  -0.00000  -0.00000  -0.00000
 198       66G-2       -0.00000  -0.00000   0.00000  -0.00000
 199       66G+3        0.00000   0.00000  -0.00000   0.00000
 200       66G-3        0.00000   0.00000   0.00000   0.00000
 201       66G+4        0.00000   0.00000  -0.00000   0.00000
 202       66G-4        0.00000   0.00000  -0.00000   0.00000
 203       67G 0        0.00000   0.00000   0.00000   0.00000
 204       67G+1        0.00000   0.00000   0.00000   0.00000
 205       67G-1        0.00000   0.00000   0.00000   0.00000
 206       67G+2       -0.00000  -0.00000   0.00000  -0.00000
 207       67G-2       -0.00000  -0.00000   0.00000  -0.00000
 208       67G+3        0.00000   0.00000   0.00000   0.00000
 209       67G-3        0.00000   0.00000  -0.00000   0.00000
 210       67G+4       -0.00000  -0.00000  -0.00000   0.00000
 211       67G-4        0.00000   0.00000  -0.00000   0.00000
 212       68G 0        0.00049   0.00026   0.00023   0.00002
 213       68G+1        0.00038   0.00021   0.00017   0.00004
 214       68G-1        0.00038   0.00021   0.00017   0.00004
 215       68G+2        0.00000   0.00000  -0.00000   0.00000
 216       68G-2        0.00000   0.00000  -0.00000   0.00000
 217       68G+3       -0.00000  -0.00000  -0.00000   0.00000
 218       68G-3        0.00000   0.00000   0.00000   0.00000
 219       68G+4        0.00000   0.00000   0.00000   0.00000
 220       68G-4        0.00000   0.00000   0.00000   0.00000
 221       69G 0        0.00036   0.00020   0.00017   0.00003
 222       69G+1        0.00219   0.00123   0.00096   0.00026
 223       69G-1        0.00219   0.00123   0.00096   0.00026
 224       69G+2        0.00000   0.00000   0.00000   0.00000
 225       69G-2        0.00000   0.00000   0.00000   0.00000
 226       69G+3       -0.00000   0.00000  -0.00000   0.00000
 227       69G-3       -0.00000   0.00000  -0.00000   0.00000
 228       69G+4       -0.00000  -0.00000   0.00000  -0.00000
 229       69G-4        0.00000   0.00000   0.00000   0.00000
 230       70H 0       -0.00000  -0.00000  -0.00000   0.00000
 231       70H+1        0.00000   0.00000   0.00000  -0.00000
 232       70H-1        0.00000   0.00000   0.00000  -0.00000
 233       70H+2        0.00000   0.00000  -0.00000   0.00000
 234       70H-2        0.00000   0.00000  -0.00000   0.00000
 235       70H+3        0.00000   0.00000   0.00000   0.00000
 236       70H-3        0.00000   0.00000   0.00000   0.00000
 237       70H+4       -0.00000  -0.00000  -0.00000  -0.00000
 238       70H-4        0.00000   0.00000  -0.00000   0.00000
 239       70H+5        0.00000  -0.00000   0.00000  -0.00000
 240       70H-5       -0.00000  -0.00000  -0.00000  -0.00000
 241       71H 0        0.00000   0.00000   0.00000  -0.00000
 242       71H+1        0.00000   0.00000   0.00000  -0.00000
 243       71H-1        0.00000   0.00000   0.00000  -0.00000
 244       71H+2       -0.00000  -0.00000  -0.00000  -0.00000
 245       71H-2       -0.00000  -0.00000  -0.00000  -0.00000
 246       71H+3        0.00000   0.00000  -0.00000   0.00000
 247       71H-3       -0.00000   0.00000  -0.00000   0.00000
 248       71H+4        0.00000   0.00000   0.00000   0.00000
 249       71H-4        0.00000   0.00000   0.00000   0.00000
 250       71H+5        0.00000   0.00000   0.00000   0.00000
 251       71H-5       -0.00000   0.00000  -0.00000   0.00000
 252       72H 0        0.00022   0.00011   0.00011  -0.00000
 253       72H+1        0.00018   0.00009   0.00009   0.00000
 254       72H-1        0.00018   0.00009   0.00009   0.00000
 255       72H+2        0.00000   0.00000  -0.00000   0.00000
 256       72H-2        0.00000   0.00000   0.00000   0.00000
 257       72H+3        0.00000  -0.00000   0.00000  -0.00000
 258       72H-3        0.00000  -0.00000   0.00000  -0.00000
 259       72H+4       -0.00000   0.00000  -0.00000   0.00000
 260       72H-4        0.00000   0.00000  -0.00000   0.00000
 261       72H+5        0.00000   0.00000   0.00000   0.00000
 262       72H-5       -0.00000  -0.00000  -0.00000   0.00000
 263 2   O  1S         -0.00000  -0.00000  -0.00000  -0.00000
 264        2S          0.00000   0.00000   0.00000   0.00000
 265        3S         -0.00000  -0.00000  -0.00000  -0.00000
 266        4S          0.00000   0.00000   0.00000   0.00000
 267        5S         -0.00000  -0.00000  -0.00000  -0.00000
 268        6S         -0.00008  -0.00004  -0.00004  -0.00000
 269        7S         -0.00070  -0.00035  -0.00035  -0.00001
 270        8S         -0.09171  -0.04590  -0.04581  -0.00009
 271        9S         -0.07560  -0.03782  -0.03778  -0.00003
 272       10S          0.43233   0.21627   0.21607   0.00020
 273       11S          1.05611   0.52824   0.52787   0.00036
 274       12S          0.56984   0.28533   0.28451   0.00082
 275       13S          0.05556   0.02781   0.02775   0.00006
 276       14S          0.00041   0.00021   0.00021   0.00000
 277       15S          0.00003   0.00002   0.00002   0.00000
 278       16S          0.05720   0.02552   0.03168  -0.00615
 279       17PX        -0.00016  -0.00008  -0.00008  -0.00000
 280       17PY        -0.00016  -0.00008  -0.00008  -0.00000
 281       17PZ        -0.00015  -0.00007  -0.00007  -0.00000
 282       18PX        -0.11471  -0.05876  -0.05595  -0.00282
 283       18PY        -0.11471  -0.05876  -0.05595  -0.00282
 284       18PZ        -0.10531  -0.05286  -0.05244  -0.00042
 285       19PX         0.13459   0.06903   0.06556   0.00347
 286       19PY         0.13459   0.06903   0.06556   0.00347
 287       19PZ         0.11541   0.05813   0.05728   0.00085
 288       20PX         0.45662   0.23378   0.22284   0.01094
 289       20PY         0.45662   0.23378   0.22284   0.01094
 290       20PZ         0.40157   0.20187   0.19970   0.00218
 291       21PX         0.68318   0.34756   0.33562   0.01193
 292       21PY         0.68318   0.34756   0.33562   0.01193
 293       21PZ         0.59596   0.29887   0.29709   0.00178
 294       22PX         0.45531   0.23101   0.22431   0.00670
 295       22PY         0.45531   0.23101   0.22431   0.00670
 296       22PZ         0.36327   0.18769   0.17558   0.01210
 297       23PX         0.13197   0.06762   0.06435   0.00326
 298       23PY         0.13197   0.06762   0.06435   0.00326
 299       23PZ         0.12025   0.06039   0.05986   0.00053
 300       24PX         0.00061   0.00031   0.00030   0.00002
 301       24PY         0.00061   0.00031   0.00030   0.00002
 302       24PZ         0.00055   0.00028   0.00028   0.00000
 303       25PX         0.00001   0.00000   0.00000   0.00000
 304       25PY         0.00001   0.00000   0.00000   0.00000
 305       25PZ         0.00001   0.00000   0.00000   0.00000
 306       26PX         0.05681   0.02964   0.02717   0.00247
 307       26PY         0.05681   0.02964   0.02717   0.00247
 308       26PZ         0.04774   0.02654   0.02120   0.00534
 309       27D 0        0.00007   0.00004   0.00003   0.00001
 310       27D+1        0.00005   0.00002   0.00002   0.00000
 311       27D-1        0.00005   0.00002   0.00002   0.00000
 312       27D+2        0.00000   0.00000  -0.00000   0.00000
 313       27D-2        0.00000   0.00000  -0.00000   0.00000
 314       28D 0        0.00144   0.00088   0.00056   0.00032
 315       28D+1        0.00086   0.00048   0.00038   0.00010
 316       28D-1        0.00086   0.00048   0.00038   0.00010
 317       28D+2        0.00001   0.00001   0.00000   0.00001
 318       28D-2        0.00001   0.00001   0.00000   0.00001
 319       29D 0        0.01008   0.00540   0.00468   0.00072
 320       29D+1        0.00527   0.00281   0.00246   0.00034
 321       29D-1        0.00527   0.00281   0.00246   0.00034
 322       29D+2        0.00012   0.00012  -0.00000   0.00012
 323       29D-2        0.00012   0.00012  -0.00000   0.00012
 324       30D 0        0.00000   0.00000   0.00000   0.00000
 325       30D+1        0.00000   0.00000   0.00000   0.00000
 326       30D-1        0.00000   0.00000   0.00000   0.00000
 327       30D+2        0.00000   0.00000   0.00000   0.00000
 328       30D-2        0.00000   0.00000   0.00000   0.00000
 329       31D 0       -0.00000  -0.00000  -0.00000  -0.00000
 330       31D+1       -0.00000  -0.00000  -0.00000  -0.00000
 331       31D-1       -0.00000  -0.00000  -0.00000  -0.00000
 332       31D+2       -0.00000  -0.00000  -0.00000  -0.00000
 333       31D-2       -0.00000  -0.00000  -0.00000  -0.00000
 334       32D 0        0.01165   0.00598   0.00567   0.00031
 335       32D+1        0.00425   0.00195   0.00230  -0.00035
 336       32D-1        0.00425   0.00195   0.00230  -0.00035
 337       32D+2        0.00009   0.00009   0.00000   0.00009
 338       32D-2        0.00009   0.00009   0.00000   0.00009
 339       33F 0        0.00002   0.00001   0.00001   0.00001
 340       33F+1        0.00001   0.00001   0.00000   0.00000
 341       33F-1        0.00001   0.00001   0.00000   0.00000
 342       33F+2        0.00000   0.00000  -0.00000   0.00000
 343       33F-2        0.00000   0.00000  -0.00000   0.00000
 344       33F+3       -0.00000  -0.00000  -0.00000  -0.00000
 345       33F-3        0.00000  -0.00000   0.00000  -0.00000
 346       34F 0        0.00123   0.00081   0.00042   0.00039
 347       34F+1        0.00056   0.00038   0.00018   0.00019
 348       34F-1        0.00056   0.00038   0.00018   0.00019
 349       34F+2        0.00004   0.00004   0.00000   0.00004
 350       34F-2        0.00004   0.00004   0.00000   0.00004
 351       34F+3       -0.00000   0.00000  -0.00000   0.00000
 352       34F-3        0.00000   0.00000   0.00000  -0.00000
 353       35F 0        0.00000   0.00000   0.00000   0.00000
 354       35F+1        0.00000   0.00000   0.00000   0.00000
 355       35F-1        0.00000   0.00000   0.00000   0.00000
 356       35F+2        0.00000   0.00000   0.00000   0.00000
 357       35F-2        0.00000   0.00000   0.00000   0.00000
 358       35F+3        0.00000   0.00000   0.00000   0.00000
 359       35F-3        0.00000   0.00000   0.00000   0.00000
 360       36F 0        0.00512   0.00255   0.00257  -0.00001
 361       36F+1        0.00083   0.00043   0.00040   0.00003
 362       36F-1        0.00083   0.00043   0.00040   0.00003
 363       36F+2        0.00004   0.00004  -0.00000   0.00004
 364       36F-2        0.00004   0.00004  -0.00000   0.00004
 365       36F+3        0.00000  -0.00000   0.00000  -0.00000
 366       36F-3        0.00000   0.00000   0.00000  -0.00000
 367       37G 0        0.00003   0.00002   0.00001   0.00001
 368       37G+1        0.00001   0.00001   0.00000   0.00001
 369       37G-1        0.00001   0.00001   0.00000   0.00001
 370       37G+2        0.00000   0.00000   0.00000   0.00000
 371       37G-2        0.00000   0.00000   0.00000   0.00000
 372       37G+3        0.00000   0.00000   0.00000  -0.00000
 373       37G-3        0.00000   0.00000   0.00000   0.00000
 374       37G+4       -0.00000  -0.00000   0.00000  -0.00000
 375       37G-4        0.00000   0.00000   0.00000   0.00000
 376       38G 0        0.00073   0.00045   0.00028   0.00016
 377       38G+1        0.00028   0.00021   0.00007   0.00014
 378       38G-1        0.00028   0.00021   0.00007   0.00014
 379       38G+2        0.00004   0.00004  -0.00000   0.00004
 380       38G-2        0.00004   0.00004  -0.00000   0.00004
 381       38G+3        0.00000   0.00000   0.00000  -0.00000
 382       38G-3        0.00000   0.00000   0.00000  -0.00000
 383       38G+4        0.00000   0.00000   0.00000   0.00000
 384       38G-4       -0.00000  -0.00000  -0.00000  -0.00000
          Condensed to atoms (all electrons):
               1          2
     1  Mn  13.457405   0.336122
     2  O    0.336122   6.870351
          Atomic-Atomic Spin Densities.
               1          2
     1  Mn   4.935763  -0.028769
     2  O   -0.028769   0.121775
 Mulliken charges and spin densities:
               1          2
     1  Mn   1.206473   4.906994
     2  O   -1.206473   0.093006
 Sum of Mulliken charges =  -0.00000   5.00000
 Mulliken charges and spin densities with hydrogens summed into heavy atoms:
               1          2
     1  Mn   1.206473   4.906994
     2  O   -1.206473   0.093006
 Electronic spatial extent (au):  <R**2>=             90.4361
 Charge=             -0.0000 electrons
 Dipole moment (field-independent basis, Debye):
    X=              0.0000    Y=              0.0000    Z=              9.1073  Tot=              9.1073
 Quadrupole moment (field-independent basis, Debye-Ang):
   XX=            -18.8763   YY=            -18.8763   ZZ=            -23.8496
   XY=              0.0000   XZ=              0.0000   YZ=              0.0000
 Traceless Quadrupole moment (field-independent basis, Debye-Ang):
   XX=              1.6577   YY=              1.6577   ZZ=             -3.3155
   XY=              0.0000   XZ=              0.0000   YZ=              0.0000
 Octapole moment (field-independent basis, Debye-Ang**2):
  XXX=              0.0000  YYY=              0.0000  ZZZ=             25.3905  XYY=              0.0000
  XXY=              0.0000  XXZ=              6.1078  XZZ=              0.0000  YZZ=              0.0000
  YYZ=              6.1078  XYZ=              0.0000
 Hexadecapole moment (field-independent basis, Debye-Ang**3):
 XXXX=            -22.7320 YYYY=            -22.7320 ZZZZ=           -107.4959 XXXY=              0.0000
 XXXZ=              0.0000 YYYX=              0.0000 YYYZ=              0.0000 ZZZX=              0.0000
 ZZZY=              0.0000 XXYY=             -7.5773 XXZZ=            -20.9664 YYZZ=            -20.9664
 XXYZ=              0.0000 YYXZ=              0.0000 ZZXY=              0.0000
 N-N= 2.801526410753D+01 E-N=-3.320051906516D+02  KE= 6.832303237619D+01
 Symmetry A1   KE= 2.819843144980D+01
 Symmetry A2   KE= 6.159754295625D+00
 Symmetry B1   KE= 1.698242339728D+01
 Symmetry B2   KE= 1.698242323335D+01
 Symmetry A1   SP= 2.000000000000D+00
 Symmetry A2   SP= 1.000000000000D+00
 Symmetry B1   SP= 1.000000000000D+00
 Symmetry B2   SP= 1.000000000000D+00
 Orbital energies and kinetic energies (alpha):
                                 1                 2
   4         O                -2.780476          3.412332
   5         O                -1.119989          0.942292
   6         O                -0.644601          2.135151
   7         O                -0.644601          1.987253
   8         O                -0.636873          1.987253
   9         O                -0.636873          6.159754
  10         O                -0.595665          6.159754
  11         O                -0.338899          5.162570
  12         O                -0.338899          6.183254
  13         O                -0.338151          6.183253
  14         V                -0.045876          0.482337
  15         V                 0.013361          0.079066
  16         V                 0.013361          0.079066
  17         V                 0.016033          0.193656
  18         V                 0.033791          0.045655
 Total kinetic energy from orbitals= 9.817161762142D+01
                          Isotropic Fermi Contact Couplings
        Atom                 a.u.       MegaHertz       Gauss      10(-4) cm-1
     1  Mn(55)             0.00061       0.13534       0.04829       0.04514
     2  O(17)              0.00002      -0.00192      -0.00069      -0.00064
 --------------------------------------------------------
       Center         ----  Spin Dipole Couplings  ----
                      3XX-RR        3YY-RR        3ZZ-RR
 --------------------------------------------------------
     1   Atom       -0.112074     -0.112074      0.224148
     2   Atom       -0.075188     -0.075188      0.150376
 --------------------------------------------------------
                        XY            XZ            YZ
 --------------------------------------------------------
     1   Atom        0.000000      0.000000      0.000000
     2   Atom        0.000000      0.000000      0.000000
 --------------------------------------------------------


 ---------------------------------------------------------------------------------
              Anisotropic Spin Dipole Couplings in Principal Axis System
 ---------------------------------------------------------------------------------

       Atom             a.u.   MegaHertz   Gauss  10(-4) cm-1        Axes

              Baa    -0.1121   -14.787    -5.276    -4.932 -0.0000  1.0000  0.0000
     1 Mn(55) Bbb    -0.1121   -14.787    -5.276    -4.932  1.0000  0.0000  0.0000
              Bcc     0.2241    29.574    10.553     9.865  0.0000  0.0000  1.0000
 
              Baa    -0.0752     5.441     1.941     1.815 -0.0000  1.0000  0.0000
     2 O(17)  Bbb    -0.0752     5.441     1.941     1.815  1.0000  0.0000  0.0000
              Bcc     0.1504   -10.881    -3.883    -3.630  0.0000  0.0000  1.0000
 

 ---------------------------------------------------------------------------------

 No NMR shielding tensors so no spin-rotation constants.
 Leave Link  601 at Wed Mar 14 06:37:10 2018, MaxMem= 10737418240 cpu:             113.2 elap:               7.4
 (Enter /home1/apps/gaussian/16rA.03/g16/l9999.exe)
 1\1\GINC-C411-053\SP\ROCCSD(T)-Full\Gen\Mn1O1(6)\AANNABE\14-Mar-2018\0
 \\#P ROCCSD(T)=(maxcyc=150, Full, SaveAmplitudes, ReadAmplitudes)/Gen 
 5d 7f SCF=(maxcycles=300) Integral(NoXCTest) MaxDisk=500GB Pop=Regular
  Pseudo=Read Guess=Read\\MnO\\0,6\Mn,0,0.,0.,0.\O,0,0.,0.,1.7\\Version
 =ES64L-G16RevA.03\State=6-SG\HF=-119.1755091\MP2=-120.1096458\PUHF=-11
 9.1755091\PMP2-0=-120.1096458\CCSD=-120.0943708\CCSD(T)=-120.1376559\R
 MSD=4.382e-09\PG=C*V [C*(O1Mn1)]\\@


 THE ONLY DIFFERENCE BETWEEN ECCENTRICS AND JOGGERS
 IS THAT JOGGERS WEAR SWEATBANDS WHEN THEY RUN IN THE RAIN.
 Job cpu time:       1 days  1 hours 49 minutes  3.6 seconds.
 Elapsed time:       0 days  1 hours 37 minutes 13.8 seconds.
 File lengths (MBytes):  RWF=  15905 Int=      0 D2E=      0 Chk=     79 Scr=      1
 Normal termination of Gaussian 16 at Wed Mar 14 06:37:11 2018.
