 Entering Gaussian System, Link 0=g16
 Initial command:
 /home1/apps/gaussian/16rA.03/g16/l1.exe "/tmp/Gau-137487.inp" -scrdir="/tmp/"
 Entering Link 1 = /home1/apps/gaussian/16rA.03/g16/l1.exe PID=    137488.
  
 Copyright (c) 1988,1990,1992,1993,1995,1998,2003,2009,2016,
            Gaussian, Inc.  All Rights Reserved.
  
 This is part of the Gaussian(R) 16 program.  It is based on
 the Gaussian(R) 09 system (copyright 2009, Gaussian, Inc.),
 the Gaussian(R) 03 system (copyright 2003, Gaussian, Inc.),
 the Gaussian(R) 98 system (copyright 1998, Gaussian, Inc.),
 the Gaussian(R) 94 system (copyright 1995, Gaussian, Inc.),
 the Gaussian 92(TM) system (copyright 1992, Gaussian, Inc.),
 the Gaussian 90(TM) system (copyright 1990, Gaussian, Inc.),
 the Gaussian 88(TM) system (copyright 1988, Gaussian, Inc.),
 the Gaussian 86(TM) system (copyright 1986, Carnegie Mellon
 University), and the Gaussian 82(TM) system (copyright 1983,
 Carnegie Mellon University). Gaussian is a federally registered
 trademark of Gaussian, Inc.
  
 This software contains proprietary and confidential information,
 including trade secrets, belonging to Gaussian, Inc.
  
 This software is provided under written license and may be
 used, copied, transmitted, or stored only in accord with that
 written license.
  
 The following legend is applicable only to US Government
 contracts under FAR:
  
                    RESTRICTED RIGHTS LEGEND
  
 Use, reproduction and disclosure by the US Government is
 subject to restrictions as set forth in subparagraphs (a)
 and (c) of the Commercial Computer Software - Restricted
 Rights clause in FAR 52.227-19.
  
 Gaussian, Inc.
 340 Quinnipiac St., Bldg. 40, Wallingford CT 06492
  
  
 ---------------------------------------------------------------
 Warning -- This program may not be used in any manner that
 competes with the business of Gaussian, Inc. or will provide
 assistance to any competitor of Gaussian, Inc.  The licensee
 of this program is prohibited from giving any competitor of
 Gaussian, Inc. access to this program.  By using this program,
 the user acknowledges that Gaussian, Inc. is engaged in the
 business of creating and licensing software in the field of
 computational chemistry and represents and warrants to the
 licensee that it is not a competitor of Gaussian, Inc. and that
 it will not use this program in any manner prohibited above.
 ---------------------------------------------------------------
  

 Cite this work as:
 Gaussian 16, Revision A.03,
 M. J. Frisch, G. W. Trucks, H. B. Schlegel, G. E. Scuseria, 
 M. A. Robb, J. R. Cheeseman, G. Scalmani, V. Barone, 
 G. A. Petersson, H. Nakatsuji, X. Li, M. Caricato, A. V. Marenich, 
 J. Bloino, B. G. Janesko, R. Gomperts, B. Mennucci, H. P. Hratchian, 
 J. V. Ortiz, A. F. Izmaylov, J. L. Sonnenberg, D. Williams-Young, 
 F. Ding, F. Lipparini, F. Egidi, J. Goings, B. Peng, A. Petrone, 
 T. Henderson, D. Ranasinghe, V. G. Zakrzewski, J. Gao, N. Rega, 
 G. Zheng, W. Liang, M. Hada, M. Ehara, K. Toyota, R. Fukuda, 
 J. Hasegawa, M. Ishida, T. Nakajima, Y. Honda, O. Kitao, H. Nakai, 
 T. Vreven, K. Throssell, J. A. Montgomery, Jr., J. E. Peralta, 
 F. Ogliaro, M. J. Bearpark, J. J. Heyd, E. N. Brothers, K. N. Kudin, 
 V. N. Staroverov, T. A. Keith, R. Kobayashi, J. Normand, 
 K. Raghavachari, A. P. Rendell, J. C. Burant, S. S. Iyengar, 
 J. Tomasi, M. Cossi, J. M. Millam, M. Klene, C. Adamo, R. Cammi, 
 J. W. Ochterski, R. L. Martin, K. Morokuma, O. Farkas, 
 J. B. Foresman, and D. J. Fox, Gaussian, Inc., Wallingford CT, 2016.
 
 ******************************************
 Gaussian 16:  ES64L-G16RevA.03 25-Dec-2016
                13-Mar-2018 
 ******************************************
 %MEM=80GB
 %CPU=0-15
 SetSPE:  set environment variable "MP_BIND" = "yes"
 SetSPE:  set environment variable "MP_BLIST" = "0,1,2,3,4,5,6,7,8,9,10,11,12,13,14,15"
 Will use up to   16 processors via shared memory.
 %RWF=/scratch/04843/aannabe/gaussian/
 %Int=/scratch/04843/aannabe/gaussian/
 %D2E=/scratch/04843/aannabe/gaussian/
 %NoSave
 %CHK=TiO
 ----------------------------------------------------------------------
 #P ROCCSD(T)=(maxcyc=150, Full, SaveAmplitudes, ReadAmplitudes)/Gen 5d
  7f SCF=(maxcycles=300) Integral(NoXCTest) MaxDisk=500GB Pop=Regular P
 seudo=Read Guess=Read
 ----------------------------------------------------------------------
 1/38=1,172=1/1;
 2/12=2,17=6,18=5,40=1/2;
 3/5=7,8=11,11=2,16=1,17=8,25=1,30=1,47=8,116=101/1,2,3;
 4/5=1/1;
 5/5=2,7=300,38=6/2;
 8/5=-1,6=4,9=120000,10=90,24=1/1,4;
 9/5=7,6=150,14=2,77=1/13;
 6//1;
 99/5=1,9=1/99;
 Leave Link    1 at Tue Mar 13 01:15:58 2018, MaxMem= 10737418240 cpu:               3.6 elap:               0.2
 (Enter /home1/apps/gaussian/16rA.03/g16/l101.exe)
 ---
 TiO
 ---
 Symbolic Z-matrix:
 Charge =  0 Multiplicity = 3
 Ti                    0.        0.        0. 
 O                     0.        0.        1.9 
 
 ITRead=  0  0
 MicOpt= -1 -1
 NAtoms=      2 NQM=        2 NQMF=       0 NMMI=      0 NMMIF=      0
                NMic=       0 NMicF=      0.
                    Isotopes and Nuclear Properties:
 (Nuclear quadrupole moments (NQMom) in fm**2, nuclear magnetic moments (NMagM)
  in nuclear magnetons)

  Atom         1           2
 IAtWgt=          48          16
 AtmWgt=  47.9479467  15.9949146
 NucSpn=           0           0
 AtZEff=  -0.0000000  -0.0000000
 NQMom=    0.0000000   0.0000000
 NMagM=    0.0000000   0.0000000
 AtZNuc=  22.0000000   8.0000000
 Leave Link  101 at Tue Mar 13 01:15:58 2018, MaxMem= 10737418240 cpu:               1.4 elap:               0.1
 (Enter /home1/apps/gaussian/16rA.03/g16/l202.exe)
                          Input orientation:                          
 ---------------------------------------------------------------------
 Center     Atomic      Atomic             Coordinates (Angstroms)
 Number     Number       Type             X           Y           Z
 ---------------------------------------------------------------------
      1         22           0        0.000000    0.000000    0.000000
      2          8           0        0.000000    0.000000    1.900000
 ---------------------------------------------------------------------
 Stoichiometry    OTi(3)
 Framework group  C*V[C*(OTi)]
 Deg. of freedom     1
 Full point group                 C*V     NOp   4
 Largest Abelian subgroup         C2V     NOp   4
 Largest concise Abelian subgroup C1      NOp   1
                         Standard orientation:                         
 ---------------------------------------------------------------------
 Center     Atomic      Atomic             Coordinates (Angstroms)
 Number     Number       Type             X           Y           Z
 ---------------------------------------------------------------------
      1         22           0        0.000000    0.000000    0.506667
      2          8           0        0.000000    0.000000   -1.393333
 ---------------------------------------------------------------------
 Rotational constants (GHZ):           0.0000000          11.6721302          11.6721302
 Leave Link  202 at Tue Mar 13 01:15:58 2018, MaxMem= 10737418240 cpu:               0.3 elap:               0.1
 (Enter /home1/apps/gaussian/16rA.03/g16/l301.exe)
 General basis read from cards:  (5D, 7F)
 Centers:       1
 S 1 1.00
     Exponent=  9.3170340000D+06 Coefficients=  1.0000000000D+00
 S 1 1.00
     Exponent=  1.3949710000D+06 Coefficients=  1.0000000000D+00
 S 1 1.00
     Exponent=  3.1745310000D+05 Coefficients=  1.0000000000D+00
 S 1 1.00
     Exponent=  8.9921000000D+04 Coefficients=  1.0000000000D+00
 S 1 1.00
     Exponent=  2.9338160000D+04 Coefficients=  1.0000000000D+00
 S 1 1.00
     Exponent=  1.0592660000D+04 Coefficients=  1.0000000000D+00
 S 1 1.00
     Exponent=  4.1320560000D+03 Coefficients=  1.0000000000D+00
 S 1 1.00
     Exponent=  1.7142350000D+03 Coefficients=  1.0000000000D+00
 S 1 1.00
     Exponent=  7.4791510000D+02 Coefficients=  1.0000000000D+00
 S 1 1.00
     Exponent=  3.4019910000D+02 Coefficients=  1.0000000000D+00
 S 1 1.00
     Exponent=  1.6020600000D+02 Coefficients=  1.0000000000D+00
 S 1 1.00
     Exponent=  7.7588510000D+01 Coefficients=  1.0000000000D+00
 S 1 1.00
     Exponent=  3.8044890000D+01 Coefficients=  1.0000000000D+00
 S 1 1.00
     Exponent=  1.7353620000D+01 Coefficients=  1.0000000000D+00
 S 1 1.00
     Exponent=  8.6420620000D+00 Coefficients=  1.0000000000D+00
 S 1 1.00
     Exponent=  4.3044040000D+00 Coefficients=  1.0000000000D+00
 S 1 1.00
     Exponent=  1.9377180000D+00 Coefficients=  1.0000000000D+00
 S 1 1.00
     Exponent=  9.3659400000D-01 Coefficients=  1.0000000000D+00
 S 1 1.00
     Exponent=  4.3262400000D-01 Coefficients=  1.0000000000D+00
 S 1 1.00
     Exponent=  1.0735200000D-01 Coefficients=  1.0000000000D+00
 S 1 1.00
     Exponent=  5.2034000000D-02 Coefficients=  1.0000000000D+00
 S 1 1.00
     Exponent=  2.4038000000D-02 Coefficients=  1.0000000000D+00
 S 1 1.00
     Exponent=  4.0519000000D+00 Coefficients=  1.0000000000D+00
 S 1 1.00
     Exponent=  1.0592000000D+00 Coefficients=  1.0000000000D+00
 S 1 1.00
     Exponent=  1.1100000000D-02 Coefficients=  1.0000000000D+00
 P 1 1.00
     Exponent=  2.5537330000D+04 Coefficients=  1.0000000000D+00
 P 1 1.00
     Exponent=  6.0422430000D+03 Coefficients=  1.0000000000D+00
 P 1 1.00
     Exponent=  1.9626530000D+03 Coefficients=  1.0000000000D+00
 P 1 1.00
     Exponent=  7.5173380000D+02 Coefficients=  1.0000000000D+00
 P 1 1.00
     Exponent=  3.1988330000D+02 Coefficients=  1.0000000000D+00
 P 1 1.00
     Exponent=  1.4643000000D+02 Coefficients=  1.0000000000D+00
 P 1 1.00
     Exponent=  7.0748610000D+01 Coefficients=  1.0000000000D+00
 P 1 1.00
     Exponent=  3.5590880000D+01 Coefficients=  1.0000000000D+00
 P 1 1.00
     Exponent=  1.8368930000D+01 Coefficients=  1.0000000000D+00
 P 1 1.00
     Exponent=  9.6586550000D+00 Coefficients=  1.0000000000D+00
 P 1 1.00
     Exponent=  5.1367300000D+00 Coefficients=  1.0000000000D+00
 P 1 1.00
     Exponent=  2.6988720000D+00 Coefficients=  1.0000000000D+00
 P 1 1.00
     Exponent=  1.3897030000D+00 Coefficients=  1.0000000000D+00
 P 1 1.00
     Exponent=  7.0316300000D-01 Coefficients=  1.0000000000D+00
 P 1 1.00
     Exponent=  3.4412300000D-01 Coefficients=  1.0000000000D+00
 P 1 1.00
     Exponent=  1.4137500000D-01 Coefficients=  1.0000000000D+00
 P 1 1.00
     Exponent=  6.0791000000D-02 Coefficients=  1.0000000000D+00
 P 1 1.00
     Exponent=  2.5831000000D-02 Coefficients=  1.0000000000D+00
 P 1 1.00
     Exponent=  4.8241000000D+00 Coefficients=  1.0000000000D+00
 P 1 1.00
     Exponent=  1.2211000000D+00 Coefficients=  1.0000000000D+00
 P 1 1.00
     Exponent=  1.0980000000D-02 Coefficients=  1.0000000000D+00
 D 1 1.00
     Exponent=  1.9997200000D+02 Coefficients=  1.0000000000D+00
 D 1 1.00
     Exponent=  5.9186900000D+01 Coefficients=  1.0000000000D+00
 D 1 1.00
     Exponent=  2.2601300000D+01 Coefficients=  1.0000000000D+00
 D 1 1.00
     Exponent=  9.5739100000D+00 Coefficients=  1.0000000000D+00
 D 1 1.00
     Exponent=  4.3177100000D+00 Coefficients=  1.0000000000D+00
 D 1 1.00
     Exponent=  2.0237300000D+00 Coefficients=  1.0000000000D+00
 D 1 1.00
     Exponent=  9.4716900000D-01 Coefficients=  1.0000000000D+00
 D 1 1.00
     Exponent=  4.3387700000D-01 Coefficients=  1.0000000000D+00
 D 1 1.00
     Exponent=  1.9212600000D-01 Coefficients=  1.0000000000D+00
 D 1 1.00
     Exponent=  8.1404000000D-02 Coefficients=  1.0000000000D+00
 D 1 1.00
     Exponent=  3.2233000000D-02 Coefficients=  1.0000000000D+00
 D 1 1.00
     Exponent=  2.7829000000D+00 Coefficients=  1.0000000000D+00
 D 1 1.00
     Exponent=  1.3657000000D+00 Coefficients=  1.0000000000D+00
 D 1 1.00
     Exponent=  1.2760000000D-02 Coefficients=  1.0000000000D+00
 F 1 1.00
     Exponent=  3.7192000000D+00 Coefficients=  1.0000000000D+00
 F 1 1.00
     Exponent=  1.4838000000D+00 Coefficients=  1.0000000000D+00
 F 1 1.00
     Exponent=  5.9200000000D-01 Coefficients=  1.0000000000D+00
 F 1 1.00
     Exponent=  1.7960000000D-01 Coefficients=  1.0000000000D+00
 F 1 1.00
     Exponent=  5.4490000000D-02 Coefficients=  1.0000000000D+00
 G 1 1.00
     Exponent=  3.2099000000D+00 Coefficients=  1.0000000000D+00
 G 1 1.00
     Exponent=  1.2652000000D+00 Coefficients=  1.0000000000D+00
 G 1 1.00
     Exponent=  3.9470000000D-01 Coefficients=  1.0000000000D+00
 G 1 1.00
     Exponent=  1.2313000000D-01 Coefficients=  1.0000000000D+00
 H 1 1.00
     Exponent=  2.7676000000D+00 Coefficients=  1.0000000000D+00
 H 1 1.00
     Exponent=  8.5240000000D-01 Coefficients=  1.0000000000D+00
 H 1 1.00
     Exponent=  2.6253000000D-01 Coefficients=  1.0000000000D+00
 ****
 Centers:       2
 S 1 1.00
     Exponent=  6.1420000000D+04 Coefficients=  1.0000000000D+00
 S 1 1.00
     Exponent=  9.1990000000D+03 Coefficients=  1.0000000000D+00
 S 1 1.00
     Exponent=  2.0910000000D+03 Coefficients=  1.0000000000D+00
 S 1 1.00
     Exponent=  5.9090000000D+02 Coefficients=  1.0000000000D+00
 S 1 1.00
     Exponent=  1.9230000000D+02 Coefficients=  1.0000000000D+00
 S 1 1.00
     Exponent=  6.9320000000D+01 Coefficients=  1.0000000000D+00
 S 1 1.00
     Exponent=  2.6970000000D+01 Coefficients=  1.0000000000D+00
 S 1 1.00
     Exponent=  1.1100000000D+01 Coefficients=  1.0000000000D+00
 S 1 1.00
     Exponent=  4.6820000000D+00 Coefficients=  1.0000000000D+00
 S 1 1.00
     Exponent=  1.4280000000D+00 Coefficients=  1.0000000000D+00
 S 1 1.00
     Exponent=  5.5470000000D-01 Coefficients=  1.0000000000D+00
 S 1 1.00
     Exponent=  2.0670000000D-01 Coefficients=  1.0000000000D+00
 S 1 1.00
     Exponent=  1.2974000000D+01 Coefficients=  1.0000000000D+00
 S 1 1.00
     Exponent=  3.4900000000D+01 Coefficients=  1.0000000000D+00
 S 1 1.00
     Exponent=  9.3881000000D+01 Coefficients=  1.0000000000D+00
 S 1 1.00
     Exponent=  6.9590000000D-02 Coefficients=  1.0000000000D+00
 P 1 1.00
     Exponent=  6.3420000000D+01 Coefficients=  1.0000000000D+00
 P 1 1.00
     Exponent=  1.4660000000D+01 Coefficients=  1.0000000000D+00
 P 1 1.00
     Exponent=  4.4590000000D+00 Coefficients=  1.0000000000D+00
 P 1 1.00
     Exponent=  1.5310000000D+00 Coefficients=  1.0000000000D+00
 P 1 1.00
     Exponent=  5.3020000000D-01 Coefficients=  1.0000000000D+00
 P 1 1.00
     Exponent=  1.7500000000D-01 Coefficients=  1.0000000000D+00
 P 1 1.00
     Exponent=  1.4475000000D+01 Coefficients=  1.0000000000D+00
 P 1 1.00
     Exponent=  4.2730000000D+01 Coefficients=  1.0000000000D+00
 P 1 1.00
     Exponent=  1.2614000000D+02 Coefficients=  1.0000000000D+00
 P 1 1.00
     Exponent=  5.3480000000D-02 Coefficients=  1.0000000000D+00
 D 1 1.00
     Exponent=  3.7750000000D+00 Coefficients=  1.0000000000D+00
 D 1 1.00
     Exponent=  1.3000000000D+00 Coefficients=  1.0000000000D+00
 D 1 1.00
     Exponent=  4.4400000000D-01 Coefficients=  1.0000000000D+00
 D 1 1.00
     Exponent=  1.4927000000D+01 Coefficients=  1.0000000000D+00
 D 1 1.00
     Exponent=  5.7544000000D+01 Coefficients=  1.0000000000D+00
 D 1 1.00
     Exponent=  1.5400000000D-01 Coefficients=  1.0000000000D+00
 F 1 1.00
     Exponent=  2.6660000000D+00 Coefficients=  1.0000000000D+00
 F 1 1.00
     Exponent=  8.5900000000D-01 Coefficients=  1.0000000000D+00
 F 1 1.00
     Exponent=  2.6483000000D+01 Coefficients=  1.0000000000D+00
 F 1 1.00
     Exponent=  3.2400000000D-01 Coefficients=  1.0000000000D+00
 G 1 1.00
     Exponent=  1.8460000000D+00 Coefficients=  1.0000000000D+00
 G 1 1.00
     Exponent=  7.1400000000D-01 Coefficients=  1.0000000000D+00
 ****
 ======================================================================================================
                                       Pseudopotential Parameters
 ======================================================================================================
  Center     Atomic      Valence      Angular      Power
  Number     Number     Electrons     Momentum     of R      Exponent        Coefficient   SO-Coeffient
 ======================================================================================================
    1         22           12
                                      D and up 
                                                     1        1.8575522       12.00000000    0.00000000
                                                     3        3.3063825       22.29062683    0.00000000
                                                     2        2.7087908      -41.26280518    0.00000000
                                      S - D
                                                     2        8.0304016       96.94231089    0.00000000
                                      P - D
                                                     2        5.9329141       38.01641313    0.00000000
    2          8            6
                                      P and up 
                                                     1       12.3099700        6.00000000    0.00000000
                                                     3       14.7696200       73.85984000    0.00000000
                                                     2       13.7141900      -47.87600000    0.00000000
                                      S - P
                                                     2       13.6551200       85.86406000    0.00000000
 ======================================================================================================
 Ernie: Thresh=  0.10000D-02 Tol=  0.10000D-05 Strict=F.
 There are   213 symmetry adapted cartesian basis functions of A1  symmetry.
 There are    56 symmetry adapted cartesian basis functions of A2  symmetry.
 There are   114 symmetry adapted cartesian basis functions of B1  symmetry.
 There are   114 symmetry adapted cartesian basis functions of B2  symmetry.
 There are   157 symmetry adapted basis functions of A1  symmetry.
 There are    47 symmetry adapted basis functions of A2  symmetry.
 There are    90 symmetry adapted basis functions of B1  symmetry.
 There are    90 symmetry adapted basis functions of B2  symmetry.
   384 basis functions,   497 primitive gaussians,   497 cartesian basis functions
    10 alpha electrons        8 beta electrons
       nuclear repulsion energy        20.0530311507 Hartrees.
 IExCor=    0 DFT=F Ex=HF Corr=None ExCW=0 ScaHFX=  1.000000
 ScaDFX=  1.000000  1.000000  1.000000  1.000000 ScalE2=  1.000000  1.000000
 IRadAn=      5 IRanWt=     -1 IRanGd=            0 ICorTp=0 IEmpDi=  4
 NAtoms=    2 NActive=    2 NUniq=    2 SFac= 1.00D+00 NAtFMM=   60 NAOKFM=F Big=F
 Integral buffers will be    131072 words long.
 Raffenetti 2 integral format.
 Two-electron integral symmetry is turned on.
 Leave Link  301 at Tue Mar 13 01:15:59 2018, MaxMem= 10737418240 cpu:               4.5 elap:               0.3
 (Enter /home1/apps/gaussian/16rA.03/g16/l302.exe)
 NPDir=0 NMtPBC=     1 NCelOv=     1 NCel=       1 NClECP=     1 NCelD=      1
         NCelK=      1 NCelE2=     1 NClLst=     1 CellRange=     0.0.
 One-electron integrals computed using PRISM.
 One-electron integral symmetry used in STVInt
   4 Symmetry operations used in ECPInt.
 ECPInt:  NShTT=    6105 NPrTT=    6105 LenC2=    5548 LenP2D=    5547.
 LDataN:  DoStor=T MaxTD1=10 Len=  848
 NBasis=   384 RedAO= T EigKep=  2.19D-06  NBF=   157    47    90    90
 NBsUse=   380 1.00D-06 EigRej=  4.75D-07 NBFU=   155    47    89    89
 Leave Link  302 at Tue Mar 13 01:16:02 2018, MaxMem= 10737418240 cpu:              44.1 elap:               2.8
 (Enter /home1/apps/gaussian/16rA.03/g16/l303.exe)
 DipDrv:  MaxL=1.
 Leave Link  303 at Tue Mar 13 01:16:02 2018, MaxMem= 10737418240 cpu:               1.9 elap:               0.2
 (Enter /home1/apps/gaussian/16rA.03/g16/l401.exe)
 Initial guess from the checkpoint file:  "TiO.chk"
 B after Tr=     0.000000    0.000000    0.000000
         Rot=    1.000000    0.000000    0.000000    0.000000 Ang=   0.00 deg.
 Guess basis will be translated and rotated to current coordinates.
 JPrj=2 DoOrth=T DoCkMO=T.
 Initial guess orbital symmetries:
       Occupied  (SG) (SG) (PI) (PI) (SG) (SG) (PI) (PI) (?A) (SG)
       Virtual   (PI) (PI) (SG) (SG) (PI) (PI) (SG) (?A) (?A) (PI)
                 (PI) (SG) (?A) (SG) (PI) (PI) (SG) (?A) (PI) (PI)
                 (SG) (?A) (PI) (PI) (SG) (PI) (PI) (SG) (PHI)
                 (PHI) (DLTA) (DLTA) (SG) (PI) (PI) (SG) (SG) (PI)
                 (PI) (?A) (?A) (PI) (PI) (SG) (SG) (DLTA) (DLTA)
                 (PI) (PI) (?B) (?B) (?B) (PHI) (PHI) (DLTA) (DLTA)
                 (SG) (?C) (?C) (?C) (?C) (DLTA) (DLTA) (PI) (PI)
                 (SG) (SG) (PI) (PI) (SG) (PI) (PI) (SG) (?A) (PI)
                 (PI) (?A) (SG) (SG) (PHI) (PHI) (DLTA) (DLTA)
                 (PI) (PI) (DLTA) (DLTA) (SG) (PI) (PI) (SG) (?D)
                 (?D) (DLTA) (DLTA) (?E) (?E) (?D) (?D) (?D) (?D)
                 (DLTA) (DLTA) (SG) (SG) (PI) (PI) (SG) (PI) (PI)
                 (PI) (PI) (SG) (SG) (DLTA) (DLTA) (PI) (PI) (SG)
                 (SG) (PHI) (PHI) (DLTA) (DLTA) (PI) (PI) (SG)
                 (DLTA) (DLTA) (PI) (PI) (SG) (?C) (?C) (DLTA)
                 (DLTA) (?C) (?C) (SG) (PI) (PI) (SG) (SG) (PHI)
                 (PHI) (?E) (?E) (DLTA) (DLTA) (PI) (PI) (SG) (DLTA)
                 (DLTA) (PI) (PI) (SG) (PI) (PI) (SG) (SG) (PI)
                 (PI) (SG) (SG) (DLTA) (DLTA) (PI) (PI) (SG) (SG)
                 (PI) (PI) (SG) (SG) (DLTA) (DLTA) (PI) (PI) (SG)
                 (PI) (PI) (SG) (SG) (DLTA) (DLTA) (PI) (PI) (SG)
                 (SG) (PI) (PI) (SG) (PI) (PI) (SG) (SG) (SG) (PI)
                 (PI) (SG) (SG) (DLTA) (DLTA) (PI) (PI) (SG) (SG)
                 (PI) (PI) (SG) (PI) (PI) (SG) (SG) (SG) (PI) (PI)
                 (SG) (SG) (PI) (PI) (SG) (SG) (SG) (PI) (PI) (SG)
                 (SG) (SG) (PI) (PI) (SG) (SG) (SG) (SG) (PI) (PI)
                 (SG) (SG) (SG) (SG) (SG) (SG) (SG) (DLTA) (SG)
                 (SG) (SG) (SG) (DLTA) (SG) (DLTA) (SG) (DLTA)
                 (SG) (SG) (SG) (DLTA) (SG) (SG) (?E) (DLTA) (SG)
                 (DLTA) (SG) (DLTA) (SG) (?E) (DLTA) (SG) (?E)
                 (DLTA) (DLTA) (SG) (SG) (DLTA) (SG) (DLTA) (SG)
                 (DLTA) (SG) (DLTA) (?E) (?E) (SG) (?E) (DLTA)
                 (DLTA) (DLTA) (DLTA) (DLTA) (?E) (DLTA) (DLTA)
                 (DLTA) (?E) (DLTA) (?E) (DLTA) (DLTA) (DLTA) (DLTA)
                 (DLTA) (DLTA) (?E) (?E) (?E) (PI) (PI) (PI) (PI)
                 (PI) (PI) (PI) (PHI) (PI) (PI) (PHI) (PI) (PI)
                 (PHI) (PI) (PI) (PI) (PHI) (PI) (?F) (PHI) (PHI)
                 (PI) (PI) (PHI) (PI) (PI) (PHI) (?F) (PHI) (?F)
                 (PI) (PI) (PI) (PI) (PI) (PI) (PI) (PHI) (PI)
                 (PI) (PHI) (PI) (PI) (PHI) (PI) (PI) (PI) (PHI)
                 (PI) (?F) (PHI) (PHI) (PI) (PI) (PHI) (PI) (PI)
                 (PHI) (?F) (PHI) (?F)
 Leave Link  401 at Tue Mar 13 01:16:03 2018, MaxMem= 10737418240 cpu:              12.2 elap:               0.9
 (Enter /home1/apps/gaussian/16rA.03/g16/l502.exe)
 Keep R1 and R2 ints in memory in symmetry-blocked form, NReq=3425113631.
 FoFCou: FMM=F IPFlag=           8 FMFlag=           0 FMFlg1=           0
         NFxFlg=           0 DoJE=F BraDBF=F KetDBF=F FulRan=T
         wScrn=  0.000000 ICntrl=       600 IOpCl=  0 I1Cent=           0 NGrid=           0
         NMat0=    1 NMatS0=  73920 NMatT0=    0 NMatD0=    1 NMtDS0=    0 NMtDT0=    0
 Petite list used in FoFCou.
 Restricted open shell SCF:
 Using DIIS extrapolation, IDIIS=  1040.
 NGot= 10737418240 LenX=  9351093905 LenY=  9350846399
 Requested convergence on RMS density matrix=1.00D-08 within 300 cycles.
 Requested convergence on MAX density matrix=1.00D-06.
 Requested convergence on             energy=1.00D-06.
 No special actions if energy rises.

 Cycle   1  Pass 1  IDiag  1:
 E= -73.4656069459027    
 DIIS: error= 2.88D+00 at cycle   1 NSaved=   1.
 NSaved= 1 IEnMin= 1 EnMin= -73.4656069459027     IErMin= 1 ErrMin= 2.88D+00
 ErrMax= 2.88D+00  0.00D+00 EMaxC= 1.00D-01 BMatC= 1.21D+03 BMatP= 1.21D+03
 IDIUse=3 WtCom= 0.00D+00 WtEn= 1.00D+00
 Coeff-Com:  0.100D+01
 Coeff-En:   0.100D+01
 Coeff:      0.100D+01
 Gap=     0.102 Goal=   None    Shift=    0.000
 GapD=    0.102 DampG=1.000 DampE=0.125 DampFc=0.1250 IDamp=-1.
 Damping current iteration by 1.25D-01
 RMSDP=9.38D-03 MaxDP=1.86D+00              OVMax= 4.35D-03

 Cycle   2  Pass 1  IDiag  1:
 E= -73.4659800665903     Delta-E=       -0.000373120688 Rises=F Damp=T
 DIIS: error= 2.52D+00 at cycle   2 NSaved=   2.
 NSaved= 2 IEnMin= 2 EnMin= -73.4659800665903     IErMin= 2 ErrMin= 2.52D+00
 ErrMax= 2.52D+00  0.00D+00 EMaxC= 1.00D-01 BMatC= 9.28D+02 BMatP= 1.21D+03
 IDIUse=3 WtCom= 0.00D+00 WtEn= 1.00D+00
 Coeff-Com: -0.700D+01 0.800D+01
 Coeff-En:   0.000D+00 0.100D+01
 Coeff:      0.000D+00 0.100D+01
 Gap=     0.101 Goal=   None    Shift=    0.000
 RMSDP=8.20D-03 MaxDP=1.62D+00 DE=-3.73D-04 OVMax= 5.53D-03

 Cycle   3  Pass 1  IDiag  1:
 E= -73.4686178546867     Delta-E=       -0.002637788096 Rises=F Damp=F
 DIIS: error= 5.55D-04 at cycle   3 NSaved=   3.
 NSaved= 3 IEnMin= 3 EnMin= -73.4686178546867     IErMin= 3 ErrMin= 5.55D-04
 ErrMax= 5.55D-04  0.00D+00 EMaxC= 1.00D-01 BMatC= 1.17D-05 BMatP= 9.28D+02
 IDIUse=3 WtCom= 9.94D-01 WtEn= 5.55D-03
 Coeff-Com: -0.102D+01 0.117D+01 0.854D+00
 Coeff-En:   0.000D+00 0.000D+00 0.100D+01
 Coeff:     -0.102D+01 0.116D+01 0.855D+00
 Gap=     0.101 Goal=   None    Shift=    0.000
 RMSDP=2.48D-04 MaxDP=4.53D-02 DE=-2.64D-03 OVMax= 4.00D-03

 Cycle   4  Pass 1  IDiag  1:
 E= -73.4686231752124     Delta-E=       -0.000005320526 Rises=F Damp=F
 DIIS: error= 3.09D-04 at cycle   4 NSaved=   4.
 NSaved= 4 IEnMin= 4 EnMin= -73.4686231752124     IErMin= 4 ErrMin= 3.09D-04
 ErrMax= 3.09D-04  0.00D+00 EMaxC= 1.00D-01 BMatC= 4.45D-06 BMatP= 1.17D-05
 IDIUse=3 WtCom= 9.97D-01 WtEn= 3.09D-03
 Coeff-Com: -0.773D+00 0.884D+00 0.182D+00 0.708D+00
 Coeff-En:   0.000D+00 0.000D+00 0.261D+00 0.739D+00
 Coeff:     -0.771D+00 0.881D+00 0.182D+00 0.708D+00
 Gap=     0.101 Goal=   None    Shift=    0.000
 RMSDP=4.30D-05 MaxDP=8.23D-03 DE=-5.32D-06 OVMax= 4.75D-03

 Cycle   5  Pass 1  IDiag  1:
 E= -73.4686196720146     Delta-E=        0.000003503198 Rises=F Damp=F
 DIIS: error= 4.30D-04 at cycle   5 NSaved=   5.
 NSaved= 5 IEnMin= 4 EnMin= -73.4686231752124     IErMin= 4 ErrMin= 3.09D-04
 ErrMax= 4.30D-04  0.00D+00 EMaxC= 1.00D-01 BMatC= 5.22D-06 BMatP= 4.45D-06
 IDIUse=3 WtCom= 3.25D-01 WtEn= 6.75D-01
 Coeff-Com: -0.741D+00 0.847D+00-0.142D+00 0.478D+00 0.558D+00
 Coeff-En:   0.000D+00 0.000D+00 0.000D+00 0.613D+00 0.387D+00
 Coeff:     -0.241D+00 0.276D+00-0.462D-01 0.570D+00 0.442D+00
 Gap=     0.101 Goal=   None    Shift=    0.000
 RMSDP=7.50D-05 MaxDP=1.42D-02 DE= 3.50D-06 OVMax= 5.09D-03

 Cycle   6  Pass 1  IDiag  1:
 E= -73.4686273713924     Delta-E=       -0.000007699378 Rises=F Damp=F
 DIIS: error= 1.24D-04 at cycle   6 NSaved=   6.
 NSaved= 6 IEnMin= 6 EnMin= -73.4686273713924     IErMin= 6 ErrMin= 1.24D-04
 ErrMax= 1.24D-04  0.00D+00 EMaxC= 1.00D-01 BMatC= 5.22D-07 BMatP= 4.45D-06
 IDIUse=3 WtCom= 9.99D-01 WtEn= 1.24D-03
 Coeff-Com: -0.688D+00 0.787D+00-0.134D+00 0.445D+00 0.530D+00 0.605D-01
 Coeff-En:   0.000D+00 0.000D+00 0.000D+00 0.000D+00 0.277D+00 0.723D+00
 Coeff:     -0.688D+00 0.786D+00-0.134D+00 0.445D+00 0.530D+00 0.614D-01
 Gap=     0.101 Goal=   None    Shift=    0.000
 RMSDP=6.77D-05 MaxDP=1.33D-02 DE=-7.70D-06 OVMax= 2.81D-03

 Cycle   7  Pass 1  IDiag  1:
 E= -73.4686259568018     Delta-E=        0.000001414591 Rises=F Damp=F
 DIIS: error= 2.98D-04 at cycle   7 NSaved=   7.
 NSaved= 7 IEnMin= 6 EnMin= -73.4686273713924     IErMin= 6 ErrMin= 1.24D-04
 ErrMax= 2.98D-04  0.00D+00 EMaxC= 1.00D-01 BMatC= 1.80D-06 BMatP= 5.22D-07
 IDIUse=3 WtCom= 9.99D-01 WtEn= 1.24D-03
 Rare condition: small coef for last iteration:  0.000D+00
 Coeff-Com: -0.712D+00 0.814D+00-0.133D+00 0.202D+00 0.287D+00-0.856D-01
 Coeff-Com:  0.628D+00
 Coeff-En:   0.000D+00 0.000D+00 0.000D+00 0.000D+00 0.146D+00 0.542D+00
 Coeff-En:   0.312D+00
 Coeff:     -0.712D+00 0.814D+00-0.133D+00 0.202D+00 0.287D+00-0.856D-01
 Coeff:      0.628D+00
 Gap=     0.101 Goal=   None    Shift=    0.000
 RMSDP=3.11D-06 MaxDP=5.58D-04 DE= 1.41D-06 OVMax= 3.58D-04

 Cycle   8  Pass 1  IDiag  1:
 E= -73.4686260743604     Delta-E=       -0.000000117559 Rises=F Damp=F
 DIIS: error= 2.83D-04 at cycle   8 NSaved=   8.
 NSaved= 8 IEnMin= 6 EnMin= -73.4686273713924     IErMin= 6 ErrMin= 1.24D-04
 ErrMax= 2.83D-04  0.00D+00 EMaxC= 1.00D-01 BMatC= 1.77D-06 BMatP= 5.22D-07
 IDIUse=3 WtCom= 9.99D-01 WtEn= 1.24D-03
 EnCoef did   100 forward-backward iterations
 Rare condition: small coef for last iteration:  0.000D+00
 Coeff-Com: -0.698D+00 0.798D+00-0.115D+00-0.353D-02 0.416D-01-0.168D+00
 Coeff-Com:  0.211D+00 0.934D+00
 Coeff-En:   0.000D+00 0.000D+00 0.000D+00 0.000D+00 0.134D+00 0.542D+00
 Coeff-En:   0.000D+00 0.324D+00
 Coeff:     -0.698D+00 0.798D+00-0.115D+00-0.353D-02 0.416D-01-0.168D+00
 Coeff:      0.211D+00 0.934D+00
 Gap=     0.101 Goal=   None    Shift=    0.000
 RMSDP=1.75D-06 MaxDP=3.39D-04 DE=-1.18D-07 OVMax= 5.43D-05

 Cycle   9  Pass 1  IDiag  1:
 E= -73.4686261619268     Delta-E=       -0.000000087566 Rises=F Damp=F
 DIIS: error= 2.80D-04 at cycle   9 NSaved=   9.
 NSaved= 9 IEnMin= 6 EnMin= -73.4686273713924     IErMin= 6 ErrMin= 1.24D-04
 ErrMax= 2.80D-04  0.00D+00 EMaxC= 1.00D-01 BMatC= 1.70D-06 BMatP= 5.22D-07
 IDIUse=3 WtCom= 9.99D-01 WtEn= 1.24D-03
 EnCoef did   100 forward-backward iterations
 Coeff-Com: -0.685D+00 0.783D+00-0.110D+00-0.212D-01 0.182D-01-0.171D+00
 Coeff-Com:  0.111D+00 0.288D+00 0.787D+00
 Coeff-En:   0.000D+00 0.000D+00 0.000D+00 0.000D+00 0.271D+00 0.716D+00
 Coeff-En:   0.775D-03 0.000D+00 0.127D-01
 Coeff:     -0.684D+00 0.782D+00-0.110D+00-0.212D-01 0.186D-01-0.170D+00
 Coeff:      0.111D+00 0.288D+00 0.786D+00
 Gap=     0.101 Goal=   None    Shift=    0.000
 RMSDP=1.30D-06 MaxDP=2.38D-04 DE=-8.76D-08 OVMax= 3.74D-05

 Cycle  10  Pass 1  IDiag  1:
 E= -73.4686262389766     Delta-E=       -0.000000077050 Rises=F Damp=F
 DIIS: error= 2.73D-04 at cycle  10 NSaved=  10.
 NSaved=10 IEnMin= 6 EnMin= -73.4686273713924     IErMin= 6 ErrMin= 1.24D-04
 ErrMax= 2.73D-04  0.00D+00 EMaxC= 1.00D-01 BMatC= 1.64D-06 BMatP= 5.22D-07
 IDIUse=3 WtCom= 9.99D-01 WtEn= 1.24D-03
 EnCoef did   100 forward-backward iterations
 Rare condition: small coef for last iteration:  0.236D-15
 Coeff-Com: -0.652D+00 0.745D+00-0.107D+00 0.251D-01 0.690D-01-0.152D+00
 Coeff-Com:  0.127D+00-0.655D+00-0.783D+00 0.238D+01
 Coeff-En:   0.000D+00 0.000D+00 0.000D+00 0.000D+00 0.134D+00 0.533D+00
 Coeff-En:   0.000D+00 0.000D+00 0.000D+00 0.333D+00
 Coeff:     -0.652D+00 0.745D+00-0.107D+00 0.251D-01 0.690D-01-0.152D+00
 Coeff:      0.127D+00-0.655D+00-0.783D+00 0.238D+01
 Gap=     0.101 Goal=   None    Shift=    0.000
 RMSDP=3.64D-06 MaxDP=6.86D-04 DE=-7.70D-08 OVMax= 7.74D-05

 Cycle  11  Pass 1  IDiag  1:
 E= -73.4686264217735     Delta-E=       -0.000000182797 Rises=F Damp=F
 DIIS: error= 2.60D-04 at cycle  11 NSaved=  11.
 NSaved=11 IEnMin= 6 EnMin= -73.4686273713924     IErMin= 6 ErrMin= 1.24D-04
 ErrMax= 2.60D-04  0.00D+00 EMaxC= 1.00D-01 BMatC= 1.49D-06 BMatP= 5.22D-07
 IDIUse=3 WtCom= 9.99D-01 WtEn= 1.24D-03
 EnCoef did   100 forward-backward iterations
 Coeff-Com: -0.626D+00 0.716D+00-0.103D+00 0.173D-01 0.588D-01-0.146D+00
 Coeff-Com:  0.146D+00-0.245D+00-0.541D+00 0.554D+00 0.117D+01
 Coeff-En:   0.000D+00 0.000D+00 0.000D+00 0.000D+00 0.271D+00 0.715D+00
 Coeff-En:   0.773D-03 0.000D+00 0.101D-03 0.742D-04 0.131D-01
 Coeff:     -0.626D+00 0.715D+00-0.103D+00 0.173D-01 0.590D-01-0.145D+00
 Coeff:      0.145D+00-0.245D+00-0.541D+00 0.553D+00 0.117D+01
 Gap=     0.101 Goal=   None    Shift=    0.000
 RMSDP=2.62D-06 MaxDP=4.78D-04 DE=-1.83D-07 OVMax= 6.45D-05

 Cycle  12  Pass 1  IDiag  1:
 E= -73.4686265602375     Delta-E=       -0.000000138464 Rises=F Damp=F
 DIIS: error= 2.50D-04 at cycle  12 NSaved=  12.
 NSaved=12 IEnMin= 6 EnMin= -73.4686273713924     IErMin= 6 ErrMin= 1.24D-04
 ErrMax= 2.50D-04  0.00D+00 EMaxC= 1.00D-01 BMatC= 1.37D-06 BMatP= 5.22D-07
 IDIUse=3 WtCom= 9.99D-01 WtEn= 1.24D-03
 EnCoef did   100 forward-backward iterations
 Rare condition: small coef for last iteration: -0.472D-15
 Coeff-Com: -0.607D+00 0.694D+00-0.992D-01 0.227D-02 0.412D-01-0.144D+00
 Coeff-Com:  0.137D+00 0.818D-01-0.803D-01-0.329D+00 0.319D+00 0.985D+00
 Coeff-En:   0.000D+00 0.000D+00 0.000D+00 0.000D+00 0.131D+00 0.514D+00
 Coeff-En:   0.000D+00 0.000D+00 0.000D+00 0.000D+00 0.000D+00 0.355D+00
 Coeff:     -0.607D+00 0.694D+00-0.992D-01 0.227D-02 0.412D-01-0.144D+00
 Coeff:      0.137D+00 0.818D-01-0.803D-01-0.329D+00 0.319D+00 0.985D+00
 Gap=     0.101 Goal=   None    Shift=    0.000
 RMSDP=2.07D-06 MaxDP=3.87D-04 DE=-1.38D-07 OVMax= 4.53D-05

 Cycle  13  Pass 1  IDiag  1:
 E= -73.4686266568776     Delta-E=       -0.000000096640 Rises=F Damp=F
 DIIS: error= 2.42D-04 at cycle  13 NSaved=  13.
 NSaved=13 IEnMin= 6 EnMin= -73.4686273713924     IErMin= 6 ErrMin= 1.24D-04
 ErrMax= 2.42D-04  0.00D+00 EMaxC= 1.00D-01 BMatC= 1.29D-06 BMatP= 5.22D-07
 IDIUse=3 WtCom= 9.99D-01 WtEn= 1.24D-03
 EnCoef did   100 forward-backward iterations
 Coeff-Com: -0.594D+00 0.679D+00-0.969D-01-0.619D-03 0.368D-01-0.143D+00
 Coeff-Com:  0.128D+00 0.106D+00 0.229D-01-0.261D+00-0.132D+00 0.557D+00
 Coeff-Com:  0.698D+00
 Coeff-En:   0.000D+00 0.000D+00 0.000D+00 0.000D+00 0.271D+00 0.715D+00
 Coeff-En:   0.774D-03 0.000D+00 0.964D-04 0.630D-04 0.113D-03 0.956D-04
 Coeff-En:   0.135D-01
 Coeff:     -0.594D+00 0.678D+00-0.968D-01-0.619D-03 0.371D-01-0.142D+00
 Coeff:      0.128D+00 0.106D+00 0.229D-01-0.261D+00-0.132D+00 0.556D+00
 Coeff:      0.697D+00
 Gap=     0.101 Goal=   None    Shift=    0.000
 RMSDP=1.43D-06 MaxDP=2.67D-04 DE=-9.66D-08 OVMax= 3.39D-05

 Cycle  14  Pass 1  IDiag  1:
 E= -73.4686267239773     Delta-E=       -0.000000067100 Rises=F Damp=F
 DIIS: error= 2.37D-04 at cycle  14 NSaved=  14.
 NSaved=14 IEnMin= 6 EnMin= -73.4686273713924     IErMin= 6 ErrMin= 1.24D-04
 ErrMax= 2.37D-04  0.00D+00 EMaxC= 1.00D-01 BMatC= 1.23D-06 BMatP= 5.22D-07
 IDIUse=3 WtCom= 9.99D-01 WtEn= 1.24D-03
 EnCoef did   100 forward-backward iterations
 Rare condition: small coef for last iteration: -0.118D-15
 Coeff-Com: -0.577D+00 0.660D+00-0.942D-01 0.165D-02 0.382D-01-0.138D+00
 Coeff-Com:  0.120D+00 0.371D-02-0.523D-01 0.176D+00-0.294D+00-0.356D+00
 Coeff-Com:  0.758D+00 0.756D+00
 Coeff-En:   0.000D+00 0.000D+00 0.000D+00 0.000D+00 0.129D+00 0.503D+00
 Coeff-En:   0.000D+00 0.000D+00 0.000D+00 0.000D+00 0.000D+00 0.000D+00
 Coeff-En:   0.000D+00 0.368D+00
 Coeff:     -0.577D+00 0.660D+00-0.942D-01 0.165D-02 0.382D-01-0.138D+00
 Coeff:      0.120D+00 0.371D-02-0.523D-01 0.176D+00-0.294D+00-0.356D+00
 Coeff:      0.758D+00 0.756D+00
 Gap=     0.101 Goal=   None    Shift=    0.000
 RMSDP=1.71D-06 MaxDP=3.18D-04 DE=-6.71D-08 OVMax= 3.96D-05

 Cycle  15  Pass 1  IDiag  1:
 E= -73.4686268026563     Delta-E=       -0.000000078679 Rises=F Damp=F
 DIIS: error= 2.31D-04 at cycle  15 NSaved=  15.
 NSaved=15 IEnMin= 6 EnMin= -73.4686273713924     IErMin= 6 ErrMin= 1.24D-04
 ErrMax= 2.31D-04  0.00D+00 EMaxC= 1.00D-01 BMatC= 1.16D-06 BMatP= 5.22D-07
 IDIUse=3 WtCom= 9.99D-01 WtEn= 1.24D-03
 EnCoef did   100 forward-backward iterations
 Coeff-Com: -0.536D+00 0.613D+00-0.877D-01 0.783D-02 0.418D-01-0.127D+00
 Coeff-Com:  0.113D+00-0.152D+00-0.240D+00 0.634D+00 0.530D-01-0.111D+01
 Coeff-Com: -0.150D+00-0.710D-01 0.201D+01
 Coeff-En:   0.000D+00 0.000D+00 0.000D+00 0.000D+00 0.270D+00 0.714D+00
 Coeff-En:   0.783D-03 0.000D+00 0.958D-04 0.611D-04 0.112D-03 0.954D-04
 Coeff-En:   0.426D-04 0.506D-04 0.139D-01
 Coeff:     -0.535D+00 0.612D+00-0.876D-01 0.782D-02 0.421D-01-0.126D+00
 Coeff:      0.113D+00-0.152D+00-0.239D+00 0.633D+00 0.530D-01-0.111D+01
 Coeff:     -0.149D+00-0.709D-01 0.201D+01
 Gap=     0.101 Goal=   None    Shift=    0.000
 RMSDP=4.48D-06 MaxDP=8.40D-04 DE=-7.87D-08 OVMax= 1.02D-04

 Cycle  16  Pass 1  IDiag  1:
 E= -73.4686269975143     Delta-E=       -0.000000194858 Rises=F Damp=F
 DIIS: error= 2.14D-04 at cycle  16 NSaved=  16.
 NSaved=16 IEnMin= 6 EnMin= -73.4686273713924     IErMin= 6 ErrMin= 1.24D-04
 ErrMax= 2.14D-04  0.00D+00 EMaxC= 1.00D-01 BMatC= 1.00D-06 BMatP= 5.22D-07
 IDIUse=3 WtCom= 9.99D-01 WtEn= 1.24D-03
 EnCoef did   100 forward-backward iterations
 Rare condition: small coef for last iteration:  0.000D+00
 Coeff-Com: -0.486D+00 0.555D+00-0.794D-01 0.251D-02 0.340D-01-0.115D+00
 Coeff-Com:  0.108D+00 0.103D-01-0.118D+00 0.190D-02 0.246D+00 0.319D-01
 Coeff-Com: -0.383D-01-0.558D+00-0.556D+00 0.196D+01
 Coeff-En:   0.000D+00 0.000D+00 0.000D+00 0.000D+00 0.126D+00 0.481D+00
 Coeff-En:   0.000D+00 0.000D+00 0.000D+00 0.000D+00 0.000D+00 0.000D+00
 Coeff-En:   0.000D+00 0.000D+00 0.000D+00 0.393D+00
 Coeff:     -0.486D+00 0.555D+00-0.794D-01 0.251D-02 0.340D-01-0.115D+00
 Coeff:      0.108D+00 0.103D-01-0.118D+00 0.190D-02 0.246D+00 0.319D-01
 Coeff:     -0.383D-01-0.558D+00-0.556D+00 0.196D+01
 Gap=     0.101 Goal=   None    Shift=    0.000
 RMSDP=5.26D-06 MaxDP=9.89D-04 DE=-1.95D-07 OVMax= 1.20D-04

 Cycle  17  Pass 1  IDiag  1:
 E= -73.4686272072686     Delta-E=       -0.000000209754 Rises=F Damp=F
 DIIS: error= 1.94D-04 at cycle  17 NSaved=  17.
 NSaved=17 IEnMin= 6 EnMin= -73.4686273713924     IErMin= 6 ErrMin= 1.24D-04
 ErrMax= 1.94D-04  0.00D+00 EMaxC= 1.00D-01 BMatC= 8.25D-07 BMatP= 5.22D-07
 IDIUse=3 WtCom= 9.99D-01 WtEn= 1.24D-03
 EnCoef did   100 forward-backward iterations
 Coeff-Com: -0.434D+00 0.495D+00-0.707D-01-0.977D-03 0.262D-01-0.104D+00
 Coeff-Com:  0.961D-01 0.110D+00 0.184D-01-0.356D+00 0.154D+00 0.552D+00
 Coeff-Com:  0.249D+00-0.256D+00-0.145D+01 0.473D+00 0.150D+01
 Coeff-En:   0.000D+00 0.000D+00 0.000D+00 0.000D+00 0.270D+00 0.713D+00
 Coeff-En:   0.834D-03 0.000D+00 0.973D-04 0.643D-04 0.116D-03 0.100D-03
 Coeff-En:   0.466D-04 0.559D-04 0.192D-03 0.316D-03 0.148D-01
 Coeff:     -0.433D+00 0.495D+00-0.706D-01-0.975D-03 0.265D-01-0.103D+00
 Coeff:      0.960D-01 0.110D+00 0.183D-01-0.356D+00 0.154D+00 0.551D+00
 Coeff:      0.248D+00-0.255D+00-0.145D+01 0.472D+00 0.150D+01
 Gap=     0.101 Goal=   None    Shift=    0.000
 RMSDP=5.64D-06 MaxDP=1.06D-03 DE=-2.10D-07 OVMax= 1.29D-04

 Cycle  18  Pass 1  IDiag  1:
 E= -73.4686274096149     Delta-E=       -0.000000202346 Rises=F Damp=F
 DIIS: error= 1.73D-04 at cycle  18 NSaved=  18.
 NSaved=18 IEnMin=18 EnMin= -73.4686274096149     IErMin= 6 ErrMin= 1.24D-04
 ErrMax= 1.73D-04  0.00D+00 EMaxC= 1.00D-01 BMatC= 6.55D-07 BMatP= 5.22D-07
 IDIUse=3 WtCom= 9.99D-01 WtEn= 1.24D-03
 Large coefficients: NSaved= 18 BigCof=    0.00 CofMax=   10.00 Det=-9.54D-14
 Inversion failed.  Reducing to 17 matrices.
 EnCoef did   100 forward-backward iterations
 Rare condition: small coef for last iteration: -0.354D-15
 Coeff-Com: -0.871D-09 0.549D-03-0.112D-01-0.144D-01-0.360D-02-0.104D-03
 Coeff-Com:  0.313D+00 0.385D+00-0.107D+01-0.261D+00 0.121D+01 0.712D+00
 Coeff-Com:  0.107D+01-0.238D+01-0.715D+01 0.492D+01 0.328D+01
 Coeff-En:   0.000D+00 0.000D+00 0.000D+00 0.121D+00 0.434D+00 0.000D+00
 Coeff-En:   0.000D+00 0.000D+00 0.000D+00 0.000D+00 0.000D+00 0.000D+00
 Coeff-En:   0.000D+00 0.000D+00 0.000D+00 0.000D+00 0.445D+00
 Coeff:     -0.871D-09 0.549D-03-0.112D-01-0.144D-01-0.360D-02-0.104D-03
 Coeff:      0.313D+00 0.385D+00-0.107D+01-0.261D+00 0.121D+01 0.712D+00
 Coeff:      0.107D+01-0.238D+01-0.715D+01 0.492D+01 0.328D+01
 Gap=     0.101 Goal=   None    Shift=    0.000
 RMSDP=4.64D-05 MaxDP=8.80D-03 DE=-2.02D-07 OVMax= 1.05D-03

 Cycle  19  Pass 1  IDiag  1:
 E= -73.4686281886648     Delta-E=       -0.000000779050 Rises=F Damp=F
 DIIS: error= 3.38D-07 at cycle  19 NSaved=  18.
 NSaved=18 IEnMin=18 EnMin= -73.4686281886648     IErMin=18 ErrMin= 3.38D-07
 ErrMax= 3.38D-07  0.00D+00 EMaxC= 1.00D-01 BMatC= 1.51D-11 BMatP= 5.22D-07
 IDIUse=1 WtCom= 1.00D+00 WtEn= 0.00D+00
 Coeff-Com: -0.322D-09 0.147D-03-0.990D-03-0.289D-02-0.116D-02-0.521D-02
 Coeff-Com: -0.158D-01 0.688D-01 0.165D+00-0.380D+00-0.683D+00 0.266D+00
 Coeff-Com:  0.139D+01 0.225D+01-0.590D+01 0.808D+00 0.234D+01 0.702D+00
 Coeff:     -0.322D-09 0.147D-03-0.990D-03-0.289D-02-0.116D-02-0.521D-02
 Coeff:     -0.158D-01 0.688D-01 0.165D+00-0.380D+00-0.683D+00 0.266D+00
 Coeff:      0.139D+01 0.225D+01-0.590D+01 0.808D+00 0.234D+01 0.702D+00
 Gap=     0.101 Goal=   None    Shift=    0.000
 RMSDP=1.16D-07 MaxDP=1.05D-05 DE=-7.79D-07 OVMax= 2.02D-05

 Cycle  20  Pass 1  IDiag  1:
 E= -73.4686281887257     Delta-E=       -0.000000000061 Rises=F Damp=F
 DIIS: error= 1.37D-07 at cycle  20 NSaved=  19.
 NSaved=19 IEnMin=19 EnMin= -73.4686281887257     IErMin=19 ErrMin= 1.37D-07
 ErrMax= 1.37D-07  0.00D+00 EMaxC= 1.00D-01 BMatC= 1.21D-12 BMatP= 1.51D-11
 IDIUse=1 WtCom= 1.00D+00 WtEn= 0.00D+00
 Coeff-Com:  0.549D-10-0.416D-04 0.193D-02 0.161D-02-0.702D-06-0.204D-02
 Coeff-Com: -0.689D-01-0.444D-01 0.280D+00-0.925D-01-0.572D+00-0.499D-01
 Coeff-Com:  0.374D+00 0.164D+01-0.139D+01-0.489D+00 0.347D+00 0.283D+00
 Coeff-Com:  0.785D+00
 Coeff:      0.549D-10-0.416D-04 0.193D-02 0.161D-02-0.702D-06-0.204D-02
 Coeff:     -0.689D-01-0.444D-01 0.280D+00-0.925D-01-0.572D+00-0.499D-01
 Coeff:      0.374D+00 0.164D+01-0.139D+01-0.489D+00 0.347D+00 0.283D+00
 Coeff:      0.785D+00
 Gap=     0.101 Goal=   None    Shift=    0.000
 RMSDP=3.14D-08 MaxDP=2.93D-06 DE=-6.09D-11 OVMax= 5.61D-06

 Cycle  21  Pass 1  IDiag  1:
 E= -73.4686281887296     Delta-E=       -0.000000000004 Rises=F Damp=F
 DIIS: error= 1.08D-07 at cycle  21 NSaved=  20.
 NSaved=20 IEnMin=20 EnMin= -73.4686281887296     IErMin=20 ErrMin= 1.08D-07
 ErrMax= 1.08D-07  0.00D+00 EMaxC= 1.00D-01 BMatC= 5.48D-13 BMatP= 1.21D-12
 IDIUse=1 WtCom= 1.00D+00 WtEn= 0.00D+00
 Coeff-Com:  0.953D-10-0.413D-04 0.114D-02 0.129D-02 0.230D-03-0.513D-03
 Coeff-Com: -0.370D-01-0.344D-01 0.140D+00-0.127D-01-0.222D+00-0.385D-01
 Coeff-Com:  0.312D-01 0.548D+00 0.933D-01-0.392D+00-0.165D+00 0.605D-01
 Coeff-Com:  0.506D+00 0.519D+00
 Coeff:      0.953D-10-0.413D-04 0.114D-02 0.129D-02 0.230D-03-0.513D-03
 Coeff:     -0.370D-01-0.344D-01 0.140D+00-0.127D-01-0.222D+00-0.385D-01
 Coeff:      0.312D-01 0.548D+00 0.933D-01-0.392D+00-0.165D+00 0.605D-01
 Coeff:      0.506D+00 0.519D+00
 Gap=     0.101 Goal=   None    Shift=    0.000
 RMSDP=1.94D-08 MaxDP=2.42D-06 DE=-3.91D-12 OVMax= 1.69D-06

 Cycle  22  Pass 1  IDiag  1:
 E= -73.4686281887300     Delta-E=       -0.000000000000 Rises=F Damp=F
 DIIS: error= 2.34D-08 at cycle  22 NSaved=  20.
 NSaved=20 IEnMin=20 EnMin= -73.4686281887300     IErMin=20 ErrMin= 2.34D-08
 ErrMax= 2.34D-08  0.00D+00 EMaxC= 1.00D-01 BMatC= 7.36D-14 BMatP= 5.48D-13
 IDIUse=1 WtCom= 1.00D+00 WtEn= 0.00D+00
 Coeff-Com: -0.672D-05-0.131D-04 0.192D-03 0.162D-03 0.128D-03-0.680D-03
 Coeff-Com: -0.469D-02 0.180D-02 0.276D-02 0.429D-01 0.204D-01-0.579D-01
 Coeff-Com: -0.215D+00 0.419D+00-0.575D-01-0.178D+00-0.401D-01 0.958D-01
 Coeff-Com:  0.264D+00 0.706D+00
 Coeff:     -0.672D-05-0.131D-04 0.192D-03 0.162D-03 0.128D-03-0.680D-03
 Coeff:     -0.469D-02 0.180D-02 0.276D-02 0.429D-01 0.204D-01-0.579D-01
 Coeff:     -0.215D+00 0.419D+00-0.575D-01-0.178D+00-0.401D-01 0.958D-01
 Coeff:      0.264D+00 0.706D+00
 Gap=     0.101 Goal=   None    Shift=    0.000
 RMSDP=5.84D-09 MaxDP=7.39D-07 DE=-4.69D-13 OVMax= 5.36D-07

 SCF Done:  E(ROHF) =  -73.4686281887     A.U. after   22 cycles
            NFock= 22  Conv=0.58D-08     -V/T= 3.0273
 <Sx>= 0.0000 <Sy>= 0.0000 <Sz>= 1.0000 <S**2>= 2.0000 S= 1.0000
 <L.S>=  0.00000000000    
 KE= 3.623981170447D+01 PE=-2.003434234335D+02 EE= 7.058195238966D+01
 Annihilation of the first spin contaminant:
 S**2 before annihilation     2.0000,   after     2.0000
 Leave Link  502 at Tue Mar 13 01:18:21 2018, MaxMem= 10737418240 cpu:            1908.8 elap:             138.4
 (Enter /home1/apps/gaussian/16rA.03/g16/l801.exe)
 Windowed orbitals will be sorted by symmetry type.
 GenMOA:  NOpAll=  4 NOp2=4 NOpUse=  4 JSym2X=1
 FoFJK:  IHMeth= 1 ICntrl=       0 DoSepK=F KAlg= 0 I1Cent=           0 FoldK=F
 IRaf=         0 NMat=       1 IRICut=       1 DoRegI=T DoRafI=F ISym2E= 1 IDoP0=0 IntGTp=1.
 FoFCou: FMM=F IPFlag=           8 FMFlag=      100000 FMFlg1=           0
         NFxFlg=           0 DoJE=F BraDBF=F KetDBF=F FulRan=T
         wScrn=  0.000000 ICntrl=         0 IOpCl=  1 I1Cent=           0 NGrid=           0
         NMat0=    1 NMatS0=      1 NMatT0=    0 NMatD0=    1 NMtDS0=    0 NMtDT0=    0
 Petite list used in FoFCou.
 <Sx>= 0.0000 <Sy>= 0.0000 <Sz>= 1.0000 <S**2>= 2.0000 S= 1.0000
 Range of M.O.s used for correlation:     1   380
 NBasis=   384 NAE=    10 NBE=     8 NFC=     0 NFV=     0
 NROrb=    380 NOA=    10 NOB=     8 NVA=   370 NVB=   372

 **** Warning!!: The largest alpha MO coefficient is  0.27981198D+03


 **** Warning!!: The largest beta MO coefficient is  0.27981206D+03

 Singles contribution to E2=   -0.3258692655D-02
 Leave Link  801 at Tue Mar 13 01:18:55 2018, MaxMem= 10737418240 cpu:             529.2 elap:              33.1
 (Enter /home1/apps/gaussian/16rA.03/g16/l804.exe)
 Open-shell transformation, MDV= 10737418240 ITran=4 ISComp=2.
 Unit  1 TFree=       4464551 TCopy=       3212973.
 Semi-Direct transformation.
 ModeAB=           4 MOrb=            10 LenV=   10733105521
 LASXX=     69137648 LTotXX=    69137648 LenRXX=   139011840
 LTotAB=    69874192 MaxLAS=   463440400 LenRXY=           0
 NonZer=   208149488 LenScr=   313449472 LnRSAI=   463440400
 LnScr1=   697887744 LExtra=    19344819 Total=   1633134275
 MaxDsk= 67108864000 SrtSym=           T ITran=            4
 DoSDTr:  NPSUse= 16
 JobTyp=1 Pass  1:  I=   1 to  10.
 (rs|ai) integrals will be sorted in core.
 Complete sort for first half transformation.
 First half transformation complete.
 Begin second half transformation for I=  10.
 Complete sort for second half transformation.
 Second half transformation complete.
 ModeAB=           4 MOrb=             8 LenV=   10733105521
 LASXX=     55242478 LTotXX=    55242478 LenRXX=   108077878
 LTotAB=    52835400 MaxLAS=   370752320 LenRXY=           0
 NonZer=   163320356 LenScr=   245941248 LnRSAI=   370752320
 LnScr1=   558310400 LExtra=   158356659 Total=   1441438505
 MaxDsk= 67108864000 SrtSym=           T ITran=            4
 DoSDTr:  NPSUse= 16
 JobTyp=2 Pass  1:  I=   1 to   8.
 (rs|ai) integrals will be sorted in core.
 Complete sort for first half transformation.
 First half transformation complete.
 Complete sort for second half transformation.
 Second half transformation complete.
 Spin components of T(2) and E(2):
     alpha-alpha T2 =       0.4050828935D-01 E2=     -0.1187676140D+00
     alpha-beta  T2 =       0.1577426970D+00 E2=     -0.5765678238D+00
     beta-beta   T2 =       0.3141224768D-01 E2=     -0.9448704110D-01
 ANorm=    0.1109617994D+01
 E2 =    -0.7930811716D+00 EUMP2 =    -0.74261709360336D+02
 (S**2,0)=  0.20000D+01           (S**2,1)=  0.20000D+01
 E(PUHF)=      -0.73468628189D+02        E(PMP2)=      -0.74261709360D+02
 Recovering and transforming amplitudes from chk file.
 B after Tr=     0.000000    0.000000    0.000000
         Rot=    1.000000    0.000000    0.000000    0.000000 Ang=   0.00 deg.
 Alpha occ  Sing. vals= 9.999987D-01 9.999981D-01 9.999981D-01 9.999970D-01 9.999963D-01 9.999935D-01 9.999860D-01 9.999790D-01 9.999681D-01 9.999681D-01
 Alpha occ  NOrbO=    10 NOrbN=    10 NSVal=    10 ThrEig=  0.900000.
 TrMax= 1.000000D+00 PrMax= 1.000000D+00 Trace(Pr)= 1.000000D+01
 B after Tr=     0.000000    0.000000    0.000000
         Rot=    1.000000    0.000000    0.000000    0.000000 Ang=   0.00 deg.
 Alpha virt Sing. vals= 1.000000D+00 1.000000D+00 1.000000D+00 1.000000D+00 1.000000D+00 1.000000D+00 1.000000D+00 1.000000D+00 1.000000D+00 1.000000D+00
 Alpha virt Sing. vals= 1.000000D+00 1.000000D+00 1.000000D+00 1.000000D+00 1.000000D+00 1.000000D+00 1.000000D+00 1.000000D+00 1.000000D+00 1.000000D+00
 Alpha virt Sing. vals= 1.000000D+00 1.000000D+00 1.000000D+00 1.000000D+00 9.999999D-01 9.999999D-01 9.999999D-01 9.999999D-01 9.999999D-01 9.999999D-01
 Alpha virt Sing. vals= 9.999999D-01 9.999999D-01 9.999999D-01 9.999999D-01 9.999999D-01 9.999999D-01 9.999998D-01 9.999998D-01 9.999998D-01 9.999998D-01
 Alpha virt Sing. vals= 9.999998D-01 9.999997D-01 9.999997D-01 9.999995D-01 9.999995D-01 9.999995D-01 9.999994D-01 9.999994D-01 9.999993D-01 9.999993D-01
 Alpha virt Sing. vals= 9.999991D-01 9.999991D-01 9.999988D-01 9.999982D-01 9.999979D-01 9.999958D-01 9.999958D-01 9.999956D-01 9.999956D-01 9.999956D-01
 Alpha virt Sing. vals= 9.999951D-01 9.999951D-01 9.999948D-01 9.999926D-01 9.999896D-01 9.999859D-01 9.999850D-01 9.999841D-01 9.999841D-01 9.999804D-01
 Alpha virt Sing. vals= 9.999674D-01 9.999674D-01 9.999653D-01 9.999651D-01 9.999632D-01 9.999602D-01 9.999588D-01 9.999588D-01 9.999438D-01 9.999235D-01
 Alpha virt Sing. vals= 9.999221D-01 9.999211D-01 9.999176D-01 9.999174D-01 9.999167D-01 9.999167D-01 9.999036D-01 9.998915D-01 9.998915D-01 9.998689D-01
 Alpha virt Sing. vals= 9.998366D-01 9.998366D-01 9.997868D-01 9.997692D-01 9.997537D-01 9.997537D-01 9.997513D-01 9.997333D-01 9.997333D-01 9.997060D-01
 Alpha virt Sing. vals= 9.997052D-01 9.997052D-01 9.997040D-01 9.997039D-01 9.996972D-01 9.996746D-01 9.996746D-01 9.996462D-01 9.996236D-01 9.996236D-01
 Alpha virt Sing. vals= 9.995816D-01 9.995758D-01 9.995758D-01 9.995752D-01 9.995555D-01 9.995555D-01 9.995486D-01 9.995486D-01 9.995276D-01 9.995276D-01
 Alpha virt Sing. vals= 9.994751D-01 9.994751D-01 9.993926D-01 9.993926D-01 9.992986D-01 9.991545D-01 9.990099D-01 9.990099D-01 9.989333D-01 9.988649D-01
 Alpha virt Sing. vals= 9.987363D-01 9.987348D-01 9.984244D-01 9.983001D-01 9.982997D-01 9.982301D-01 9.982301D-01 9.981871D-01 9.980449D-01 9.975827D-01
 Alpha virt Sing. vals= 9.975827D-01 9.973399D-01 9.973399D-01 9.972769D-01 9.972766D-01 9.971920D-01 9.971920D-01 9.968782D-01 9.968090D-01 9.968090D-01
 Alpha virt Sing. vals= 9.968059D-01 9.968059D-01 9.967689D-01 9.967689D-01 9.965680D-01 9.964113D-01 9.964111D-01 9.964074D-01 9.960684D-01 9.960684D-01
 Alpha virt Sing. vals= 9.960345D-01 9.959925D-01 9.959925D-01 9.959767D-01 9.959763D-01 9.951653D-01 9.951653D-01 9.948752D-01 9.948742D-01 9.948742D-01
 Alpha virt Sing. vals= 9.941919D-01 9.930322D-01 9.930319D-01 9.929684D-01 9.914474D-01 9.905140D-01 9.905140D-01 9.903050D-01 9.892594D-01 9.892594D-01
 Alpha virt Sing. vals= 9.892323D-01 9.882868D-01 9.882868D-01 9.842409D-01 9.842407D-01 9.808718D-01 9.807365D-01 9.807364D-01 9.806948D-01 9.806948D-01
 Alpha virt Sing. vals= 9.800627D-01 9.786129D-01 9.786129D-01 9.776872D-01 9.776872D-01 9.756991D-01 9.752264D-01 9.752263D-01 9.716587D-01 9.716563D-01
 Alpha virt Sing. vals= 9.691416D-01 9.691416D-01 9.665859D-01 9.606241D-01 9.522557D-01 9.522557D-01 9.438610D-01 9.431588D-01 9.431586D-01 9.424361D-01
 Alpha virt Sing. vals= 9.357631D-01 9.357631D-01 9.357559D-01 9.343224D-01 9.336310D-01 9.336310D-01 9.303423D-01 9.303423D-01 9.255195D-01 9.255195D-01
 Alpha virt Sing. vals= 9.229953D-01 9.205964D-01 9.205963D-01 9.093864D-01 9.093864D-01 9.032507D-01 8.786223D-01 8.786210D-01 8.751525D-01 8.751525D-01
 Alpha virt Sing. vals= 8.717864D-01 8.717864D-01 8.546259D-01 8.546258D-01 8.515775D-01 8.515775D-01 8.484626D-01 8.484626D-01 8.453597D-01 8.453597D-01
 Alpha virt Sing. vals= 8.341240D-01 8.181133D-01 4.687409D-01
 Alpha virt NOrbO=   243 NOrbN=   370 NSVal=   226 ThrEig=  0.900000.
 TrMax= 9.998069D-01 PrMax= 9.998683D-01 Trace(Pr)= 2.260000D+02
 B after Tr=     0.000000    0.000000    0.000000
         Rot=    1.000000    0.000000    0.000000    0.000000 Ang=   0.00 deg.
 Beta  occ  Sing. vals= 9.999986D-01 9.999981D-01 9.999981D-01 9.999966D-01 9.999959D-01 9.999794D-01 9.999681D-01 9.999681D-01
 Beta  occ  NOrbO=     8 NOrbN=     8 NSVal=     8 ThrEig=  0.900000.
 TrMax= 1.000000D+00 PrMax= 1.000000D+00 Trace(Pr)= 8.000000D+00
 B after Tr=     0.000000    0.000000    0.000000
         Rot=    1.000000    0.000000    0.000000    0.000000 Ang=   0.00 deg.
 Beta  virt Sing. vals= 1.000000D+00 1.000000D+00 1.000000D+00 1.000000D+00 1.000000D+00 1.000000D+00 1.000000D+00 1.000000D+00 1.000000D+00 1.000000D+00
 Beta  virt Sing. vals= 1.000000D+00 1.000000D+00 1.000000D+00 1.000000D+00 1.000000D+00 1.000000D+00 1.000000D+00 1.000000D+00 1.000000D+00 1.000000D+00
 Beta  virt Sing. vals= 1.000000D+00 1.000000D+00 1.000000D+00 1.000000D+00 1.000000D+00 1.000000D+00 1.000000D+00 9.999999D-01 9.999999D-01 9.999999D-01
 Beta  virt Sing. vals= 9.999999D-01 9.999999D-01 9.999999D-01 9.999999D-01 9.999999D-01 9.999999D-01 9.999999D-01 9.999999D-01 9.999998D-01 9.999998D-01
 Beta  virt Sing. vals= 9.999998D-01 9.999998D-01 9.999998D-01 9.999998D-01 9.999997D-01 9.999995D-01 9.999995D-01 9.999995D-01 9.999994D-01 9.999994D-01
 Beta  virt Sing. vals= 9.999993D-01 9.999993D-01 9.999991D-01 9.999991D-01 9.999988D-01 9.999982D-01 9.999979D-01 9.999958D-01 9.999958D-01 9.999956D-01
 Beta  virt Sing. vals= 9.999956D-01 9.999956D-01 9.999951D-01 9.999951D-01 9.999948D-01 9.999926D-01 9.999897D-01 9.999859D-01 9.999849D-01 9.999841D-01
 Beta  virt Sing. vals= 9.999841D-01 9.999804D-01 9.999674D-01 9.999674D-01 9.999651D-01 9.999651D-01 9.999632D-01 9.999602D-01 9.999588D-01 9.999588D-01
 Beta  virt Sing. vals= 9.999438D-01 9.999235D-01 9.999221D-01 9.999211D-01 9.999176D-01 9.999176D-01 9.999167D-01 9.999167D-01 9.999036D-01 9.998915D-01
 Beta  virt Sing. vals= 9.998915D-01 9.998688D-01 9.998366D-01 9.998366D-01 9.997867D-01 9.997692D-01 9.997537D-01 9.997537D-01 9.997513D-01 9.997333D-01
 Beta  virt Sing. vals= 9.997333D-01 9.997060D-01 9.997052D-01 9.997052D-01 9.997040D-01 9.997040D-01 9.996972D-01 9.996746D-01 9.996746D-01 9.996462D-01
 Beta  virt Sing. vals= 9.996236D-01 9.996236D-01 9.995816D-01 9.995758D-01 9.995758D-01 9.995752D-01 9.995555D-01 9.995555D-01 9.995486D-01 9.995486D-01
 Beta  virt Sing. vals= 9.995276D-01 9.995276D-01 9.994751D-01 9.994751D-01 9.993926D-01 9.993926D-01 9.992986D-01 9.991545D-01 9.990099D-01 9.990099D-01
 Beta  virt Sing. vals= 9.989333D-01 9.988649D-01 9.987348D-01 9.987348D-01 9.984244D-01 9.982997D-01 9.982997D-01 9.982301D-01 9.982301D-01 9.981873D-01
 Beta  virt Sing. vals= 9.980449D-01 9.975827D-01 9.975827D-01 9.973399D-01 9.973399D-01 9.972766D-01 9.972766D-01 9.971920D-01 9.971920D-01 9.968780D-01
 Beta  virt Sing. vals= 9.968090D-01 9.968090D-01 9.968059D-01 9.968059D-01 9.967689D-01 9.967689D-01 9.965677D-01 9.964111D-01 9.964111D-01 9.964074D-01
 Beta  virt Sing. vals= 9.960684D-01 9.960684D-01 9.960346D-01 9.959925D-01 9.959925D-01 9.959767D-01 9.959767D-01 9.951653D-01 9.951653D-01 9.948752D-01
 Beta  virt Sing. vals= 9.948742D-01 9.948742D-01 9.941919D-01 9.930319D-01 9.930319D-01 9.929682D-01 9.914473D-01 9.905140D-01 9.905140D-01 9.903047D-01
 Beta  virt Sing. vals= 9.892594D-01 9.892594D-01 9.892318D-01 9.882868D-01 9.882868D-01 9.842407D-01 9.842407D-01 9.808718D-01 9.807364D-01 9.807364D-01
 Beta  virt Sing. vals= 9.806948D-01 9.806948D-01 9.800627D-01 9.786129D-01 9.786129D-01 9.776872D-01 9.776872D-01 9.756992D-01 9.752263D-01 9.752263D-01
 Beta  virt Sing. vals= 9.716563D-01 9.716563D-01 9.691416D-01 9.691416D-01 9.665858D-01 9.606241D-01 9.522557D-01 9.522557D-01 9.438609D-01 9.431586D-01
 Beta  virt Sing. vals= 9.431586D-01 9.424361D-01 9.357631D-01 9.357631D-01 9.357559D-01 9.343224D-01 9.336310D-01 9.336310D-01 9.303423D-01 9.303423D-01
 Beta  virt Sing. vals= 9.255195D-01 9.255195D-01 9.229951D-01 9.205963D-01 9.205963D-01 9.093864D-01 9.093864D-01 9.032508D-01 8.786210D-01 8.786210D-01
 Beta  virt Sing. vals= 8.751525D-01 8.751525D-01 8.717864D-01 8.717864D-01 8.546258D-01 8.546258D-01 8.515775D-01 8.515775D-01 8.484626D-01 8.484626D-01
 Beta  virt Sing. vals= 8.453597D-01 8.453597D-01 8.341245D-01 8.181132D-01 4.687409D-01
 Beta  virt NOrbO=   245 NOrbN=   372 NSVal=   228 ThrEig=  0.900000.
 TrMax= 9.999674D-01 PrMax= 9.999689D-01 Trace(Pr)= 2.280000D+02
 Leave Link  804 at Tue Mar 13 01:31:45 2018, MaxMem= 10737418240 cpu:           12316.6 elap:             770.8
 (Enter /home1/apps/gaussian/16rA.03/g16/l913.exe)
 CIDS:  MDV= 10737418240.
 IFCWin=0 IBDFC=1 NFBD=     0     0 NFCmp=     0     0 NFFFC=     0     0
 Amplitudes recovered.
 Using DD4UQ or CC4UQ for all iterations.
 Keep R2 and R3 ints in memory in symmetry-blocked form, NReq=3425132707.
 FoFCou: FMM=F IPFlag=           8 FMFlag=           0 FMFlg1=           0
         NFxFlg=           0 DoJE=F BraDBF=F KetDBF=F FulRan=T
         wScrn=  0.000000 ICntrl=       600 IOpCl=  0 I1Cent=           0 NGrid=           0
         NMat0=    1 NMatS0=  73920 NMatT0=    0 NMatD0=    1 NMtDS0=    0 NMtDT0=    0
 Petite list used in FoFCou.
 CIDS: In Core Option IDoMem=           1.
 CCSD(T)
 =======
 Iterations= 150 Convergence= 0.100D-06
 Produce multiple copies of IABC intergrals
 Iteration Nr.   1
 **********************
 DD1Dir will call FoFMem   1 times, MxPair=       234
 NAB=    80 NAA=    45 NBB=    28.
 Maximum subspace dimension=  5
 A-vector RMS=  1.6742093D-04 Max=  1.5131132D-03 conv= 1.00D-05.
 RLE energy=       -0.7696427634
 DE(Corr)= -0.76940065     E(Corr)=     -74.238028835    
 NORM(A)=   0.11693530D+01
 Iteration Nr.   2
 **********************
 DD1Dir will call FoFMem   1 times, MxPair=       234
 NAB=    80 NAA=    45 NBB=    28.
 A-vector RMS=  1.1583483D-04 Max=  1.4297728D-03 conv= 1.00D-05.
 RLE energy=       -0.7694408620
 DE(Corr)= -0.76947791     E(CORR)=     -74.238106099     Delta=-7.73D-05
 NORM(A)=   0.11708267D+01
 Iteration Nr.   3
 **********************
 DD1Dir will call FoFMem   1 times, MxPair=       234
 NAB=    80 NAA=    45 NBB=    28.
 A-vector RMS=  9.9577134D-05 Max=  1.3540624D-03 conv= 1.00D-05.
 RLE energy=       -0.7702477309
 DE(Corr)= -0.77058464     E(CORR)=     -74.239212827     Delta=-1.11D-03
 NORM(A)=   0.11707138D+01
 Iteration Nr.   4
 **********************
 DD1Dir will call FoFMem   1 times, MxPair=       234
 NAB=    80 NAA=    45 NBB=    28.
 A-vector RMS=  7.9918444D-05 Max=  9.5987369D-04 conv= 1.00D-05.
 RLE energy=       -0.7699180775
 DE(Corr)= -0.76954338     E(CORR)=     -74.238171573     Delta= 1.04D-03
 NORM(A)=   0.11712369D+01
 Iteration Nr.   5
 **********************
 DD1Dir will call FoFMem   1 times, MxPair=       234
 NAB=    80 NAA=    45 NBB=    28.
 A-vector RMS=  2.4363930D-05 Max=  5.6969661D-04 conv= 1.00D-05.
 RLE energy=       -0.7700082042
 DE(Corr)= -0.77008352     E(CORR)=     -74.238711706     Delta=-5.40D-04
 NORM(A)=   0.11717428D+01
 Iteration Nr.   6
 **********************
 DD1Dir will call FoFMem   1 times, MxPair=       234
 NAB=    80 NAA=    45 NBB=    28.
 A-vector RMS=  1.9015668D-05 Max=  3.7663774D-04 conv= 1.00D-05.
 RLE energy=       -0.7700165582
 DE(Corr)= -0.76997960     E(CORR)=     -74.238607792     Delta= 1.04D-04
 NORM(A)=   0.11722342D+01
 Iteration Nr.   7
 **********************
 DD1Dir will call FoFMem   1 times, MxPair=       234
 NAB=    80 NAA=    45 NBB=    28.
 A-vector RMS=  1.3317501D-05 Max=  1.8950578D-04 conv= 1.00D-05.
 RLE energy=       -0.7700309416
 DE(Corr)= -0.77003266     E(CORR)=     -74.238660852     Delta=-5.31D-05
 NORM(A)=   0.11724015D+01
 Iteration Nr.   8
 **********************
 DD1Dir will call FoFMem   1 times, MxPair=       234
 NAB=    80 NAA=    45 NBB=    28.
 A-vector RMS=  6.8812060D-06 Max=  1.3867250D-04 conv= 1.00D-05.
 RLE energy=       -0.7700301433
 DE(Corr)= -0.77003888     E(CORR)=     -74.238667065     Delta=-6.21D-06
 NORM(A)=   0.11725340D+01
 Iteration Nr.   9
 **********************
 DD1Dir will call FoFMem   1 times, MxPair=       234
 NAB=    80 NAA=    45 NBB=    28.
 A-vector RMS=  6.8326025D-06 Max=  1.3051870D-04 conv= 1.00D-05.
 RLE energy=       -0.7700740442
 DE(Corr)= -0.77005602     E(CORR)=     -74.238684208     Delta=-1.71D-05
 NORM(A)=   0.11725483D+01
 Iteration Nr.  10
 **********************
 DD1Dir will call FoFMem   1 times, MxPair=       234
 NAB=    80 NAA=    45 NBB=    28.
 A-vector RMS=  6.1143929D-06 Max=  8.0420709D-05 conv= 1.00D-05.
 RLE energy=       -0.7700265864
 DE(Corr)= -0.77000572     E(CORR)=     -74.238633906     Delta= 5.03D-05
 NORM(A)=   0.11725878D+01
 Iteration Nr.  11
 **********************
 DD1Dir will call FoFMem   1 times, MxPair=       234
 NAB=    80 NAA=    45 NBB=    28.
 A-vector RMS=  5.6184098D-06 Max=  6.6881946D-05 conv= 1.00D-05.
 RLE energy=       -0.7700512273
 DE(Corr)= -0.77007533     E(CORR)=     -74.238703515     Delta=-6.96D-05
 NORM(A)=   0.11725909D+01
 Iteration Nr.  12
 **********************
 DD1Dir will call FoFMem   1 times, MxPair=       234
 NAB=    80 NAA=    45 NBB=    28.
 A-vector RMS=  1.6087008D-06 Max=  4.1547972D-05 conv= 1.00D-05.
 RLE energy=       -0.7700478865
 DE(Corr)= -0.77004110     E(CORR)=     -74.238669284     Delta= 3.42D-05
 NORM(A)=   0.11725938D+01
 Iteration Nr.  13
 **********************
 DD1Dir will call FoFMem   1 times, MxPair=       234
 NAB=    80 NAA=    45 NBB=    28.
 A-vector RMS=  1.6788910D-06 Max=  2.6483604D-05 conv= 1.00D-05.
 RLE energy=       -0.7700475670
 DE(Corr)= -0.77004826     E(CORR)=     -74.238676451     Delta=-7.17D-06
 NORM(A)=   0.11725930D+01
 Iteration Nr.  14
 **********************
 DD1Dir will call FoFMem   1 times, MxPair=       234
 NAB=    80 NAA=    45 NBB=    28.
 A-vector RMS=  6.9759083D-07 Max=  1.1961512D-05 conv= 1.00D-05.
 RLE energy=       -0.7700477934
 DE(Corr)= -0.77004804     E(CORR)=     -74.238676226     Delta= 2.25D-07
 NORM(A)=   0.11725901D+01
 Iteration Nr.  15
 **********************
 DD1Dir will call FoFMem   1 times, MxPair=       234
 NAB=    80 NAA=    45 NBB=    28.
 A-vector RMS=  8.5777409D-07 Max=  2.0682912D-05 conv= 1.00D-05.
 RLE energy=       -0.7700500403
 DE(Corr)= -0.77004774     E(CORR)=     -74.238675933     Delta= 2.93D-07
 NORM(A)=   0.11725842D+01
 Iteration Nr.  16
 **********************
 DD1Dir will call FoFMem   1 times, MxPair=       234
 NAB=    80 NAA=    45 NBB=    28.
 A-vector RMS=  6.9477287D-07 Max=  1.0027942D-05 conv= 1.00D-05.
 RLE energy=       -0.7700439441
 DE(Corr)= -0.77004424     E(CORR)=     -74.238672429     Delta= 3.50D-06
 NORM(A)=   0.11725834D+01
 Iteration Nr.  17
 **********************
 DD1Dir will call FoFMem   1 times, MxPair=       234
 NAB=    80 NAA=    45 NBB=    28.
 A-vector RMS=  8.2698444D-07 Max=  1.1299340D-05 conv= 1.00D-05.
 RLE energy=       -0.7700486692
 DE(Corr)= -0.77005241     E(CORR)=     -74.238680598     Delta=-8.17D-06
 NORM(A)=   0.11725773D+01
 Iteration Nr.  18
 **********************
 DD1Dir will call FoFMem   1 times, MxPair=       234
 NAB=    80 NAA=    45 NBB=    28.
 A-vector RMS=  5.0533794D-07 Max=  6.2292569D-06 conv= 1.00D-05.
 RLE energy=       -0.7700473684
 DE(Corr)= -0.77004519     E(CORR)=     -74.238673382     Delta= 7.22D-06
 NORM(A)=   0.11725751D+01
 Iteration Nr.  19
 **********************
 DD1Dir will call FoFMem   1 times, MxPair=       234
 NAB=    80 NAA=    45 NBB=    28.
 A-vector RMS=  2.5109143D-07 Max=  5.0411737D-06 conv= 1.00D-05.
 RLE energy=       -0.7700471815
 DE(Corr)= -0.77004705     E(CORR)=     -74.238675241     Delta=-1.86D-06
 NORM(A)=   0.11725717D+01
 Iteration Nr.  20
 **********************
 DD1Dir will call FoFMem   1 times, MxPair=       234
 NAB=    80 NAA=    45 NBB=    28.
 A-vector RMS=  2.6222504D-07 Max=  4.6279544D-06 conv= 1.00D-05.
 RLE energy=       -0.7700472159
 DE(Corr)= -0.77004679     E(CORR)=     -74.238674976     Delta= 2.65D-07
 NORM(A)=   0.11725699D+01
 Iteration Nr.  21
 **********************
 DD1Dir will call FoFMem   1 times, MxPair=       234
 NAB=    80 NAA=    45 NBB=    28.
 A-vector RMS=  1.3432522D-07 Max=  2.2875473D-06 conv= 1.00D-05.
 RLE energy=       -0.7700473287
 DE(Corr)= -0.77004662     E(CORR)=     -74.238674811     Delta= 1.65D-07
 NORM(A)=   0.11725677D+01
 Iteration Nr.  22
 **********************
 DD1Dir will call FoFMem   1 times, MxPair=       234
 NAB=    80 NAA=    45 NBB=    28.
 A-vector RMS=  1.8237153D-07 Max=  4.0233975D-06 conv= 1.00D-05.
 RLE energy=       -0.7700458149
 DE(Corr)= -0.77004619     E(CORR)=     -74.238674376     Delta= 4.35D-07
 NORM(A)=   0.11725670D+01
 Iteration Nr.  23
 **********************
 DD1Dir will call FoFMem   1 times, MxPair=       234
 NAB=    80 NAA=    45 NBB=    28.
 A-vector RMS=  2.0494000D-07 Max=  3.1082685D-06 conv= 1.00D-05.
 RLE energy=       -0.7700470996
 DE(Corr)= -0.77004811     E(CORR)=     -74.238676302     Delta=-1.93D-06
 NORM(A)=   0.11725659D+01
 Iteration Nr.  24
 **********************
 DD1Dir will call FoFMem   1 times, MxPair=       234
 NAB=    80 NAA=    45 NBB=    28.
 A-vector RMS=  1.2110635D-07 Max=  1.5229972D-06 conv= 1.00D-05.
 RLE energy=       -0.7700466537
 DE(Corr)= -0.77004620     E(CORR)=     -74.238674384     Delta= 1.92D-06
 NORM(A)=   0.11725656D+01
 Iteration Nr.  25
 **********************
 DD1Dir will call FoFMem   1 times, MxPair=       234
 NAB=    80 NAA=    45 NBB=    28.
 A-vector RMS=  6.6847829D-08 Max=  1.6376788D-06 conv= 1.00D-05.
 RLE energy=       -0.7700466516
 DE(Corr)= -0.77004679     E(CORR)=     -74.238674982     Delta=-5.98D-07
 NORM(A)=   0.11725653D+01
 Iteration Nr.  26
 **********************
 DD1Dir will call FoFMem   1 times, MxPair=       234
 NAB=    80 NAA=    45 NBB=    28.
 A-vector RMS=  5.0887448D-08 Max=  9.7762778D-07 conv= 1.00D-05.
 RLE energy=       -0.7700466633
 DE(Corr)= -0.77004668     E(CORR)=     -74.238674870     Delta= 1.12D-07
 NORM(A)=   0.11725652D+01
 Iteration Nr.  27
 **********************
 DD1Dir will call FoFMem   1 times, MxPair=       234
 NAB=    80 NAA=    45 NBB=    28.
 A-vector RMS=  3.8487850D-08 Max=  6.3618983D-07 conv= 1.00D-05.
 RLE energy=       -0.7700466690
 DE(Corr)= -0.77004664     E(CORR)=     -74.238674833     Delta= 3.77D-08
 NORM(A)=   0.11725651D+01
 CI/CC converged in   27 iterations to DelEn= 3.77D-08 Conv= 1.00D-07 ErrA1= 3.85D-08 Conv= 1.00D-05
 Wavefunction amplitudes converged. E(Corr)=     -74.238674833    
 Dominant configurations:
 ***********************
 Spin Case        I    J    A    B          Value
    AA            7        13           -0.105238D+00
    AA           10        13            0.147537D+00
    AA            8        25            0.127568D+00
    AA            9        26            0.127568D+00
 Largest amplitude= 1.48D-01
 Time for triples=    46859.86 seconds.
 T4(CCSD)= -0.84950283D-01
 T5(CCSD)=  0.26161882D-01
 CCSD(T)= -0.74297463234D+02
 Discarding MO integrals.
 Leave Link  913 at Tue Mar 13 02:42:20 2018, MaxMem= 10737418240 cpu:           67611.1 elap:            4234.2
 (Enter /home1/apps/gaussian/16rA.03/g16/l601.exe)
 Copying SCF densities to generalized density rwf, IOpCl= 0 IROHF=1.

 **********************************************************************

            Population analysis using the SCF density.

 **********************************************************************

 Orbital symmetries:
       Occupied  (SG) (SG) (PI) (PI) (SG) (SG) (PI) (PI) (?A) (SG)
       Virtual   (PI) (PI) (SG) (SG) (PI) (PI) (?A) (?A) (SG) (PI)
                 (PI) (SG) (?A) (SG) (PI) (PI) (?A) (SG) (PI) (PI)
                 (?A) (SG) (PI) (PI) (SG) (PHI) (PHI) (DLTA) (DLTA)
                 (PI) (PI) (SG) (PI) (PI) (SG) (?A) (?A) (SG) (PI)
                 (PI) (SG) (SG) (PI) (PI) (SG) (?B) (?B) (DLTA)
                 (DLTA) (?C) (?C) (?C) (?C) (DLTA) (DLTA) (SG)
                 (PHI) (PHI) (PI) (PI) (SG) (?A) (?A) (PI) (PI)
                 (?A) (?A) (SG) (PI) (PI) (SG) (PI) (PI) (SG) (SG)
                 (PI) (PI) (PHI) (PHI) (SG) (?D) (?D) (?E) (?E)
                 (?E) (DLTA) (DLTA) (PI) (PI) (SG) (DLTA) (DLTA)
                 (?C) (?C) (?C) (?C) (DLTA) (DLTA) (?F) (?F) (?G)
                 (?G) (?G) (?A) (?F) (?F) (?A) (?F) (?F) (?F) (?F)
                 (DLTA) (DLTA) (SG) (SG) (PI) (PI) (DLTA) (DLTA)
                 (SG) (PI) (PI) (SG) (PI) (PI) (SG) (PI) (PI) (?B)
                 (?B) (SG) (PHI) (PHI) (DLTA) (DLTA) (SG) (PI)
                 (PI) (PHI) (PHI) (DLTA) (DLTA) (SG) (PI) (PI)
                 (DLTA) (DLTA) (PI) (PI) (SG) (DLTA) (DLTA) (SG)
                 (SG) (?H) (?H) (?H) (?H) (?B) (?B) (PHI) (PHI)
                 (DLTA) (DLTA) (?H) (?H) (?H) (?H) (SG) (SG) (DLTA)
                 (DLTA) (?B) (?B) (PHI) (PHI) (DLTA) (DLTA) (PI)
                 (PI) (PI) (PI) (SG) (SG) (PI) (PI) (SG) (DLTA)
                 (DLTA) (PI) (PI) (SG) (PI) (PI) (SG) (?B) (?B)
                 (PHI) (PHI) (SG) (DLTA) (DLTA) (PI) (PI) (SG)
                 (PHI) (PHI) (DLTA) (DLTA) (PI) (PI) (SG) (DLTA)
                 (DLTA) (PI) (PI) (PHI) (PHI) (DLTA) (DLTA) (SG)
                 (SG) (PI) (PI) (PI) (PI) (SG) (SG) (?B) (?B) (PHI)
                 (PHI) (DLTA) (DLTA) (PI) (PI) (DLTA) (DLTA) (PI)
                 (PI) (SG) (?I) (?I) (?J) (?J) (?J) (?J) (DLTA)
                 (DLTA) (?I) (?J) (?J) (SG) (SG) (PI) (PI) (SG)
                 (DLTA) (DLTA) (PI) (PI) (SG) (PI) (PI) (SG) (SG)
                 (DLTA) (DLTA) (PI) (PI) (SG) (DLTA) (DLTA) (PI)
                 (PI) (SG) (PI) (PI) (SG) (SG) (SG) (PI) (PI) (SG)
                 (PI) (PI) (SG) (SG) (PHI) (PHI) (DLTA) (DLTA)
                 (PI) (PI) (SG) (DLTA) (DLTA) (PI) (PI) (SG) (SG)
                 (PI) (PI) (SG) (SG) (PI) (PI) (SG) (DLTA) (DLTA)
                 (PI) (PI) (SG) (SG) (DLTA) (DLTA) (PI) (PI) (SG)
                 (PI) (PI) (SG) (SG) (PI) (PI) (SG) (SG) (SG) (SG)
                 (PI) (PI) (SG) (PI) (PI) (SG) (DLTA) (DLTA) (PI)
                 (PI) (SG) (SG) (SG) (PI) (PI) (SG) (SG) (SG) (PI)
                 (PI) (SG) (SG) (SG) (PI) (PI) (SG) (SG) (PI) (PI)
                 (SG) (SG) (SG) (PI) (PI) (SG) (SG) (SG) (SG) (SG)
                 (SG) (SG)
 Unable to determine electronic state:  an orbital has unidentified symmetry.
 Alpha  occ. eigenvalues --   -3.11404  -1.96904  -1.96904  -1.92212  -1.12337
 Alpha  occ. eigenvalues --   -0.52225  -0.41466  -0.37355  -0.37355  -0.29857
 Alpha virt. eigenvalues --   -0.01018  -0.01018   0.00063   0.01799   0.02838
 Alpha virt. eigenvalues --    0.02838   0.03207   0.03501   0.03670   0.04396
 Alpha virt. eigenvalues --    0.04396   0.04773   0.06479   0.09704   0.09820
 Alpha virt. eigenvalues --    0.09820   0.11104   0.11188   0.12646   0.12646
 Alpha virt. eigenvalues --    0.13506   0.13902   0.15871   0.15871   0.18501
 Alpha virt. eigenvalues --    0.20997   0.20997   0.21685   0.21695   0.24041
 Alpha virt. eigenvalues --    0.24041   0.24984   0.25392   0.25392   0.26813
 Alpha virt. eigenvalues --    0.30350   0.34251   0.35812   0.37348   0.37348
 Alpha virt. eigenvalues --    0.38914   0.44037   0.45268   0.45268   0.56204
 Alpha virt. eigenvalues --    0.59546   0.59546   0.59649   0.59679   0.60018
 Alpha virt. eigenvalues --    0.60018   0.60308   0.60308   0.62624   0.62828
 Alpha virt. eigenvalues --    0.63512   0.68922   0.68922   0.71394   0.71394
 Alpha virt. eigenvalues --    0.73150   0.78350   0.81918   0.82810   0.82810
 Alpha virt. eigenvalues --    0.86262   0.87840   0.89127   0.93005   0.93005
 Alpha virt. eigenvalues --    0.98655   1.18197   1.18197   1.22830   1.30615
 Alpha virt. eigenvalues --    1.31084   1.31084   1.46035   1.46035   1.47923
 Alpha virt. eigenvalues --    1.52845   1.52845   1.54423   1.54423   1.56538
 Alpha virt. eigenvalues --    1.58480   1.58534   1.63681   1.63681   1.67395
 Alpha virt. eigenvalues --    1.68684   1.68742   1.73929   1.73929   1.74633
 Alpha virt. eigenvalues --    1.74633   1.84055   1.84087   1.89186   1.89186
 Alpha virt. eigenvalues --    1.93777   1.93784   1.94160   1.95586   1.99039
 Alpha virt. eigenvalues --    1.99039   1.99764   2.01450   2.01450   2.02702
 Alpha virt. eigenvalues --    2.02702   2.07177   2.09745   2.10181   2.18508
 Alpha virt. eigenvalues --    2.42483   2.42483   2.46755   2.46758   2.55237
 Alpha virt. eigenvalues --    2.80826   2.80826   2.88169   3.21984   3.21984
 Alpha virt. eigenvalues --    3.30883   3.32245   3.32245   3.81731   3.81731
 Alpha virt. eigenvalues --    3.87572   3.95611   3.95611   4.02059   4.02256
 Alpha virt. eigenvalues --    4.04879   4.17993   4.17993   4.31657   4.31657
 Alpha virt. eigenvalues --    4.33559   4.35975   4.37255   4.37764   4.37764
 Alpha virt. eigenvalues --    4.50532   4.50546   4.53551   4.53551   4.55746
 Alpha virt. eigenvalues --    4.68585   4.68683   4.70265   4.84352   5.03778
 Alpha virt. eigenvalues --    5.03778   5.04677   5.04677   5.05805   5.05806
 Alpha virt. eigenvalues --    5.10683   5.10683   5.16402   5.17972   5.19486
 Alpha virt. eigenvalues --    5.19486   5.29073   5.29073   5.39545   5.45247
 Alpha virt. eigenvalues --    5.57773   5.58563   5.87682   5.87692   5.90589
 Alpha virt. eigenvalues --    5.90589   6.05762   6.06152   6.26502   6.26502
 Alpha virt. eigenvalues --    6.53596   6.53596   6.66279   6.78899   7.16862
 Alpha virt. eigenvalues --    7.16862   7.47818   8.49915   8.50702   8.56536
 Alpha virt. eigenvalues --    8.56536   8.77726   9.52125   9.52125  10.51271
 Alpha virt. eigenvalues --   10.78831  10.78831  10.87945  10.87945  10.92508
 Alpha virt. eigenvalues --   11.05795  11.05797  11.13076  11.13076  11.20741
 Alpha virt. eigenvalues --   12.04959  12.04959  12.14191  12.14192  12.31584
 Alpha virt. eigenvalues --   12.31584  12.58084  12.82707  12.82721  13.09423
 Alpha virt. eigenvalues --   13.09423  13.16050  13.16050  13.22170  13.23123
 Alpha virt. eigenvalues --   13.30734  13.61308  13.74378  13.74378  13.94206
 Alpha virt. eigenvalues --   13.94206  14.08294  14.42849  15.09691  15.09693
 Alpha virt. eigenvalues --   15.10299  15.10299  15.17338  15.17471  15.31547
 Alpha virt. eigenvalues --   15.31547  15.43037  15.43576  15.48423  15.48423
 Alpha virt. eigenvalues --   15.59523  15.67352  15.67353  15.67771  15.67771
 Alpha virt. eigenvalues --   15.68172  15.68172  15.74587  15.75116  15.85326
 Alpha virt. eigenvalues --   15.89707  15.89707  16.19881  24.42583  26.05969
 Alpha virt. eigenvalues --   26.05969  26.22715  26.69478  26.70808  26.73711
 Alpha virt. eigenvalues --   26.73711  27.03926  28.00613  28.00613  28.97984
 Alpha virt. eigenvalues --   34.46729  46.80811  46.80812  47.02994  47.02994
 Alpha virt. eigenvalues --   47.14969  48.41894  48.43259  48.45089  48.45089
 Alpha virt. eigenvalues --   48.63008  49.18874  49.18874  49.45164  52.32825
 Alpha virt. eigenvalues --   67.87575  69.45933  69.45933  70.29032  93.86313
 Alpha virt. eigenvalues --   93.86313  94.07651  97.92652 103.00438 103.00438
 Alpha virt. eigenvalues --  103.01306 103.01306 103.03313 103.03313 103.06049
 Alpha virt. eigenvalues --  104.39387 104.40195 104.41914 104.41914 104.60051
 Alpha virt. eigenvalues --  121.22546 154.24930 154.24930 154.97078 180.37776
 Alpha virt. eigenvalues --  180.41080 180.41080 180.64225 206.77495 206.77495
 Alpha virt. eigenvalues --  206.89646 206.89646 206.95862 209.66365 269.06602
 Alpha virt. eigenvalues --  269.06900 269.08632 269.08632 269.21777 324.49472
 Alpha virt. eigenvalues --  324.49472 325.14851 343.44727 351.78115 351.78115
 Alpha virt. eigenvalues --  351.99368 357.66522 611.81809 673.49302 690.76557
 Alpha virt. eigenvalues --  690.76557 691.36518 705.34004 705.34004 705.54484
 Alpha virt. eigenvalues --  857.35444 857.35507 857.36883 857.36883 857.45547
 Alpha virt. eigenvalues -- 1089.709361364.230401477.274951477.274951477.46400
 Alpha virt. eigenvalues -- 2262.053422867.854073293.402563293.402563293.57344
 Alpha virt. eigenvalues -- 6140.744816286.305438038.300488038.300488038.44947
 Alpha virt. eigenvalues -- **************************************************
 Alpha virt. eigenvalues -- **************************************************
 Alpha virt. eigenvalues -- **************************************************
     Molecular Orbital Coefficients:
                           4         5         6         7         8
                           O         O         O         O         O
     Eigenvalues --    -1.92212  -1.12337  -0.52225  -0.41466  -0.37355
   1 1   Ti 1S          0.00000   0.00000  -0.00000   0.00000   0.00000
   2        2S          0.00000  -0.00000   0.00000   0.00000   0.00000
   3        3S          0.00000   0.00000  -0.00000   0.00000   0.00000
   4        4S          0.00000  -0.00000   0.00000   0.00000   0.00000
   5        5S          0.00000   0.00000  -0.00000   0.00000   0.00000
   6        6S          0.00000  -0.00000   0.00000   0.00000   0.00000
   7        7S          0.00000   0.00000  -0.00001   0.00000   0.00000
   8        8S          0.00000  -0.00001   0.00002   0.00000   0.00000
   9        9S          0.00000   0.00003  -0.00007   0.00000   0.00000
  10       10S          0.00000  -0.00010   0.00018   0.00000   0.00000
  11       11S          0.00000   0.00026  -0.00049   0.00000   0.00000
  12       12S          0.00000  -0.00064   0.00124   0.00000   0.00000
  13       13S          0.00000   0.00155  -0.00300   0.00000   0.00000
  14       14S          0.00000  -0.00451   0.00879   0.00000   0.00000
  15       15S          0.00000   0.00001  -0.00121   0.00000   0.00000
  16       16S          0.00000   0.07704  -0.14212   0.00000   0.00000
  17       17S          0.00000  -0.04101   0.07572   0.00000   0.00000
  18       18S          0.00000  -0.20106   0.37529   0.00000   0.00000
  19       19S          0.00000  -0.00781   0.05389   0.00000   0.00000
  20       20S          0.00000   0.01504  -0.13149   0.00000   0.00000
  21       21S          0.00000   0.00164  -0.06770   0.00000   0.00000
  22       22S          0.00000   0.00111  -0.00390   0.00000   0.00000
  23       23S          0.00000  -0.03800   0.07008   0.00000   0.00000
  24       24S          0.00000   0.13869  -0.25165   0.00000   0.00000
  25       25S          0.00000   0.00003  -0.00087   0.00000   0.00000
  26       26PX         0.00000   0.00000   0.00000   0.00000  -0.00000
  27       26PY         0.00000   0.00000   0.00000  -0.00000   0.00000
  28       26PZ         0.00000   0.00000  -0.00000   0.00000   0.00000
  29       27PX        -0.00000   0.00000   0.00000   0.00000   0.00000
  30       27PY         0.00000   0.00000   0.00000   0.00000   0.00000
  31       27PZ         0.00000  -0.00000   0.00000   0.00000   0.00000
  32       28PX         0.00001   0.00000   0.00000   0.00000  -0.00000
  33       28PY         0.00000   0.00000   0.00000  -0.00000   0.00000
  34       28PZ         0.00000   0.00000  -0.00000   0.00000   0.00000
  35       29PX        -0.00002   0.00000   0.00000   0.00000   0.00000
  36       29PY         0.00000   0.00000   0.00000   0.00000   0.00000
  37       29PZ         0.00000  -0.00000   0.00000   0.00000   0.00000
  38       30PX         0.00008   0.00000   0.00000   0.00000  -0.00001
  39       30PY         0.00000   0.00000   0.00000  -0.00001   0.00000
  40       30PZ         0.00000   0.00001  -0.00001   0.00000   0.00000
  41       31PX        -0.00028   0.00000   0.00000   0.00000   0.00002
  42       31PY         0.00000   0.00000   0.00000   0.00002   0.00000
  43       31PZ         0.00000  -0.00004   0.00002   0.00000   0.00000
  44       32PX         0.00085   0.00000   0.00000   0.00000  -0.00007
  45       32PY         0.00000   0.00000   0.00000  -0.00007   0.00000
  46       32PZ         0.00000   0.00012  -0.00007   0.00000   0.00000
  47       33PX        -0.00254   0.00000   0.00000   0.00000   0.00020
  48       33PY         0.00000   0.00000   0.00000   0.00020   0.00000
  49       33PZ         0.00000  -0.00035   0.00022   0.00000   0.00000
  50       34PX         0.00815   0.00000   0.00000   0.00000  -0.00066
  51       34PY         0.00000   0.00000   0.00000  -0.00066   0.00000
  52       34PZ         0.00000   0.00115  -0.00078   0.00000   0.00000
  53       35PX        -0.02094   0.00000   0.00000   0.00000   0.00181
  54       35PY         0.00000   0.00000   0.00000   0.00181   0.00000
  55       35PZ         0.00000  -0.00303   0.00207   0.00000   0.00000
[...]
 164       61F+3        0.00001   0.00001   0.00001   0.00000
 165       61F-3        0.00001   0.00001   0.00001   0.00000
 166       62F 0        0.00022   0.00011   0.00011   0.00000
 167       62F+1        0.00006   0.00003   0.00003   0.00000
 168       62F-1        0.00006   0.00003   0.00003   0.00000
 169       62F+2       -0.00000  -0.00000   0.00000  -0.00000
 170       62F-2       -0.00000  -0.00000   0.00000  -0.00000
 171       62F+3        0.00004   0.00002   0.00002   0.00000
 172       62F-3        0.00004   0.00002   0.00002   0.00000
 173       63F 0        0.00347   0.00172   0.00174  -0.00002
 174       63F+1        0.00229   0.00115   0.00115   0.00000
 175       63F-1        0.00229   0.00115   0.00115   0.00000
 176       63F+2        0.00017   0.00017  -0.00000   0.00017
 177       63F-2        0.00000   0.00000   0.00000   0.00000
 178       63F+3        0.00006   0.00003   0.00003   0.00000
 179       63F-3        0.00006   0.00003   0.00003   0.00000
 180       64F 0        0.00329   0.00164   0.00166  -0.00002
 181       64F+1        0.01091   0.00546   0.00546   0.00000
 182       64F-1        0.01091   0.00546   0.00546   0.00000
 183       64F+2        0.00035   0.00035  -0.00000   0.00035
 184       64F-2        0.00000   0.00000  -0.00000   0.00000
 185       64F+3        0.00001   0.00000   0.00000   0.00000
 186       64F-3        0.00001   0.00000   0.00000   0.00000
 187       65F 0       -0.00150  -0.00073  -0.00077   0.00003
 188       65F+1        0.00063   0.00032   0.00032   0.00000
 189       65F-1        0.00063   0.00032   0.00032   0.00000
 190       65F+2        0.00001   0.00001   0.00000   0.00001
 191       65F-2        0.00000   0.00000   0.00000   0.00000
 192       65F+3       -0.00000  -0.00000  -0.00000  -0.00000
 193       65F-3       -0.00000  -0.00000  -0.00000   0.00000
 194       66G 0        0.00000   0.00000   0.00000   0.00000
 195       66G+1        0.00000   0.00000   0.00000   0.00000
 196       66G-1        0.00000   0.00000   0.00000   0.00000
 197       66G+2        0.00000   0.00000   0.00000   0.00000
 198       66G-2        0.00000   0.00000   0.00000   0.00000
 199       66G+3        0.00000   0.00000   0.00000   0.00000
 200       66G-3        0.00000   0.00000   0.00000   0.00000
 201       66G+4        0.00000   0.00000   0.00000   0.00000
 202       66G-4        0.00000   0.00000   0.00000   0.00000
 203       67G 0        0.00009   0.00004   0.00004  -0.00000
 204       67G+1        0.00004   0.00002   0.00002   0.00000
 205       67G-1        0.00004   0.00002   0.00002   0.00000
 206       67G+2        0.00001   0.00001   0.00000   0.00001
 207       67G-2        0.00000   0.00000   0.00000   0.00000
 208       67G+3        0.00000   0.00000   0.00000   0.00000
 209       67G-3        0.00000   0.00000   0.00000   0.00000
 210       67G+4        0.00000   0.00000   0.00000   0.00000
 211       67G-4        0.00000   0.00000   0.00000   0.00000
 212       68G 0        0.00108   0.00054   0.00054  -0.00000
 213       68G+1        0.00170   0.00085   0.00085   0.00000
 214       68G-1        0.00170   0.00085   0.00085   0.00000
 215       68G+2        0.00003   0.00003   0.00000   0.00003
 216       68G-2        0.00000   0.00000   0.00000   0.00000
 217       68G+3        0.00000   0.00000   0.00000   0.00000
 218       68G-3        0.00000   0.00000   0.00000   0.00000
 219       68G+4        0.00001   0.00001   0.00000   0.00001
 220       68G-4        0.00000   0.00000   0.00000   0.00000
 221       69G 0       -0.00099  -0.00050  -0.00050  -0.00000
 222       69G+1        0.00133   0.00067   0.00067   0.00000
 223       69G-1        0.00133   0.00067   0.00067   0.00000
 224       69G+2        0.00000   0.00000   0.00000   0.00000
 225       69G-2        0.00000   0.00000   0.00000   0.00000
 226       69G+3        0.00000   0.00000   0.00000   0.00000
 227       69G-3        0.00000   0.00000   0.00000   0.00000
 228       69G+4        0.00000   0.00000  -0.00000   0.00000
 229       69G-4        0.00000   0.00000  -0.00000   0.00000
 230       70H 0        0.00000   0.00000   0.00000   0.00000
 231       70H+1        0.00000   0.00000   0.00000   0.00000
 232       70H-1        0.00000   0.00000   0.00000   0.00000
 233       70H+2        0.00000   0.00000  -0.00000   0.00000
 234       70H-2        0.00000   0.00000  -0.00000   0.00000
 235       70H+3        0.00000   0.00000   0.00000   0.00000
 236       70H-3        0.00000   0.00000   0.00000   0.00000
 237       70H+4        0.00000   0.00000   0.00000  -0.00000
 238       70H-4        0.00000   0.00000   0.00000  -0.00000
 239       70H+5        0.00000   0.00000   0.00000   0.00000
 240       70H-5        0.00000   0.00000   0.00000   0.00000
 241       71H 0        0.00007   0.00003   0.00003   0.00000
 242       71H+1        0.00004   0.00002   0.00002   0.00000
 243       71H-1        0.00004   0.00002   0.00002   0.00000
 244       71H+2       -0.00000  -0.00000   0.00000  -0.00000
 245       71H-2       -0.00000  -0.00000   0.00000  -0.00000
 246       71H+3        0.00000   0.00000   0.00000   0.00000
 247       71H-3        0.00000   0.00000   0.00000   0.00000
 248       71H+4        0.00000   0.00000   0.00000   0.00000
 249       71H-4        0.00000   0.00000   0.00000   0.00000
 250       71H+5        0.00000   0.00000   0.00000   0.00000
 251       71H-5        0.00000   0.00000   0.00000   0.00000
 252       72H 0        0.00007   0.00003   0.00003   0.00000
 253       72H+1        0.00078   0.00039   0.00039   0.00000
 254       72H-1        0.00078   0.00039   0.00039   0.00000
 255       72H+2       -0.00000  -0.00000  -0.00000  -0.00000
 256       72H-2       -0.00000  -0.00000  -0.00000  -0.00000
 257       72H+3        0.00000   0.00000   0.00000   0.00000
 258       72H-3        0.00000   0.00000   0.00000   0.00000
 259       72H+4        0.00000   0.00000   0.00000   0.00000
 260       72H-4        0.00000   0.00000   0.00000   0.00000
 261       72H+5        0.00000   0.00000   0.00000   0.00000
 262       72H-5        0.00000   0.00000   0.00000   0.00000
 263 2   O  1S         -0.00000  -0.00000  -0.00000  -0.00000
 264        2S          0.00000   0.00000   0.00000   0.00000
 265        3S         -0.00000  -0.00000  -0.00000  -0.00000
 266        4S          0.00000   0.00000   0.00000   0.00000
 267        5S         -0.00000  -0.00000  -0.00000  -0.00000
 268        6S         -0.00008  -0.00004  -0.00004  -0.00000
 269        7S         -0.00067  -0.00034  -0.00034  -0.00000
 270        8S         -0.09210  -0.04608  -0.04602  -0.00007
 271        9S         -0.07614  -0.03809  -0.03804  -0.00005
 272       10S          0.43803   0.21915   0.21888   0.00027
 273       11S          1.06103   0.53074   0.53030   0.00044
 274       12S          0.54326   0.27174   0.27152   0.00021
 275       13S          0.05574   0.02789   0.02785   0.00004
 276       14S          0.00040   0.00020   0.00020   0.00000
 277       15S          0.00003   0.00002   0.00002   0.00000
 278       16S          0.05230   0.03302   0.01929   0.01373
 279       17PX        -0.00014  -0.00007  -0.00007  -0.00000
 280       17PY        -0.00014  -0.00007  -0.00007   0.00000
 281       17PZ        -0.00015  -0.00007  -0.00007  -0.00000
 282       18PX        -0.10493  -0.05246  -0.05246  -0.00000
 283       18PY        -0.10493  -0.05246  -0.05246  -0.00000
 284       18PZ        -0.10809  -0.05426  -0.05383  -0.00043
 285       19PX         0.12653   0.06326   0.06326   0.00000
 286       19PY         0.12653   0.06326   0.06326   0.00000
 287       19PZ         0.12587   0.06315   0.06271   0.00044
 288       20PX         0.42876   0.21438   0.21438   0.00000
 289       20PY         0.42876   0.21438   0.21438   0.00000
 290       20PZ         0.43090   0.21619   0.21470   0.00149
 291       21PX         0.64928   0.32464   0.32464   0.00000
 292       21PY         0.64928   0.32464   0.32464   0.00000
 293       21PZ         0.64513   0.32336   0.32177   0.00159
 294       22PX         0.43585   0.21792   0.21792   0.00000
 295       22PY         0.43585   0.21792   0.21792   0.00000
 296       22PZ         0.33725   0.16798   0.16927  -0.00128
 297       23PX         0.12107   0.06053   0.06053   0.00000
 298       23PY         0.12107   0.06053   0.06053   0.00000
 299       23PZ         0.12422   0.06235   0.06187   0.00048
 300       24PX         0.00056   0.00028   0.00028   0.00000
 301       24PY         0.00056   0.00028   0.00028   0.00000
 302       24PZ         0.00057   0.00029   0.00028   0.00000
 303       25PX         0.00001   0.00000   0.00000   0.00000
 304       25PY         0.00001   0.00000   0.00000   0.00000
 305       25PZ         0.00001   0.00000   0.00000   0.00000
 306       26PX         0.04812   0.02406   0.02406   0.00000
 307       26PY         0.04812   0.02406   0.02406   0.00000
 308       26PZ         0.03293   0.01853   0.01440   0.00413
 309       27D 0        0.00005   0.00003   0.00003   0.00000
 310       27D+1        0.00004   0.00002   0.00002   0.00000
 311       27D-1        0.00004   0.00002   0.00002   0.00000
 312       27D+2        0.00000   0.00000   0.00000   0.00000
 313       27D-2        0.00000   0.00000   0.00000   0.00000
 314       28D 0        0.00091   0.00046   0.00044   0.00002
 315       28D+1        0.00052   0.00026   0.00026   0.00000
 316       28D-1        0.00052   0.00026   0.00026   0.00000
 317       28D+2        0.00001   0.00001   0.00000   0.00001
 318       28D-2        0.00000   0.00000   0.00000   0.00000
 319       29D 0        0.00629   0.00319   0.00310   0.00009
 320       29D+1        0.00512   0.00256   0.00256   0.00000
 321       29D-1        0.00512   0.00256   0.00256   0.00000
 322       29D+2        0.00012   0.00012   0.00000   0.00012
 323       29D-2        0.00000   0.00000   0.00000   0.00000
 324       30D 0        0.00000   0.00000   0.00000   0.00000
 325       30D+1        0.00000   0.00000   0.00000   0.00000
 326       30D-1        0.00000   0.00000   0.00000   0.00000
 327       30D+2        0.00000   0.00000   0.00000   0.00000
 328       30D-2        0.00000   0.00000   0.00000   0.00000
 329       31D 0       -0.00000  -0.00000  -0.00000  -0.00000
 330       31D+1       -0.00000  -0.00000  -0.00000  -0.00000
 331       31D-1       -0.00000  -0.00000  -0.00000  -0.00000
 332       31D+2       -0.00000  -0.00000   0.00000  -0.00000
 333       31D-2       -0.00000  -0.00000   0.00000  -0.00000
 334       32D 0        0.00301   0.00142   0.00159  -0.00017
 335       32D+1        0.00567   0.00283   0.00283   0.00000
 336       32D-1        0.00567   0.00283   0.00283   0.00000
 337       32D+2        0.00033   0.00033   0.00000   0.00033
 338       32D-2        0.00000   0.00000   0.00000   0.00000
 339       33F 0        0.00000   0.00000   0.00000   0.00000
 340       33F+1        0.00000   0.00000   0.00000   0.00000
 341       33F-1        0.00000   0.00000   0.00000   0.00000
 342       33F+2        0.00000   0.00000   0.00000   0.00000
 343       33F-2        0.00000   0.00000   0.00000   0.00000
 344       33F+3       -0.00000  -0.00000  -0.00000  -0.00000
 345       33F-3       -0.00000  -0.00000  -0.00000  -0.00000
 346       34F 0        0.00050   0.00026   0.00024   0.00003
 347       34F+1        0.00025   0.00013   0.00013   0.00000
 348       34F-1        0.00025   0.00013   0.00013   0.00000
 349       34F+2        0.00002   0.00002  -0.00000   0.00002
 350       34F-2        0.00000   0.00000  -0.00000   0.00000
 351       34F+3        0.00000   0.00000   0.00000  -0.00000
 352       34F-3        0.00000   0.00000   0.00000   0.00000
 353       35F 0        0.00000   0.00000   0.00000   0.00000
 354       35F+1        0.00000   0.00000   0.00000   0.00000
 355       35F-1        0.00000   0.00000   0.00000   0.00000
 356       35F+2        0.00000   0.00000   0.00000   0.00000
 357       35F-2        0.00000   0.00000   0.00000   0.00000
 358       35F+3        0.00000   0.00000   0.00000   0.00000
 359       35F-3        0.00000   0.00000   0.00000   0.00000
 360       36F 0        0.00233   0.00123   0.00110   0.00014
 361       36F+1        0.00118   0.00059   0.00059   0.00000
 362       36F-1        0.00118   0.00059   0.00059   0.00000
 363       36F+2        0.00013   0.00013   0.00000   0.00013
 364       36F-2        0.00000   0.00000   0.00000   0.00000
 365       36F+3       -0.00000  -0.00000  -0.00000  -0.00000
 366       36F-3       -0.00000  -0.00000  -0.00000  -0.00000
 367       37G 0        0.00000   0.00000   0.00000   0.00000
 368       37G+1        0.00000   0.00000   0.00000   0.00000
 369       37G-1        0.00000   0.00000   0.00000   0.00000
 370       37G+2        0.00000   0.00000   0.00000   0.00000
 371       37G-2        0.00000   0.00000   0.00000   0.00000
 372       37G+3       -0.00000  -0.00000  -0.00000   0.00000
 373       37G-3       -0.00000  -0.00000  -0.00000   0.00000
 374       37G+4       -0.00000  -0.00000  -0.00000   0.00000
 375       37G-4       -0.00000  -0.00000  -0.00000   0.00000
 376       38G 0        0.00035   0.00019   0.00016   0.00003
 377       38G+1        0.00014   0.00007   0.00007   0.00000
 378       38G-1        0.00014   0.00007   0.00007   0.00000
 379       38G+2        0.00001   0.00001   0.00000   0.00001
 380       38G-2        0.00000   0.00000   0.00000   0.00000
 381       38G+3        0.00000   0.00000   0.00000   0.00000
 382       38G-3        0.00000   0.00000   0.00000   0.00000
 383       38G+4        0.00000   0.00000   0.00000   0.00000
 384       38G-4        0.00000   0.00000   0.00000   0.00000
          Condensed to atoms (all electrons):
               1          2
     1  Ti  10.616665   0.362753
     2  O    0.362753   6.657829
          Atomic-Atomic Spin Densities.
               1          2
     1  Ti   1.962444   0.015803
     2  O    0.015803   0.005950
 Mulliken charges and spin densities:
               1          2
     1  Ti   1.020582   1.978247
     2  O   -1.020582   0.021753
 Sum of Mulliken charges =  -0.00000   2.00000
 Mulliken charges and spin densities with hydrogens summed into heavy atoms:
               1          2
     1  Ti   1.020582   1.978247
     2  O   -1.020582   0.021753
 Electronic spatial extent (au):  <R**2>=            107.7844
 Charge=             -0.0000 electrons
 Dipole moment (field-independent basis, Debye):
    X=              0.0000    Y=              0.0000    Z=              6.9900  Tot=              6.9900
 Quadrupole moment (field-independent basis, Debye-Ang):
   XX=            -21.6698   YY=            -21.6698   ZZ=            -30.8886
   XY=              0.0000   XZ=              0.0000   YZ=              0.0000
 Traceless Quadrupole moment (field-independent basis, Debye-Ang):
   XX=              3.0729   YY=              3.0729   ZZ=             -6.1458
   XY=              0.0000   XZ=              0.0000   YZ=              0.0000
 Octapole moment (field-independent basis, Debye-Ang**2):
  XXX=              0.0000  YYY=              0.0000  ZZZ=              6.7605  XYY=              0.0000
  XXY=              0.0000  XXZ=              0.6563  XZZ=              0.0000  YZZ=              0.0000
  YYZ=              0.6563  XYZ=              0.0000
 Hexadecapole moment (field-independent basis, Debye-Ang**3):
 XXXX=            -37.4766 YYYY=            -37.4766 ZZZZ=           -177.9162 XXXY=              0.0000
 XXXZ=              0.0000 YYYX=              0.0000 YYYZ=              0.0000 ZZZX=              0.0000
 ZZZY=              0.0000 XXYY=            -12.0886 XXZZ=            -34.5786 YYZZ=            -34.5786
 XXYZ=              0.0000 YYXZ=              0.0000 ZZXY=              0.0000
 N-N= 2.005303115065D+01 E-N=-2.003434228815D+02  KE= 3.623981170447D+01
 Symmetry A1   KE= 1.854243102689D+01
 Symmetry A2   KE= 1.127469940016D-31
 Symmetry B1   KE= 8.848690338231D+00
 Symmetry B2   KE= 8.848690339412D+00
 Symmetry A1   SP= 2.000000000000D+00
 Symmetry A2   SP= 2.999654903899D-32
 Symmetry B1   SP= 3.679321096086D-16
 Symmetry B2   SP= 4.313120679069D-16
 Orbital energies and kinetic energies (alpha):
                                 1                 2
   4         O                -1.922118          2.480253
   5         O                -1.123366          0.919932
   6         O                -0.522253          2.243466
   7         O                -0.414659          1.944092
   8         O                -0.373554          1.944092
   9         O                -0.373554          3.758628
  10         O                -0.298566          0.527126
  11         V                -0.010175          0.245832
  12         V                -0.010175          0.245832
  13         V                 0.000630          0.231385
  14         V                 0.017987          0.187326
  15         V                 0.028376          0.304262
 Total kinetic energy from orbitals= 4.052556587145D+01
                          Isotropic Fermi Contact Couplings
        Atom                 a.u.       MegaHertz       Gauss      10(-4) cm-1
     1  Ti(47)             0.00012      -0.01542      -0.00550      -0.00514
     2  O(17)              0.00002      -0.00505      -0.00180      -0.00168
 --------------------------------------------------------
       Center         ----  Spin Dipole Couplings  ----
                      3XX-RR        3YY-RR        3ZZ-RR
 --------------------------------------------------------
     1   Atom        0.348665      0.348665     -0.697330
     2   Atom       -0.028881     -0.028881      0.057763
 --------------------------------------------------------
                        XY            XZ            YZ
 --------------------------------------------------------
     1   Atom        0.000000      0.000000      0.000000
     2   Atom        0.000000      0.000000      0.000000
 --------------------------------------------------------


 ---------------------------------------------------------------------------------
              Anisotropic Spin Dipole Couplings in Principal Axis System
 ---------------------------------------------------------------------------------

       Atom             a.u.   MegaHertz   Gauss  10(-4) cm-1        Axes

              Baa    -0.6973    21.008     7.496     7.008  0.0000  0.0000  1.0000
     1 Ti(47) Bbb     0.3487   -10.504    -3.748    -3.504  1.0000  0.0000  0.0000
              Bcc     0.3487   -10.504    -3.748    -3.504 -0.0000  1.0000  0.0000
 
              Baa    -0.0289     2.090     0.746     0.697  1.0000  0.0000  0.0000
     2 O(17)  Bbb    -0.0289     2.090     0.746     0.697 -0.0000  1.0000  0.0000
              Bcc     0.0578    -4.180    -1.491    -1.394  0.0000  0.0000  1.0000
 

 ---------------------------------------------------------------------------------

 No NMR shielding tensors so no spin-rotation constants.
 Leave Link  601 at Tue Mar 13 02:42:28 2018, MaxMem= 10737418240 cpu:             113.8 elap:               7.4
 (Enter /home1/apps/gaussian/16rA.03/g16/l9999.exe)
 1\1\GINC-C438-123\SP\ROCCSD(T)-Full\Gen\O1Ti1(3)\AANNABE\13-Mar-2018\0
 \\#P ROCCSD(T)=(maxcyc=150, Full, SaveAmplitudes, ReadAmplitudes)/Gen 
 5d 7f SCF=(maxcycles=300) Integral(NoXCTest) MaxDisk=500GB Pop=Regular
  Pseudo=Read Guess=Read\\TiO\\0,3\Ti,0,0.,0.,0.\O,0,0.,0.,1.9\\Version
 =ES64L-G16RevA.03\HF=-73.4686282\MP2=-74.2617094\PUHF=-73.4686282\PMP2
 -0=-74.2617094\CCSD=-74.2386748\CCSD(T)=-74.2974632\RMSD=5.841e-09\PG=
 C*V [C*(O1Ti1)]\\@


 IF AT FIRST YOU DON'T SUCCEED, TRY LOOKING IN 
 THE WASTEBASKET FOR THE DIRECTIONS.
 Job cpu time:       0 days 22 hours 55 minutes 52.5 seconds.
 Elapsed time:       0 days  1 hours 26 minutes 28.8 seconds.
 File lengths (MBytes):  RWF=  12465 Int=      0 D2E=      0 Chk=     65 Scr=      1
 Normal termination of Gaussian 16 at Tue Mar 13 02:42:29 2018.
