 Entering Gaussian System, Link 0=g16
 Initial command:
 /home1/apps/gaussian/16rA.03/g16/l1.exe "/tmp/Gau-226199.inp" -scrdir="/tmp/"
 Entering Link 1 = /home1/apps/gaussian/16rA.03/g16/l1.exe PID=    226200.
  
 Copyright (c) 1988,1990,1992,1993,1995,1998,2003,2009,2016,
            Gaussian, Inc.  All Rights Reserved.
  
 This is part of the Gaussian(R) 16 program.  It is based on
 the Gaussian(R) 09 system (copyright 2009, Gaussian, Inc.),
 the Gaussian(R) 03 system (copyright 2003, Gaussian, Inc.),
 the Gaussian(R) 98 system (copyright 1998, Gaussian, Inc.),
 the Gaussian(R) 94 system (copyright 1995, Gaussian, Inc.),
 the Gaussian 92(TM) system (copyright 1992, Gaussian, Inc.),
 the Gaussian 90(TM) system (copyright 1990, Gaussian, Inc.),
 the Gaussian 88(TM) system (copyright 1988, Gaussian, Inc.),
 the Gaussian 86(TM) system (copyright 1986, Carnegie Mellon
 University), and the Gaussian 82(TM) system (copyright 1983,
 Carnegie Mellon University). Gaussian is a federally registered
 trademark of Gaussian, Inc.
  
 This software contains proprietary and confidential information,
 including trade secrets, belonging to Gaussian, Inc.
  
 This software is provided under written license and may be
 used, copied, transmitted, or stored only in accord with that
 written license.
  
 The following legend is applicable only to US Government
 contracts under FAR:
  
                    RESTRICTED RIGHTS LEGEND
  
 Use, reproduction and disclosure by the US Government is
 subject to restrictions as set forth in subparagraphs (a)
 and (c) of the Commercial Computer Software - Restricted
 Rights clause in FAR 52.227-19.
  
 Gaussian, Inc.
 340 Quinnipiac St., Bldg. 40, Wallingford CT 06492
  
  
 ---------------------------------------------------------------
 Warning -- This program may not be used in any manner that
 competes with the business of Gaussian, Inc. or will provide
 assistance to any competitor of Gaussian, Inc.  The licensee
 of this program is prohibited from giving any competitor of
 Gaussian, Inc. access to this program.  By using this program,
 the user acknowledges that Gaussian, Inc. is engaged in the
 business of creating and licensing software in the field of
 computational chemistry and represents and warrants to the
 licensee that it is not a competitor of Gaussian, Inc. and that
 it will not use this program in any manner prohibited above.
 ---------------------------------------------------------------
  

 Cite this work as:
 Gaussian 16, Revision A.03,
 M. J. Frisch, G. W. Trucks, H. B. Schlegel, G. E. Scuseria, 
 M. A. Robb, J. R. Cheeseman, G. Scalmani, V. Barone, 
 G. A. Petersson, H. Nakatsuji, X. Li, M. Caricato, A. V. Marenich, 
 J. Bloino, B. G. Janesko, R. Gomperts, B. Mennucci, H. P. Hratchian, 
 J. V. Ortiz, A. F. Izmaylov, J. L. Sonnenberg, D. Williams-Young, 
 F. Ding, F. Lipparini, F. Egidi, J. Goings, B. Peng, A. Petrone, 
 T. Henderson, D. Ranasinghe, V. G. Zakrzewski, J. Gao, N. Rega, 
 G. Zheng, W. Liang, M. Hada, M. Ehara, K. Toyota, R. Fukuda, 
 J. Hasegawa, M. Ishida, T. Nakajima, Y. Honda, O. Kitao, H. Nakai, 
 T. Vreven, K. Throssell, J. A. Montgomery, Jr., J. E. Peralta, 
 F. Ogliaro, M. J. Bearpark, J. J. Heyd, E. N. Brothers, K. N. Kudin, 
 V. N. Staroverov, T. A. Keith, R. Kobayashi, J. Normand, 
 K. Raghavachari, A. P. Rendell, J. C. Burant, S. S. Iyengar, 
 J. Tomasi, M. Cossi, J. M. Millam, M. Klene, C. Adamo, R. Cammi, 
 J. W. Ochterski, R. L. Martin, K. Morokuma, O. Farkas, 
 J. B. Foresman, and D. J. Fox, Gaussian, Inc., Wallingford CT, 2016.
 
 ******************************************
 Gaussian 16:  ES64L-G16RevA.03 25-Dec-2016
                 9-Mar-2018 
 ******************************************
 %MEM=80GB
 %CPU=0-15
 SetSPE:  set environment variable "MP_BIND" = "yes"
 SetSPE:  set environment variable "MP_BLIST" = "0,1,2,3,4,5,6,7,8,9,10,11,12,13,14,15"
 Will use up to   16 processors via shared memory.
 %RWF=/scratch/04843/aannabe/gaussian/
 %Int=/scratch/04843/aannabe/gaussian/
 %D2E=/scratch/04843/aannabe/gaussian/
 %NoSave
 %CHK=MnO
 ----------------------------------------------------------------------
 #P ROCCSD(T)=(maxcyc=150, Full, SaveAmplitudes, ReadAmplitudes)/Gen 5d
  7f SCF=(maxcycles=300) Integral(NoXCTest) MaxDisk=500GB Pop=Regular P
 seudo=Read Guess=Read IOp(5/15=2)
 ----------------------------------------------------------------------
 1/38=1,172=1/1;
 2/12=2,17=6,18=5,40=1/2;
 3/5=7,8=11,11=2,16=1,17=8,25=1,30=1,47=8,116=101/1,2,3;
 4/5=1/1;
 5/5=2,7=300,15=2,38=6/2;
 8/5=-1,6=4,9=120000,10=90,24=1/1,4;
 9/5=7,6=150,14=2,77=1/13;
 6//1;
 99/5=1,9=1/99;
 Leave Link    1 at Fri Mar  9 17:05:15 2018, MaxMem= 10737418240 cpu:               4.7 elap:               0.3
 (Enter /home1/apps/gaussian/16rA.03/g16/l101.exe)
 ---
 MnO
 ---
 Symbolic Z-matrix:
 Charge =  0 Multiplicity = 6
 Mn                    0.        0.        0. 
 O                     0.        0.        1.4 
 
 ITRead=  0  0
 MicOpt= -1 -1
 NAtoms=      2 NQM=        2 NQMF=       0 NMMI=      0 NMMIF=      0
                NMic=       0 NMicF=      0.
                    Isotopes and Nuclear Properties:
 (Nuclear quadrupole moments (NQMom) in fm**2, nuclear magnetic moments (NMagM)
  in nuclear magnetons)

  Atom         1           2
 IAtWgt=          55          16
 AtmWgt=  54.9380463  15.9949146
 NucSpn=           5           0
 AtZEff=  -0.0000000  -0.0000000
 NQMom=   33.0000000   0.0000000
 NMagM=    3.4532000   0.0000000
 AtZNuc=  25.0000000   8.0000000
 Leave Link  101 at Fri Mar  9 17:05:16 2018, MaxMem= 10737418240 cpu:               1.5 elap:               0.1
 (Enter /home1/apps/gaussian/16rA.03/g16/l202.exe)
                          Input orientation:                          
 ---------------------------------------------------------------------
 Center     Atomic      Atomic             Coordinates (Angstroms)
 Number     Number       Type             X           Y           Z
 ---------------------------------------------------------------------
      1         25           0        0.000000    0.000000    0.000000
      2          8           0        0.000000    0.000000    1.400000
 ---------------------------------------------------------------------
 Stoichiometry    MnO(6)
 Framework group  C*V[C*(OMn)]
 Deg. of freedom     1
 Full point group                 C*V     NOp   4
 Largest Abelian subgroup         C2V     NOp   4
 Largest concise Abelian subgroup C1      NOp   1
                         Standard orientation:                         
 ---------------------------------------------------------------------
 Center     Atomic      Atomic             Coordinates (Angstroms)
 Number     Number       Type             X           Y           Z
 ---------------------------------------------------------------------
      1         25           0        0.000000    0.000000    0.339394
      2          8           0        0.000000    0.000000   -1.060606
 ---------------------------------------------------------------------
 Rotational constants (GHZ):           0.0000000          20.8139295          20.8139295
 Leave Link  202 at Fri Mar  9 17:05:16 2018, MaxMem= 10737418240 cpu:               0.4 elap:               0.1
 (Enter /home1/apps/gaussian/16rA.03/g16/l301.exe)
 General basis read from cards:  (5D, 7F)
 Centers:       1
 S 1 1.00
     Exponent=  3.9608050000D+06 Coefficients=  1.0000000000D+00
 S 1 1.00
     Exponent=  5.9311550000D+05 Coefficients=  1.0000000000D+00
 S 1 1.00
     Exponent=  1.3497680000D+05 Coefficients=  1.0000000000D+00
 S 1 1.00
     Exponent=  3.8230670000D+04 Coefficients=  1.0000000000D+00
 S 1 1.00
     Exponent=  1.2471540000D+04 Coefficients=  1.0000000000D+00
 S 1 1.00
     Exponent=  4.5017430000D+03 Coefficients=  1.0000000000D+00
 S 1 1.00
     Exponent=  1.7552120000D+03 Coefficients=  1.0000000000D+00
 S 1 1.00
     Exponent=  7.2730390000D+02 Coefficients=  1.0000000000D+00
 S 1 1.00
     Exponent=  3.1636780000D+02 Coefficients=  1.0000000000D+00
 S 1 1.00
     Exponent=  1.4300980000D+02 Coefficients=  1.0000000000D+00
 S 1 1.00
     Exponent=  6.6218050000D+01 Coefficients=  1.0000000000D+00
 S 1 1.00
     Exponent=  2.9918960000D+01 Coefficients=  1.0000000000D+00
 S 1 1.00
     Exponent=  1.4303180000D+01 Coefficients=  1.0000000000D+00
 S 1 1.00
     Exponent=  6.8394510000D+00 Coefficients=  1.0000000000D+00
 S 1 1.00
     Exponent=  3.0123740000D+00 Coefficients=  1.0000000000D+00
 S 1 1.00
     Exponent=  1.4188080000D+00 Coefficients=  1.0000000000D+00
 S 1 1.00
     Exponent=  6.2362400000D-01 Coefficients=  1.0000000000D+00
 S 1 1.00
     Exponent=  1.3409800000D-01 Coefficients=  1.0000000000D+00
 S 1 1.00
     Exponent=  6.5548000000D-02 Coefficients=  1.0000000000D+00
 S 1 1.00
     Exponent=  2.9584000000D-02 Coefficients=  1.0000000000D+00
 S 1 1.00
     Exponent=  4.1714000000D+00 Coefficients=  1.0000000000D+00
 S 1 1.00
     Exponent=  1.0701000000D+00 Coefficients=  1.0000000000D+00
 S 1 1.00
     Exponent=  1.3350000000D-02 Coefficients=  1.0000000000D+00
 P 1 1.00
     Exponent=  1.6205860000D+04 Coefficients=  1.0000000000D+00
 P 1 1.00
     Exponent=  3.8362740000D+03 Coefficients=  1.0000000000D+00
 P 1 1.00
     Exponent=  1.2460480000D+03 Coefficients=  1.0000000000D+00
 P 1 1.00
     Exponent=  4.7675350000D+02 Coefficients=  1.0000000000D+00
 P 1 1.00
     Exponent=  2.0218950000D+02 Coefficients=  1.0000000000D+00
 P 1 1.00
     Exponent=  9.2094870000D+01 Coefficients=  1.0000000000D+00
 P 1 1.00
     Exponent=  4.4147200000D+01 Coefficients=  1.0000000000D+00
 P 1 1.00
     Exponent=  2.1854680000D+01 Coefficients=  1.0000000000D+00
 P 1 1.00
     Exponent=  1.1085960000D+01 Coefficients=  1.0000000000D+00
 P 1 1.00
     Exponent=  5.6741080000D+00 Coefficients=  1.0000000000D+00
 P 1 1.00
     Exponent=  2.8231700000D+00 Coefficients=  1.0000000000D+00
 P 1 1.00
     Exponent=  1.3686210000D+00 Coefficients=  1.0000000000D+00
 P 1 1.00
     Exponent=  6.4443100000D-01 Coefficients=  1.0000000000D+00
 P 1 1.00
     Exponent=  2.4834600000D-01 Coefficients=  1.0000000000D+00
 P 1 1.00
     Exponent=  9.7175000000D-02 Coefficients=  1.0000000000D+00
 P 1 1.00
     Exponent=  3.6565000000D-02 Coefficients=  1.0000000000D+00
 P 1 1.00
     Exponent=  6.0568000000D+00 Coefficients=  1.0000000000D+00
 P 1 1.00
     Exponent=  1.3911000000D+00 Coefficients=  1.0000000000D+00
 P 1 1.00
     Exponent=  1.3760000000D-02 Coefficients=  1.0000000000D+00
 D 1 1.00
     Exponent=  1.0190400000D+02 Coefficients=  1.0000000000D+00
 D 1 1.00
     Exponent=  3.0033700000D+01 Coefficients=  1.0000000000D+00
 D 1 1.00
     Exponent=  1.0923800000D+01 Coefficients=  1.0000000000D+00
 D 1 1.00
     Exponent=  4.3974000000D+00 Coefficients=  1.0000000000D+00
 D 1 1.00
     Exponent=  1.8159500000D+00 Coefficients=  1.0000000000D+00
 D 1 1.00
     Exponent=  7.2573100000D-01 Coefficients=  1.0000000000D+00
 D 1 1.00
     Exponent=  2.6996100000D-01 Coefficients=  1.0000000000D+00
 D 1 1.00
     Exponent=  8.7760000000D-02 Coefficients=  1.0000000000D+00
 D 1 1.00
     Exponent=  3.9511000000D+00 Coefficients=  1.0000000000D+00
 D 1 1.00
     Exponent=  1.8488000000D+00 Coefficients=  1.0000000000D+00
 D 1 1.00
     Exponent=  2.8530000000D-02 Coefficients=  1.0000000000D+00
 F 1 1.00
     Exponent=  5.1541000000D+00 Coefficients=  1.0000000000D+00
 F 1 1.00
     Exponent=  1.9044000000D+00 Coefficients=  1.0000000000D+00
 F 1 1.00
     Exponent=  6.4380000000D-01 Coefficients=  1.0000000000D+00
 F 1 1.00
     Exponent=  2.1764000000D-01 Coefficients=  1.0000000000D+00
 G 1 1.00
     Exponent=  4.7163000000D+00 Coefficients=  1.0000000000D+00
 G 1 1.00
     Exponent=  1.7022000000D+00 Coefficients=  1.0000000000D+00
 G 1 1.00
     Exponent=  6.1436000000D-01 Coefficients=  1.0000000000D+00
 ****
 Centers:       2
 S 1 1.00
     Exponent=  1.5330000000D+04 Coefficients=  1.0000000000D+00
 S 1 1.00
     Exponent=  2.2990000000D+03 Coefficients=  1.0000000000D+00
 S 1 1.00
     Exponent=  5.2240000000D+02 Coefficients=  1.0000000000D+00
 S 1 1.00
     Exponent=  1.4730000000D+02 Coefficients=  1.0000000000D+00
 S 1 1.00
     Exponent=  4.7550000000D+01 Coefficients=  1.0000000000D+00
 S 1 1.00
     Exponent=  1.6760000000D+01 Coefficients=  1.0000000000D+00
 S 1 1.00
     Exponent=  6.2070000000D+00 Coefficients=  1.0000000000D+00
 S 1 1.00
     Exponent=  6.8820000000D-01 Coefficients=  1.0000000000D+00
 S 1 1.00
     Exponent=  1.7520000000D+00 Coefficients=  1.0000000000D+00
 S 1 1.00
     Exponent=  2.3840000000D-01 Coefficients=  1.0000000000D+00
 S 1 1.00
     Exponent=  7.8450000000D+00 Coefficients=  1.0000000000D+00
 S 1 1.00
     Exponent=  2.1032000000D+01 Coefficients=  1.0000000000D+00
 S 1 1.00
     Exponent=  7.3760000000D-02 Coefficients=  1.0000000000D+00
 P 1 1.00
     Exponent=  3.4460000000D+01 Coefficients=  1.0000000000D+00
 P 1 1.00
     Exponent=  7.7490000000D+00 Coefficients=  1.0000000000D+00
 P 1 1.00
     Exponent=  2.2800000000D+00 Coefficients=  1.0000000000D+00
 P 1 1.00
     Exponent=  7.1560000000D-01 Coefficients=  1.0000000000D+00
 P 1 1.00
     Exponent=  2.1400000000D-01 Coefficients=  1.0000000000D+00
 P 1 1.00
     Exponent=  1.5159000000D+01 Coefficients=  1.0000000000D+00
 P 1 1.00
     Exponent=  5.7437000000D+01 Coefficients=  1.0000000000D+00
 P 1 1.00
     Exponent=  5.9740000000D-02 Coefficients=  1.0000000000D+00
 D 1 1.00
     Exponent=  2.3140000000D+00 Coefficients=  1.0000000000D+00
 D 1 1.00
     Exponent=  6.4500000000D-01 Coefficients=  1.0000000000D+00
 D 1 1.00
     Exponent=  1.5858000000D+01 Coefficients=  1.0000000000D+00
 D 1 1.00
     Exponent=  2.1400000000D-01 Coefficients=  1.0000000000D+00
 F 1 1.00
     Exponent=  1.4280000000D+00 Coefficients=  1.0000000000D+00
 F 1 1.00
     Exponent=  5.0000000000D-01 Coefficients=  1.0000000000D+00
 ****
 ======================================================================================================
                                       Pseudopotential Parameters
 ======================================================================================================
  Center     Atomic      Valence      Angular      Power
  Number     Number     Electrons     Momentum     of R      Exponent        Coefficient   SO-Coeffient
 ======================================================================================================
    1         25           15
                                      D and up 
                                                     1       23.9656713       15.00000000    0.00000000
                                                     3       22.6481081      359.48506880    0.00000000
                                                     2       21.8841459     -152.94008449    0.00000000
                                                     2        6.3576557       -2.00666481    0.00000000
                                      S - D
                                                     2       18.5595648      245.52993062    0.00000000
                                                     2        8.4121719       33.15214562    0.00000000
                                      P - D
                                                     2       19.3350158      163.21002979    0.00000000
                                                     2        8.3639735       25.06457815    0.00000000
    2          8            6
                                      P and up 
                                                     1       12.3099700        6.00000000    0.00000000
                                                     3       14.7696200       73.85984000    0.00000000
                                                     2       13.7141900      -47.87600000    0.00000000
                                      S - P
                                                     2       13.6551200       85.86406000    0.00000000
 ======================================================================================================
 Ernie: Thresh=  0.10000D-02 Tol=  0.10000D-05 Strict=F.
 There are   144 symmetry adapted cartesian basis functions of A1  symmetry.
 There are    30 symmetry adapted cartesian basis functions of A2  symmetry.
 There are    69 symmetry adapted cartesian basis functions of B1  symmetry.
 There are    69 symmetry adapted cartesian basis functions of B2  symmetry.
 There are   114 symmetry adapted basis functions of A1  symmetry.
 There are    27 symmetry adapted basis functions of A2  symmetry.
 There are    60 symmetry adapted basis functions of B1  symmetry.
 There are    60 symmetry adapted basis functions of B2  symmetry.
   261 basis functions,   312 primitive gaussians,   312 cartesian basis functions
    13 alpha electrons        8 beta electrons
       nuclear repulsion energy        34.0185349877 Hartrees.
 IExCor=    0 DFT=F Ex=HF Corr=None ExCW=0 ScaHFX=  1.000000
 ScaDFX=  1.000000  1.000000  1.000000  1.000000 ScalE2=  1.000000  1.000000
 IRadAn=      5 IRanWt=     -1 IRanGd=            0 ICorTp=0 IEmpDi=  4
 NAtoms=    2 NActive=    2 NUniq=    2 SFac= 1.00D+00 NAtFMM=   60 NAOKFM=F Big=F
 Integral buffers will be    131072 words long.
 Raffenetti 2 integral format.
 Two-electron integral symmetry is turned on.
 Leave Link  301 at Fri Mar  9 17:05:17 2018, MaxMem= 10737418240 cpu:               4.0 elap:               0.3
 (Enter /home1/apps/gaussian/16rA.03/g16/l302.exe)
 NPDir=0 NMtPBC=     1 NCelOv=     1 NCel=       1 NClECP=     1 NCelD=      1
         NCelK=      1 NCelE2=     1 NClLst=     1 CellRange=     0.0.
 One-electron integrals computed using PRISM.
 One-electron integral symmetry used in STVInt
   4 Symmetry operations used in ECPInt.
 ECPInt:  NShTT=    3828 NPrTT=    3828 LenC2=    3582 LenP2D=    3581.
 LDataN:  DoStor=T MaxTD1= 8 Len=  415
 NBasis=   261 RedAO= T EigKep=  1.11D-06  NBF=   114    27    60    60
 NBsUse=   258 1.00D-06 EigRej=  1.70D-07 NBFU=   113    27    59    59
 Leave Link  302 at Fri Mar  9 17:05:18 2018, MaxMem= 10737418240 cpu:              15.2 elap:               1.0
 (Enter /home1/apps/gaussian/16rA.03/g16/l303.exe)
 DipDrv:  MaxL=1.
 Leave Link  303 at Fri Mar  9 17:05:19 2018, MaxMem= 10737418240 cpu:               1.2 elap:               0.2
 (Enter /home1/apps/gaussian/16rA.03/g16/l401.exe)
 Initial guess from the checkpoint file:  "MnO.chk"
 B after Tr=     0.000000    0.000000    0.000000
         Rot=    1.000000    0.000000    0.000000    0.000000 Ang=   0.00 deg.
 Guess basis will be translated and rotated to current coordinates.
 JPrj=2 DoOrth=T DoCkMO=T.
 Initial guess orbital symmetries:
       Occupied  (SG) (SG) (PI) (PI) (SG) (SG) (PI) (PI) (DLTA)
                 (DLTA) (SG) (PI) (PI)
       Virtual   (SG) (PI) (PI) (SG) (SG) (PI) (PI) (SG) (DLTA)
                 (DLTA) (PI) (PI) (SG) (SG) (PI) (PI) (SG) (PI)
                 (PI) (SG) (DLTA) (DLTA) (PI) (PI) (SG) (SG) (SG)
                 (DLTA) (DLTA) (PHI) (PHI) (PI) (PI) (PI) (PI)
                 (SG) (SG) (DLTA) (DLTA) (PI) (PI) (SG) (DLTA)
                 (DLTA) (PI) (PI) (SG) (PI) (PI) (SG) (SG) (SG)
                 (DLTA) (DLTA) (PHI) (PHI) (PI) (PI) (SG) (PHI)
                 (PHI) (DLTA) (DLTA) (PI) (PI) (DLTA) (DLTA) (PI)
                 (PI) (SG) (?A) (?A) (PI) (PI) (PHI) (PHI) (SG)
                 (DLTA) (DLTA) (SG) (PI) (PI) (DLTA) (DLTA) (SG)
                 (PI) (PI) (SG) (PI) (PI) (SG) (SG) (SG) (PHI)
                 (PHI) (DLTA) (DLTA) (PI) (PI) (PHI) (PHI) (SG)
                 (DLTA) (DLTA) (PI) (PI) (DLTA) (DLTA) (SG) (PI)
                 (PI) (DLTA) (DLTA) (SG) (PI) (PI) (SG) (PI) (PI)
                 (?A) (?A) (PHI) (PHI) (DLTA) (DLTA) (PI) (PI)
                 (SG) (SG) (SG) (DLTA) (DLTA) (PI) (PI) (SG) (PI)
                 (PI) (SG) (SG) (PHI) (PHI) (DLTA) (DLTA) (PI)
                 (PI) (SG) (PI) (PI) (SG) (?A) (?A) (PHI) (PHI)
                 (DLTA) (DLTA) (PI) (PI) (SG) (DLTA) (DLTA) (PI)
                 (PI) (SG) (SG) (PI) (PI) (SG) (SG) (DLTA) (DLTA)
                 (PI) (PI) (SG) (PI) (PI) (DLTA) (DLTA) (SG) (PI)
                 (PI) (SG) (SG) (PI) (PI) (SG) (SG) (DLTA) (DLTA)
                 (PI) (PI) (SG) (SG) (PI) (PI) (SG) (PI) (PI) (SG)
                 (SG) (SG) (PI) (PI) (SG) (SG) (PI) (PI) (SG) (SG)
                 (DLTA) (DLTA) (PI) (PI) (SG) (PI) (PI) (SG) (SG)
                 (SG) (PI) (PI) (SG) (SG) (SG) (PI) (PI) (SG) (SG)
                 (PI) (PI) (SG) (SG) (SG) (PI) (PI) (SG) (SG) (SG)
                 (SG) (PI) (PI) (SG) (SG) (SG) (SG) (SG)
 The electronic state of the initial guess is 6-SG.
 Leave Link  401 at Fri Mar  9 17:05:19 2018, MaxMem= 10737418240 cpu:               6.7 elap:               0.5
 (Enter /home1/apps/gaussian/16rA.03/g16/l502.exe)
 Keep R1 and R2 ints in memory in symmetry-blocked form, NReq=734602573.
 FoFCou: FMM=F IPFlag=           8 FMFlag=           0 FMFlg1=           0
         NFxFlg=           0 DoJE=F BraDBF=F KetDBF=F FulRan=T
         wScrn=  0.000000 ICntrl=       600 IOpCl=  0 I1Cent=           0 NGrid=           0
         NMat0=    1 NMatS0=  34191 NMatT0=    0 NMatD0=    1 NMtDS0=    0 NMtDT0=    0
 Petite list used in FoFCou.
 Restricted open shell SCF:
 Using DIIS extrapolation, IDIIS=  1040.
 NGot= 10737418240 LenX= 10437151885 LenY= 10437054100
 Requested convergence on RMS density matrix=1.00D-08 within 300 cycles.
 Requested convergence on MAX density matrix=1.00D-06.
 Requested convergence on             energy=1.00D-06.
 No special actions if energy rises.

 Cycle   1  Pass 1  IDiag  1:
 E= -119.057217253585    
 DIIS: error= 6.17D-02 at cycle   1 NSaved=   1.
 NSaved= 1 IEnMin= 1 EnMin= -119.057217253585     IErMin= 1 ErrMin= 6.17D-02
 ErrMax= 6.17D-02  0.00D+00 EMaxC= 1.00D-01 BMatC= 2.40D-01 BMatP= 2.40D-01
 IDIUse=3 WtCom= 3.83D-01 WtEn= 6.17D-01
 Coeff-Com:  0.100D+01
 Coeff-En:   0.100D+01
 Coeff:      0.100D+01
 Gap=     0.085 Goal=   None    Shift=    0.000
 GapD=    0.085 DampG=0.500 DampE=0.250 DampFc=0.1250 IDamp=-1.
 Damping current iteration by 1.25D-01
 RMSDP=4.07D-03 MaxDP=4.05D-01              OVMax= 2.12D-01

 Cycle   2  Pass 1  IDiag  1:
 E= -119.058503290901     Delta-E=       -0.001286037317 Rises=F Damp=T
 DIIS: error= 5.44D-02 at cycle   2 NSaved=   2.
 NSaved= 2 IEnMin= 2 EnMin= -119.058503290901     IErMin= 2 ErrMin= 5.44D-02
 ErrMax= 5.44D-02  0.00D+00 EMaxC= 1.00D-01 BMatC= 1.84D-01 BMatP= 2.40D-01
 IDIUse=3 WtCom= 4.56D-01 WtEn= 5.44D-01
 Coeff-Com: -0.232D+01 0.332D+01
 Coeff-En:   0.346D+00 0.654D+00
 Coeff:     -0.872D+00 0.187D+01
 Gap=     0.055 Goal=   None    Shift=    0.000
 RMSDP=3.75D-03 MaxDP=3.78D-01 DE=-1.29D-03 OVMax= 5.41D-01

 Cycle   3  Pass 1  IDiag  1:
 E= -118.924239105534     Delta-E=        0.134264185367 Rises=F Damp=F
 DIIS: error= 2.97D-02 at cycle   3 NSaved=   3.
 NSaved= 3 IEnMin= 2 EnMin= -119.058503290901     IErMin= 3 ErrMin= 2.97D-02
 ErrMax= 2.97D-02  0.00D+00 EMaxC= 1.00D-01 BMatC= 6.91D-02 BMatP= 1.84D-01
 IDIUse=3 WtCom= 7.03D-01 WtEn= 2.97D-01
 Coeff-Com: -0.172D+01 0.207D+01 0.652D+00
 Coeff-En:   0.000D+00 0.775D+00 0.225D+00
 Coeff:     -0.121D+01 0.169D+01 0.525D+00
 Gap=     0.104 Goal=   None    Shift=    0.000
 RMSDP=1.80D-03 MaxDP=1.87D-01 DE= 1.34D-01 OVMax= 3.95D-01

 Cycle   4  Pass 1  IDiag  1:
 E= -119.039487268625     Delta-E=       -0.115248163091 Rises=F Damp=F
 DIIS: error= 1.48D-02 at cycle   4 NSaved=   4.
 NSaved= 4 IEnMin= 2 EnMin= -119.058503290901     IErMin= 4 ErrMin= 1.48D-02
 ErrMax= 1.48D-02  0.00D+00 EMaxC= 1.00D-01 BMatC= 2.59D-02 BMatP= 6.91D-02
 IDIUse=3 WtCom= 8.52D-01 WtEn= 1.48D-01
 EnCoef did     4 forward-backward iterations
 Coeff-Com: -0.121D+01 0.140D+01 0.350D+00 0.468D+00
 Coeff-En:   0.000D+00 0.565D+00 0.193D+00 0.242D+00
 Coeff:     -0.103D+01 0.127D+01 0.327D+00 0.434D+00
 Gap=     0.090 Goal=   None    Shift=    0.000
 RMSDP=1.61D-03 MaxDP=1.61D-01 DE=-1.15D-01 OVMax= 2.05D-01

 Cycle   5  Pass 1  IDiag  1:
 E= -119.067952090251     Delta-E=       -0.028464821625 Rises=F Damp=F
 DIIS: error= 9.91D-03 at cycle   5 NSaved=   5.
 NSaved= 5 IEnMin= 5 EnMin= -119.067952090251     IErMin= 5 ErrMin= 9.91D-03
 ErrMax= 9.91D-03  0.00D+00 EMaxC= 1.00D-01 BMatC= 7.80D-03 BMatP= 2.59D-02
 IDIUse=3 WtCom= 9.01D-01 WtEn= 9.91D-02
 EnCoef did    14 forward-backward iterations
 Coeff-Com: -0.975D+00 0.111D+01 0.159D+00 0.236D+00 0.467D+00
 Coeff-En:   0.000D+00 0.338D+00 0.684D-01 0.212D+00 0.382D+00
 Coeff:     -0.878D+00 0.104D+01 0.150D+00 0.234D+00 0.458D+00
 Gap=     0.069 Goal=   None    Shift=    0.000
 RMSDP=1.25D-03 MaxDP=1.01D-01 DE=-2.85D-02 OVMax= 1.11D-01

 Cycle   6  Pass 1  IDiag  1:
 E= -119.076810280834     Delta-E=       -0.008858190583 Rises=F Damp=F
 DIIS: error= 9.27D-03 at cycle   6 NSaved=   6.
 NSaved= 6 IEnMin= 6 EnMin= -119.076810280834     IErMin= 6 ErrMin= 9.27D-03
 ErrMax= 9.27D-03  0.00D+00 EMaxC= 1.00D-01 BMatC= 4.94D-03 BMatP= 7.80D-03
 IDIUse=3 WtCom= 9.07D-01 WtEn= 9.27D-02
 EnCoef did     2 forward-backward iterations
 Coeff-Com: -0.789D+00 0.898D+00 0.711D-01 0.354D-01 0.298D+00 0.486D+00
 Coeff-En:   0.000D+00 0.351D-01 0.000D+00 0.000D+00 0.266D+00 0.699D+00
 Coeff:     -0.716D+00 0.818D+00 0.645D-01 0.321D-01 0.295D+00 0.506D+00
 Gap=     0.058 Goal=   None    Shift=    0.000
 RMSDP=8.00D-04 MaxDP=5.69D-02 DE=-8.86D-03 OVMax= 6.40D-02

 Cycle   7  Pass 1  IDiag  1:
 E= -119.085121243510     Delta-E=       -0.008310962676 Rises=F Damp=F
 DIIS: error= 8.63D-03 at cycle   7 NSaved=   7.
 NSaved= 7 IEnMin= 7 EnMin= -119.085121243510     IErMin= 7 ErrMin= 8.63D-03
 ErrMax= 8.63D-03  0.00D+00 EMaxC= 1.00D-01 BMatC= 3.53D-03 BMatP= 4.94D-03
 IDIUse=3 WtCom= 9.14D-01 WtEn= 8.63D-02
 Coeff-Com: -0.704D+00 0.801D+00 0.596D-01 0.891D-02 0.341D-01 0.335D+00
 Coeff-Com:  0.465D+00
 Coeff-En:   0.000D+00 0.000D+00 0.000D+00 0.000D+00 0.000D+00 0.000D+00
 Coeff-En:   0.100D+01
 Coeff:     -0.643D+00 0.732D+00 0.545D-01 0.814D-02 0.312D-01 0.306D+00
 Coeff:      0.511D+00
 Gap=     0.055 Goal=   None    Shift=    0.000
 RMSDP=2.81D-04 MaxDP=2.16D-02 DE=-8.31D-03 OVMax= 2.73D-02

 Cycle   8  Pass 1  IDiag  1:
 E= -119.088877552179     Delta-E=       -0.003756308669 Rises=F Damp=F
 DIIS: error= 8.05D-03 at cycle   8 NSaved=   8.
 NSaved= 8 IEnMin= 8 EnMin= -119.088877552179     IErMin= 8 ErrMin= 8.05D-03
 ErrMax= 8.05D-03  0.00D+00 EMaxC= 1.00D-01 BMatC= 2.47D-03 BMatP= 3.53D-03
 IDIUse=3 WtCom= 9.20D-01 WtEn= 8.05D-02
 Coeff-Com: -0.626D+00 0.713D+00 0.773D-01 0.487D-01-0.983D-02-0.467D-01
 Coeff-Com: -0.133D+00 0.977D+00
 Coeff-En:   0.000D+00 0.000D+00 0.000D+00 0.000D+00 0.000D+00 0.000D+00
 Coeff-En:   0.000D+00 0.100D+01
 Coeff:     -0.576D+00 0.656D+00 0.710D-01 0.448D-01-0.904D-02-0.429D-01
 Coeff:     -0.123D+00 0.979D+00
 Gap=     0.058 Goal=   None    Shift=    0.000
 RMSDP=2.46D-04 MaxDP=1.50D-02 DE=-3.76D-03 OVMax= 4.09D-02

 Cycle   9  Pass 1  IDiag  1:
 E= -119.091100940972     Delta-E=       -0.002223388793 Rises=F Damp=F
 DIIS: error= 7.54D-03 at cycle   9 NSaved=   9.
 NSaved= 9 IEnMin= 9 EnMin= -119.091100940972     IErMin= 9 ErrMin= 7.54D-03
 ErrMax= 7.54D-03  0.00D+00 EMaxC= 1.00D-01 BMatC= 2.89D-03 BMatP= 2.47D-03
 IDIUse=3 WtCom= 9.20D-01 WtEn= 8.05D-02
 Coeff-Com: -0.556D+00 0.633D+00 0.575D-01 0.452D-01 0.911D-01-0.102D+00
 Coeff-Com: -0.106D+01 0.119D+01 0.703D+00
 Coeff-En:   0.000D+00 0.000D+00 0.000D+00 0.000D+00 0.000D+00 0.000D+00
 Coeff-En:   0.000D+00 0.000D+00 0.100D+01
 Coeff:     -0.511D+00 0.582D+00 0.528D-01 0.415D-01 0.837D-01-0.934D-01
 Coeff:     -0.978D+00 0.109D+01 0.727D+00
 Gap=     0.057 Goal=   None    Shift=    0.000
 RMSDP=1.99D-04 MaxDP=1.46D-02 DE=-2.22D-03 OVMax= 3.33D-02

 Cycle  10  Pass 1  IDiag  1:
 E= -119.095082653611     Delta-E=       -0.003981712639 Rises=F Damp=F
 DIIS: error= 6.97D-03 at cycle  10 NSaved=  10.
 NSaved=10 IEnMin=10 EnMin= -119.095082653611     IErMin=10 ErrMin= 6.97D-03
 ErrMax= 6.97D-03  0.00D+00 EMaxC= 1.00D-01 BMatC= 2.07D-03 BMatP= 2.47D-03
 IDIUse=3 WtCom= 9.30D-01 WtEn= 6.97D-02
 Coeff-Com: -0.497D+00 0.567D+00 0.427D-01 0.337D-01 0.191D+00-0.451D-01
 Coeff-Com: -0.121D+01 0.528D+00 0.282D+00 0.111D+01
 Coeff-En:   0.000D+00 0.000D+00 0.000D+00 0.000D+00 0.000D+00 0.000D+00
 Coeff-En:   0.000D+00 0.000D+00 0.000D+00 0.100D+01
 Coeff:     -0.463D+00 0.528D+00 0.398D-01 0.314D-01 0.178D+00-0.420D-01
 Coeff:     -0.113D+01 0.491D+00 0.262D+00 0.110D+01
 Gap=     0.059 Goal=   None    Shift=    0.000
 RMSDP=1.99D-04 MaxDP=1.09D-02 DE=-3.98D-03 OVMax= 3.59D-02

 Cycle  11  Pass 1  IDiag  1:
 E= -119.097818209366     Delta-E=       -0.002735555755 Rises=F Damp=F
 DIIS: error= 6.37D-03 at cycle  11 NSaved=  11.
 NSaved=11 IEnMin=11 EnMin= -119.097818209366     IErMin=11 ErrMin= 6.37D-03
 ErrMax= 6.37D-03  0.00D+00 EMaxC= 1.00D-01 BMatC= 1.91D-03 BMatP= 2.07D-03
 IDIUse=3 WtCom= 9.36D-01 WtEn= 6.37D-02
 Coeff-Com: -0.458D+00 0.523D+00 0.261D-01 0.452D-02 0.147D+00 0.131D+00
 Coeff-Com: -0.116D+00-0.618D+00-0.110D+01 0.150D+01 0.955D+00
 Coeff-En:   0.000D+00 0.000D+00 0.000D+00 0.000D+00 0.000D+00 0.000D+00
 Coeff-En:   0.000D+00 0.000D+00 0.000D+00 0.000D+00 0.100D+01
 Coeff:     -0.429D+00 0.489D+00 0.244D-01 0.423D-02 0.138D+00 0.123D+00
 Coeff:     -0.108D+00-0.579D+00-0.103D+01 0.141D+01 0.958D+00
 Gap=     0.059 Goal=   None    Shift=    0.000
 RMSDP=2.46D-04 MaxDP=2.76D-02 DE=-2.74D-03 OVMax= 4.16D-02

 Cycle  12  Pass 1  IDiag  1:
 E= -119.101112522526     Delta-E=       -0.003294313160 Rises=F Damp=F
 DIIS: error= 5.46D-03 at cycle  12 NSaved=  12.
 NSaved=12 IEnMin=12 EnMin= -119.101112522526     IErMin=12 ErrMin= 5.46D-03
 ErrMax= 5.46D-03  0.00D+00 EMaxC= 1.00D-01 BMatC= 1.46D-03 BMatP= 1.91D-03
 IDIUse=3 WtCom= 9.45D-01 WtEn= 5.46D-02
 Coeff-Com: -0.451D+00 0.515D+00 0.233D-01 0.573D-02-0.595D-01 0.112D+00
 Coeff-Com:  0.102D+01-0.626D+00-0.120D+01-0.558D-01 0.556D+00 0.116D+01
 Coeff-En:   0.000D+00 0.000D+00 0.000D+00 0.000D+00 0.000D+00 0.000D+00
 Coeff-En:   0.000D+00 0.000D+00 0.000D+00 0.000D+00 0.000D+00 0.100D+01
 Coeff:     -0.427D+00 0.487D+00 0.220D-01 0.542D-02-0.562D-01 0.106D+00
 Coeff:      0.962D+00-0.592D+00-0.113D+01-0.528D-01 0.526D+00 0.115D+01
 Gap=     0.060 Goal=   None    Shift=    0.000
 RMSDP=2.65D-04 MaxDP=2.42D-02 DE=-3.29D-03 OVMax= 2.58D-02

 Cycle  13  Pass 1  IDiag  1:
 E= -119.101929021825     Delta-E=       -0.000816499299 Rises=F Damp=F
 DIIS: error= 5.49D-03 at cycle  13 NSaved=  13.
 NSaved=13 IEnMin=13 EnMin= -119.101929021825     IErMin=12 ErrMin= 5.46D-03
 ErrMax= 5.49D-03  0.00D+00 EMaxC= 1.00D-01 BMatC= 1.52D-03 BMatP= 1.46D-03
 IDIUse=3 WtCom= 9.45D-01 WtEn= 5.46D-02
 Coeff-Com: -0.437D+00 0.498D+00 0.159D-01-0.312D-02-0.137D+00 0.994D-01
 Coeff-Com:  0.126D+01-0.470D+00-0.862D+00-0.847D+00-0.171D-01 0.119D+01
 Coeff-Com:  0.708D+00
 Coeff-En:   0.000D+00 0.000D+00 0.000D+00 0.000D+00 0.000D+00 0.000D+00
 Coeff-En:   0.000D+00 0.000D+00 0.000D+00 0.000D+00 0.000D+00 0.000D+00
 Coeff-En:   0.100D+01
 Coeff:     -0.413D+00 0.471D+00 0.151D-01-0.295D-02-0.130D+00 0.940D-01
 Coeff:      0.119D+01-0.444D+00-0.815D+00-0.801D+00-0.162D-01 0.113D+01
 Coeff:      0.723D+00
 Gap=     0.061 Goal=   None    Shift=    0.000
 RMSDP=3.55D-04 MaxDP=4.18D-02 DE=-8.16D-04 OVMax= 2.75D-02

 Cycle  14  Pass 1  IDiag  1:
 E= -119.103667608071     Delta-E=       -0.001738586246 Rises=F Damp=F
 DIIS: error= 4.99D-03 at cycle  14 NSaved=  14.
 NSaved=14 IEnMin=14 EnMin= -119.103667608071     IErMin=14 ErrMin= 4.99D-03
 ErrMax= 4.99D-03  0.00D+00 EMaxC= 1.00D-01 BMatC= 1.26D-03 BMatP= 1.46D-03
 IDIUse=3 WtCom= 9.50D-01 WtEn= 4.99D-02
 Coeff-Com: -0.415D+00 0.473D+00 0.179D-01-0.923D-02-0.686D-01 0.874D-01
 Coeff-Com:  0.782D+00-0.371D+00-0.495D+00-0.531D+00-0.218D+00 0.468D+00
 Coeff-Com:  0.419D+00 0.860D+00
 Coeff-En:   0.000D+00 0.000D+00 0.000D+00 0.000D+00 0.000D+00 0.000D+00
 Coeff-En:   0.000D+00 0.000D+00 0.000D+00 0.000D+00 0.000D+00 0.000D+00
 Coeff-En:   0.000D+00 0.100D+01
 Coeff:     -0.394D+00 0.449D+00 0.170D-01-0.877D-02-0.651D-01 0.830D-01
 Coeff:      0.743D+00-0.352D+00-0.470D+00-0.505D+00-0.207D+00 0.444D+00
 Coeff:      0.398D+00 0.867D+00
 Gap=     0.063 Goal=   None    Shift=    0.000
 RMSDP=1.29D-04 MaxDP=1.15D-02 DE=-1.74D-03 OVMax= 1.88D-02

 Cycle  15  Pass 1  IDiag  1:
 E= -119.104618041484     Delta-E=       -0.000950433413 Rises=F Damp=F
 DIIS: error= 4.81D-03 at cycle  15 NSaved=  15.
 NSaved=15 IEnMin=15 EnMin= -119.104618041484     IErMin=15 ErrMin= 4.81D-03
 ErrMax= 4.81D-03  0.00D+00 EMaxC= 1.00D-01 BMatC= 1.25D-03 BMatP= 1.26D-03
 IDIUse=3 WtCom= 9.52D-01 WtEn= 4.81D-02
 Coeff-Com: -0.413D+00 0.471D+00 0.177D-01-0.112D-01-0.623D-01 0.921D-01
 Coeff-Com:  0.739D+00-0.363D+00-0.468D+00-0.480D+00-0.215D+00 0.401D+00
 Coeff-Com:  0.337D+00 0.826D+00 0.129D+00
 Coeff-En:   0.000D+00 0.000D+00 0.000D+00 0.000D+00 0.000D+00 0.000D+00
 Coeff-En:   0.000D+00 0.000D+00 0.000D+00 0.000D+00 0.000D+00 0.000D+00
 Coeff-En:   0.000D+00 0.000D+00 0.100D+01
 Coeff:     -0.393D+00 0.449D+00 0.169D-01-0.107D-01-0.593D-01 0.877D-01
 Coeff:      0.703D+00-0.345D+00-0.445D+00-0.457D+00-0.205D+00 0.382D+00
 Coeff:      0.320D+00 0.786D+00 0.171D+00
 Gap=     0.063 Goal=   None    Shift=    0.000
 RMSDP=3.09D-05 MaxDP=2.97D-03 DE=-9.50D-04 OVMax= 3.95D-03

 Cycle  16  Pass 1  IDiag  1:
 E= -119.104754074503     Delta-E=       -0.000136033019 Rises=F Damp=F
 DIIS: error= 4.78D-03 at cycle  16 NSaved=  16.
 NSaved=16 IEnMin=16 EnMin= -119.104754074503     IErMin=16 ErrMin= 4.78D-03
 ErrMax= 4.78D-03  0.00D+00 EMaxC= 1.00D-01 BMatC= 1.23D-03 BMatP= 1.25D-03
 IDIUse=3 WtCom= 9.52D-01 WtEn= 4.78D-02
 Coeff-Com: -0.413D+00 0.471D+00 0.190D-01-0.764D-02-0.632D-01 0.804D-01
 Coeff-Com:  0.744D+00-0.362D+00-0.461D+00-0.541D+00-0.260D+00 0.416D+00
 Coeff-Com:  0.455D+00 0.112D+01 0.363D+00-0.562D+00
 Coeff-En:   0.000D+00 0.000D+00 0.000D+00 0.000D+00 0.000D+00 0.000D+00
 Coeff-En:   0.000D+00 0.000D+00 0.000D+00 0.000D+00 0.000D+00 0.000D+00
 Coeff-En:   0.000D+00 0.000D+00 0.000D+00 0.100D+01
 Coeff:     -0.393D+00 0.449D+00 0.181D-01-0.727D-02-0.602D-01 0.765D-01
 Coeff:      0.708D+00-0.345D+00-0.439D+00-0.515D+00-0.247D+00 0.396D+00
 Coeff:      0.433D+00 0.107D+01 0.345D+00-0.488D+00
 Gap=     0.063 Goal=   None    Shift=    0.000
 RMSDP=1.23D-05 MaxDP=7.98D-04 DE=-1.36D-04 OVMax= 2.09D-03

 Cycle  17  Pass 1  IDiag  1:
 E= -119.104634566308     Delta-E=        0.000119508195 Rises=F Damp=F
 DIIS: error= 4.82D-03 at cycle  17 NSaved=  17.
 NSaved=17 IEnMin=16 EnMin= -119.104754074503     IErMin=16 ErrMin= 4.78D-03
 ErrMax= 4.82D-03  0.00D+00 EMaxC= 1.00D-01 BMatC= 1.26D-03 BMatP= 1.23D-03
 IDIUse=3 WtCom= 9.52D-01 WtEn= 4.78D-02
 Rare condition: small coef for last iteration:  0.000D+00
 Coeff-Com: -0.384D+00 0.438D+00 0.160D-01 0.826D-02-0.324D-01 0.593D-01
 Coeff-Com:  0.656D+00-0.502D+00-0.550D+00-0.152D+00 0.778D-03 0.439D+00
 Coeff-Com:  0.186D+00-0.451D+00-0.118D+01 0.743D+01-0.498D+01
 Coeff-En:   0.000D+00 0.000D+00 0.000D+00 0.000D+00 0.000D+00 0.000D+00
 Coeff-En:   0.000D+00 0.000D+00 0.000D+00 0.000D+00 0.000D+00 0.000D+00
 Coeff-En:   0.000D+00 0.000D+00 0.225D+00 0.000D+00 0.775D+00
 Coeff:     -0.384D+00 0.438D+00 0.160D-01 0.826D-02-0.324D-01 0.593D-01
 Coeff:      0.656D+00-0.502D+00-0.550D+00-0.152D+00 0.778D-03 0.439D+00
 Coeff:      0.186D+00-0.451D+00-0.118D+01 0.743D+01-0.498D+01
 Gap=     0.066 Goal=   None    Shift=    0.000
 RMSDP=1.13D-04 MaxDP=1.43D-02 DE= 1.20D-04 OVMax= 1.74D-02

 Cycle  18  Pass 1  IDiag  1:
 E= -119.105249896980     Delta-E=       -0.000615330672 Rises=F Damp=F
 DIIS: error= 4.65D-03 at cycle  18 NSaved=  18.
 NSaved=18 IEnMin=18 EnMin= -119.105249896980     IErMin=18 ErrMin= 4.65D-03
 ErrMax= 4.65D-03  0.00D+00 EMaxC= 1.00D-01 BMatC= 1.34D-03 BMatP= 1.23D-03
 IDIUse=3 WtCom= 9.53D-01 WtEn= 4.65D-02
 Coeff-Com: -0.383D+00 0.437D+00 0.153D-01 0.981D-02-0.316D-01 0.521D-01
 Coeff-Com:  0.646D+00-0.490D+00-0.540D+00-0.152D+00-0.118D-01 0.448D+00
 Coeff-Com:  0.219D+00-0.390D+00-0.120D+01 0.785D+01-0.564D+01 0.164D+00
 Coeff-En:   0.000D+00 0.000D+00 0.000D+00 0.000D+00 0.000D+00 0.000D+00
 Coeff-En:   0.000D+00 0.000D+00 0.000D+00 0.000D+00 0.000D+00 0.000D+00
 Coeff-En:   0.000D+00 0.000D+00 0.000D+00 0.000D+00 0.000D+00 0.100D+01
 Coeff:     -0.365D+00 0.417D+00 0.146D-01 0.935D-02-0.302D-01 0.497D-01
 Coeff:      0.616D+00-0.467D+00-0.515D+00-0.145D+00-0.113D-01 0.427D+00
 Coeff:      0.209D+00-0.372D+00-0.114D+01 0.748D+01-0.538D+01 0.203D+00
 Gap=     0.065 Goal=   None    Shift=    0.000
 RMSDP=4.59D-05 MaxDP=2.55D-03 DE=-6.15D-04 OVMax= 1.20D-02

 Cycle  19  Pass 1  IDiag  1:
 E= -119.106203470629     Delta-E=       -0.000953573649 Rises=F Damp=F
 DIIS: error= 4.44D-03 at cycle  19 NSaved=  19.
 NSaved=19 IEnMin=19 EnMin= -119.106203470629     IErMin=19 ErrMin= 4.44D-03
 ErrMax= 4.44D-03  0.00D+00 EMaxC= 1.00D-01 BMatC= 1.08D-03 BMatP= 1.23D-03
 IDIUse=3 WtCom= 9.56D-01 WtEn= 4.44D-02
 Coeff-Com: -0.337D+00 0.384D+00 0.233D-01 0.367D-01-0.321D-01-0.117D-01
 Coeff-Com:  0.641D+00-0.561D+00-0.427D+00-0.188D+00-0.556D-01 0.478D+00
 Coeff-Com:  0.537D+00-0.270D+00-0.120D+01 0.887D+01-0.861D+01-0.286D+00
 Coeff-Com:  0.201D+01
 Coeff-En:   0.000D+00 0.000D+00 0.000D+00 0.000D+00 0.000D+00 0.000D+00
 Coeff-En:   0.000D+00 0.000D+00 0.000D+00 0.000D+00 0.000D+00 0.000D+00
 Coeff-En:   0.000D+00 0.000D+00 0.000D+00 0.000D+00 0.000D+00 0.000D+00
 Coeff-En:   0.100D+01
 Coeff:     -0.322D+00 0.367D+00 0.222D-01 0.350D-01-0.307D-01-0.112D-01
 Coeff:      0.613D+00-0.536D+00-0.408D+00-0.179D+00-0.531D-01 0.456D+00
 Coeff:      0.513D+00-0.258D+00-0.115D+01 0.847D+01-0.823D+01-0.274D+00
 Coeff:      0.196D+01
 Gap=     0.070 Goal=   None    Shift=    0.000
 RMSDP=1.52D-04 MaxDP=1.14D-02 DE=-9.54D-04 OVMax= 3.32D-02

 Cycle  20  Pass 1  IDiag  1:
 E= -119.107840390053     Delta-E=       -0.001636919425 Rises=F Damp=F
 DIIS: error= 4.15D-03 at cycle  20 NSaved=  20.
 NSaved=20 IEnMin=20 EnMin= -119.107840390053     IErMin=20 ErrMin= 4.15D-03
 ErrMax= 4.15D-03  0.00D+00 EMaxC= 1.00D-01 BMatC= 1.05D-03 BMatP= 1.08D-03
 IDIUse=3 WtCom= 9.58D-01 WtEn= 4.15D-02
 Coeff-Com: -0.311D+00 0.355D+00 0.301D-01 0.401D-01-0.630D-01-0.144D-01
 Coeff-Com:  0.779D+00-0.543D+00-0.388D+00-0.459D+00-0.153D+00 0.593D+00
 Coeff-Com:  0.864D+00 0.403D+00-0.531D+00 0.562D+01-0.788D+01-0.938D+00
 Coeff-Com:  0.306D+01 0.532D+00
 Coeff-En:   0.000D+00 0.000D+00 0.000D+00 0.000D+00 0.000D+00 0.000D+00
 Coeff-En:   0.000D+00 0.000D+00 0.000D+00 0.000D+00 0.000D+00 0.000D+00
 Coeff-En:   0.000D+00 0.000D+00 0.000D+00 0.000D+00 0.000D+00 0.000D+00
 Coeff-En:   0.000D+00 0.100D+01
 Coeff:     -0.298D+00 0.340D+00 0.288D-01 0.384D-01-0.604D-01-0.138D-01
 Coeff:      0.747D+00-0.521D+00-0.371D+00-0.440D+00-0.147D+00 0.569D+00
 Coeff:      0.828D+00 0.386D+00-0.509D+00 0.538D+01-0.755D+01-0.900D+00
 Coeff:      0.294D+01 0.552D+00
 Gap=     0.072 Goal=   None    Shift=    0.000
 RMSDP=8.87D-05 MaxDP=1.04D-02 DE=-1.64D-03 OVMax= 2.25D-02

 Cycle  21  Pass 1  IDiag  1:
 E= -119.108928961893     Delta-E=       -0.001088571840 Rises=F Damp=F
 DIIS: error= 3.86D-03 at cycle  21 NSaved=  20.
 NSaved=20 IEnMin=20 EnMin= -119.108928961893     IErMin=20 ErrMin= 3.86D-03
 ErrMax= 3.86D-03  0.00D+00 EMaxC= 1.00D-01 BMatC= 9.71D-04 BMatP= 1.05D-03
 IDIUse=3 WtCom= 9.61D-01 WtEn= 3.86D-02
 Coeff-Com: -0.283D+00 0.322D+00 0.332D-02-0.270D-01 0.302D-01 0.576D+00
 Coeff-Com: -0.506D+00-0.429D+00-0.223D+00-0.102D+00 0.533D+00 0.502D+00
 Coeff-Com:  0.135D+00-0.935D+00 0.800D+01-0.797D+01 0.787D-02 0.108D+01
 Coeff-Com: -0.101D+01 0.129D+01
 Coeff-En:   0.000D+00 0.000D+00 0.000D+00 0.000D+00 0.000D+00 0.000D+00
 Coeff-En:   0.000D+00 0.000D+00 0.000D+00 0.000D+00 0.000D+00 0.000D+00
 Coeff-En:   0.000D+00 0.000D+00 0.000D+00 0.000D+00 0.000D+00 0.000D+00
 Coeff-En:   0.000D+00 0.100D+01
 Coeff:     -0.272D+00 0.310D+00 0.320D-02-0.259D-01 0.291D-01 0.554D+00
 Coeff:     -0.486D+00-0.412D+00-0.214D+00-0.985D-01 0.513D+00 0.482D+00
 Coeff:      0.130D+00-0.899D+00 0.769D+01-0.766D+01 0.756D-02 0.104D+01
 Coeff:     -0.969D+00 0.128D+01
 Gap=     0.069 Goal=   None    Shift=    0.000
 RMSDP=7.75D-05 MaxDP=4.67D-03 DE=-1.09D-03 OVMax= 1.50D-02

 Cycle  22  Pass 1  IDiag  1:
 E= -119.109817710339     Delta-E=       -0.000888748446 Rises=F Damp=F
 DIIS: error= 3.42D-03 at cycle  22 NSaved=  20.
 NSaved=20 IEnMin=20 EnMin= -119.109817710339     IErMin=20 ErrMin= 3.42D-03
 ErrMax= 3.42D-03  0.00D+00 EMaxC= 1.00D-01 BMatC= 6.97D-04 BMatP= 9.71D-04
 IDIUse=3 WtCom= 9.66D-01 WtEn= 3.42D-02
 Coeff-Com: -0.160D+00 0.183D+00 0.289D-01-0.264D-01-0.165D-01 0.192D+00
 Coeff-Com:  0.450D+00-0.421D+00-0.575D+00-0.171D+00 0.337D+00 0.146D+01
 Coeff-Com:  0.655D+00-0.139D+01 0.125D+01-0.439D+00-0.214D+01-0.552D+01
 Coeff-Com:  0.455D+01 0.275D+01
 Coeff-En:   0.000D+00 0.000D+00 0.000D+00 0.000D+00 0.000D+00 0.000D+00
 Coeff-En:   0.000D+00 0.000D+00 0.000D+00 0.000D+00 0.000D+00 0.000D+00
 Coeff-En:   0.000D+00 0.000D+00 0.000D+00 0.000D+00 0.000D+00 0.000D+00
 Coeff-En:   0.000D+00 0.100D+01
 Coeff:     -0.155D+00 0.177D+00 0.279D-01-0.255D-01-0.159D-01 0.185D+00
 Coeff:      0.434D+00-0.406D+00-0.555D+00-0.165D+00 0.326D+00 0.141D+01
 Coeff:      0.632D+00-0.134D+01 0.121D+01-0.424D+00-0.207D+01-0.533D+01
 Coeff:      0.439D+01 0.269D+01
 Gap=     0.078 Goal=   None    Shift=    0.000
 RMSDP=3.96D-04 MaxDP=4.06D-02 DE=-8.89D-04 OVMax= 1.11D-01

 Cycle  23  Pass 1  IDiag  1:
 E= -119.113976101091     Delta-E=       -0.004158390751 Rises=F Damp=F
 DIIS: error= 1.84D-03 at cycle  23 NSaved=  20.
 NSaved=20 IEnMin=20 EnMin= -119.113976101091     IErMin=20 ErrMin= 1.84D-03
 ErrMax= 1.84D-03  0.00D+00 EMaxC= 1.00D-01 BMatC= 1.96D-04 BMatP= 6.97D-04
 IDIUse=3 WtCom= 9.82D-01 WtEn= 1.84D-02
 Coeff-Com:  0.142D-03 0.349D-01-0.628D-03-0.145D+00 0.247D+00 0.696D+00
 Coeff-Com: -0.446D+00-0.513D+00-0.376D+00 0.122D+00 0.151D+01 0.156D+01
 Coeff-Com: -0.816D+01 0.647D+01-0.603D+00-0.164D+01-0.345D+01 0.253D+01
 Coeff-Com:  0.184D+01 0.131D+01
 Coeff-En:   0.000D+00 0.000D+00 0.000D+00 0.000D+00 0.000D+00 0.000D+00
 Coeff-En:   0.000D+00 0.000D+00 0.000D+00 0.000D+00 0.000D+00 0.000D+00
 Coeff-En:   0.000D+00 0.000D+00 0.000D+00 0.000D+00 0.000D+00 0.000D+00
 Coeff-En:   0.000D+00 0.100D+01
 Coeff:      0.139D-03 0.343D-01-0.616D-03-0.142D+00 0.242D+00 0.683D+00
 Coeff:     -0.437D+00-0.504D+00-0.369D+00 0.120D+00 0.148D+01 0.153D+01
 Coeff:     -0.801D+01 0.635D+01-0.592D+00-0.161D+01-0.339D+01 0.248D+01
 Coeff:      0.181D+01 0.131D+01
 Gap=     0.090 Goal=   None    Shift=    0.000
 RMSDP=4.05D-04 MaxDP=2.63D-02 DE=-4.16D-03 OVMax= 1.10D-01

 Cycle  24  Pass 1  IDiag  1:
 E= -119.115613625504     Delta-E=       -0.001637524413 Rises=F Damp=F
 DIIS: error= 1.03D-03 at cycle  24 NSaved=  20.
 NSaved=20 IEnMin=20 EnMin= -119.115613625504     IErMin=20 ErrMin= 1.03D-03
 ErrMax= 1.03D-03  0.00D+00 EMaxC= 1.00D-01 BMatC= 1.14D-04 BMatP= 1.96D-04
 IDIUse=3 WtCom= 9.90D-01 WtEn= 1.03D-02
 Coeff-Com:  0.233D-01 0.109D-01-0.323D-01 0.804D-01 0.409D+00-0.223D+00
 Coeff-Com: -0.177D+00-0.315D-01 0.357D-02 0.190D+00 0.451D+00-0.298D+01
 Coeff-Com:  0.298D+01-0.341D+00-0.816D+00-0.179D+01 0.833D+00 0.889D+00
 Coeff-Com:  0.114D+01 0.379D+00
 Coeff-En:   0.000D+00 0.000D+00 0.000D+00 0.000D+00 0.000D+00 0.000D+00
 Coeff-En:   0.000D+00 0.000D+00 0.000D+00 0.000D+00 0.000D+00 0.000D+00
 Coeff-En:   0.000D+00 0.000D+00 0.000D+00 0.000D+00 0.000D+00 0.000D+00
 Coeff-En:   0.000D+00 0.100D+01
 Coeff:      0.230D-01 0.108D-01-0.319D-01 0.795D-01 0.405D+00-0.221D+00
 Coeff:     -0.176D+00-0.312D-01 0.353D-02 0.188D+00 0.447D+00-0.295D+01
 Coeff:      0.294D+01-0.337D+00-0.808D+00-0.177D+01 0.825D+00 0.880D+00
 Coeff:      0.113D+01 0.386D+00
 Gap=     0.090 Goal=   None    Shift=    0.000
 RMSDP=1.02D-04 MaxDP=1.35D-02 DE=-1.64D-03 OVMax= 1.50D-02

 Cycle  25  Pass 1  IDiag  1:
 E= -119.115760704165     Delta-E=       -0.000147078661 Rises=F Damp=F
 DIIS: error= 3.38D-04 at cycle  25 NSaved=  20.
 NSaved=20 IEnMin=20 EnMin= -119.115760704165     IErMin=20 ErrMin= 3.38D-04
 ErrMax= 3.38D-04  0.00D+00 EMaxC= 1.00D-01 BMatC= 1.75D-05 BMatP= 1.14D-04
 IDIUse=3 WtCom= 9.97D-01 WtEn= 3.38D-03
 Coeff-Com:  0.177D-01 0.990D-01-0.904D-01 0.106D+00-0.152D+00 0.357D-01
 Coeff-Com:  0.221D+00-0.986D-01-0.606D+00-0.232D+00 0.329D+00 0.666D+00
 Coeff-Com: -0.531D+00 0.279D+00-0.186D+00-0.221D+00 0.168D+00 0.348D+00
 Coeff-Com: -0.297D-01 0.876D+00
 Coeff-En:   0.000D+00 0.000D+00 0.000D+00 0.000D+00 0.000D+00 0.000D+00
 Coeff-En:   0.000D+00 0.000D+00 0.000D+00 0.000D+00 0.000D+00 0.000D+00
 Coeff-En:   0.000D+00 0.000D+00 0.000D+00 0.000D+00 0.000D+00 0.000D+00
 Coeff-En:   0.000D+00 0.100D+01
 Coeff:      0.176D-01 0.987D-01-0.901D-01 0.106D+00-0.152D+00 0.355D-01
 Coeff:      0.221D+00-0.983D-01-0.604D+00-0.231D+00 0.328D+00 0.664D+00
 Coeff:     -0.529D+00 0.278D+00-0.185D+00-0.220D+00 0.168D+00 0.347D+00
 Coeff:     -0.296D-01 0.876D+00
 Gap=     0.090 Goal=   None    Shift=    0.000
 RMSDP=7.71D-05 MaxDP=8.61D-03 DE=-1.47D-04 OVMax= 6.99D-03

 Cycle  26  Pass 1  IDiag  1:
 E= -119.115780871911     Delta-E=       -0.000020167746 Rises=F Damp=F
 DIIS: error= 3.31D-04 at cycle  26 NSaved=  20.
 NSaved=20 IEnMin=20 EnMin= -119.115780871911     IErMin=20 ErrMin= 3.31D-04
 ErrMax= 3.31D-04  0.00D+00 EMaxC= 1.00D-01 BMatC= 6.26D-06 BMatP= 1.75D-05
 IDIUse=3 WtCom= 9.97D-01 WtEn= 3.31D-03
 Coeff-Com: -0.279D-02 0.313D-02 0.128D+00-0.179D+00-0.653D-01 0.493D-01
 Coeff-Com: -0.113D+00-0.613D-01 0.141D+00-0.109D+01 0.134D+01-0.395D+00
 Coeff-Com:  0.225D+00 0.565D-01-0.923D-01 0.108D+00-0.168D-01-0.346D+00
 Coeff-Com:  0.727D+00 0.579D+00
 Coeff-En:   0.000D+00 0.000D+00 0.000D+00 0.000D+00 0.000D+00 0.000D+00
 Coeff-En:   0.000D+00 0.000D+00 0.000D+00 0.000D+00 0.000D+00 0.000D+00
 Coeff-En:   0.000D+00 0.000D+00 0.000D+00 0.000D+00 0.000D+00 0.000D+00
 Coeff-En:   0.190D+00 0.810D+00
 Coeff:     -0.278D-02 0.312D-02 0.128D+00-0.178D+00-0.651D-01 0.492D-01
 Coeff:     -0.112D+00-0.611D-01 0.140D+00-0.108D+01 0.134D+01-0.394D+00
 Coeff:      0.224D+00 0.563D-01-0.919D-01 0.108D+00-0.167D-01-0.345D+00
 Coeff:      0.726D+00 0.580D+00
 Gap=     0.090 Goal=   None    Shift=    0.000
 RMSDP=7.06D-05 MaxDP=5.95D-03 DE=-2.02D-05 OVMax= 5.07D-03

 Cycle  27  Pass 1  IDiag  1:
 E= -119.115787625983     Delta-E=       -0.000006754072 Rises=F Damp=F
 DIIS: error= 1.76D-04 at cycle  27 NSaved=  20.
 NSaved=20 IEnMin=20 EnMin= -119.115787625983     IErMin=20 ErrMin= 1.76D-04
 ErrMax= 1.76D-04  0.00D+00 EMaxC= 1.00D-01 BMatC= 3.97D-06 BMatP= 6.26D-06
 IDIUse=3 WtCom= 9.98D-01 WtEn= 1.76D-03
 Coeff-Com:  0.221D-01 0.478D-01-0.793D-01-0.192D-01 0.345D-01-0.631D-01
 Coeff-Com: -0.410D-01 0.331D-01-0.206D+00 0.209D+00 0.130D-01 0.815D-01
 Coeff-Com:  0.175D+00-0.198D+00-0.153D-02-0.455D-01-0.209D+00 0.197D+00
 Coeff-Com:  0.413D+00 0.637D+00
 Coeff-En:   0.000D+00 0.000D+00 0.000D+00 0.000D+00 0.000D+00 0.000D+00
 Coeff-En:   0.000D+00 0.000D+00 0.000D+00 0.000D+00 0.000D+00 0.000D+00
 Coeff-En:   0.000D+00 0.000D+00 0.000D+00 0.000D+00 0.000D+00 0.000D+00
 Coeff-En:   0.353D+00 0.647D+00
 Coeff:      0.221D-01 0.477D-01-0.792D-01-0.191D-01 0.344D-01-0.630D-01
 Coeff:     -0.409D-01 0.330D-01-0.205D+00 0.209D+00 0.130D-01 0.813D-01
 Coeff:      0.174D+00-0.198D+00-0.152D-02-0.454D-01-0.208D+00 0.197D+00
 Coeff:      0.413D+00 0.637D+00
 Gap=     0.091 Goal=   None    Shift=    0.000
 RMSDP=4.28D-05 MaxDP=3.35D-03 DE=-6.75D-06 OVMax= 5.56D-03

 Cycle  28  Pass 1  IDiag  1:
 E= -119.115793219605     Delta-E=       -0.000005593622 Rises=F Damp=F
 DIIS: error= 2.87D-05 at cycle  28 NSaved=  20.
 NSaved=20 IEnMin=20 EnMin= -119.115793219605     IErMin=20 ErrMin= 2.87D-05
 ErrMax= 2.87D-05  0.00D+00 EMaxC= 1.00D-01 BMatC= 2.02D-07 BMatP= 3.97D-06
 IDIUse=1 WtCom= 1.00D+00 WtEn= 0.00D+00
 Coeff-Com:  0.347D-02-0.140D-01 0.748D-02 0.289D-01-0.210D-01-0.172D-01
 Coeff-Com: -0.240D-03 0.679D-01-0.997D-01 0.438D-01 0.275D-01 0.336D-01
 Coeff-Com: -0.591D-01-0.403D-02-0.525D-02-0.267D-01-0.121D-01 0.932D-01
 Coeff-Com:  0.284D+00 0.670D+00
 Coeff:      0.347D-02-0.140D-01 0.748D-02 0.289D-01-0.210D-01-0.172D-01
 Coeff:     -0.240D-03 0.679D-01-0.997D-01 0.438D-01 0.275D-01 0.336D-01
 Coeff:     -0.591D-01-0.403D-02-0.525D-02-0.267D-01-0.121D-01 0.932D-01
 Coeff:      0.284D+00 0.670D+00
 Gap=     0.091 Goal=   None    Shift=    0.000
 RMSDP=1.66D-05 MaxDP=1.17D-03 DE=-5.59D-06 OVMax= 9.44D-04

 Cycle  29  Pass 1  IDiag  1:
 E= -119.115793507585     Delta-E=       -0.000000287980 Rises=F Damp=F
 DIIS: error= 1.81D-05 at cycle  29 NSaved=  20.
 NSaved=20 IEnMin=20 EnMin= -119.115793507585     IErMin=20 ErrMin= 1.81D-05
 ErrMax= 1.81D-05  0.00D+00 EMaxC= 1.00D-01 BMatC= 5.09D-08 BMatP= 2.02D-07
 IDIUse=1 WtCom= 1.00D+00 WtEn= 0.00D+00
 Coeff-Com: -0.328D-02 0.264D-02 0.127D-01-0.264D-02 0.107D-01 0.714D-02
 Coeff-Com:  0.218D-01-0.648D-01 0.336D-01-0.118D-01-0.326D-01 0.158D-01
 Coeff-Com:  0.743D-03 0.195D-01 0.339D-01-0.520D-01-0.384D-01 0.279D-01
 Coeff-Com:  0.429D+00 0.590D+00
 Coeff:     -0.328D-02 0.264D-02 0.127D-01-0.264D-02 0.107D-01 0.714D-02
 Coeff:      0.218D-01-0.648D-01 0.336D-01-0.118D-01-0.326D-01 0.158D-01
 Coeff:      0.743D-03 0.195D-01 0.339D-01-0.520D-01-0.384D-01 0.279D-01
 Coeff:      0.429D+00 0.590D+00
 Gap=     0.091 Goal=   None    Shift=    0.000
 RMSDP=8.90D-06 MaxDP=1.26D-03 DE=-2.88D-07 OVMax= 3.74D-04

 Cycle  30  Pass 1  IDiag  1:
 E= -119.115793602031     Delta-E=       -0.000000094446 Rises=F Damp=F
 DIIS: error= 7.17D-06 at cycle  30 NSaved=  20.
 NSaved=20 IEnMin=20 EnMin= -119.115793602031     IErMin=20 ErrMin= 7.17D-06
 ErrMax= 7.17D-06  0.00D+00 EMaxC= 1.00D-01 BMatC= 1.13D-08 BMatP= 5.09D-08
 IDIUse=1 WtCom= 1.00D+00 WtEn= 0.00D+00
 Coeff-Com:  0.229D-02 0.626D-02-0.272D-02-0.652D-02-0.734D-02 0.643D-01
 Coeff-Com: -0.715D-01 0.183D-01 0.347D-02-0.192D-02-0.511D-02-0.357D-02
 Coeff-Com:  0.460D-02 0.166D-01-0.206D-01-0.259D-01-0.170D-01 0.130D+00
 Coeff-Com:  0.299D+00 0.617D+00
 Coeff:      0.229D-02 0.626D-02-0.272D-02-0.652D-02-0.734D-02 0.643D-01
 Coeff:     -0.715D-01 0.183D-01 0.347D-02-0.192D-02-0.511D-02-0.357D-02
 Coeff:      0.460D-02 0.166D-01-0.206D-01-0.259D-01-0.170D-01 0.130D+00
 Coeff:      0.299D+00 0.617D+00
 Gap=     0.091 Goal=   None    Shift=    0.000
 RMSDP=2.88D-06 MaxDP=4.16D-04 DE=-9.44D-08 OVMax= 2.66D-04

 Cycle  31  Pass 1  IDiag  1:
 E= -119.115793616882     Delta-E=       -0.000000014851 Rises=F Damp=F
 DIIS: error= 3.34D-06 at cycle  31 NSaved=  20.
 NSaved=20 IEnMin=20 EnMin= -119.115793616882     IErMin=20 ErrMin= 3.34D-06
 ErrMax= 3.34D-06  0.00D+00 EMaxC= 1.00D-01 BMatC= 2.40D-09 BMatP= 1.13D-08
 IDIUse=1 WtCom= 1.00D+00 WtEn= 0.00D+00
 Coeff-Com:  0.804D-03-0.677D-03 0.861D-03-0.792D-03 0.175D-01-0.249D-01
 Coeff-Com:  0.388D-02 0.396D-02-0.202D-02 0.866D-03 0.236D-02-0.256D-02
 Coeff-Com:  0.337D-02-0.447D-02-0.740D-02-0.133D-01-0.150D-01 0.451D-01
 Coeff-Com:  0.378D+00 0.615D+00
 Coeff:      0.804D-03-0.677D-03 0.861D-03-0.792D-03 0.175D-01-0.249D-01
 Coeff:      0.388D-02 0.396D-02-0.202D-02 0.866D-03 0.236D-02-0.256D-02
 Coeff:      0.337D-02-0.447D-02-0.740D-02-0.133D-01-0.150D-01 0.451D-01
 Coeff:      0.378D+00 0.615D+00
 Gap=     0.091 Goal=   None    Shift=    0.000
 RMSDP=1.53D-06 MaxDP=2.17D-04 DE=-1.49D-08 OVMax= 6.92D-05

 Cycle  32  Pass 1  IDiag  1:
 E= -119.115793621749     Delta-E=       -0.000000004868 Rises=F Damp=F
 DIIS: error= 1.88D-06 at cycle  32 NSaved=  20.
 NSaved=20 IEnMin=20 EnMin= -119.115793621749     IErMin=20 ErrMin= 1.88D-06
 ErrMax= 1.88D-06  0.00D+00 EMaxC= 1.00D-01 BMatC= 3.44D-10 BMatP= 2.40D-09
 IDIUse=1 WtCom= 1.00D+00 WtEn= 0.00D+00
 Coeff-Com: -0.852D-03-0.181D-02-0.136D-02 0.705D-02-0.370D-02-0.140D-02
 Coeff-Com:  0.228D-02 0.141D-02-0.920D-03 0.429D-03-0.180D-02-0.281D-02
 Coeff-Com:  0.269D-02 0.363D-02 0.198D-03-0.220D-01-0.299D-01 0.265D-01
 Coeff-Com:  0.247D+00 0.775D+00
 Coeff:     -0.852D-03-0.181D-02-0.136D-02 0.705D-02-0.370D-02-0.140D-02
 Coeff:      0.228D-02 0.141D-02-0.920D-03 0.429D-03-0.180D-02-0.281D-02
 Coeff:      0.269D-02 0.363D-02 0.198D-03-0.220D-01-0.299D-01 0.265D-01
 Coeff:      0.247D+00 0.775D+00
 Gap=     0.091 Goal=   None    Shift=    0.000
 RMSDP=3.97D-07 MaxDP=3.33D-05 DE=-4.87D-09 OVMax= 2.00D-05

 Cycle  33  Pass 1  IDiag  1:
 E= -119.115793622140     Delta-E=       -0.000000000391 Rises=F Damp=F
 DIIS: error= 5.16D-07 at cycle  33 NSaved=  20.
 NSaved=20 IEnMin=20 EnMin= -119.115793622140     IErMin=20 ErrMin= 5.16D-07
 ErrMax= 5.16D-07  0.00D+00 EMaxC= 1.00D-01 BMatC= 5.11D-11 BMatP= 3.44D-10
 IDIUse=1 WtCom= 1.00D+00 WtEn= 0.00D+00
 Coeff-Com: -0.467D-03-0.465D-03 0.237D-02-0.163D-02-0.896D-03 0.116D-02
 Coeff-Com:  0.609D-03-0.251D-03-0.266D-03-0.297D-03-0.135D-02 0.163D-02
 Coeff-Com:  0.190D-02 0.662D-03-0.664D-02-0.164D-01-0.371D-01 0.328D-01
 Coeff-Com:  0.388D+00 0.637D+00
 Coeff:     -0.467D-03-0.465D-03 0.237D-02-0.163D-02-0.896D-03 0.116D-02
 Coeff:      0.609D-03-0.251D-03-0.266D-03-0.297D-03-0.135D-02 0.163D-02
 Coeff:      0.190D-02 0.662D-03-0.664D-02-0.164D-01-0.371D-01 0.328D-01
 Coeff:      0.388D+00 0.637D+00
 Gap=     0.091 Goal=   None    Shift=    0.000
 RMSDP=2.44D-07 MaxDP=2.35D-05 DE=-3.91D-10 OVMax= 8.19D-06

 Cycle  34  Pass 1  IDiag  1:
 E= -119.115793622218     Delta-E=       -0.000000000078 Rises=F Damp=F
 DIIS: error= 2.91D-07 at cycle  34 NSaved=  20.
 NSaved=20 IEnMin=20 EnMin= -119.115793622218     IErMin=20 ErrMin= 2.91D-07
 ErrMax= 2.91D-07  0.00D+00 EMaxC= 1.00D-01 BMatC= 9.76D-12 BMatP= 5.11D-11
 IDIUse=1 WtCom= 1.00D+00 WtEn= 0.00D+00
 Coeff-Com:  0.212D-04-0.140D-03-0.148D-04-0.768D-04 0.370D-03 0.773D-03
 Coeff-Com: -0.703D-03-0.347D-03 0.163D-04-0.610D-03 0.824D-03 0.105D-02
 Coeff-Com:  0.128D-02 0.754D-03-0.498D-02-0.311D-01-0.409D-01 0.533D-01
 Coeff-Com:  0.364D+00 0.657D+00
 Coeff:      0.212D-04-0.140D-03-0.148D-04-0.768D-04 0.370D-03 0.773D-03
 Coeff:     -0.703D-03-0.347D-03 0.163D-04-0.610D-03 0.824D-03 0.105D-02
 Coeff:      0.128D-02 0.754D-03-0.498D-02-0.311D-01-0.409D-01 0.533D-01
 Coeff:      0.364D+00 0.657D+00
 Gap=     0.091 Goal=   None    Shift=    0.000
 RMSDP=8.01D-08 MaxDP=4.77D-06 DE=-7.83D-11 OVMax= 8.64D-06

 Cycle  35  Pass 1  IDiag  1:
 E= -119.115793622242     Delta-E=       -0.000000000024 Rises=F Damp=F
 DIIS: error= 2.06D-07 at cycle  35 NSaved=  20.
 NSaved=20 IEnMin=20 EnMin= -119.115793622242     IErMin=20 ErrMin= 2.06D-07
 ErrMax= 2.06D-07  0.00D+00 EMaxC= 1.00D-01 BMatC= 3.90D-12 BMatP= 9.76D-12
 IDIUse=1 WtCom= 1.00D+00 WtEn= 0.00D+00
 Coeff-Com:  0.918D-04-0.177D-03 0.101D-03-0.564D-04 0.929D-04-0.531D-04
 Coeff-Com: -0.197D-04 0.329D-04 0.132D-03-0.114D-03-0.807D-04 0.353D-03
 Coeff-Com:  0.786D-03-0.534D-03-0.542D-02-0.213D-01-0.469D-01 0.282D-01
 Coeff-Com:  0.233D+00 0.812D+00
 Coeff:      0.918D-04-0.177D-03 0.101D-03-0.564D-04 0.929D-04-0.531D-04
 Coeff:     -0.197D-04 0.329D-04 0.132D-03-0.114D-03-0.807D-04 0.353D-03
 Coeff:      0.786D-03-0.534D-03-0.542D-02-0.213D-01-0.469D-01 0.282D-01
 Coeff:      0.233D+00 0.812D+00
 Gap=     0.091 Goal=   None    Shift=    0.000
 RMSDP=3.86D-08 MaxDP=2.78D-06 DE=-2.35D-11 OVMax= 3.48D-06

 Cycle  36  Pass 1  IDiag  1:
 E= -119.115793622252     Delta-E=       -0.000000000010 Rises=F Damp=F
 DIIS: error= 7.08D-08 at cycle  36 NSaved=  20.
 NSaved=20 IEnMin=20 EnMin= -119.115793622252     IErMin=20 ErrMin= 7.08D-08
 ErrMax= 7.08D-08  0.00D+00 EMaxC= 1.00D-01 BMatC= 6.59D-13 BMatP= 3.90D-12
 IDIUse=1 WtCom= 1.00D+00 WtEn= 0.00D+00
 Coeff-Com:  0.390D-04 0.843D-04-0.161D-03-0.103D-03 0.664D-04 0.110D-03
 Coeff-Com: -0.462D-04 0.123D-03-0.133D-03-0.121D-03 0.118D-03 0.479D-03
 Coeff-Com:  0.481D-03 0.133D-02-0.592D-02-0.390D-01-0.661D-01-0.778D-02
 Coeff-Com:  0.453D+00 0.664D+00
 Coeff:      0.390D-04 0.843D-04-0.161D-03-0.103D-03 0.664D-04 0.110D-03
 Coeff:     -0.462D-04 0.123D-03-0.133D-03-0.121D-03 0.118D-03 0.479D-03
 Coeff:      0.481D-03 0.133D-02-0.592D-02-0.390D-01-0.661D-01-0.778D-02
 Coeff:      0.453D+00 0.664D+00
 Gap=     0.091 Goal=   None    Shift=    0.000
 RMSDP=1.74D-08 MaxDP=1.54D-06 DE=-1.04D-11 OVMax= 1.70D-06

 Cycle  37  Pass 1  IDiag  1:
 E= -119.115793622253     Delta-E=       -0.000000000001 Rises=F Damp=F
 DIIS: error= 3.12D-08 at cycle  37 NSaved=  20.
 NSaved=20 IEnMin=20 EnMin= -119.115793622253     IErMin=20 ErrMin= 3.12D-08
 ErrMax= 3.12D-08  0.00D+00 EMaxC= 1.00D-01 BMatC= 1.74D-13 BMatP= 6.59D-13
 IDIUse=1 WtCom= 1.00D+00 WtEn= 0.00D+00
 Coeff-Com:  0.370D-04-0.570D-04-0.455D-04 0.261D-04 0.716D-04-0.443D-04
 Coeff-Com:  0.427D-04-0.517D-04-0.359D-04 0.650D-04 0.289D-03 0.386D-03
 Coeff-Com:  0.170D-02-0.693D-03-0.201D-01-0.473D-01-0.290D-01 0.201D+00
 Coeff-Com:  0.436D+00 0.458D+00
 Coeff:      0.370D-04-0.570D-04-0.455D-04 0.261D-04 0.716D-04-0.443D-04
 Coeff:      0.427D-04-0.517D-04-0.359D-04 0.650D-04 0.289D-03 0.386D-03
 Coeff:      0.170D-02-0.693D-03-0.201D-01-0.473D-01-0.290D-01 0.201D+00
 Coeff:      0.436D+00 0.458D+00
 Gap=     0.091 Goal=   None    Shift=    0.000
 RMSDP=6.83D-09 MaxDP=6.73D-07 DE=-9.38D-13 OVMax= 8.27D-07

 SCF Done:  E(ROHF) =  -119.115793622     A.U. after   37 cycles
            NFock= 37  Conv=0.68D-08     -V/T= 2.7219
 <Sx>= 0.0000 <Sy>= 0.0000 <Sz>= 2.5000 <S**2>= 8.7500 S= 2.5000
 <L.S>=  0.00000000000    
 KE= 6.917750266751D+01 PE=-3.437315993358D+02 EE= 1.214197680584D+02
 Annihilation of the first spin contaminant:
 S**2 before annihilation     8.7500,   after     8.7500
 Leave Link  502 at Fri Mar  9 17:05:59 2018, MaxMem= 10737418240 cpu:             509.3 elap:              39.1
 (Enter /home1/apps/gaussian/16rA.03/g16/l801.exe)
 Windowed orbitals will be sorted by symmetry type.
 GenMOA:  NOpAll=  4 NOp2=4 NOpUse=  4 JSym2X=1
 FoFJK:  IHMeth= 1 ICntrl=       0 DoSepK=F KAlg= 0 I1Cent=           0 FoldK=F
 IRaf=         0 NMat=       1 IRICut=       1 DoRegI=T DoRafI=F ISym2E= 1 IDoP0=0 IntGTp=1.
 FoFCou: FMM=F IPFlag=           8 FMFlag=      100000 FMFlg1=           0
         NFxFlg=           0 DoJE=F BraDBF=F KetDBF=F FulRan=T
         wScrn=  0.000000 ICntrl=         0 IOpCl=  1 I1Cent=           0 NGrid=           0
         NMat0=    1 NMatS0=      1 NMatT0=    0 NMatD0=    1 NMtDS0=    0 NMtDT0=    0
 Petite list used in FoFCou.
 <Sx>= 0.0000 <Sy>= 0.0000 <Sz>= 2.5000 <S**2>= 8.7500 S= 2.5000
 Range of M.O.s used for correlation:     1   258
 NBasis=   261 NAE=    13 NBE=     8 NFC=     0 NFV=     0
 NROrb=    258 NOA=    13 NOB=     8 NVA=   245 NVB=   250

 **** Warning!!: The largest alpha MO coefficient is  0.33324941D+03


 **** Warning!!: The largest beta MO coefficient is  0.33263857D+03

 Singles contribution to E2=   -0.8662786387D-02
 Leave Link  801 at Fri Mar  9 17:06:06 2018, MaxMem= 10737418240 cpu:             102.0 elap:               6.4
 (Enter /home1/apps/gaussian/16rA.03/g16/l804.exe)
 Open-shell transformation, MDV= 10737418240 ITran=4 ISComp=2.
 Unit  1 TFree=       2053412 TCopy=        917940.
 Semi-Direct transformation.
 ModeAB=           4 MOrb=            13 LenV=   10735346914
 LASXX=     27714387 LTotXX=    27714387 LenRXX=    55891917
 LTotAB=    28177530 MaxLAS=   162410742 LenRXY=           0
 NonZer=    83606304 LenScr=   126157824 LnRSAI=   162410742
 LnScr1=   244572160 LExtra=    11236859 Total=    600269502
 MaxDsk= 67108864000 SrtSym=           T ITran=            4
 DoSDTr:  NPSUse= 16
 JobTyp=1 Pass  1:  I=   1 to  13.
 (rs|ai) integrals will be sorted in core.
 Complete sort for first half transformation.
 First half transformation complete.
 Begin second half transformation for I=  10.
 Complete sort for second half transformation.
 Second half transformation complete.
 ModeAB=           4 MOrb=             8 LenV=   10735346914
 LASXX=     17386166 LTotXX=    17386166 LenRXX=    33303734
 LTotAB=    15917568 MaxLAS=    99945072 LenRXY=           0
 NonZer=    50689900 LenScr=    76800000 LnRSAI=    99945072
 LnScr1=   150700032 LExtra=    67128776 Total=    427877614
 MaxDsk= 67108864000 SrtSym=           T ITran=            4
 DoSDTr:  NPSUse= 16
 JobTyp=2 Pass  1:  I=   1 to   8.
 (rs|ai) integrals will be sorted in core.
 Complete sort for first half transformation.
 First half transformation complete.
 Complete sort for second half transformation.
 Second half transformation complete.
 Spin components of T(2) and E(2):
     alpha-alpha T2 =       0.4092466914D-01 E2=     -0.1925914110D+00
     alpha-beta  T2 =       0.1217950597D+00 E2=     -0.6260547986D+00
     beta-beta   T2 =       0.2482604474D-01 E2=     -0.9848683078D-01
 ANorm=    0.1092931807D+01
 E2 =    -0.9257958268D+00 EUMP2 =    -0.12004158944903D+03
 (S**2,0)=  0.87500D+01           (S**2,1)=  0.87500D+01
 E(PUHF)=      -0.11911579362D+03        E(PMP2)=      -0.12004158945D+03
 Leave Link  804 at Fri Mar  9 17:08:23 2018, MaxMem= 10737418240 cpu:            2191.3 elap:             137.2
 (Enter /home1/apps/gaussian/16rA.03/g16/l913.exe)
 CIDS:  MDV= 10737418240.
 IFCWin=0 IBDFC=1 NFBD=     0     0 NFCmp=     0     0 NFFFC=     0     0
 Using original routines for 1st iteration.
 Using DD4UQ or CC4UQ for 2nd and later iterations.
 Keep R2 and R3 ints in memory in symmetry-blocked form, NReq=734617805.
 FoFCou: FMM=F IPFlag=           8 FMFlag=           0 FMFlg1=           0
         NFxFlg=           0 DoJE=F BraDBF=F KetDBF=F FulRan=T
         wScrn=  0.000000 ICntrl=       600 IOpCl=  0 I1Cent=           0 NGrid=           0
         NMat0=    1 NMatS0=  34191 NMatT0=    0 NMatD0=    1 NMtDS0=    0 NMtDT0=    0
 Petite list used in FoFCou.
 CIDS: In Core Option IDoMem=           1.
 CCSD(T)
 =======
 Iterations= 150 Convergence= 0.100D-06
 Produce multiple copies of IABC intergrals
 Iteration Nr.   1
 **********************
 DD1Dir will call FoFMem   1 times, MxPair=       314
 NAB=   104 NAA=    78 NBB=    28.
 DD1Dir will call FoFMem   1 times, MxPair=       314
 NAB=   104 NAA=    78 NBB=    28.
 MP4(R+Q)= -0.42518110D-01
 Maximum subspace dimension=  5
 A-vector RMS=  5.4953945D-04 Max=  5.9527128D-03 conv= 1.00D-05.
 RLE energy=       -0.9077520604
 E3=        0.59963295D-01        EROMP3=      -0.11998162615D+03
 E4(SDQ)=  -0.47238626D-01        ROMP4(SDQ)=  -0.12002886478D+03
 VARIATIONAL ENERGIES WITH THE FIRST-ORDER WAVEFUNCTION:
 DE(Corr)= -0.90738644     E(Corr)=     -120.02318006    
 NORM(A)=   0.10861004D+01
 Iteration Nr.   2
 **********************
 DD1Dir will call FoFMem   1 times, MxPair=       314
 NAB=   104 NAA=    78 NBB=    28.
 A-vector RMS=  5.1767504D-03 Max=  4.7339061D-02 conv= 1.00D-05.
 RLE energy=       -0.8867515378
 DE(Corr)= -0.84575784     E(CORR)=     -119.96155146     Delta= 6.16D-02
 NORM(A)=   0.10820995D+01
 Iteration Nr.   3
 **********************
 DD1Dir will call FoFMem   1 times, MxPair=       314
 NAB=   104 NAA=    78 NBB=    28.
 A-vector RMS=  2.9016708D-03 Max=  2.6896646D-02 conv= 1.00D-05.
 RLE energy=       -0.8967257788
 DE(Corr)= -0.86536671     E(CORR)=     -119.98116033     Delta=-1.96D-02
 NORM(A)=   0.10874214D+01
 Iteration Nr.   4
 **********************
 DD1Dir will call FoFMem   1 times, MxPair=       314
 NAB=   104 NAA=    78 NBB=    28.
 A-vector RMS=  3.2279763D-03 Max=  3.1035565D-02 conv= 1.00D-05.
 RLE energy=       -0.8913713533
 DE(Corr)= -0.86697826     E(CORR)=     -119.98277188     Delta=-1.61D-03
 NORM(A)=   0.11158746D+01
 Iteration Nr.   5
 **********************
 DD1Dir will call FoFMem   1 times, MxPair=       314
 NAB=   104 NAA=    78 NBB=    28.
 A-vector RMS=  8.3026598D-04 Max=  7.0618876D-03 conv= 1.00D-05.
 RLE energy=       -0.8946700191
 DE(Corr)= -0.89963775     E(CORR)=     -120.01543138     Delta=-3.27D-02
 NORM(A)=   0.11279278D+01
 Iteration Nr.   6
 **********************
 DD1Dir will call FoFMem   1 times, MxPair=       314
 NAB=   104 NAA=    78 NBB=    28.
 A-vector RMS=  5.3334825D-04 Max=  4.7003970D-03 conv= 1.00D-05.
 RLE energy=       -0.8962994159
 DE(Corr)= -0.90191470     E(CORR)=     -120.01770832     Delta=-2.28D-03
 NORM(A)=   0.11226294D+01
 Iteration Nr.   7
 **********************
 DD1Dir will call FoFMem   1 times, MxPair=       314
 NAB=   104 NAA=    78 NBB=    28.
 A-vector RMS=  1.1328836D-04 Max=  1.4660018D-03 conv= 1.00D-05.
 RLE energy=       -0.8959878182
 DE(Corr)= -0.89583435     E(CORR)=     -120.01162797     Delta= 6.08D-03
 NORM(A)=   0.11232291D+01
 Iteration Nr.   8
 **********************
 DD1Dir will call FoFMem   1 times, MxPair=       314
 NAB=   104 NAA=    78 NBB=    28.
 A-vector RMS=  6.2385632D-05 Max=  8.6414513D-04 conv= 1.00D-05.
 RLE energy=       -0.8960859448
 DE(Corr)= -0.89616789     E(CORR)=     -120.01196151     Delta=-3.34D-04
 NORM(A)=   0.11235977D+01
 Iteration Nr.   9
 **********************
 DD1Dir will call FoFMem   1 times, MxPair=       314
 NAB=   104 NAA=    78 NBB=    28.
 A-vector RMS=  3.7203287D-05 Max=  5.0756575D-04 conv= 1.00D-05.
 RLE energy=       -0.8961871176
 DE(Corr)= -0.89609890     E(CORR)=     -120.01189252     Delta= 6.90D-05
 NORM(A)=   0.11238105D+01
 Iteration Nr.  10
 **********************
 DD1Dir will call FoFMem   1 times, MxPair=       314
 NAB=   104 NAA=    78 NBB=    28.
 A-vector RMS=  1.8797749D-05 Max=  2.5161246D-04 conv= 1.00D-05.
 RLE energy=       -0.8961615801
 DE(Corr)= -0.89612023     E(CORR)=     -120.01191385     Delta=-2.13D-05
 NORM(A)=   0.11239072D+01
 Iteration Nr.  11
 **********************
 DD1Dir will call FoFMem   1 times, MxPair=       314
 NAB=   104 NAA=    78 NBB=    28.
 A-vector RMS=  9.6654505D-06 Max=  1.3539209D-04 conv= 1.00D-05.
 RLE energy=       -0.8961658672
 DE(Corr)= -0.89617510     E(CORR)=     -120.01196872     Delta=-5.49D-05
 NORM(A)=   0.11238675D+01
 Iteration Nr.  12
 **********************
 DD1Dir will call FoFMem   1 times, MxPair=       314
 NAB=   104 NAA=    78 NBB=    28.
 A-vector RMS=  4.8257400D-06 Max=  6.9810121D-05 conv= 1.00D-05.
 RLE energy=       -0.8961584459
 DE(Corr)= -0.89615110     E(CORR)=     -120.01194473     Delta= 2.40D-05
 NORM(A)=   0.11238833D+01
 Iteration Nr.  13
 **********************
 DD1Dir will call FoFMem   1 times, MxPair=       314
 NAB=   104 NAA=    78 NBB=    28.
 A-vector RMS=  2.7208736D-06 Max=  4.8251374D-05 conv= 1.00D-05.
 RLE energy=       -0.8961580204
 DE(Corr)= -0.89616052     E(CORR)=     -120.01195415     Delta=-9.42D-06
 NORM(A)=   0.11238774D+01
 Iteration Nr.  14
 **********************
 DD1Dir will call FoFMem   1 times, MxPair=       314
 NAB=   104 NAA=    78 NBB=    28.
 A-vector RMS=  1.5368576D-06 Max=  2.0827743D-05 conv= 1.00D-05.
 RLE energy=       -0.8961559224
 DE(Corr)= -0.89615520     E(CORR)=     -120.01194882     Delta= 5.32D-06
 NORM(A)=   0.11238849D+01
 Iteration Nr.  15
 **********************
 DD1Dir will call FoFMem   1 times, MxPair=       314
 NAB=   104 NAA=    78 NBB=    28.
 A-vector RMS=  7.3543015D-07 Max=  1.4606685D-05 conv= 1.00D-05.
 RLE energy=       -0.8961591351
 DE(Corr)= -0.89615880     E(CORR)=     -120.01195242     Delta=-3.60D-06
 NORM(A)=   0.11238898D+01
 Iteration Nr.  16
 **********************
 DD1Dir will call FoFMem   1 times, MxPair=       314
 NAB=   104 NAA=    78 NBB=    28.
 A-vector RMS=  4.1448317D-07 Max=  6.7841846D-06 conv= 1.00D-05.
 RLE energy=       -0.8961587204
 DE(Corr)= -0.89615816     E(CORR)=     -120.01195178     Delta= 6.44D-07
 NORM(A)=   0.11238940D+01
 Iteration Nr.  17
 **********************
 DD1Dir will call FoFMem   1 times, MxPair=       314
 NAB=   104 NAA=    78 NBB=    28.
 A-vector RMS=  2.9207135D-07 Max=  4.7421142D-06 conv= 1.00D-05.
 RLE energy=       -0.8961601956
 DE(Corr)= -0.89615981     E(CORR)=     -120.01195344     Delta=-1.66D-06
 NORM(A)=   0.11238969D+01
 Iteration Nr.  18
 **********************
 DD1Dir will call FoFMem   1 times, MxPair=       314
 NAB=   104 NAA=    78 NBB=    28.
 A-vector RMS=  1.4815467D-07 Max=  2.1456678D-06 conv= 1.00D-05.
 RLE energy=       -0.8961601160
 DE(Corr)= -0.89615975     E(CORR)=     -120.01195337     Delta= 6.39D-08
 NORM(A)=   0.11238981D+01
 CI/CC converged in   18 iterations to DelEn= 6.39D-08 Conv= 1.00D-07 ErrA1= 1.48D-07 Conv= 1.00D-05
 Wavefunction amplitudes converged. E(Corr)=     -120.01195337    
 Largest amplitude= 8.39D-02
 Time for triples=    15751.00 seconds.
 T4(CCSD)= -0.51783958D-01
 T5(CCSD)=  0.10622689D-01
 CCSD(T)= -0.12005311464D+03
 Discarding MO integrals.
 Leave Link  913 at Fri Mar  9 17:31:37 2018, MaxMem= 10737418240 cpu:           22264.1 elap:            1393.3
 (Enter /home1/apps/gaussian/16rA.03/g16/l601.exe)
 Copying SCF densities to generalized density rwf, IOpCl= 0 IROHF=1.

 **********************************************************************

            Population analysis using the SCF density.

 **********************************************************************

 Orbital symmetries:
       Occupied  (SG) (SG) (PI) (PI) (SG) (PI) (PI) (SG) (DLTA)
                 (DLTA) (SG) (PI) (PI)
       Virtual   (SG) (PI) (PI) (SG) (SG) (PI) (PI) (DLTA) (DLTA)
                 (PI) (PI) (SG) (SG) (SG) (PI) (PI) (SG) (PI) (PI)
                 (DLTA) (DLTA) (SG) (PI) (PI) (SG) (SG) (SG) (DLTA)
                 (DLTA) (PI) (PI) (PHI) (PHI) (SG) (PI) (PI) (SG)
                 (DLTA) (DLTA) (PI) (PI) (SG) (DLTA) (DLTA) (PI)
                 (PI) (SG) (PI) (PI) (SG) (SG) (DLTA) (DLTA) (SG)
                 (PHI) (PHI) (PI) (PI) (PHI) (PHI) (DLTA) (DLTA)
                 (SG) (PI) (PI) (DLTA) (DLTA) (PI) (PI) (SG) (?A)
                 (?A) (SG) (DLTA) (DLTA) (PHI) (PHI) (PI) (PI)
                 (SG) (PI) (PI) (DLTA) (DLTA) (PI) (PI) (SG) (SG)
                 (PI) (PI) (SG) (SG) (SG) (PHI) (PHI) (DLTA) (DLTA)
                 (SG) (PHI) (PHI) (DLTA) (DLTA) (PI) (PI) (SG)
                 (DLTA) (DLTA) (PI) (PI) (PI) (PI) (DLTA) (DLTA)
                 (PI) (PI) (SG) (PI) (PI) (SG) (?A) (?A) (PHI)
                 (PHI) (DLTA) (DLTA) (PI) (PI) (SG) (SG) (SG) (DLTA)
                 (DLTA) (PI) (PI) (SG) (PI) (PI) (SG) (SG) (PHI)
                 (PHI) (DLTA) (DLTA) (PI) (PI) (PI) (PI) (SG) (SG)
                 (?A) (?A) (PHI) (PHI) (DLTA) (DLTA) (PI) (PI)
                 (SG) (DLTA) (DLTA) (PI) (PI) (SG) (SG) (PI) (PI)
                 (SG) (SG) (DLTA) (DLTA) (PI) (PI) (SG) (PI) (PI)
                 (SG) (DLTA) (DLTA) (PI) (PI) (SG) (SG) (PI) (PI)
                 (SG) (SG) (DLTA) (DLTA) (PI) (PI) (SG) (SG) (PI)
                 (PI) (SG) (PI) (PI) (SG) (SG) (SG) (PI) (PI) (SG)
                 (SG) (PI) (PI) (SG) (SG) (DLTA) (DLTA) (PI) (PI)
                 (SG) (PI) (PI) (SG) (SG) (SG) (PI) (PI) (SG) (SG)
                 (SG) (PI) (PI) (SG) (SG) (PI) (PI) (SG) (SG) (SG)
                 (PI) (PI) (SG) (SG) (SG) (SG) (PI) (PI) (SG) (SG)
                 (SG) (SG) (SG)
 The electronic state is 6-SG.
 Alpha  occ. eigenvalues --   -4.15685  -2.79616  -2.79616  -2.77432  -1.24494
 Alpha  occ. eigenvalues --   -0.70548  -0.70548  -0.63234  -0.63234  -0.55879
 Alpha  occ. eigenvalues --   -0.41066  -0.41066  -0.31799
 Alpha virt. eigenvalues --    0.01192   0.02186   0.02186   0.03332   0.05135
 Alpha virt. eigenvalues --    0.07098   0.07098   0.08704   0.08704   0.09367
 Alpha virt. eigenvalues --    0.09367   0.09490   0.12559   0.15451   0.23644
 Alpha virt. eigenvalues --    0.23644   0.25909   0.27490   0.27490   0.29906
 Alpha virt. eigenvalues --    0.29906   0.31945   0.34403   0.34403   0.38282
 Alpha virt. eigenvalues --    0.44171   0.60390   0.70639   0.70639   0.75234
 Alpha virt. eigenvalues --    0.75234   0.77413   0.77413   0.86483   0.86483
 Alpha virt. eigenvalues --    0.86693   0.90137   0.92070   0.92070   0.94770
 Alpha virt. eigenvalues --    0.94770   1.04218   1.04818   1.04818   1.12468
 Alpha virt. eigenvalues --    1.12468   1.13295   1.44254   1.44254   1.54716
 Alpha virt. eigenvalues --    1.73352   2.05860   2.05860   2.07629   2.11104
 Alpha virt. eigenvalues --    2.11104   2.16589   2.16589   2.33150   2.33150
 Alpha virt. eigenvalues --    2.39122   2.39122   2.40542   2.50963   2.50963
 Alpha virt. eigenvalues --    2.60347   2.60347   2.63808   2.63808   2.75043
 Alpha virt. eigenvalues --    2.78201   2.78201   2.79932   2.90970   2.90970
 Alpha virt. eigenvalues --    2.95593   2.95593   2.95937   2.95937   3.15946
 Alpha virt. eigenvalues --    3.39690   3.39690   3.49877   3.49877   3.56250
 Alpha virt. eigenvalues --    3.56250   3.70679   3.77284   4.70558   4.70558
 Alpha virt. eigenvalues --    4.90317   5.53068   6.20184   6.34465   6.34465
 Alpha virt. eigenvalues --    6.42561   6.42561   6.52506   6.57099   6.57099
 Alpha virt. eigenvalues --    6.64786   6.64786   6.70434   6.70434   6.83168
 Alpha virt. eigenvalues --    6.83168   6.84235   6.93765   6.93765   7.09990
 Alpha virt. eigenvalues --    7.09990   7.16355   7.16355   7.50773   7.50773
 Alpha virt. eigenvalues --    7.52574   7.73478   7.73478   7.89490   8.15760
 Alpha virt. eigenvalues --    8.15760   8.20414   8.20414   8.39151   8.39151
 Alpha virt. eigenvalues --    8.65942   8.65942   8.96235   9.82897  12.54624
 Alpha virt. eigenvalues --   13.71170  13.71170  13.90183  13.90183  14.08895
 Alpha virt. eigenvalues --   15.04960  15.04960  15.74198  16.87225  17.30499
 Alpha virt. eigenvalues --   17.30499  17.36123  17.36123  17.60461  17.60461
 Alpha virt. eigenvalues --   17.91809  17.91809  18.07186  18.82420  21.98634
 Alpha virt. eigenvalues --   21.98634  22.00047  22.00047  22.09387  22.09387
 Alpha virt. eigenvalues --   22.15985  22.15985  22.48419  25.42526  25.42526
 Alpha virt. eigenvalues --   25.61848  25.61848  25.72474  26.19034  37.00786
 Alpha virt. eigenvalues --   37.00786  37.64715  38.66799  43.73495  43.73495
 Alpha virt. eigenvalues --   43.86498  43.86498  44.10190  45.66775  45.66775
 Alpha virt. eigenvalues --   46.51388  46.54324  46.54324  46.73601  46.73601
 Alpha virt. eigenvalues --   47.27161  53.38704  70.91429  70.91429  71.79600
 Alpha virt. eigenvalues --   74.73023 104.22021 104.22021 104.36198 104.36198
 Alpha virt. eigenvalues --  104.49791 107.84719 119.04438 119.04438 120.05726
 Alpha virt. eigenvalues --  132.65865 132.65865 133.52606 136.94821 192.70694
 Alpha virt. eigenvalues --  248.55334 248.55334 249.40162 257.66443 286.32814
 Alpha virt. eigenvalues --  286.32814 287.24525 342.21919 360.41056 360.41056
 Alpha virt. eigenvalues --  360.50470 360.50470 360.60076 479.52329 479.52329
 Alpha virt. eigenvalues --  480.35189 555.14151 645.74876 973.66064 973.66064
 Alpha virt. eigenvalues --  974.427521292.204601529.662762128.003352128.00335
 Alpha virt. eigenvalues -- 2128.691292748.413505140.943055140.943055141.53878
 Alpha virt. eigenvalues -- 5659.815716220.92628******************************
 Alpha virt. eigenvalues -- **************************************************
 Alpha virt. eigenvalues -- **************************************************
     Molecular Orbital Coefficients:
                           4         5         6         7         8
                           O         O         O         O         O
     Eigenvalues --    -2.77432  -1.24494  -0.70548  -0.70548  -0.63234
   1 1   Mn 1S          0.00000   0.00000   0.00000   0.00000   0.00000
   2        2S          0.00000  -0.00000   0.00000   0.00000  -0.00000
   3        3S          0.00000   0.00000   0.00000   0.00000   0.00000
   4        4S          0.00000  -0.00000   0.00000   0.00000  -0.00000
   5        5S          0.00000   0.00000   0.00000   0.00000   0.00000
   6        6S          0.00000  -0.00001   0.00000   0.00000  -0.00001
   7        7S          0.00000   0.00002   0.00000   0.00000   0.00002
   8        8S          0.00000  -0.00007   0.00000   0.00000  -0.00006
   9        9S          0.00000   0.00022   0.00000   0.00000   0.00018
  10       10S          0.00000  -0.00064   0.00000   0.00000  -0.00054
  11       11S          0.00000   0.00193   0.00000   0.00000   0.00164
  12       12S          0.00000  -0.00613   0.00000   0.00000  -0.00527
  13       13S          0.00000  -0.00304   0.00000   0.00000  -0.00348
  14       14S          0.00000   0.08013   0.00000   0.00000   0.07793
  15       15S          0.00000   0.01782   0.00000   0.00000   0.04688
  16       16S          0.00000  -0.15633   0.00000   0.00000  -0.20925
  17       17S          0.00000  -0.07989   0.00000   0.00000  -0.11389
  18       18S          0.00000  -0.00598   0.00000   0.00000   0.07008
  19       19S          0.00000  -0.00631   0.00000   0.00000   0.03292
  20       20S          0.00000  -0.00675   0.00000   0.00000   0.01397
  21       21S          0.00000  -0.04438   0.00000   0.00000  -0.06290
  22       22S          0.00000   0.02749   0.00000   0.00000   0.09353
  23       23S          0.00000   0.00167   0.00000   0.00000  -0.00057
  24       24PX         0.00000   0.00000  -0.00000   0.00000   0.00000
  25       24PY         0.00000   0.00000   0.00000  -0.00000   0.00000
  26       24PZ         0.00000   0.00000   0.00000   0.00000  -0.00000
  27       25PX        -0.00000   0.00000   0.00000   0.00000   0.00000
  28       25PY         0.00000   0.00000   0.00000   0.00000   0.00000
  29       25PZ         0.00000  -0.00000   0.00000   0.00000   0.00000
  30       26PX         0.00002   0.00000  -0.00000   0.00000   0.00000
  31       26PY         0.00000   0.00000   0.00000  -0.00000   0.00000
  32       26PZ         0.00000   0.00000   0.00000   0.00000  -0.00000
  33       27PX        -0.00007   0.00000   0.00001   0.00000   0.00000
  34       27PY         0.00000   0.00000   0.00000   0.00001   0.00000
  35       27PZ         0.00000  -0.00002   0.00000   0.00000   0.00000
  36       28PX         0.00027   0.00000  -0.00004   0.00000   0.00000
  37       28PY         0.00000   0.00000   0.00000  -0.00004   0.00000
  38       28PZ         0.00000   0.00006   0.00000   0.00000  -0.00001
  39       29PX        -0.00100   0.00000   0.00013   0.00000   0.00000
  40       29PY         0.00000   0.00000   0.00000   0.00013   0.00000
  41       29PZ         0.00000  -0.00022   0.00000   0.00000   0.00001
  42       30PX         0.00351   0.00000  -0.00046   0.00000   0.00000
  43       30PY         0.00000   0.00000   0.00000  -0.00046   0.00000
  44       30PZ         0.00000   0.00079   0.00000   0.00000   0.00005
  45       31PX         0.00344   0.00000  -0.00013   0.00000   0.00000
  46       31PY         0.00000   0.00000   0.00000  -0.00013   0.00000
  47       31PZ         0.00000   0.00099   0.00000   0.00000   0.00181
  48       32PX        -0.10797   0.00000   0.01154   0.00000   0.00000
  49       32PY         0.00000   0.00000   0.00000   0.01154   0.00000
  50       32PZ         0.00000  -0.02755   0.00000   0.00000  -0.02075
  51       33PX        -0.00652   0.00000  -0.01494   0.00000   0.00000
  52       33PY         0.00000   0.00000   0.00000  -0.01494   0.00000
  53       33PZ         0.00000  -0.01930   0.00000   0.00000  -0.10103
  54       34PX         0.33899   0.00000  -0.03773   0.00000   0.00000
  55       34PY         0.00000   0.00000   0.00000  -0.03773   0.00000
  56       34PZ         0.00000   0.08968   0.00000   0.00000   0.06516
  57       35PX         0.21714   0.00000  -0.03109   0.00000   0.00000
  58       35PY         0.00000   0.00000   0.00000  -0.03109   0.00000
  59       35PZ         0.00000   0.06812   0.00000   0.00000   0.06286
  60       36PX         0.27798   0.00000  -0.03225   0.00000   0.00000
  61       36PY         0.00000   0.00000   0.00000  -0.03225   0.00000
  62       36PZ         0.00000   0.06647   0.00000   0.00000   0.04041
  63       37PX         0.03660   0.00000   0.02975   0.00000   0.00000
  64       37PY         0.00000   0.00000   0.00000   0.02975   0.00000
  65       37PZ         0.00000   0.01271   0.00000   0.00000  -0.01135
  66       38PX        -0.00165   0.00000   0.04917   0.00000   0.00000
  67       38PY         0.00000   0.00000   0.00000   0.04917   0.00000
  68       38PZ         0.00000   0.00398   0.00000   0.00000   0.00555
  69       39PX         0.00128   0.00000   0.00287   0.00000   0.00000
  70       39PY         0.00000   0.00000   0.00000   0.00287   0.00000
[...]
  47       31PZ         0.00082   0.00041   0.00041   0.00000
  48       32PX        -0.06830  -0.03431  -0.03398  -0.00033
  49       32PY        -0.06830  -0.03431  -0.03398  -0.00033
  50       32PZ        -0.06766  -0.03388  -0.03378  -0.00009
  51       33PX        -0.00478  -0.00187  -0.00291   0.00104
  52       33PY        -0.00478  -0.00187  -0.00291   0.00104
  53       33PZ         0.03343   0.01637   0.01706  -0.00069
  54       34PX         0.59157   0.29697   0.29461   0.00236
  55       34PY         0.59157   0.29697   0.29461   0.00236
  56       34PZ         0.58520   0.29291   0.29229   0.00062
  57       35PX         0.43288   0.21681   0.21607   0.00073
  58       35PY         0.43288   0.21681   0.21607   0.00073
  59       35PZ         0.43409   0.21711   0.21698   0.00013
  60       36PX         0.47829   0.23838   0.23991  -0.00153
  61       36PY         0.47829   0.23838   0.23991  -0.00153
  62       36PZ         0.45767   0.22829   0.22938  -0.00109
  63       37PX         0.07644   0.04872   0.02772   0.02100
  64       37PY         0.07644   0.04872   0.02772   0.02100
  65       37PZ         0.02980   0.01925   0.01055   0.00869
  66       38PX         0.05951   0.04289   0.01661   0.02628
  67       38PY         0.05951   0.04289   0.01661   0.02628
  68       38PZ         0.03578   0.04001  -0.00423   0.04424
  69       39PX         0.00088   0.00010   0.00078  -0.00068
  70       39PY         0.00088   0.00010   0.00078  -0.00068
  71       39PZ         0.01455   0.01488  -0.00033   0.01521
  72       40PX         0.04518   0.02224   0.02294  -0.00070
  73       40PY         0.04518   0.02224   0.02294  -0.00070
  74       40PZ         0.01067   0.00568   0.00499   0.00069
  75       41PX         0.49132   0.24624   0.24509   0.00115
  76       41PY         0.49132   0.24624   0.24509   0.00115
  77       41PZ         0.49795   0.24902   0.24893   0.00009
  78       42PX        -0.00020  -0.00007  -0.00012   0.00005
  79       42PY        -0.00020  -0.00007  -0.00012   0.00005
  80       42PZ        -0.00063  -0.00057  -0.00006  -0.00052
  81       43D 0        0.00001   0.00000   0.00000   0.00000
  82       43D+1        0.00001   0.00001   0.00000   0.00001
  83       43D-1        0.00001   0.00001   0.00000   0.00001
  84       43D+2        0.00001   0.00001   0.00000   0.00001
  85       43D-2        0.00001   0.00001   0.00000   0.00001
  86       44D 0        0.00236   0.00139   0.00097   0.00042
  87       44D+1        0.00403   0.00380   0.00023   0.00357
  88       44D-1        0.00403   0.00380   0.00023   0.00357
  89       44D+2        0.00378   0.00378   0.00000   0.00378
  90       44D-2        0.00378   0.00378   0.00000   0.00378
  91       45D 0        0.02634   0.01547   0.01087   0.00459
  92       45D+1        0.04415   0.04161   0.00254   0.03907
  93       45D-1        0.04415   0.04161   0.00254   0.03907
  94       45D+2        0.04124   0.04124   0.00000   0.04124
  95       45D-2        0.04124   0.04124   0.00000   0.04124
  96       46D 0        0.09620   0.05760   0.03859   0.01901
  97       46D+1        0.18179   0.16897   0.01281   0.15616
  98       46D-1        0.18179   0.16897   0.01281   0.15616
  99       46D+2        0.17561   0.17561   0.00000   0.17561
 100       46D-2        0.17561   0.17561   0.00000   0.17561
 101       47D 0        0.75470   0.40616   0.34854   0.05762
 102       47D+1        0.43993   0.46189  -0.02196   0.48386
 103       47D-1        0.43993   0.46189  -0.02196   0.48386
 104       47D+2        0.32809   0.32809   0.00000   0.32809
 105       47D-2        0.32809   0.32809   0.00000   0.32809
 106       48D 0        0.30627   0.17441   0.13186   0.04256
 107       48D+1        0.35150   0.30552   0.04598   0.25954
 108       48D-1        0.35150   0.30552   0.04598   0.25954
 109       48D+2        0.31720   0.31720   0.00000   0.31720
 110       48D-2        0.31720   0.31720   0.00000   0.31720
 111       49D 0        0.12404   0.07636   0.04768   0.02869
 112       49D+1        0.14693   0.10969   0.03724   0.07246
 113       49D-1        0.14693   0.10969   0.03724   0.07246
 114       49D+2        0.12031   0.12031   0.00000   0.12031
 115       49D-2        0.12031   0.12031   0.00000   0.12031
 116       50D 0        0.00228   0.00515  -0.00286   0.00801
 117       50D+1        0.00820   0.00517   0.00304   0.00213
 118       50D-1        0.00820   0.00517   0.00304   0.00213
 119       50D+2        0.00726   0.00726   0.00000   0.00726
 120       50D-2        0.00726   0.00726   0.00000   0.00726
 121       51D 0        0.02707   0.01416   0.01292   0.00124
 122       51D+1        0.00923   0.01105  -0.00182   0.01287
 123       51D-1        0.00923   0.01105  -0.00182   0.01287
 124       51D+2        0.00099   0.00099   0.00000   0.00099
 125       51D-2        0.00099   0.00099   0.00000   0.00099
 126       52D 0       -0.50728  -0.26290  -0.24438  -0.01852
 127       52D+1       -0.08441  -0.13148   0.04706  -0.17854
 128       52D-1       -0.08441  -0.13148   0.04706  -0.17854
 129       52D+2        0.00472   0.00472  -0.00000   0.00472
 130       52D-2        0.00472   0.00472  -0.00000   0.00472
 131       53D 0        0.00020   0.00020   0.00000   0.00020
 132       53D+1       -0.00038  -0.00019  -0.00018  -0.00001
 133       53D-1       -0.00038  -0.00019  -0.00018  -0.00001
 134       53D+2       -0.00012  -0.00012  -0.00000  -0.00012
 135       53D-2       -0.00012  -0.00012  -0.00000  -0.00012
 136       54F 0        0.00005   0.00003   0.00003   0.00000
 137       54F+1        0.00002   0.00001   0.00001  -0.00000
 138       54F-1        0.00002   0.00001   0.00001  -0.00000
 139       54F+2        0.00000   0.00000   0.00000   0.00000
 140       54F-2        0.00000   0.00000   0.00000   0.00000
 141       54F+3        0.00000   0.00000   0.00000  -0.00000
 142       54F-3        0.00000   0.00000   0.00000  -0.00000
 143       55F 0        0.00147   0.00074   0.00073   0.00001
 144       55F+1        0.00049   0.00025   0.00024   0.00001
 145       55F-1        0.00049   0.00025   0.00024   0.00001
 146       55F+2       -0.00000  -0.00000   0.00000  -0.00000
 147       55F-2       -0.00000  -0.00000   0.00000  -0.00000
 148       55F+3        0.00000   0.00000   0.00000   0.00000
 149       55F-3        0.00000   0.00000   0.00000   0.00000
 150       56F 0        0.00696   0.00353   0.00343   0.00010
 151       56F+1        0.01006   0.00560   0.00446   0.00115
 152       56F-1        0.01006   0.00560   0.00446   0.00115
 153       56F+2        0.00003   0.00003   0.00000   0.00003
 154       56F-2        0.00003   0.00003   0.00000   0.00003
 155       56F+3        0.00000   0.00000   0.00000   0.00000
 156       56F-3        0.00000   0.00000   0.00000   0.00000
 157       57F 0       -0.00157  -0.00109  -0.00048  -0.00061
 158       57F+1        0.00825   0.00514   0.00312   0.00202
 159       57F-1        0.00825   0.00514   0.00312   0.00202
 160       57F+2        0.00006   0.00006   0.00000   0.00006
 161       57F-2        0.00006   0.00006   0.00000   0.00006
 162       57F+3        0.00000   0.00000   0.00000   0.00000
 163       57F-3        0.00000   0.00000   0.00000   0.00000
 164       58G 0        0.00000   0.00000   0.00000   0.00000
 165       58G+1        0.00000   0.00000   0.00000   0.00000
 166       58G-1        0.00000   0.00000   0.00000   0.00000
 167       58G+2        0.00000   0.00000   0.00000   0.00000
 168       58G-2        0.00000   0.00000   0.00000   0.00000
 169       58G+3        0.00000   0.00000   0.00000   0.00000
 170       58G-3        0.00000   0.00000   0.00000   0.00000
 171       58G+4        0.00000   0.00000  -0.00000   0.00000
 172       58G-4        0.00000   0.00000  -0.00000   0.00000
 173       59G 0        0.00040   0.00020   0.00020  -0.00000
 174       59G+1        0.00019   0.00010   0.00009   0.00001
 175       59G-1        0.00019   0.00010   0.00009   0.00001
 176       59G+2        0.00000   0.00000   0.00000   0.00000
 177       59G-2        0.00000   0.00000   0.00000   0.00000
 178       59G+3        0.00000   0.00000  -0.00000   0.00000
 179       59G-3        0.00000   0.00000  -0.00000   0.00000
 180       59G+4        0.00000   0.00000  -0.00000   0.00000
 181       59G-4        0.00000   0.00000  -0.00000   0.00000
 182       60G 0        0.00068   0.00034   0.00034  -0.00000
 183       60G+1        0.00249   0.00141   0.00108   0.00033
 184       60G-1        0.00249   0.00141   0.00108   0.00033
 185       60G+2        0.00000   0.00000   0.00000   0.00000
 186       60G-2        0.00000   0.00000   0.00000   0.00000
 187       60G+3        0.00000   0.00000   0.00000   0.00000
 188       60G-3        0.00000   0.00000   0.00000   0.00000
 189       60G+4        0.00000   0.00000  -0.00000   0.00000
 190       60G-4        0.00000   0.00000   0.00000   0.00000
 191 2   O  1S         -0.00000  -0.00000  -0.00000  -0.00000
 192        2S          0.00000   0.00000   0.00000   0.00000
 193        3S         -0.00000  -0.00000  -0.00000  -0.00000
 194        4S          0.00001   0.00000   0.00000   0.00000
 195        5S         -0.00023  -0.00012  -0.00012  -0.00000
 196        6S         -0.01093  -0.00548  -0.00544  -0.00004
 197        7S         -0.09985  -0.05005  -0.04979  -0.00026
 198        8S          1.07321   0.53717   0.53605   0.00112
 199        9S          0.22489   0.11268   0.11221   0.00048
 200       10S          0.75988   0.37668   0.38320  -0.00651
 201       11S         -0.00175  -0.00084  -0.00091   0.00006
 202       12S          0.00823   0.00412   0.00410   0.00002
 203       13S          0.07436   0.02859   0.04577  -0.01718
 204       14PX         0.00183   0.00097   0.00086   0.00011
 205       14PY         0.00183   0.00097   0.00086   0.00011
 206       14PZ         0.00156   0.00079   0.00077   0.00001
 207       15PX         0.06168   0.03260   0.02907   0.00353
 208       15PY         0.06168   0.03260   0.02907   0.00353
 209       15PZ         0.05414   0.02730   0.02684   0.00046
 210       16PX         0.36462   0.19197   0.17265   0.01932
 211       16PY         0.36462   0.19197   0.17265   0.01932
 212       16PZ         0.32933   0.16591   0.16342   0.00249
 213       17PX         0.75734   0.39420   0.36314   0.03106
 214       17PY         0.75734   0.39420   0.36314   0.03106
 215       17PZ         0.65170   0.32870   0.32300   0.00571
 216       18PX         0.52669   0.27851   0.24819   0.03032
 217       18PY         0.52669   0.27851   0.24819   0.03032
 218       18PZ         0.27453   0.14618   0.12835   0.01783
 219       19PX         0.00211   0.00111   0.00100   0.00010
 220       19PY         0.00211   0.00111   0.00100   0.00010
 221       19PZ         0.00219   0.00110   0.00109   0.00001
 222       20PX        -0.00029  -0.00016  -0.00014  -0.00002
 223       20PY        -0.00029  -0.00016  -0.00014  -0.00002
 224       20PZ        -0.00025  -0.00012  -0.00012  -0.00000
 225       21PX         0.04602   0.02835   0.01767   0.01067
 226       21PY         0.04602   0.02835   0.01767   0.01067
 227       21PZ         0.01639   0.01037   0.00602   0.00435
 228       22D 0        0.00187   0.00099   0.00088   0.00011
 229       22D+1        0.00088   0.00054   0.00035   0.00019
 230       22D-1        0.00088   0.00054   0.00035   0.00019
 231       22D+2        0.00003   0.00003   0.00000   0.00003
 232       22D-2        0.00003   0.00003   0.00000   0.00003
 233       23D 0        0.00977   0.00533   0.00444   0.00089
 234       23D+1        0.00884   0.00512   0.00372   0.00140
 235       23D-1        0.00884   0.00512   0.00372   0.00140
 236       23D+2        0.00047   0.00047   0.00000   0.00047
 237       23D-2        0.00047   0.00047   0.00000   0.00047
 238       24D 0        0.00001   0.00000   0.00000   0.00000
 239       24D+1        0.00000   0.00000   0.00000   0.00000
 240       24D-1        0.00000   0.00000   0.00000   0.00000
 241       24D+2        0.00000   0.00000   0.00000   0.00000
 242       24D-2        0.00000   0.00000   0.00000   0.00000
 243       25D 0       -0.00421  -0.00210  -0.00211   0.00000
 244       25D+1        0.00228   0.00056   0.00171  -0.00115
 245       25D-1        0.00228   0.00056   0.00171  -0.00115
 246       25D+2        0.00013   0.00013   0.00000   0.00013
 247       25D-2        0.00013   0.00013   0.00000   0.00013
 248       26F 0        0.00145   0.00079   0.00066   0.00013
 249       26F+1        0.00076   0.00051   0.00025   0.00026
 250       26F-1        0.00076   0.00051   0.00025   0.00026
 251       26F+2        0.00007   0.00007   0.00000   0.00007
 252       26F-2        0.00007   0.00007   0.00000   0.00007
 253       26F+3        0.00000   0.00000   0.00000   0.00000
 254       26F-3        0.00000   0.00000   0.00000   0.00000
 255       27F 0       -0.00043  -0.00014  -0.00029   0.00015
 256       27F+1        0.00071   0.00045   0.00025   0.00020
 257       27F-1        0.00071   0.00045   0.00025   0.00020
 258       27F+2        0.00012   0.00012   0.00000   0.00012
 259       27F-2        0.00012   0.00012   0.00000   0.00012
 260       27F+3        0.00000   0.00000   0.00000  -0.00000
 261       27F-3        0.00000   0.00000   0.00000  -0.00000
          Condensed to atoms (all electrons):
               1          2
     1  Mn  13.950247   0.135296
     2  O    0.135296   6.779161
          Atomic-Atomic Spin Densities.
               1          2
     1  Mn   4.899739  -0.103219
     2  O   -0.103219   0.306699
 Mulliken charges and spin densities:
               1          2
     1  Mn   0.914457   4.796520
     2  O   -0.914457   0.203480
 Sum of Mulliken charges =   0.00000   5.00000
 Mulliken charges and spin densities with hydrogens summed into heavy atoms:
               1          2
     1  Mn   0.914457   4.796520
     2  O   -0.914457   0.203480
 Electronic spatial extent (au):  <R**2>=             76.7303
 Charge=              0.0000 electrons
 Dipole moment (field-independent basis, Debye):
    X=              0.0000    Y=              0.0000    Z=              4.2136  Tot=              4.2136
 Quadrupole moment (field-independent basis, Debye-Ang):
   XX=            -19.6592   YY=            -19.6592   ZZ=            -23.1691
   XY=              0.0000   XZ=              0.0000   YZ=              0.0000
 Traceless Quadrupole moment (field-independent basis, Debye-Ang):
   XX=              1.1699   YY=              1.1699   ZZ=             -2.3399
   XY=              0.0000   XZ=              0.0000   YZ=              0.0000
 Octapole moment (field-independent basis, Debye-Ang**2):
  XXX=              0.0000  YYY=              0.0000  ZZZ=              7.1550  XYY=              0.0000
  XXY=              0.0000  XXZ=              1.2375  XZZ=              0.0000  YZZ=              0.0000
  YYZ=              1.2375  XYZ=              0.0000
 Hexadecapole moment (field-independent basis, Debye-Ang**3):
 XXXX=            -26.6894 YYYY=            -26.6894 ZZZZ=            -82.1290 XXXY=              0.0000
 XXXZ=              0.0000 YYYX=              0.0000 YYYZ=              0.0000 ZZZX=              0.0000
 ZZZY=              0.0000 XXYY=             -8.8965 XXZZ=            -18.6159 YYZZ=            -18.6159
 XXYZ=              0.0000 YYXZ=              0.0000 ZZXY=              0.0000
 N-N= 3.401853498771D+01 E-N=-3.437315982352D+02  KE= 6.917750266751D+01
 Symmetry A1   KE= 2.759528562206D+01
 Symmetry A2   KE= 6.221284769985D+00
 Symmetry B1   KE= 1.768046632987D+01
 Symmetry B2   KE= 1.768046594616D+01
 Symmetry A1   SP= 2.000000000000D+00
 Symmetry A2   SP= 1.000000000000D+00
 Symmetry B1   SP= 1.000000000000D+00
 Symmetry B2   SP= 1.000000000000D+00
 Orbital energies and kinetic energies (alpha):
                                 1                 2
   4         O                -2.774319          3.506648
   5         O                -1.244942          1.342875
   6         O                -0.705478          2.298201
   7         O                -0.705478          2.298201
   8         O                -0.632336          3.327034
   9         O                -0.632336          6.221285
  10         O                -0.558793          6.221285
  11         O                -0.410663          1.130835
  12         O                -0.410663          6.070770
  13         O                -0.317995          6.070770
  14         V                 0.011922          0.142465
  15         V                 0.021859          0.081480
  16         V                 0.021859          0.081479
  17         V                 0.033316          0.043029
  18         V                 0.051348          0.532502
 Total kinetic energy from orbitals= 9.489244666942D+01
                          Isotropic Fermi Contact Couplings
        Atom                 a.u.       MegaHertz       Gauss      10(-4) cm-1
     1  Mn(55)             0.00007       0.01539       0.00549       0.00513
     2  O(17)              0.00004      -0.00539      -0.00192      -0.00180
 --------------------------------------------------------
       Center         ----  Spin Dipole Couplings  ----
                      3XX-RR        3YY-RR        3ZZ-RR
 --------------------------------------------------------
     1   Atom        0.845494      0.845493     -1.690987
     2   Atom       -0.040481     -0.040481      0.080962
 --------------------------------------------------------
                        XY            XZ            YZ
 --------------------------------------------------------
     1   Atom        0.000000      0.000000      0.000000
     2   Atom        0.000000      0.000000      0.000000
 --------------------------------------------------------


 ---------------------------------------------------------------------------------
              Anisotropic Spin Dipole Couplings in Principal Axis System
 ---------------------------------------------------------------------------------

       Atom             a.u.   MegaHertz   Gauss  10(-4) cm-1        Axes

              Baa    -1.6910  -223.112   -79.612   -74.422  0.0000  0.0000  1.0000
     1 Mn(55) Bbb     0.8455   111.556    39.806    37.211 -0.0000  1.0000  0.0000
              Bcc     0.8455   111.556    39.806    37.211  1.0000  0.0000  0.0000
 
              Baa    -0.0405     2.929     1.045     0.977 -0.0000  1.0000  0.0000
     2 O(17)  Bbb    -0.0405     2.929     1.045     0.977  1.0000  0.0000  0.0000
              Bcc     0.0810    -5.858    -2.090    -1.954  0.0000  0.0000  1.0000
 

 ---------------------------------------------------------------------------------

 No NMR shielding tensors so no spin-rotation constants.
 Leave Link  601 at Fri Mar  9 17:31:41 2018, MaxMem= 10737418240 cpu:              54.0 elap:               3.8
 (Enter /home1/apps/gaussian/16rA.03/g16/l9999.exe)

 Test job not archived.
 1\1\GINC-C474-124\SP\ROCCSD(T)-Full\Gen\Mn1O1(6)\AANNABE\09-Mar-2018\0
 \\#P ROCCSD(T)=(maxcyc=150, Full, SaveAmplitudes, ReadAmplitudes)/Gen 
 5d 7f SCF=(maxcycles=300) Integral(NoXCTest) MaxDisk=500GB Pop=Regular
  Pseudo=Read Guess=Read IOp(5/15=2)\\MnO\\0,6\Mn,0,0.,0.,0.\O,0,0.,0.,
 1.4\\Version=ES64L-G16RevA.03\State=6-SG\HF=-119.1157936\MP2=-120.0415
 894\MP3=-119.9816262\PUHF=-119.1157936\PMP2-0=-120.0415894\MP4SDQ=-120
 .0288648\CCSD=-120.0119534\CCSD(T)=-120.0531146\RMSD=6.831e-09\PG=C*V 
 [C*(O1Mn1)]\\@


 IT IS IMPOSSIBLE TO MEDITATE ON TIME AND THE MYSTERY 
 OF NATURE WITHOUT AN OVERWHELMING EMOTION AT THE
 LIMITATIONS OF HUMAN INTELLIGENCE.

                                         -- ALFRED NORTH WHITEHEAD
 Job cpu time:       0 days  6 hours 59 minutes 19.8 seconds.
 Elapsed time:       0 days  0 hours 26 minutes 22.5 seconds.
 File lengths (MBytes):  RWF=   4585 Int=      0 D2E=      0 Chk=     27 Scr=      1
 Normal termination of Gaussian 16 at Fri Mar  9 17:31:42 2018.
