 Entering Gaussian System, Link 0=g16
 Initial command:
 /home1/apps/gaussian/16rA.03/g16/l1.exe "/tmp/Gau-30431.inp" -scrdir="/tmp/"
 Entering Link 1 = /home1/apps/gaussian/16rA.03/g16/l1.exe PID=     30432.
  
 Copyright (c) 1988,1990,1992,1993,1995,1998,2003,2009,2016,
            Gaussian, Inc.  All Rights Reserved.
  
 This is part of the Gaussian(R) 16 program.  It is based on
 the Gaussian(R) 09 system (copyright 2009, Gaussian, Inc.),
 the Gaussian(R) 03 system (copyright 2003, Gaussian, Inc.),
 the Gaussian(R) 98 system (copyright 1998, Gaussian, Inc.),
 the Gaussian(R) 94 system (copyright 1995, Gaussian, Inc.),
 the Gaussian 92(TM) system (copyright 1992, Gaussian, Inc.),
 the Gaussian 90(TM) system (copyright 1990, Gaussian, Inc.),
 the Gaussian 88(TM) system (copyright 1988, Gaussian, Inc.),
 the Gaussian 86(TM) system (copyright 1986, Carnegie Mellon
 University), and the Gaussian 82(TM) system (copyright 1983,
 Carnegie Mellon University). Gaussian is a federally registered
 trademark of Gaussian, Inc.
  
 This software contains proprietary and confidential information,
 including trade secrets, belonging to Gaussian, Inc.
  
 This software is provided under written license and may be
 used, copied, transmitted, or stored only in accord with that
 written license.
  
 The following legend is applicable only to US Government
 contracts under FAR:
  
                    RESTRICTED RIGHTS LEGEND
  
 Use, reproduction and disclosure by the US Government is
 subject to restrictions as set forth in subparagraphs (a)
 and (c) of the Commercial Computer Software - Restricted
 Rights clause in FAR 52.227-19.
  
 Gaussian, Inc.
 340 Quinnipiac St., Bldg. 40, Wallingford CT 06492
  
  
 ---------------------------------------------------------------
 Warning -- This program may not be used in any manner that
 competes with the business of Gaussian, Inc. or will provide
 assistance to any competitor of Gaussian, Inc.  The licensee
 of this program is prohibited from giving any competitor of
 Gaussian, Inc. access to this program.  By using this program,
 the user acknowledges that Gaussian, Inc. is engaged in the
 business of creating and licensing software in the field of
 computational chemistry and represents and warrants to the
 licensee that it is not a competitor of Gaussian, Inc. and that
 it will not use this program in any manner prohibited above.
 ---------------------------------------------------------------
  

 Cite this work as:
 Gaussian 16, Revision A.03,
 M. J. Frisch, G. W. Trucks, H. B. Schlegel, G. E. Scuseria, 
 M. A. Robb, J. R. Cheeseman, G. Scalmani, V. Barone, 
 G. A. Petersson, H. Nakatsuji, X. Li, M. Caricato, A. V. Marenich, 
 J. Bloino, B. G. Janesko, R. Gomperts, B. Mennucci, H. P. Hratchian, 
 J. V. Ortiz, A. F. Izmaylov, J. L. Sonnenberg, D. Williams-Young, 
 F. Ding, F. Lipparini, F. Egidi, J. Goings, B. Peng, A. Petrone, 
 T. Henderson, D. Ranasinghe, V. G. Zakrzewski, J. Gao, N. Rega, 
 G. Zheng, W. Liang, M. Hada, M. Ehara, K. Toyota, R. Fukuda, 
 J. Hasegawa, M. Ishida, T. Nakajima, Y. Honda, O. Kitao, H. Nakai, 
 T. Vreven, K. Throssell, J. A. Montgomery, Jr., J. E. Peralta, 
 F. Ogliaro, M. J. Bearpark, J. J. Heyd, E. N. Brothers, K. N. Kudin, 
 V. N. Staroverov, T. A. Keith, R. Kobayashi, J. Normand, 
 K. Raghavachari, A. P. Rendell, J. C. Burant, S. S. Iyengar, 
 J. Tomasi, M. Cossi, J. M. Millam, M. Klene, C. Adamo, R. Cammi, 
 J. W. Ochterski, R. L. Martin, K. Morokuma, O. Farkas, 
 J. B. Foresman, and D. J. Fox, Gaussian, Inc., Wallingford CT, 2016.
 
 ******************************************
 Gaussian 16:  ES64L-G16RevA.03 25-Dec-2016
                10-Mar-2018 
 ******************************************
 %MEM=80GB
 %CPU=0-15
 SetSPE:  set environment variable "MP_BIND" = "yes"
 SetSPE:  set environment variable "MP_BLIST" = "0,1,2,3,4,5,6,7,8,9,10,11,12,13,14,15"
 Will use up to   16 processors via shared memory.
 %RWF=/scratch/04843/aannabe/gaussian/
 %Int=/scratch/04843/aannabe/gaussian/
 %D2E=/scratch/04843/aannabe/gaussian/
 %NoSave
 %CHK=TiO
 ----------------------------------------------------------------------
 #P ROCCSD(T)=(maxcyc=150, Full, SaveAmplitudes, ReadAmplitudes)/Gen 5d
  7f SCF=(maxcycles=300) Integral(NoXCTest) MaxDisk=500GB Pop=Regular P
 seudo=Read Guess=Read
 ----------------------------------------------------------------------
 1/38=1,172=1/1;
 2/12=2,17=6,18=5,40=1/2;
 3/5=7,8=11,11=2,16=1,17=8,25=1,30=1,47=8,116=101/1,2,3;
 4/5=1/1;
 5/5=2,7=300,38=6/2;
 8/5=-1,6=4,9=120000,10=90,24=1/1,4;
 9/5=7,6=150,14=2,77=1/13;
 6//1;
 99/5=1,9=1/99;
 Leave Link    1 at Sat Mar 10 00:47:38 2018, MaxMem= 10737418240 cpu:               3.9 elap:               0.3
 (Enter /home1/apps/gaussian/16rA.03/g16/l101.exe)
 ---
 TiO
 ---
 Symbolic Z-matrix:
 Charge =  0 Multiplicity = 3
 Ti                    0.        0.        0. 
 O                     0.        0.        1.3 
 
 ITRead=  0  0
 MicOpt= -1 -1
 NAtoms=      2 NQM=        2 NQMF=       0 NMMI=      0 NMMIF=      0
                NMic=       0 NMicF=      0.
                    Isotopes and Nuclear Properties:
 (Nuclear quadrupole moments (NQMom) in fm**2, nuclear magnetic moments (NMagM)
  in nuclear magnetons)

  Atom         1           2
 IAtWgt=          48          16
 AtmWgt=  47.9479467  15.9949146
 NucSpn=           0           0
 AtZEff=  -0.0000000  -0.0000000
 NQMom=    0.0000000   0.0000000
 NMagM=    0.0000000   0.0000000
 AtZNuc=  22.0000000   8.0000000
 Leave Link  101 at Sat Mar 10 00:47:38 2018, MaxMem= 10737418240 cpu:               1.4 elap:               0.1
 (Enter /home1/apps/gaussian/16rA.03/g16/l202.exe)
                          Input orientation:                          
 ---------------------------------------------------------------------
 Center     Atomic      Atomic             Coordinates (Angstroms)
 Number     Number       Type             X           Y           Z
 ---------------------------------------------------------------------
      1         22           0        0.000000    0.000000    0.000000
      2          8           0        0.000000    0.000000    1.300000
 ---------------------------------------------------------------------
 Stoichiometry    OTi(3)
 Framework group  C*V[C*(OTi)]
 Deg. of freedom     1
 Full point group                 C*V     NOp   4
 Largest Abelian subgroup         C2V     NOp   4
 Largest concise Abelian subgroup C1      NOp   1
                         Standard orientation:                         
 ---------------------------------------------------------------------
 Center     Atomic      Atomic             Coordinates (Angstroms)
 Number     Number       Type             X           Y           Z
 ---------------------------------------------------------------------
      1         22           0        0.000000    0.000000    0.346667
      2          8           0        0.000000    0.000000   -0.953333
 ---------------------------------------------------------------------
 Rotational constants (GHZ):           0.0000000          24.9327752          24.9327752
 Leave Link  202 at Sat Mar 10 00:47:38 2018, MaxMem= 10737418240 cpu:               0.3 elap:               0.1
 (Enter /home1/apps/gaussian/16rA.03/g16/l301.exe)
 General basis read from cards:  (5D, 7F)
 Centers:       1
 S 1 1.00
     Exponent=  9.3170340000D+06 Coefficients=  1.0000000000D+00
 S 1 1.00
     Exponent=  1.3949710000D+06 Coefficients=  1.0000000000D+00
 S 1 1.00
     Exponent=  3.1745310000D+05 Coefficients=  1.0000000000D+00
 S 1 1.00
     Exponent=  8.9921000000D+04 Coefficients=  1.0000000000D+00
 S 1 1.00
     Exponent=  2.9338160000D+04 Coefficients=  1.0000000000D+00
 S 1 1.00
     Exponent=  1.0592660000D+04 Coefficients=  1.0000000000D+00
 S 1 1.00
     Exponent=  4.1320560000D+03 Coefficients=  1.0000000000D+00
 S 1 1.00
     Exponent=  1.7142350000D+03 Coefficients=  1.0000000000D+00
 S 1 1.00
     Exponent=  7.4791510000D+02 Coefficients=  1.0000000000D+00
 S 1 1.00
     Exponent=  3.4019910000D+02 Coefficients=  1.0000000000D+00
 S 1 1.00
     Exponent=  1.6020600000D+02 Coefficients=  1.0000000000D+00
 S 1 1.00
     Exponent=  7.7588510000D+01 Coefficients=  1.0000000000D+00
 S 1 1.00
     Exponent=  3.8044890000D+01 Coefficients=  1.0000000000D+00
 S 1 1.00
     Exponent=  1.7353620000D+01 Coefficients=  1.0000000000D+00
 S 1 1.00
     Exponent=  8.6420620000D+00 Coefficients=  1.0000000000D+00
 S 1 1.00
     Exponent=  4.3044040000D+00 Coefficients=  1.0000000000D+00
 S 1 1.00
     Exponent=  1.9377180000D+00 Coefficients=  1.0000000000D+00
 S 1 1.00
     Exponent=  9.3659400000D-01 Coefficients=  1.0000000000D+00
 S 1 1.00
     Exponent=  4.3262400000D-01 Coefficients=  1.0000000000D+00
 S 1 1.00
     Exponent=  1.0735200000D-01 Coefficients=  1.0000000000D+00
 S 1 1.00
     Exponent=  5.2034000000D-02 Coefficients=  1.0000000000D+00
 S 1 1.00
     Exponent=  2.4038000000D-02 Coefficients=  1.0000000000D+00
 S 1 1.00
     Exponent=  4.0519000000D+00 Coefficients=  1.0000000000D+00
 S 1 1.00
     Exponent=  1.0592000000D+00 Coefficients=  1.0000000000D+00
 S 1 1.00
     Exponent=  1.1100000000D-02 Coefficients=  1.0000000000D+00
 P 1 1.00
     Exponent=  2.5537330000D+04 Coefficients=  1.0000000000D+00
 P 1 1.00
     Exponent=  6.0422430000D+03 Coefficients=  1.0000000000D+00
 P 1 1.00
     Exponent=  1.9626530000D+03 Coefficients=  1.0000000000D+00
 P 1 1.00
     Exponent=  7.5173380000D+02 Coefficients=  1.0000000000D+00
 P 1 1.00
     Exponent=  3.1988330000D+02 Coefficients=  1.0000000000D+00
 P 1 1.00
     Exponent=  1.4643000000D+02 Coefficients=  1.0000000000D+00
 P 1 1.00
     Exponent=  7.0748610000D+01 Coefficients=  1.0000000000D+00
 P 1 1.00
     Exponent=  3.5590880000D+01 Coefficients=  1.0000000000D+00
 P 1 1.00
     Exponent=  1.8368930000D+01 Coefficients=  1.0000000000D+00
 P 1 1.00
     Exponent=  9.6586550000D+00 Coefficients=  1.0000000000D+00
 P 1 1.00
     Exponent=  5.1367300000D+00 Coefficients=  1.0000000000D+00
 P 1 1.00
     Exponent=  2.6988720000D+00 Coefficients=  1.0000000000D+00
 P 1 1.00
     Exponent=  1.3897030000D+00 Coefficients=  1.0000000000D+00
 P 1 1.00
     Exponent=  7.0316300000D-01 Coefficients=  1.0000000000D+00
 P 1 1.00
     Exponent=  3.4412300000D-01 Coefficients=  1.0000000000D+00
 P 1 1.00
     Exponent=  1.4137500000D-01 Coefficients=  1.0000000000D+00
 P 1 1.00
     Exponent=  6.0791000000D-02 Coefficients=  1.0000000000D+00
 P 1 1.00
     Exponent=  2.5831000000D-02 Coefficients=  1.0000000000D+00
 P 1 1.00
     Exponent=  4.8241000000D+00 Coefficients=  1.0000000000D+00
 P 1 1.00
     Exponent=  1.2211000000D+00 Coefficients=  1.0000000000D+00
 P 1 1.00
     Exponent=  1.0980000000D-02 Coefficients=  1.0000000000D+00
 D 1 1.00
     Exponent=  1.9997200000D+02 Coefficients=  1.0000000000D+00
 D 1 1.00
     Exponent=  5.9186900000D+01 Coefficients=  1.0000000000D+00
 D 1 1.00
     Exponent=  2.2601300000D+01 Coefficients=  1.0000000000D+00
 D 1 1.00
     Exponent=  9.5739100000D+00 Coefficients=  1.0000000000D+00
 D 1 1.00
     Exponent=  4.3177100000D+00 Coefficients=  1.0000000000D+00
 D 1 1.00
     Exponent=  2.0237300000D+00 Coefficients=  1.0000000000D+00
 D 1 1.00
     Exponent=  9.4716900000D-01 Coefficients=  1.0000000000D+00
 D 1 1.00
     Exponent=  4.3387700000D-01 Coefficients=  1.0000000000D+00
 D 1 1.00
     Exponent=  1.9212600000D-01 Coefficients=  1.0000000000D+00
 D 1 1.00
     Exponent=  8.1404000000D-02 Coefficients=  1.0000000000D+00
 D 1 1.00
     Exponent=  3.2233000000D-02 Coefficients=  1.0000000000D+00
 D 1 1.00
     Exponent=  2.7829000000D+00 Coefficients=  1.0000000000D+00
 D 1 1.00
     Exponent=  1.3657000000D+00 Coefficients=  1.0000000000D+00
 D 1 1.00
     Exponent=  1.2760000000D-02 Coefficients=  1.0000000000D+00
 F 1 1.00
     Exponent=  3.7192000000D+00 Coefficients=  1.0000000000D+00
 F 1 1.00
     Exponent=  1.4838000000D+00 Coefficients=  1.0000000000D+00
 F 1 1.00
     Exponent=  5.9200000000D-01 Coefficients=  1.0000000000D+00
 F 1 1.00
     Exponent=  1.7960000000D-01 Coefficients=  1.0000000000D+00
 F 1 1.00
     Exponent=  5.4490000000D-02 Coefficients=  1.0000000000D+00
 G 1 1.00
     Exponent=  3.2099000000D+00 Coefficients=  1.0000000000D+00
 G 1 1.00
     Exponent=  1.2652000000D+00 Coefficients=  1.0000000000D+00
 G 1 1.00
     Exponent=  3.9470000000D-01 Coefficients=  1.0000000000D+00
 G 1 1.00
     Exponent=  1.2313000000D-01 Coefficients=  1.0000000000D+00
 H 1 1.00
     Exponent=  2.7676000000D+00 Coefficients=  1.0000000000D+00
 H 1 1.00
     Exponent=  8.5240000000D-01 Coefficients=  1.0000000000D+00
 H 1 1.00
     Exponent=  2.6253000000D-01 Coefficients=  1.0000000000D+00
 ****
 Centers:       2
 S 1 1.00
     Exponent=  6.1420000000D+04 Coefficients=  1.0000000000D+00
 S 1 1.00
     Exponent=  9.1990000000D+03 Coefficients=  1.0000000000D+00
 S 1 1.00
     Exponent=  2.0910000000D+03 Coefficients=  1.0000000000D+00
 S 1 1.00
     Exponent=  5.9090000000D+02 Coefficients=  1.0000000000D+00
 S 1 1.00
     Exponent=  1.9230000000D+02 Coefficients=  1.0000000000D+00
 S 1 1.00
     Exponent=  6.9320000000D+01 Coefficients=  1.0000000000D+00
 S 1 1.00
     Exponent=  2.6970000000D+01 Coefficients=  1.0000000000D+00
 S 1 1.00
     Exponent=  1.1100000000D+01 Coefficients=  1.0000000000D+00
 S 1 1.00
     Exponent=  4.6820000000D+00 Coefficients=  1.0000000000D+00
 S 1 1.00
     Exponent=  1.4280000000D+00 Coefficients=  1.0000000000D+00
 S 1 1.00
     Exponent=  5.5470000000D-01 Coefficients=  1.0000000000D+00
 S 1 1.00
     Exponent=  2.0670000000D-01 Coefficients=  1.0000000000D+00
 S 1 1.00
     Exponent=  1.2974000000D+01 Coefficients=  1.0000000000D+00
 S 1 1.00
     Exponent=  3.4900000000D+01 Coefficients=  1.0000000000D+00
 S 1 1.00
     Exponent=  9.3881000000D+01 Coefficients=  1.0000000000D+00
 S 1 1.00
     Exponent=  6.9590000000D-02 Coefficients=  1.0000000000D+00
 P 1 1.00
     Exponent=  6.3420000000D+01 Coefficients=  1.0000000000D+00
 P 1 1.00
     Exponent=  1.4660000000D+01 Coefficients=  1.0000000000D+00
 P 1 1.00
     Exponent=  4.4590000000D+00 Coefficients=  1.0000000000D+00
 P 1 1.00
     Exponent=  1.5310000000D+00 Coefficients=  1.0000000000D+00
 P 1 1.00
     Exponent=  5.3020000000D-01 Coefficients=  1.0000000000D+00
 P 1 1.00
     Exponent=  1.7500000000D-01 Coefficients=  1.0000000000D+00
 P 1 1.00
     Exponent=  1.4475000000D+01 Coefficients=  1.0000000000D+00
 P 1 1.00
     Exponent=  4.2730000000D+01 Coefficients=  1.0000000000D+00
 P 1 1.00
     Exponent=  1.2614000000D+02 Coefficients=  1.0000000000D+00
 P 1 1.00
     Exponent=  5.3480000000D-02 Coefficients=  1.0000000000D+00
 D 1 1.00
     Exponent=  3.7750000000D+00 Coefficients=  1.0000000000D+00
 D 1 1.00
     Exponent=  1.3000000000D+00 Coefficients=  1.0000000000D+00
 D 1 1.00
     Exponent=  4.4400000000D-01 Coefficients=  1.0000000000D+00
 D 1 1.00
     Exponent=  1.4927000000D+01 Coefficients=  1.0000000000D+00
 D 1 1.00
     Exponent=  5.7544000000D+01 Coefficients=  1.0000000000D+00
 D 1 1.00
     Exponent=  1.5400000000D-01 Coefficients=  1.0000000000D+00
 F 1 1.00
     Exponent=  2.6660000000D+00 Coefficients=  1.0000000000D+00
 F 1 1.00
     Exponent=  8.5900000000D-01 Coefficients=  1.0000000000D+00
 F 1 1.00
     Exponent=  2.6483000000D+01 Coefficients=  1.0000000000D+00
 F 1 1.00
     Exponent=  3.2400000000D-01 Coefficients=  1.0000000000D+00
 G 1 1.00
     Exponent=  1.8460000000D+00 Coefficients=  1.0000000000D+00
 G 1 1.00
     Exponent=  7.1400000000D-01 Coefficients=  1.0000000000D+00
 ****
 ======================================================================================================
                                       Pseudopotential Parameters
 ======================================================================================================
  Center     Atomic      Valence      Angular      Power
  Number     Number     Electrons     Momentum     of R      Exponent        Coefficient   SO-Coeffient
 ======================================================================================================
    1         22           12
                                      F and up 
                                                     1        8.5249928       12.00000000    0.00000000
                                                     2       15.2433413     2048.39512837    0.00000000
                                                     2        9.8260552     -812.71625987    0.00000000
                                                     2       13.7363863    -6663.62886396    0.00000000
                                                     2       12.6545051     5396.93874773    0.00000000
                                                     3        7.5479069      102.29991323    0.00000000
                                      S - F
                                                     2        6.0785437    -5355.67455847    0.00000000
                                                     2        6.6087036     4802.76911085    0.00000000
                                                     2        5.4080383     1304.66429039    0.00000000
                                                     2       10.4303760    -1133.61681175    0.00000000
                                                     2       18.4079625     -258.77562194    0.00000000
                                                     2       15.3842880      672.53886697    0.00000000
                                      P - F
                                                     2        9.6031986    56981.17339652    0.00000000
                                                     2        9.6627051    **************    0.00000000
                                                     2       15.0651591     1335.72576887    0.00000000
                                                     2       16.3659998     -813.49634683    0.00000000
                                                     2        7.8642018     -720.45341501    0.00000000
                                                     2       10.2545265      239.69852194    0.00000000
                                      D - F
                                                     2       10.5665082    -4262.72074057    0.00000000
                                                     2        2.7136838       -1.34753473    0.00000000
                                                     2        9.3378092     1569.82864567    0.00000000
                                                     2       31.6056069       -0.45387550    0.00000000
                                                     2       12.2803014     5034.44351544    0.00000000
                                                     2       13.3677017    -2350.67846378    0.00000000
    2          8            6
                                      P and up 
                                                     1       12.3099700        6.00000000    0.00000000
                                                     3       14.7696200       73.85984000    0.00000000
                                                     2       13.7141900      -47.87600000    0.00000000
                                      S - P
                                                     2       13.6551200       85.86406000    0.00000000
 ======================================================================================================
 Ernie: Thresh=  0.10000D-02 Tol=  0.10000D-05 Strict=F.
 There are   213 symmetry adapted cartesian basis functions of A1  symmetry.
 There are    56 symmetry adapted cartesian basis functions of A2  symmetry.
 There are   114 symmetry adapted cartesian basis functions of B1  symmetry.
 There are   114 symmetry adapted cartesian basis functions of B2  symmetry.
 There are   157 symmetry adapted basis functions of A1  symmetry.
 There are    47 symmetry adapted basis functions of A2  symmetry.
 There are    90 symmetry adapted basis functions of B1  symmetry.
 There are    90 symmetry adapted basis functions of B2  symmetry.
   384 basis functions,   497 primitive gaussians,   497 cartesian basis functions
    10 alpha electrons        8 beta electrons
       nuclear repulsion energy        29.3082762971 Hartrees.
 IExCor=    0 DFT=F Ex=HF Corr=None ExCW=0 ScaHFX=  1.000000
 ScaDFX=  1.000000  1.000000  1.000000  1.000000 ScalE2=  1.000000  1.000000
 IRadAn=      5 IRanWt=     -1 IRanGd=            0 ICorTp=0 IEmpDi=  4
 NAtoms=    2 NActive=    2 NUniq=    2 SFac= 1.00D+00 NAtFMM=   60 NAOKFM=F Big=F
 Integral buffers will be    131072 words long.
 Raffenetti 2 integral format.
 Two-electron integral symmetry is turned on.
 Leave Link  301 at Sat Mar 10 00:47:38 2018, MaxMem= 10737418240 cpu:               5.0 elap:               0.3
 (Enter /home1/apps/gaussian/16rA.03/g16/l302.exe)
 NPDir=0 NMtPBC=     1 NCelOv=     1 NCel=       1 NClECP=     1 NCelD=      1
         NCelK=      1 NCelE2=     1 NClLst=     1 CellRange=     0.0.
 One-electron integrals computed using PRISM.
 One-electron integral symmetry used in STVInt
   4 Symmetry operations used in ECPInt.
 ECPInt:  NShTT=    6105 NPrTT=    6105 LenC2=    5673 LenP2D=    5672.
 LDataN:  DoStor=T MaxTD1=10 Len=  848
 NBasis=   384 RedAO= T EigKep=  2.06D-06  NBF=   157    47    90    90
 NBsUse=   380 1.00D-06 EigRej=  4.73D-07 NBFU=   155    47    89    89
 Leave Link  302 at Sat Mar 10 00:47:41 2018, MaxMem= 10737418240 cpu:              50.7 elap:               3.2
 (Enter /home1/apps/gaussian/16rA.03/g16/l303.exe)
 DipDrv:  MaxL=1.
 Leave Link  303 at Sat Mar 10 00:47:42 2018, MaxMem= 10737418240 cpu:               1.9 elap:               0.2
 (Enter /home1/apps/gaussian/16rA.03/g16/l401.exe)
 Initial guess from the checkpoint file:  "TiO.chk"
 B after Tr=     0.000000    0.000000    0.000000
         Rot=    1.000000    0.000000    0.000000    0.000000 Ang=   0.00 deg.
 Guess basis will be translated and rotated to current coordinates.
 JPrj=2 DoOrth=T DoCkMO=T.
 Initial guess orbital symmetries:
       Occupied  (SG) (SG) (PI) (PI) (SG) (PI) (PI) (SG) (SG) (?A)
       Virtual   (PI) (PI) (SG) (SG) (SG) (?A) (PI) (PI) (?A) (PI)
                 (PI) (SG) (SG) (?A) (SG) (PI) (PI) (?A) (PI) (PI)
                 (SG) (PI) (PI) (SG) (?A) (?A) (?A) (?B) (?B) (?B)
                 (?B) (SG) (SG) (PI) (PI) (SG) (SG) (PI) (PI) (?A)
                 (PI) (PI) (?A) (SG) (DLTA) (DLTA) (SG) (PI) (PI)
                 (?C) (?C) (?C) (PHI) (PHI) (DLTA) (DLTA) (PI)
                 (PI) (PHI) (PHI) (SG) (SG) (DLTA) (DLTA) (PI)
                 (PI) (SG) (PI) (PI) (SG) (PI) (PI) (?A) (SG) (?A)
                 (SG) (PI) (PI) (DLTA) (DLTA) (PHI) (PHI) (SG)
                 (SG) (PI) (PI) (DLTA) (DLTA) (PI) (PI) (PHI) (PHI)
                 (DLTA) (DLTA) (SG) (?D) (?D) (PHI) (PHI) (SG)
                 (PI) (PI) (PI) (PI) (DLTA) (DLTA) (SG) (SG) (PI)
                 (PI) (SG) (PI) (PI) (SG) (DLTA) (DLTA) (PI) (PI)
                 (SG) (SG) (PHI) (PHI) (DLTA) (DLTA) (DLTA) (DLTA)
                 (PI) (PI) (SG) (PI) (PI) (SG) (SG) (?B) (?B) (?B)
                 (?B) (DLTA) (DLTA) (SG) (PI) (PI) (SG) (PHI) (PHI)
                 (?D) (?D) (DLTA) (DLTA) (PI) (PI) (SG) (DLTA)
                 (DLTA) (PI) (PI) (SG) (PI) (PI) (SG) (SG) (SG)
                 (PI) (PI) (SG) (DLTA) (DLTA) (PI) (PI) (SG) (SG)
                 (PI) (PI) (SG) (SG) (DLTA) (DLTA) (PI) (PI) (SG)
                 (PI) (PI) (SG) (SG) (DLTA) (DLTA) (PI) (PI) (SG)
                 (SG) (PI) (PI) (SG) (SG) (PI) (PI) (SG) (SG) (PI)
                 (PI) (SG) (SG) (DLTA) (DLTA) (PI) (PI) (SG) (SG)
                 (PI) (PI) (SG) (PI) (PI) (SG) (SG) (SG) (PI) (PI)
                 (SG) (SG) (PI) (PI) (SG) (SG) (SG) (PI) (PI) (SG)
                 (SG) (SG) (PI) (PI) (SG) (SG) (SG) (SG) (PI) (PI)
                 (SG) (SG) (SG) (SG) (SG) (SG) (DLTA) (SG) (SG)
                 (DLTA) (SG) (SG) (SG) (SG) (DLTA) (SG) (DLTA)
                 (SG) (SG) (SG) (DLTA) (SG) (SG) (DLTA) (SG) (?D)
                 (SG) (DLTA) (DLTA) (SG) (?D) (SG) (SG) (DLTA)
                 (DLTA) (DLTA) (SG) (?D) (?D) (SG) (DLTA) (DLTA)
                 (DLTA) (SG) (SG) (DLTA) (?D) (?D) (SG) (DLTA)
                 (DLTA) (DLTA) (DLTA) (DLTA) (DLTA) (?D) (DLTA)
                 (DLTA) (?D) (DLTA) (DLTA) (DLTA) (?D) (?D) (DLTA)
                 (DLTA) (DLTA) (DLTA) (?D) (?D) (PI) (PI) (PI)
                 (PI) (PI) (PHI) (PI) (PI) (PI) (PI) (PI) (PHI)
                 (PI) (PI) (PHI) (PI) (PI) (PI) (PHI) (?E) (PHI)
                 (PI) (PI) (PHI) (PI) (PHI) (PI) (PHI) (?E) (PHI)
                 (?E) (PI) (PI) (PI) (PI) (PI) (PHI) (PI) (PI)
                 (PI) (PI) (PI) (PHI) (PI) (PI) (PHI) (PI) (PI)
                 (PI) (PHI) (?E) (PHI) (PI) (PI) (PHI) (PI) (PHI)
                 (PI) (PHI) (?E) (PHI) (?E)
 Leave Link  401 at Sat Mar 10 00:47:43 2018, MaxMem= 10737418240 cpu:              12.8 elap:               0.9
 (Enter /home1/apps/gaussian/16rA.03/g16/l502.exe)
 Keep R1 and R2 ints in memory in symmetry-blocked form, NReq=3425113631.
 FoFCou: FMM=F IPFlag=           8 FMFlag=           0 FMFlg1=           0
         NFxFlg=           0 DoJE=F BraDBF=F KetDBF=F FulRan=T
         wScrn=  0.000000 ICntrl=       600 IOpCl=  0 I1Cent=           0 NGrid=           0
         NMat0=    1 NMatS0=  73920 NMatT0=    0 NMatD0=    1 NMtDS0=    0 NMtDT0=    0
 Petite list used in FoFCou.
 Restricted open shell SCF:
 Using DIIS extrapolation, IDIIS=  1040.
 NGot= 10737418240 LenX=  9351093905 LenY=  9350846399
 Requested convergence on RMS density matrix=1.00D-08 within 300 cycles.
 Requested convergence on MAX density matrix=1.00D-06.
 Requested convergence on             energy=1.00D-06.
 No special actions if energy rises.

 Cycle   1  Pass 1  IDiag  1:
 E= -73.1738469887606    
 DIIS: error= 4.61D+00 at cycle   1 NSaved=   1.
 NSaved= 1 IEnMin= 1 EnMin= -73.1738469887606     IErMin= 1 ErrMin= 4.61D+00
 ErrMax= 4.61D+00  0.00D+00 EMaxC= 1.00D-01 BMatC= 3.02D+03 BMatP= 3.02D+03
 IDIUse=3 WtCom= 0.00D+00 WtEn= 1.00D+00
 Coeff-Com:  0.100D+01
 Coeff-En:   0.100D+01
 Coeff:      0.100D+01
 Gap=     0.045 Goal=   None    Shift=    0.000
 GapD=    0.045 DampG=0.250 DampE=0.125 DampFc=0.1250 IDamp=-1.
 Damping current iteration by 1.25D-01
 RMSDP=2.75D-02 MaxDP=5.13D+00              OVMax= 5.87D-03

 Cycle   2  Pass 1  IDiag  1:
 E= -73.1747968218560     Delta-E=       -0.000949833095 Rises=F Damp=T
 DIIS: error= 4.03D+00 at cycle   2 NSaved=   2.
 NSaved= 2 IEnMin= 2 EnMin= -73.1747968218560     IErMin= 2 ErrMin= 4.03D+00
 ErrMax= 4.03D+00  0.00D+00 EMaxC= 1.00D-01 BMatC= 2.31D+03 BMatP= 3.02D+03
 IDIUse=3 WtCom= 0.00D+00 WtEn= 1.00D+00
 Coeff-Com: -0.700D+01 0.800D+01
 Coeff-En:   0.000D+00 0.100D+01
 Coeff:      0.000D+00 0.100D+01
 Gap=     0.043 Goal=   None    Shift=    0.000
 RMSDP=2.42D-02 MaxDP=4.49D+00 DE=-9.50D-04 OVMax= 1.98D-02

 Cycle   3  Pass 1  IDiag  1:
 E= -73.1814511505988     Delta-E=       -0.006654328743 Rises=F Damp=F
 DIIS: error= 1.02D-03 at cycle   3 NSaved=   3.
 NSaved= 3 IEnMin= 3 EnMin= -73.1814511505988     IErMin= 3 ErrMin= 1.02D-03
 ErrMax= 1.02D-03  0.00D+00 EMaxC= 1.00D-01 BMatC= 5.06D-05 BMatP= 2.31D+03
 IDIUse=3 WtCom= 9.90D-01 WtEn= 1.02D-02
 Coeff-Com: -0.183D+01 0.209D+01 0.739D+00
 Coeff-En:   0.000D+00 0.000D+00 0.100D+01
 Coeff:     -0.181D+01 0.207D+01 0.742D+00
 Gap=     0.043 Goal=   None    Shift=    0.000
 RMSDP=8.84D-04 MaxDP=1.61D-01 DE=-6.65D-03 OVMax= 2.18D-02

 Cycle   4  Pass 1  IDiag  1:
 E= -73.1815095303755     Delta-E=       -0.000058379777 Rises=F Damp=F
 DIIS: error= 7.56D-04 at cycle   4 NSaved=   4.
 NSaved= 4 IEnMin= 4 EnMin= -73.1815095303755     IErMin= 4 ErrMin= 7.56D-04
 ErrMax= 7.56D-04  0.00D+00 EMaxC= 1.00D-01 BMatC= 1.45D-05 BMatP= 5.06D-05
 IDIUse=3 WtCom= 9.92D-01 WtEn= 7.56D-03
 Coeff-Com: -0.906D+00 0.104D+01 0.262D+00 0.609D+00
 Coeff-En:   0.000D+00 0.000D+00 0.372D+00 0.628D+00
 Coeff:     -0.899D+00 0.103D+01 0.262D+00 0.609D+00
 Gap=     0.043 Goal=   None    Shift=    0.000
 RMSDP=1.07D-04 MaxDP=2.19D-02 DE=-5.84D-05 OVMax= 2.33D-02

 Cycle   5  Pass 1  IDiag  1:
 E= -73.1814679486695     Delta-E=        0.000041581706 Rises=F Damp=F
 DIIS: error= 9.18D-04 at cycle   5 NSaved=   5.
 NSaved= 5 IEnMin= 4 EnMin= -73.1815095303755     IErMin= 4 ErrMin= 7.56D-04
 ErrMax= 9.18D-04  0.00D+00 EMaxC= 1.00D-01 BMatC= 2.40D-05 BMatP= 1.45D-05
 IDIUse=3 WtCom= 2.48D-01 WtEn= 7.52D-01
 Coeff-Com: -0.881D+00 0.101D+01-0.150D+00 0.452D+00 0.572D+00
 Coeff-En:   0.000D+00 0.000D+00 0.000D+00 0.585D+00 0.415D+00
 Coeff:     -0.219D+00 0.250D+00-0.372D-01 0.552D+00 0.454D+00
 Gap=     0.043 Goal=   None    Shift=    0.000
 RMSDP=9.59D-05 MaxDP=1.56D-02 DE= 4.16D-05 OVMax= 2.38D-02

 Cycle   6  Pass 1  IDiag  1:
 E= -73.1815169339080     Delta-E=       -0.000048985239 Rises=F Damp=F
 DIIS: error= 5.75D-04 at cycle   6 NSaved=   6.
 NSaved= 6 IEnMin= 6 EnMin= -73.1815169339080     IErMin= 6 ErrMin= 5.75D-04
 ErrMax= 5.75D-04  0.00D+00 EMaxC= 1.00D-01 BMatC= 8.91D-06 BMatP= 1.45D-05
 IDIUse=3 WtCom= 9.94D-01 WtEn= 5.75D-03
 EnCoef did   100 forward-backward iterations
 Coeff-Com: -0.766D+00 0.875D+00-0.131D+00 0.413D+00 0.540D+00 0.681D-01
 Coeff-En:   0.000D+00 0.000D+00 0.324D+00 0.757D-02 0.763D-01 0.593D+00
 Coeff:     -0.761D+00 0.870D+00-0.128D+00 0.411D+00 0.537D+00 0.711D-01
 Gap=     0.043 Goal=   None    Shift=    0.000
 RMSDP=6.96D-05 MaxDP=1.06D-02 DE=-4.90D-05 OVMax= 1.29D-02

 Cycle   7  Pass 1  IDiag  1:
 E= -73.1815360378019     Delta-E=       -0.000019103894 Rises=F Damp=F
 DIIS: error= 4.28D-04 at cycle   7 NSaved=   7.
 NSaved= 7 IEnMin= 7 EnMin= -73.1815360378019     IErMin= 7 ErrMin= 4.28D-04
 ErrMax= 4.28D-04  0.00D+00 EMaxC= 1.00D-01 BMatC= 3.00D-06 BMatP= 8.91D-06
 IDIUse=3 WtCom= 9.96D-01 WtEn= 4.28D-03
 EnCoef did   100 forward-backward iterations
 Rare condition: small coef for last iteration:  0.102D-14
 Coeff-Com: -0.954D+00 0.109D+01-0.173D+00 0.195D+00 0.295D+00-0.153D+00
 Coeff-Com:  0.700D+00
 Coeff-En:   0.000D+00 0.000D+00 0.651D-02 0.684D-01 0.190D+00 0.284D+00
 Coeff-En:   0.451D+00
 Coeff:     -0.954D+00 0.109D+01-0.173D+00 0.195D+00 0.295D+00-0.153D+00
 Coeff:      0.700D+00
 Gap=     0.043 Goal=   None    Shift=    0.000
 RMSDP=1.57D-05 MaxDP=3.38D-03 DE=-1.91D-05 OVMax= 6.73D-04

 Cycle   8  Pass 1  IDiag  1:
 E= -73.1815351755095     Delta-E=        0.000000862292 Rises=F Damp=F
 DIIS: error= 4.59D-04 at cycle   8 NSaved=   8.
 NSaved= 8 IEnMin= 7 EnMin= -73.1815360378019     IErMin= 7 ErrMin= 4.28D-04
 ErrMax= 4.59D-04  0.00D+00 EMaxC= 1.00D-01 BMatC= 3.43D-06 BMatP= 3.00D-06
 IDIUse=3 WtCom= 9.96D-01 WtEn= 4.28D-03
 EnCoef did   100 forward-backward iterations
 Coeff-Com: -0.915D+00 0.105D+01-0.152D+00 0.912D-02 0.766D-01-0.163D+00
 Coeff-Com:  0.294D+00 0.805D+00
 Coeff-En:   0.000D+00 0.000D+00 0.297D+00 0.363D-03 0.971D-01 0.586D+00
 Coeff-En:   0.000D+00 0.200D-01
 Coeff:     -0.911D+00 0.104D+01-0.150D+00 0.908D-02 0.766D-01-0.160D+00
 Coeff:      0.293D+00 0.802D+00
 Gap=     0.043 Goal=   None    Shift=    0.000
 RMSDP=3.33D-06 MaxDP=6.66D-04 DE= 8.62D-07 OVMax= 2.00D-04

 Cycle   9  Pass 1  IDiag  1:
 E= -73.1815358216152     Delta-E=       -0.000000646106 Rises=F Damp=F
 DIIS: error= 4.36D-04 at cycle   9 NSaved=   9.
 NSaved= 9 IEnMin= 7 EnMin= -73.1815360378019     IErMin= 7 ErrMin= 4.28D-04
 ErrMax= 4.36D-04  0.00D+00 EMaxC= 1.00D-01 BMatC= 3.13D-06 BMatP= 3.00D-06
 IDIUse=3 WtCom= 9.96D-01 WtEn= 4.28D-03
 EnCoef did   100 forward-backward iterations
 Rare condition: small coef for last iteration:  0.000D+00
 Coeff-Com: -0.871D+00 0.995D+00-0.139D+00-0.416D-01 0.495D-02-0.162D+00
 Coeff-Com:  0.749D-01 0.505D-01 0.109D+01
 Coeff-En:   0.000D+00 0.000D+00 0.132D-01 0.762D-01 0.178D+00 0.287D+00
 Coeff-En:   0.000D+00 0.000D+00 0.446D+00
 Coeff:     -0.871D+00 0.995D+00-0.139D+00-0.416D-01 0.495D-02-0.162D+00
 Coeff:      0.749D-01 0.505D-01 0.109D+01
 Gap=     0.043 Goal=   None    Shift=    0.000
 RMSDP=3.58D-06 MaxDP=7.70D-04 DE=-6.46D-07 OVMax= 1.95D-04

 Cycle  10  Pass 1  IDiag  1:
 E= -73.1815364037765     Delta-E=       -0.000000582161 Rises=F Damp=F
 DIIS: error= 4.19D-04 at cycle  10 NSaved=  10.
 NSaved=10 IEnMin=10 EnMin= -73.1815364037765     IErMin=10 ErrMin= 4.19D-04
 ErrMax= 4.19D-04  0.00D+00 EMaxC= 1.00D-01 BMatC= 2.87D-06 BMatP= 3.00D-06
 IDIUse=3 WtCom= 9.96D-01 WtEn= 4.19D-03
 EnCoef did   100 forward-backward iterations
 Rare condition: small coef for last iteration:  0.000D+00
 Coeff-Com: -0.853D+00 0.975D+00-0.138D+00-0.164D-01 0.325D-01-0.158D+00
 Coeff-Com:  0.107D+00-0.261D-01 0.349D+00 0.728D+00
 Coeff-En:   0.000D+00 0.000D+00 0.145D-01 0.788D-01 0.179D+00 0.280D+00
 Coeff-En:   0.000D+00 0.000D+00 0.000D+00 0.448D+00
 Coeff:     -0.853D+00 0.975D+00-0.138D+00-0.164D-01 0.325D-01-0.158D+00
 Coeff:      0.107D+00-0.261D-01 0.349D+00 0.728D+00
 Gap=     0.043 Goal=   None    Shift=    0.000
 RMSDP=2.35D-06 MaxDP=3.21D-04 DE=-5.82D-07 OVMax= 1.97D-04

 Cycle  11  Pass 1  IDiag  1:
 E= -73.1815366649409     Delta-E=       -0.000000261164 Rises=F Damp=F
 DIIS: error= 4.10D-04 at cycle  11 NSaved=  11.
 NSaved=11 IEnMin=11 EnMin= -73.1815366649409     IErMin=11 ErrMin= 4.10D-04
 ErrMax= 4.10D-04  0.00D+00 EMaxC= 1.00D-01 BMatC= 2.76D-06 BMatP= 2.87D-06
 IDIUse=3 WtCom= 9.96D-01 WtEn= 4.10D-03
 EnCoef did   100 forward-backward iterations
 Rare condition: small coef for last iteration:  0.000D+00
 Coeff-Com: -0.833D+00 0.952D+00-0.136D+00 0.692D-02 0.585D-01-0.153D+00
 Coeff-Com:  0.142D+00-0.699D-01-0.321D+00 0.100D+01 0.354D+00
 Coeff-En:   0.000D+00 0.000D+00 0.151D-01 0.800D-01 0.179D+00 0.277D+00
 Coeff-En:   0.000D+00 0.000D+00 0.000D+00 0.000D+00 0.449D+00
 Coeff:     -0.833D+00 0.952D+00-0.136D+00 0.692D-02 0.585D-01-0.153D+00
 Coeff:      0.142D+00-0.699D-01-0.321D+00 0.100D+01 0.354D+00
 Gap=     0.043 Goal=   None    Shift=    0.000
 RMSDP=2.26D-06 MaxDP=3.75D-04 DE=-2.61D-07 OVMax= 1.71D-04

 Cycle  12  Pass 1  IDiag  1:
 E= -73.1815369648327     Delta-E=       -0.000000299892 Rises=F Damp=F
 DIIS: error= 4.00D-04 at cycle  12 NSaved=  12.
 NSaved=12 IEnMin=12 EnMin= -73.1815369648327     IErMin=12 ErrMin= 4.00D-04
 ErrMax= 4.00D-04  0.00D+00 EMaxC= 1.00D-01 BMatC= 2.63D-06 BMatP= 2.76D-06
 IDIUse=3 WtCom= 9.96D-01 WtEn= 4.00D-03
 EnCoef did   100 forward-backward iterations
 Rare condition: small coef for last iteration:  0.000D+00
 Coeff-Com: -0.805D+00 0.920D+00-0.132D+00 0.482D-03 0.512D-01-0.147D+00
 Coeff-Com:  0.138D+00-0.181D-01-0.798D-01-0.732D-01 0.294D-01 0.112D+01
 Coeff-En:   0.000D+00 0.000D+00 0.158D-01 0.814D-01 0.179D+00 0.274D+00
 Coeff-En:   0.000D+00 0.000D+00 0.000D+00 0.000D+00 0.000D+00 0.450D+00
 Coeff:     -0.805D+00 0.920D+00-0.132D+00 0.482D-03 0.512D-01-0.147D+00
 Coeff:      0.138D+00-0.181D-01-0.798D-01-0.732D-01 0.294D-01 0.112D+01
 Gap=     0.043 Goal=   None    Shift=    0.000
 RMSDP=2.61D-06 MaxDP=5.64D-04 DE=-3.00D-07 OVMax= 1.38D-04

 Cycle  13  Pass 1  IDiag  1:
 E= -73.1815373572130     Delta-E=       -0.000000392380 Rises=F Damp=F
 DIIS: error= 3.87D-04 at cycle  13 NSaved=  13.
 NSaved=13 IEnMin=13 EnMin= -73.1815373572130     IErMin=13 ErrMin= 3.87D-04
 ErrMax= 3.87D-04  0.00D+00 EMaxC= 1.00D-01 BMatC= 2.45D-06 BMatP= 2.63D-06
 IDIUse=3 WtCom= 9.96D-01 WtEn= 3.87D-03
 EnCoef did   100 forward-backward iterations
 Rare condition: small coef for last iteration:  0.000D+00
 Coeff-Com: -0.792D+00 0.905D+00-0.129D+00-0.165D-02 0.480D-01-0.145D+00
 Coeff-Com:  0.134D+00-0.664D-02-0.595D-03-0.263D+00-0.476D-01 0.917D+00
 Coeff-Com:  0.380D+00
 Coeff-En:   0.000D+00 0.000D+00 0.169D-01 0.835D-01 0.180D+00 0.269D+00
 Coeff-En:   0.000D+00 0.000D+00 0.000D+00 0.000D+00 0.000D+00 0.000D+00
 Coeff-En:   0.451D+00
 Coeff:     -0.792D+00 0.905D+00-0.129D+00-0.165D-02 0.480D-01-0.145D+00
 Coeff:      0.134D+00-0.664D-02-0.595D-03-0.263D+00-0.476D-01 0.917D+00
 Coeff:      0.380D+00
 Gap=     0.043 Goal=   None    Shift=    0.000
 RMSDP=1.28D-06 MaxDP=2.56D-04 DE=-3.92D-07 OVMax= 7.60D-05

 Cycle  14  Pass 1  IDiag  1:
 E= -73.1815375398733     Delta-E=       -0.000000182660 Rises=F Damp=F
 DIIS: error= 3.81D-04 at cycle  14 NSaved=  14.
 NSaved=14 IEnMin=14 EnMin= -73.1815375398733     IErMin=14 ErrMin= 3.81D-04
 ErrMax= 3.81D-04  0.00D+00 EMaxC= 1.00D-01 BMatC= 2.37D-06 BMatP= 2.45D-06
 IDIUse=3 WtCom= 9.96D-01 WtEn= 3.81D-03
 EnCoef did   100 forward-backward iterations
 Rare condition: small coef for last iteration:  0.000D+00
 Coeff-Com: -0.769D+00 0.879D+00-0.125D+00-0.347D-02 0.443D-01-0.141D+00
 Coeff-Com:  0.128D+00 0.961D-03 0.704D-01-0.310D+00-0.959D-01 0.279D+00
 Coeff-Com:  0.549D+00 0.494D+00
 Coeff-En:   0.000D+00 0.000D+00 0.174D-01 0.845D-01 0.180D+00 0.266D+00
 Coeff-En:   0.000D+00 0.000D+00 0.000D+00 0.000D+00 0.000D+00 0.000D+00
 Coeff-En:   0.000D+00 0.452D+00
 Coeff:     -0.769D+00 0.879D+00-0.125D+00-0.347D-02 0.443D-01-0.141D+00
 Coeff:      0.128D+00 0.961D-03 0.704D-01-0.310D+00-0.959D-01 0.279D+00
 Coeff:      0.549D+00 0.494D+00
 Gap=     0.043 Goal=   None    Shift=    0.000
 RMSDP=2.00D-06 MaxDP=4.22D-04 DE=-1.83D-07 OVMax= 1.10D-04

 Cycle  15  Pass 1  IDiag  1:
 E= -73.1815378380168     Delta-E=       -0.000000298143 Rises=F Damp=F
 DIIS: error= 3.70D-04 at cycle  15 NSaved=  15.
 NSaved=15 IEnMin=15 EnMin= -73.1815378380168     IErMin=15 ErrMin= 3.70D-04
 ErrMax= 3.70D-04  0.00D+00 EMaxC= 1.00D-01 BMatC= 2.24D-06 BMatP= 2.37D-06
 IDIUse=3 WtCom= 9.96D-01 WtEn= 3.70D-03
 EnCoef did   100 forward-backward iterations
 Rare condition: small coef for last iteration:  0.000D+00
 Coeff-Com: -0.725D+00 0.829D+00-0.118D+00-0.271D-03 0.441D-01-0.134D+00
 Coeff-Com:  0.120D+00-0.109D-01-0.321D-01 0.173D+00 0.395D-01-0.475D+00
 Coeff-Com: -0.312D+00-0.117D+00 0.172D+01
 Coeff-En:   0.000D+00 0.000D+00 0.182D-01 0.862D-01 0.180D+00 0.263D+00
 Coeff-En:   0.000D+00 0.000D+00 0.000D+00 0.000D+00 0.000D+00 0.000D+00
 Coeff-En:   0.000D+00 0.000D+00 0.453D+00
 Coeff:     -0.725D+00 0.829D+00-0.118D+00-0.271D-03 0.441D-01-0.134D+00
 Coeff:      0.120D+00-0.109D-01-0.321D-01 0.173D+00 0.395D-01-0.475D+00
 Coeff:     -0.312D+00-0.117D+00 0.172D+01
 Gap=     0.043 Goal=   None    Shift=    0.000
 RMSDP=3.86D-06 MaxDP=8.50D-04 DE=-2.98D-07 OVMax= 2.14D-04

 Cycle  16  Pass 1  IDiag  1:
 E= -73.1815384005452     Delta-E=       -0.000000562528 Rises=F Damp=F
 DIIS: error= 3.49D-04 at cycle  16 NSaved=  16.
 NSaved=16 IEnMin=16 EnMin= -73.1815384005452     IErMin=16 ErrMin= 3.49D-04
 ErrMax= 3.49D-04  0.00D+00 EMaxC= 1.00D-01 BMatC= 1.99D-06 BMatP= 2.24D-06
 IDIUse=3 WtCom= 9.97D-01 WtEn= 3.49D-03
 EnCoef did   100 forward-backward iterations
 Rare condition: small coef for last iteration:  0.955D-17
 Coeff-Com: -0.653D+00 0.746D+00-0.107D+00 0.525D-03 0.404D-01-0.120D+00
 Coeff-Com:  0.109D+00-0.174D-01-0.537D-01 0.304D+00 0.843D-01-0.494D+00
 Coeff-Com: -0.638D+00-0.497D+00 0.780D+00 0.152D+01
 Coeff-En:   0.000D+00 0.000D+00 0.199D-01 0.894D-01 0.180D+00 0.255D+00
 Coeff-En:   0.000D+00 0.000D+00 0.000D+00 0.000D+00 0.000D+00 0.000D+00
 Coeff-En:   0.000D+00 0.000D+00 0.000D+00 0.456D+00
 Coeff:     -0.653D+00 0.746D+00-0.107D+00 0.525D-03 0.404D-01-0.120D+00
 Coeff:      0.109D+00-0.174D-01-0.537D-01 0.304D+00 0.843D-01-0.494D+00
 Coeff:     -0.638D+00-0.497D+00 0.780D+00 0.152D+01
 Gap=     0.043 Goal=   None    Shift=    0.000
 RMSDP=6.43D-06 MaxDP=1.41D-03 DE=-5.63D-07 OVMax= 3.55D-04

 Cycle  17  Pass 1  IDiag  1:
 E= -73.1815392604611     Delta-E=       -0.000000859916 Rises=F Damp=F
 DIIS: error= 3.14D-04 at cycle  17 NSaved=  17.
 NSaved=17 IEnMin=17 EnMin= -73.1815392604611     IErMin=17 ErrMin= 3.14D-04
 ErrMax= 3.14D-04  0.00D+00 EMaxC= 1.00D-01 BMatC= 1.61D-06 BMatP= 1.99D-06
 IDIUse=3 WtCom= 9.97D-01 WtEn= 3.14D-03
 EnCoef did   100 forward-backward iterations
 Rare condition: small coef for last iteration: -0.945D-17
 Coeff-Com: -0.466D+00 0.533D+00-0.762D-01 0.750D-03 0.294D-01-0.858D-01
 Coeff-Com:  0.786D-01-0.256D-01-0.467D-01 0.359D+00 0.114D+00-0.233D+00
 Coeff-Com: -0.921D+00-0.987D+00-0.179D+01 0.368D+01 0.835D+00
 Coeff-En:   0.000D+00 0.000D+00 0.226D-01 0.946D-01 0.181D+00 0.242D+00
 Coeff-En:   0.000D+00 0.000D+00 0.000D+00 0.000D+00 0.000D+00 0.000D+00
 Coeff-En:   0.000D+00 0.000D+00 0.000D+00 0.000D+00 0.460D+00
 Coeff:     -0.466D+00 0.533D+00-0.762D-01 0.750D-03 0.294D-01-0.858D-01
 Coeff:      0.786D-01-0.256D-01-0.467D-01 0.359D+00 0.114D+00-0.233D+00
 Coeff:     -0.921D+00-0.987D+00-0.179D+01 0.368D+01 0.835D+00
 Gap=     0.043 Goal=   None    Shift=    0.000
 RMSDP=1.64D-05 MaxDP=3.60D-03 DE=-8.60D-07 OVMax= 9.07D-04

 Cycle  18  Pass 1  IDiag  1:
 E= -73.1815410436092     Delta-E=       -0.000001783148 Rises=F Damp=F
 DIIS: error= 2.24D-04 at cycle  18 NSaved=  18.
 NSaved=18 IEnMin=18 EnMin= -73.1815410436092     IErMin=18 ErrMin= 2.24D-04
 ErrMax= 2.24D-04  0.00D+00 EMaxC= 1.00D-01 BMatC= 8.23D-07 BMatP= 1.61D-06
 IDIUse=3 WtCom= 9.98D-01 WtEn= 2.24D-03
 Large coefficients: NSaved= 18 BigCof=    0.00 CofMax=   10.00 Det=-4.52D-13
 Inversion failed.  Reducing to 17 matrices.
 EnCoef did   100 forward-backward iterations
 Rare condition: small coef for last iteration:  0.000D+00
 Coeff-Com: -0.648D-10 0.109D-03-0.224D-02-0.202D-02 0.176D-03-0.245D-03
 Coeff-Com: -0.648D-02 0.860D-01-0.115D+00-0.248D-01 0.414D+00-0.133D+00
 Coeff-Com: -0.432D+00-0.367D+01 0.198D+01 0.103D+01 0.188D+01
 Coeff-En:   0.000D+00 0.293D-01 0.108D+00 0.182D+00 0.207D+00 0.000D+00
 Coeff-En:   0.000D+00 0.000D+00 0.000D+00 0.000D+00 0.000D+00 0.000D+00
 Coeff-En:   0.000D+00 0.000D+00 0.000D+00 0.000D+00 0.474D+00
 Coeff:     -0.648D-10 0.109D-03-0.224D-02-0.202D-02 0.176D-03-0.245D-03
 Coeff:     -0.648D-02 0.860D-01-0.115D+00-0.248D-01 0.414D+00-0.133D+00
 Coeff:     -0.432D+00-0.367D+01 0.198D+01 0.103D+01 0.188D+01
 Gap=     0.043 Goal=   None    Shift=    0.000
 RMSDP=4.12D-05 MaxDP=9.05D-03 DE=-1.78D-06 OVMax= 2.27D-03

 Cycle  19  Pass 1  IDiag  1:
 E= -73.1815429035453     Delta-E=       -0.000001859936 Rises=F Damp=F
 DIIS: error= 2.91D-07 at cycle  19 NSaved=  18.
 NSaved=18 IEnMin=18 EnMin= -73.1815429035453     IErMin=18 ErrMin= 2.91D-07
 ErrMax= 2.91D-07  0.00D+00 EMaxC= 1.00D-01 BMatC= 1.10D-11 BMatP= 8.23D-07
 IDIUse=1 WtCom= 1.00D+00 WtEn= 0.00D+00
 Coeff-Com: -0.898D-10 0.200D-03-0.391D-02-0.385D-02 0.181D-04-0.342D-02
 Coeff-Com:  0.335D-01 0.102D+00-0.313D+00-0.989D-01 0.248D+00 0.354D+00
 Coeff-Com:  0.237D+00-0.919D+00-0.268D+00 0.170D+00 0.763D+00 0.702D+00
 Coeff:     -0.898D-10 0.200D-03-0.391D-02-0.385D-02 0.181D-04-0.342D-02
 Coeff:      0.335D-01 0.102D+00-0.313D+00-0.989D-01 0.248D+00 0.354D+00
 Coeff:      0.237D+00-0.919D+00-0.268D+00 0.170D+00 0.763D+00 0.702D+00
 Gap=     0.043 Goal=   None    Shift=    0.000
 RMSDP=1.31D-07 MaxDP=1.46D-05 DE=-1.86D-06 OVMax= 6.24D-06

 Cycle  20  Pass 1  IDiag  1:
 E= -73.1815429035629     Delta-E=       -0.000000000018 Rises=F Damp=F
 DIIS: error= 1.30D-07 at cycle  20 NSaved=  19.
 NSaved=19 IEnMin=19 EnMin= -73.1815429035629     IErMin=19 ErrMin= 1.30D-07
 ErrMax= 1.30D-07  0.00D+00 EMaxC= 1.00D-01 BMatC= 2.10D-12 BMatP= 1.10D-11
 IDIUse=1 WtCom= 1.00D+00 WtEn= 0.00D+00
 Coeff-Com: -0.911D-10 0.119D-03-0.204D-02-0.211D-02 0.605D-04-0.300D-02
 Coeff-Com:  0.177D-01 0.409D-01-0.103D+00-0.367D-01-0.110D-01 0.105D+00
 Coeff-Com:  0.123D+00 0.136D+00-0.180D+00-0.551D-01-0.763D-01-0.336D-01
 Coeff-Com:  0.108D+01
 Coeff:     -0.911D-10 0.119D-03-0.204D-02-0.211D-02 0.605D-04-0.300D-02
 Coeff:      0.177D-01 0.409D-01-0.103D+00-0.367D-01-0.110D-01 0.105D+00
 Coeff:      0.123D+00 0.136D+00-0.180D+00-0.551D-01-0.763D-01-0.336D-01
 Coeff:      0.108D+01
 Gap=     0.043 Goal=   None    Shift=    0.000
 RMSDP=1.51D-07 MaxDP=2.16D-05 DE=-1.76D-11 OVMax= 4.60D-06

 Cycle  21  Pass 1  IDiag  1:
 E= -73.1815429035643     Delta-E=       -0.000000000001 Rises=F Damp=F
 DIIS: error= 1.14D-07 at cycle  21 NSaved=  20.
 NSaved=20 IEnMin=20 EnMin= -73.1815429035643     IErMin=20 ErrMin= 1.14D-07
 ErrMax= 1.14D-07  0.00D+00 EMaxC= 1.00D-01 BMatC= 9.16D-13 BMatP= 2.10D-12
 IDIUse=1 WtCom= 1.00D+00 WtEn= 0.00D+00
 Coeff-Com: -0.608D-10 0.301D-04-0.304D-03-0.396D-03 0.514D-04-0.128D-02
 Coeff-Com: -0.500D-03 0.396D-03 0.331D-01 0.736D-02-0.822D-01-0.459D-01
 Coeff-Com: -0.165D-01 0.269D+00 0.228D-01-0.535D-01-0.221D+00-0.300D+00
 Coeff-Com:  0.764D+00 0.625D+00
 Coeff:     -0.608D-10 0.301D-04-0.304D-03-0.396D-03 0.514D-04-0.128D-02
 Coeff:     -0.500D-03 0.396D-03 0.331D-01 0.736D-02-0.822D-01-0.459D-01
 Coeff:     -0.165D-01 0.269D+00 0.228D-01-0.535D-01-0.221D+00-0.300D+00
 Coeff:      0.764D+00 0.625D+00
 Gap=     0.043 Goal=   None    Shift=    0.000
 RMSDP=1.25D-07 MaxDP=1.79D-05 DE=-1.44D-12 OVMax= 3.64D-06

 Cycle  22  Pass 1  IDiag  1:
 E= -73.1815429035674     Delta-E=       -0.000000000003 Rises=F Damp=F
 DIIS: error= 2.61D-08 at cycle  22 NSaved=  20.
 NSaved=20 IEnMin=20 EnMin= -73.1815429035674     IErMin=20 ErrMin= 2.61D-08
 ErrMax= 2.61D-08  0.00D+00 EMaxC= 1.00D-01 BMatC= 1.07D-13 BMatP= 9.16D-13
 IDIUse=1 WtCom= 1.00D+00 WtEn= 0.00D+00
 Coeff-Com: -0.925D-05 0.255D-03 0.223D-03-0.440D-05 0.461D-04-0.447D-02
 Coeff-Com: -0.593D-02 0.295D-01 0.909D-02-0.216D-01-0.251D-01-0.163D-01
 Coeff-Com:  0.583D-01-0.413D-02-0.658D-02-0.233D-01-0.717D-01 0.800D-01
 Coeff-Com:  0.246D+00 0.756D+00
 Coeff:     -0.925D-05 0.255D-03 0.223D-03-0.440D-05 0.461D-04-0.447D-02
 Coeff:     -0.593D-02 0.295D-01 0.909D-02-0.216D-01-0.251D-01-0.163D-01
 Coeff:      0.583D-01-0.413D-02-0.658D-02-0.233D-01-0.717D-01 0.800D-01
 Coeff:      0.246D+00 0.756D+00
 Gap=     0.043 Goal=   None    Shift=    0.000
 RMSDP=2.59D-08 MaxDP=3.49D-06 DE=-3.07D-12 OVMax= 7.91D-07

 Cycle  23  Pass 1  IDiag  1:
 E= -73.1815429035678     Delta-E=       -0.000000000000 Rises=F Damp=F
 DIIS: error= 4.99D-09 at cycle  23 NSaved=  20.
 NSaved=20 IEnMin=20 EnMin= -73.1815429035678     IErMin=20 ErrMin= 4.99D-09
 ErrMax= 4.99D-09  0.00D+00 EMaxC= 1.00D-01 BMatC= 3.62D-15 BMatP= 1.07D-13
 IDIUse=1 WtCom= 1.00D+00 WtEn= 0.00D+00
 Coeff-Com:  0.247D-04 0.243D-04-0.167D-05 0.276D-04-0.755D-03-0.857D-04
 Coeff-Com:  0.511D-03 0.313D-03 0.431D-02 0.485D-02 0.345D-02-0.113D-01
 Coeff-Com: -0.131D-01 0.150D-02 0.149D-01 0.115D-01-0.192D-01 0.105D-01
 Coeff-Com:  0.134D+00 0.859D+00
 Coeff:      0.247D-04 0.243D-04-0.167D-05 0.276D-04-0.755D-03-0.857D-04
 Coeff:      0.511D-03 0.313D-03 0.431D-02 0.485D-02 0.345D-02-0.113D-01
 Coeff:     -0.131D-01 0.150D-02 0.149D-01 0.115D-01-0.192D-01 0.105D-01
 Coeff:      0.134D+00 0.859D+00
 Gap=     0.043 Goal=   None    Shift=    0.000
 RMSDP=4.85D-09 MaxDP=6.85D-07 DE=-3.98D-13 OVMax= 1.88D-07

 SCF Done:  E(ROHF) =  -73.1815429036     A.U. after   23 cycles
            NFock= 23  Conv=0.49D-08     -V/T= 2.9023
 <Sx>= 0.0000 <Sy>= 0.0000 <Sz>= 1.0000 <S**2>= 2.0000 S= 1.0000
 <L.S>=  0.00000000000    
 KE= 3.846913283694D+01 PE=-2.204138870910D+02 EE= 7.945493505335D+01
 Annihilation of the first spin contaminant:
 S**2 before annihilation     2.0000,   after     2.0000
 Leave Link  502 at Sat Mar 10 00:50:05 2018, MaxMem= 10737418240 cpu:            1961.9 elap:             142.4
 (Enter /home1/apps/gaussian/16rA.03/g16/l801.exe)
 Windowed orbitals will be sorted by symmetry type.
 GenMOA:  NOpAll=  4 NOp2=4 NOpUse=  4 JSym2X=1
 FoFJK:  IHMeth= 1 ICntrl=       0 DoSepK=F KAlg= 0 I1Cent=           0 FoldK=F
 IRaf=         0 NMat=       1 IRICut=       1 DoRegI=T DoRafI=F ISym2E= 1 IDoP0=0 IntGTp=1.
 FoFCou: FMM=F IPFlag=           8 FMFlag=      100000 FMFlg1=           0
         NFxFlg=           0 DoJE=F BraDBF=F KetDBF=F FulRan=T
         wScrn=  0.000000 ICntrl=         0 IOpCl=  1 I1Cent=           0 NGrid=           0
         NMat0=    1 NMatS0=      1 NMatT0=    0 NMatD0=    1 NMtDS0=    0 NMtDT0=    0
 Petite list used in FoFCou.
 <Sx>= 0.0000 <Sy>= 0.0000 <Sz>= 1.0000 <S**2>= 2.0000 S= 1.0000
 Range of M.O.s used for correlation:     1   380
 NBasis=   384 NAE=    10 NBE=     8 NFC=     0 NFV=     0
 NROrb=    380 NOA=    10 NOB=     8 NVA=   370 NVB=   372

 **** Warning!!: The largest alpha MO coefficient is  0.28662755D+03


 **** Warning!!: The largest beta MO coefficient is  0.28662644D+03

 Singles contribution to E2=   -0.2546730686D-02
 Leave Link  801 at Sat Mar 10 00:50:41 2018, MaxMem= 10737418240 cpu:             566.3 elap:              35.4
 (Enter /home1/apps/gaussian/16rA.03/g16/l804.exe)
 Open-shell transformation, MDV= 10737418240 ITran=4 ISComp=2.
 Unit  1 TFree=       4464475 TCopy=       3212973.
 Semi-Direct transformation.
 ModeAB=           4 MOrb=            10 LenV=   10733098664
 LASXX=     69137648 LTotXX=    69137648 LenRXX=   139011840
 LTotAB=    69874192 MaxLAS=   467487400 LenRXY=           0
 NonZer=   208149488 LenScr=   313449472 LnRSAI=   467487400
 LnScr1=   703981568 LExtra=    19344895 Total=   1643275175
 MaxDsk= 67108864000 SrtSym=           T ITran=            4
 DoSDTr:  NPSUse= 16
 JobTyp=1 Pass  1:  I=   1 to  10.
 (rs|ai) integrals will be sorted in core.
 Complete sort for first half transformation.
 First half transformation complete.
 Begin second half transformation for I=  10.
 Complete sort for second half transformation.
 Second half transformation complete.
 ModeAB=           4 MOrb=             8 LenV=   10733098664
 LASXX=     55242478 LTotXX=    55242478 LenRXX=   108077878
 LTotAB=    52835400 MaxLAS=   373989920 LenRXY=           0
 NonZer=   163320356 LenScr=   245941248 LnRSAI=   373989920
 LnScr1=   563185664 LExtra=   158356735 Total=   1449551445
 MaxDsk= 67108864000 SrtSym=           T ITran=            4
 DoSDTr:  NPSUse= 16
 JobTyp=2 Pass  1:  I=   1 to   8.
 (rs|ai) integrals will be sorted in core.
 Complete sort for first half transformation.
 First half transformation complete.
 Complete sort for second half transformation.
 Second half transformation complete.
 Spin components of T(2) and E(2):
     alpha-alpha T2 =       0.2983310847D-01 E2=     -0.1174338599D+00
     alpha-beta  T2 =       0.1115284248D+00 E2=     -0.5536202003D+00
     beta-beta   T2 =       0.2144238010D-01 E2=     -0.9169282909D-01
 ANorm=    0.1078732946D+01
 E2 =    -0.7652936200D+00 EUMP2 =    -0.73946836523563D+02
 (S**2,0)=  0.20000D+01           (S**2,1)=  0.20000D+01
 E(PUHF)=      -0.73181542904D+02        E(PMP2)=      -0.73946836524D+02
 Recovering and transforming amplitudes from chk file.
 B after Tr=     0.000000    0.000000    0.000000
         Rot=    1.000000    0.000000    0.000000    0.000000 Ang=   0.00 deg.
 Alpha occ  Sing. vals= 9.999986D-01 9.999967D-01 9.999961D-01 9.999956D-01 9.999956D-01 9.999888D-01 9.999874D-01 9.999648D-01 9.999648D-01 9.999605D-01
 Alpha occ  NOrbO=    10 NOrbN=    10 NSVal=    10 ThrEig=  0.900000.
 TrMax= 1.000000D+00 PrMax= 1.000000D+00 Trace(Pr)= 1.000000D+01
 B after Tr=     0.000000    0.000000    0.000000
         Rot=    1.000000    0.000000    0.000000    0.000000 Ang=   0.00 deg.
 Alpha virt Sing. vals= 1.000000D+00 1.000000D+00 1.000000D+00 1.000000D+00 1.000000D+00 1.000000D+00 1.000000D+00 1.000000D+00 1.000000D+00 1.000000D+00
 Alpha virt Sing. vals= 1.000000D+00 1.000000D+00 1.000000D+00 1.000000D+00 1.000000D+00 1.000000D+00 1.000000D+00 1.000000D+00 1.000000D+00 1.000000D+00
 Alpha virt Sing. vals= 1.000000D+00 1.000000D+00 1.000000D+00 1.000000D+00 1.000000D+00 9.999999D-01 9.999999D-01 9.999999D-01 9.999999D-01 9.999999D-01
 Alpha virt Sing. vals= 9.999999D-01 9.999999D-01 9.999999D-01 9.999999D-01 9.999999D-01 9.999999D-01 9.999998D-01 9.999998D-01 9.999998D-01 9.999998D-01
 Alpha virt Sing. vals= 9.999998D-01 9.999997D-01 9.999997D-01 9.999996D-01 9.999996D-01 9.999995D-01 9.999995D-01 9.999994D-01 9.999994D-01 9.999994D-01
 Alpha virt Sing. vals= 9.999993D-01 9.999993D-01 9.999991D-01 9.999987D-01 9.999979D-01 9.999971D-01 9.999965D-01 9.999965D-01 9.999956D-01 9.999955D-01
 Alpha virt Sing. vals= 9.999955D-01 9.999949D-01 9.999948D-01 9.999948D-01 9.999903D-01 9.999893D-01 9.999893D-01 9.999861D-01 9.999848D-01 9.999845D-01
 Alpha virt Sing. vals= 9.999845D-01 9.999811D-01 9.999793D-01 9.999720D-01 9.999715D-01 9.999715D-01 9.999658D-01 9.999653D-01 9.999632D-01 9.999623D-01
 Alpha virt Sing. vals= 9.999623D-01 9.999383D-01 9.999253D-01 9.999251D-01 9.999251D-01 9.999222D-01 9.999219D-01 9.999200D-01 9.999195D-01 9.999080D-01
 Alpha virt Sing. vals= 9.998791D-01 9.998791D-01 9.998477D-01 9.998477D-01 9.998398D-01 9.998305D-01 9.998305D-01 9.998044D-01 9.997632D-01 9.997632D-01
 Alpha virt Sing. vals= 9.997557D-01 9.997533D-01 9.997533D-01 9.997442D-01 9.997057D-01 9.997051D-01 9.997051D-01 9.997040D-01 9.997039D-01 9.996786D-01
 Alpha virt Sing. vals= 9.996786D-01 9.996683D-01 9.995970D-01 9.995909D-01 9.995909D-01 9.995904D-01 9.995904D-01 9.995811D-01 9.995725D-01 9.995724D-01
 Alpha virt Sing. vals= 9.995285D-01 9.995285D-01 9.995142D-01 9.994508D-01 9.993882D-01 9.993882D-01 9.992388D-01 9.990534D-01 9.990534D-01 9.990434D-01
 Alpha virt Sing. vals= 9.990428D-01 9.988853D-01 9.987897D-01 9.987897D-01 9.987233D-01 9.986167D-01 9.986141D-01 9.985803D-01 9.985803D-01 9.985550D-01
 Alpha virt Sing. vals= 9.982134D-01 9.982134D-01 9.979656D-01 9.979645D-01 9.978051D-01 9.975113D-01 9.975113D-01 9.973273D-01 9.970468D-01 9.970468D-01
 Alpha virt Sing. vals= 9.968061D-01 9.968061D-01 9.967904D-01 9.967902D-01 9.964849D-01 9.964073D-01 9.963909D-01 9.963909D-01 9.961908D-01 9.961908D-01
 Alpha virt Sing. vals= 9.961108D-01 9.959689D-01 9.959686D-01 9.959211D-01 9.959211D-01 9.957971D-01 9.957971D-01 9.948911D-01 9.948754D-01 9.948754D-01
 Alpha virt Sing. vals= 9.947063D-01 9.942253D-01 9.922732D-01 9.916595D-01 9.916595D-01 9.916088D-01 9.916088D-01 9.903611D-01 9.895677D-01 9.895677D-01
 Alpha virt Sing. vals= 9.882183D-01 9.882183D-01 9.875766D-01 9.875766D-01 9.870243D-01 9.855010D-01 9.812768D-01 9.812768D-01 9.807335D-01 9.807334D-01
 Alpha virt Sing. vals= 9.806495D-01 9.806495D-01 9.803700D-01 9.799575D-01 9.777119D-01 9.777119D-01 9.764778D-01 9.764778D-01 9.726508D-01 9.726506D-01
 Alpha virt Sing. vals= 9.685498D-01 9.682567D-01 9.682564D-01 9.657040D-01 9.641823D-01 9.641822D-01 9.592091D-01 9.592091D-01 9.579697D-01 9.579697D-01
 Alpha virt Sing. vals= 9.488588D-01 9.445663D-01 9.424425D-01 9.357700D-01 9.357700D-01 9.357559D-01 9.346068D-01 9.346068D-01 9.340142D-01 9.340141D-01
 Alpha virt Sing. vals= 9.338477D-01 9.268785D-01 9.268785D-01 9.203696D-01 9.203696D-01 9.027051D-01 8.941509D-01 8.941508D-01 8.726831D-01 8.726831D-01
 Alpha virt Sing. vals= 8.604657D-01 8.604657D-01 8.585049D-01 8.546678D-01 8.546678D-01 8.544011D-01 8.544011D-01 8.542163D-01 8.542163D-01 8.532588D-01
 Alpha virt Sing. vals= 7.607966D-01 7.607966D-01 5.205315D-01
 Alpha virt NOrbO=   243 NOrbN=   370 NSVal=   226 ThrEig=  0.900000.
 TrMax= 9.982014D-01 PrMax= 9.996184D-01 Trace(Pr)= 2.260000D+02
 B after Tr=     0.000000    0.000000    0.000000
         Rot=    1.000000    0.000000    0.000000    0.000000 Ang=   0.00 deg.
 Beta  occ  Sing. vals= 9.999969D-01 9.999963D-01 9.999956D-01 9.999956D-01 9.999898D-01 9.999648D-01 9.999648D-01 9.999606D-01
 Beta  occ  NOrbO=     8 NOrbN=     8 NSVal=     8 ThrEig=  0.900000.
 TrMax= 1.000000D+00 PrMax= 1.000000D+00 Trace(Pr)= 8.000000D+00
 B after Tr=     0.000000    0.000000    0.000000
         Rot=    1.000000    0.000000    0.000000    0.000000 Ang=   0.00 deg.
 Beta  virt Sing. vals= 1.000000D+00 1.000000D+00 1.000000D+00 1.000000D+00 1.000000D+00 1.000000D+00 1.000000D+00 1.000000D+00 1.000000D+00 1.000000D+00
 Beta  virt Sing. vals= 1.000000D+00 1.000000D+00 1.000000D+00 1.000000D+00 1.000000D+00 1.000000D+00 1.000000D+00 1.000000D+00 1.000000D+00 1.000000D+00
 Beta  virt Sing. vals= 1.000000D+00 1.000000D+00 1.000000D+00 1.000000D+00 1.000000D+00 1.000000D+00 1.000000D+00 9.999999D-01 9.999999D-01 9.999999D-01
 Beta  virt Sing. vals= 9.999999D-01 9.999999D-01 9.999999D-01 9.999999D-01 9.999999D-01 9.999999D-01 9.999999D-01 9.999999D-01 9.999998D-01 9.999998D-01
 Beta  virt Sing. vals= 9.999998D-01 9.999998D-01 9.999998D-01 9.999997D-01 9.999997D-01 9.999997D-01 9.999996D-01 9.999995D-01 9.999995D-01 9.999995D-01
 Beta  virt Sing. vals= 9.999994D-01 9.999994D-01 9.999993D-01 9.999993D-01 9.999991D-01 9.999987D-01 9.999979D-01 9.999971D-01 9.999965D-01 9.999965D-01
 Beta  virt Sing. vals= 9.999956D-01 9.999955D-01 9.999955D-01 9.999949D-01 9.999948D-01 9.999948D-01 9.999903D-01 9.999893D-01 9.999893D-01 9.999861D-01
 Beta  virt Sing. vals= 9.999848D-01 9.999845D-01 9.999845D-01 9.999811D-01 9.999793D-01 9.999720D-01 9.999715D-01 9.999715D-01 9.999653D-01 9.999653D-01
 Beta  virt Sing. vals= 9.999632D-01 9.999623D-01 9.999623D-01 9.999383D-01 9.999253D-01 9.999251D-01 9.999251D-01 9.999222D-01 9.999219D-01 9.999195D-01
 Beta  virt Sing. vals= 9.999195D-01 9.999080D-01 9.998791D-01 9.998791D-01 9.998477D-01 9.998477D-01 9.998398D-01 9.998305D-01 9.998305D-01 9.998044D-01
 Beta  virt Sing. vals= 9.997632D-01 9.997632D-01 9.997557D-01 9.997533D-01 9.997533D-01 9.997442D-01 9.997057D-01 9.997051D-01 9.997051D-01 9.997040D-01
 Beta  virt Sing. vals= 9.997040D-01 9.996786D-01 9.996786D-01 9.996683D-01 9.995970D-01 9.995909D-01 9.995909D-01 9.995904D-01 9.995904D-01 9.995811D-01
 Beta  virt Sing. vals= 9.995724D-01 9.995724D-01 9.995285D-01 9.995285D-01 9.995142D-01 9.994508D-01 9.993882D-01 9.993882D-01 9.992387D-01 9.990534D-01
 Beta  virt Sing. vals= 9.990534D-01 9.990428D-01 9.990428D-01 9.988853D-01 9.987897D-01 9.987897D-01 9.987233D-01 9.986141D-01 9.986141D-01 9.985803D-01
 Beta  virt Sing. vals= 9.985803D-01 9.985551D-01 9.982134D-01 9.982134D-01 9.979645D-01 9.979645D-01 9.978052D-01 9.975113D-01 9.975113D-01 9.973273D-01
 Beta  virt Sing. vals= 9.970468D-01 9.970468D-01 9.968061D-01 9.968061D-01 9.967902D-01 9.967902D-01 9.964849D-01 9.964073D-01 9.963909D-01 9.963909D-01
 Beta  virt Sing. vals= 9.961908D-01 9.961908D-01 9.961108D-01 9.959689D-01 9.959689D-01 9.959211D-01 9.959211D-01 9.957971D-01 9.957971D-01 9.948911D-01
 Beta  virt Sing. vals= 9.948754D-01 9.948754D-01 9.947063D-01 9.942253D-01 9.922733D-01 9.916595D-01 9.916595D-01 9.916088D-01 9.916088D-01 9.903611D-01
 Beta  virt Sing. vals= 9.895677D-01 9.895677D-01 9.882183D-01 9.882183D-01 9.875766D-01 9.875766D-01 9.870244D-01 9.855010D-01 9.812768D-01 9.812768D-01
 Beta  virt Sing. vals= 9.807334D-01 9.807334D-01 9.806495D-01 9.806495D-01 9.803698D-01 9.799574D-01 9.777119D-01 9.777119D-01 9.764778D-01 9.764778D-01
 Beta  virt Sing. vals= 9.726506D-01 9.726506D-01 9.685499D-01 9.682564D-01 9.682564D-01 9.657039D-01 9.641822D-01 9.641822D-01 9.592091D-01 9.592091D-01
 Beta  virt Sing. vals= 9.579697D-01 9.579697D-01 9.488588D-01 9.445663D-01 9.424425D-01 9.357700D-01 9.357700D-01 9.357559D-01 9.346068D-01 9.346068D-01
 Beta  virt Sing. vals= 9.340141D-01 9.340141D-01 9.338477D-01 9.268785D-01 9.268785D-01 9.203696D-01 9.203696D-01 9.027052D-01 8.941508D-01 8.941508D-01
 Beta  virt Sing. vals= 8.726831D-01 8.726831D-01 8.604657D-01 8.604657D-01 8.585048D-01 8.546678D-01 8.546678D-01 8.544011D-01 8.544011D-01 8.542163D-01
 Beta  virt Sing. vals= 8.542163D-01 8.532586D-01 7.607966D-01 7.607966D-01 5.205313D-01
 Beta  virt NOrbO=   245 NOrbN=   372 NSVal=   228 ThrEig=  0.900000.
 TrMax= 9.991920D-01 PrMax= 9.997269D-01 Trace(Pr)= 2.280000D+02
 Leave Link  804 at Sat Mar 10 01:03:45 2018, MaxMem= 10737418240 cpu:           12530.2 elap:             784.1
 (Enter /home1/apps/gaussian/16rA.03/g16/l913.exe)
 CIDS:  MDV= 10737418240.
 IFCWin=0 IBDFC=1 NFBD=     0     0 NFCmp=     0     0 NFFFC=     0     0
 Amplitudes recovered.
 Using DD4UQ or CC4UQ for all iterations.
 Keep R2 and R3 ints in memory in symmetry-blocked form, NReq=3425132707.
 FoFCou: FMM=F IPFlag=           8 FMFlag=           0 FMFlg1=           0
         NFxFlg=           0 DoJE=F BraDBF=F KetDBF=F FulRan=T
         wScrn=  0.000000 ICntrl=       600 IOpCl=  0 I1Cent=           0 NGrid=           0
         NMat0=    1 NMatS0=  73920 NMatT0=    0 NMatD0=    1 NMtDS0=    0 NMtDT0=    0
 Petite list used in FoFCou.
 CIDS: In Core Option IDoMem=           1.
 CCSD(T)
 =======
 Iterations= 150 Convergence= 0.100D-06
 Produce multiple copies of IABC intergrals
 Iteration Nr.   1
 **********************
 DD1Dir will call FoFMem   1 times, MxPair=       234
 NAB=    80 NAA=    45 NBB=    28.
 Maximum subspace dimension=  5
 A-vector RMS=  1.3965793D-04 Max=  1.6966488D-03 conv= 1.00D-05.
 RLE energy=       -0.7510712800
 DE(Corr)= -0.75096287     E(Corr)=     -73.932505776    
 NORM(A)=   0.10864690D+01
 Iteration Nr.   2
 **********************
 DD1Dir will call FoFMem   1 times, MxPair=       234
 NAB=    80 NAA=    45 NBB=    28.
 A-vector RMS=  3.5346181D-05 Max=  4.1179066D-04 conv= 1.00D-05.
 RLE energy=       -0.7512580142
 DE(Corr)= -0.75126008     E(CORR)=     -73.932802983     Delta=-2.97D-04
 NORM(A)=   0.10865816D+01
 Iteration Nr.   3
 **********************
 DD1Dir will call FoFMem   1 times, MxPair=       234
 NAB=    80 NAA=    45 NBB=    28.
 A-vector RMS=  1.7878152D-05 Max=  3.8594122D-04 conv= 1.00D-05.
 RLE energy=       -0.7514496740
 DE(Corr)= -0.75144207     E(CORR)=     -73.932984975     Delta=-1.82D-04
 NORM(A)=   0.10866276D+01
 Iteration Nr.   4
 **********************
 DD1Dir will call FoFMem   1 times, MxPair=       234
 NAB=    80 NAA=    45 NBB=    28.
 A-vector RMS=  1.0881210D-05 Max=  1.4077280D-04 conv= 1.00D-05.
 RLE energy=       -0.7513805812
 DE(Corr)= -0.75136160     E(CORR)=     -73.932904506     Delta= 8.05D-05
 NORM(A)=   0.10866422D+01
 Iteration Nr.   5
 **********************
 DD1Dir will call FoFMem   1 times, MxPair=       234
 NAB=    80 NAA=    45 NBB=    28.
 A-vector RMS=  4.4987316D-06 Max=  8.0493558D-05 conv= 1.00D-05.
 RLE energy=       -0.7513981772
 DE(Corr)= -0.75140663     E(CORR)=     -73.932949536     Delta=-4.50D-05
 NORM(A)=   0.10866580D+01
 Iteration Nr.   6
 **********************
 DD1Dir will call FoFMem   1 times, MxPair=       234
 NAB=    80 NAA=    45 NBB=    28.
 A-vector RMS=  1.8441774D-06 Max=  3.2330574D-05 conv= 1.00D-05.
 RLE energy=       -0.7513967519
 DE(Corr)= -0.75139470     E(CORR)=     -73.932937603     Delta= 1.19D-05
 NORM(A)=   0.10866681D+01
 Iteration Nr.   7
 **********************
 DD1Dir will call FoFMem   1 times, MxPair=       234
 NAB=    80 NAA=    45 NBB=    28.
 A-vector RMS=  7.0959405D-07 Max=  1.6656334D-05 conv= 1.00D-05.
 RLE energy=       -0.7513987580
 DE(Corr)= -0.75139877     E(CORR)=     -73.932941677     Delta=-4.07D-06
 NORM(A)=   0.10866726D+01
 Iteration Nr.   8
 **********************
 DD1Dir will call FoFMem   1 times, MxPair=       234
 NAB=    80 NAA=    45 NBB=    28.
 A-vector RMS=  2.6439900D-07 Max=  6.9750987D-06 conv= 1.00D-05.
 RLE energy=       -0.7513990313
 DE(Corr)= -0.75139880     E(CORR)=     -73.932941702     Delta=-2.51D-08
 NORM(A)=   0.10866751D+01
 CI/CC converged in    8 iterations to DelEn=-2.51D-08 Conv= 1.00D-07 ErrA1= 2.64D-07 Conv= 1.00D-05
 Wavefunction amplitudes converged. E(Corr)=     -73.932941702    
 Largest amplitude= 5.46D-02
 Time for triples=    45722.25 seconds.
 T4(CCSD)= -0.39850314D-01
 T5(CCSD)=  0.37745984D-02
 CCSD(T)= -0.73969017417D+02
 Discarding MO integrals.
 Leave Link  913 at Sat Mar 10 01:59:44 2018, MaxMem= 10737418240 cpu:           53698.2 elap:            3358.7
 (Enter /home1/apps/gaussian/16rA.03/g16/l601.exe)
 Copying SCF densities to generalized density rwf, IOpCl= 0 IROHF=1.

 **********************************************************************

            Population analysis using the SCF density.

 **********************************************************************

 Orbital symmetries:
       Occupied  (SG) (SG) (PI) (PI) (SG) (PI) (PI) (SG) (SG) (?A)
       Virtual   (PI) (PI) (SG) (SG) (?A) (PI) (PI) (SG) (?A) (PI)
                 (PI) (SG) (SG) (?A) (PI) (PI) (SG) (?A) (PI) (PI)
                 (SG) (SG) (?A) (PI) (PI) (?A) (?A) (PHI) (PHI)
                 (SG) (PI) (PI) (SG) (?A) (PI) (PI) (SG) (?A) (PI)
                 (PI) (SG) (SG) (PI) (PI) (?A) (?A) (?B) (?C) (?C)
                 (?C) (?C) (?B) (?B) (?A) (?A) (PI) (PI) (SG) (PHI)
                 (PHI) (SG) (?A) (?A) (PI) (PI) (SG) (?A) (?A)
                 (SG) (PI) (PI) (SG) (PI) (PI) (PI) (PI) (SG) (SG)
                 (PHI) (PHI) (DLTA) (DLTA) (?D) (?D) (?E) (?E)
                 (PI) (PI) (SG) (PHI) (PHI) (DLTA) (DLTA) (DLTA)
                 (SG) (DLTA) (PI) (PI) (?C) (?C) (?F) (?F) (?F)
                 (?A) (SG) (?A) (?C) (?C) (?A) (?A) (?C) (?C) (?C)
                 (?C) (SG) (SG) (PI) (PI) (PI) (PI) (DLTA) (DLTA)
                 (SG) (PI) (PI) (PI) (PI) (SG) (?E) (?E) (SG) (PHI)
                 (PHI) (DLTA) (DLTA) (PI) (PI) (SG) (SG) (?G) (?G)
                 (?G) (PHI) (PHI) (?G) (PI) (PI) (SG) (PI) (PI)
                 (DLTA) (DLTA) (?D) (?D) (?H) (?H) (?H) (PI) (PI)
                 (PHI) (PHI) (SG) (DLTA) (DLTA) (SG) (?C) (?C)
                 (?C) (?C) (?E) (?E) (DLTA) (DLTA) (PHI) (PHI)
                 (SG) (PI) (PI) (SG) (DLTA) (DLTA) (PI) (PI) (PI)
                 (PI) (SG) (SG) (DLTA) (DLTA) (PI) (PI) (SG) (PI)
                 (PI) (?E) (?E) (SG) (PHI) (PHI) (SG) (DLTA) (DLTA)
                 (PI) (PI) (SG) (PHI) (PHI) (DLTA) (DLTA) (SG)
                 (PI) (PI) (DLTA) (DLTA) (SG) (?C) (?C) (?C) (?C)
                 (DLTA) (DLTA) (PI) (PI) (SG) (PI) (PI) (DLTA)
                 (DLTA) (SG) (PI) (PI) (?E) (?E) (PHI) (PHI) (?I)
                 (?I) (?I) (?D) (?D) (DLTA) (DLTA) (PHI) (PHI)
                 (SG) (DLTA) (DLTA) (PI) (PI) (PI) (PI) (SG) (SG)
                 (SG) (PI) (PI) (DLTA) (DLTA) (PI) (PI) (SG) (SG)
                 (PI) (PI) (SG) (SG) (SG) (DLTA) (DLTA) (DLTA)
                 (DLTA) (PI) (PI) (SG) (PI) (PI) (SG) (PI) (PI)
                 (SG) (SG) (PI) (PI) (SG) (SG) (PI) (PI) (SG) (DLTA)
                 (DLTA) (PI) (PI) (SG) (PHI) (PHI) (DLTA) (DLTA)
                 (PI) (PI) (SG) (SG) (SG) (PI) (PI) (SG) (PI) (PI)
                 (SG) (DLTA) (DLTA) (PI) (PI) (SG) (SG) (DLTA)
                 (DLTA) (PI) (PI) (SG) (SG) (PI) (PI) (SG) (PI)
                 (PI) (SG) (SG) (SG) (SG) (PI) (PI) (SG) (PI) (PI)
                 (SG) (DLTA) (DLTA) (PI) (PI) (SG) (SG) (SG) (PI)
                 (PI) (SG) (SG) (SG) (PI) (PI) (SG) (SG) (SG) (PI)
                 (PI) (SG) (SG) (PI) (PI) (SG) (SG) (SG) (PI) (PI)
                 (SG) (SG) (SG) (SG) (SG) (SG) (SG)
 Unable to determine electronic state:  an orbital has unidentified symmetry.
 Alpha  occ. eigenvalues --   -2.93563  -1.96326  -1.82711  -1.82711  -1.14608
 Alpha  occ. eigenvalues --   -0.59300  -0.59300  -0.52583  -0.35633  -0.21598
 Alpha virt. eigenvalues --    0.01137   0.01137   0.02112   0.02340   0.03785
 Alpha virt. eigenvalues --    0.03785   0.03806   0.03842   0.03860   0.04637
 Alpha virt. eigenvalues --    0.04637   0.07231   0.10371   0.10641   0.11228
 Alpha virt. eigenvalues --    0.11228   0.11818   0.12260   0.15862   0.15862
 Alpha virt. eigenvalues --    0.17506   0.19110   0.19391   0.21172   0.21172
 Alpha virt. eigenvalues --    0.21512   0.21529   0.21953   0.21953   0.23788
 Alpha virt. eigenvalues --    0.24175   0.24175   0.32606   0.33015   0.34124
 Alpha virt. eigenvalues --    0.34124   0.39003   0.39220   0.40260   0.40260
 Alpha virt. eigenvalues --    0.44592   0.47346   0.52465   0.52465   0.57778
 Alpha virt. eigenvalues --    0.58129   0.59966   0.61217   0.61217   0.61414
 Alpha virt. eigenvalues --    0.61414   0.61591   0.61593   0.61778   0.61905
 Alpha virt. eigenvalues --    0.64340   0.64340   0.71225   0.72329   0.72329
 Alpha virt. eigenvalues --    0.78396   0.83446   0.86959   0.87498   0.87498
 Alpha virt. eigenvalues --    0.90275   0.93142   0.95652   1.00787   1.03231
 Alpha virt. eigenvalues --    1.03231   1.22510   1.26472   1.26472   1.38878
 Alpha virt. eigenvalues --    1.38878   1.45103   1.46567   1.52816   1.52816
 Alpha virt. eigenvalues --    1.55635   1.55676   1.56851   1.56851   1.57231
 Alpha virt. eigenvalues --    1.57231   1.59507   1.59507   1.62690   1.68452
 Alpha virt. eigenvalues --    1.68452   1.69054   1.69211   1.82256   1.82924
 Alpha virt. eigenvalues --    1.83003   1.83916   1.83916   1.89804   1.89804
 Alpha virt. eigenvalues --    2.00370   2.00377   2.03222   2.03470   2.06784
 Alpha virt. eigenvalues --    2.07576   2.09714   2.09714   2.17541   2.18474
 Alpha virt. eigenvalues --    2.24884   2.24884   2.27180   2.27180   2.52037
 Alpha virt. eigenvalues --    2.65432   2.66832   2.66832   2.74496   2.74496
 Alpha virt. eigenvalues --    2.96825   2.97721   3.20713   3.41030   3.41030
 Alpha virt. eigenvalues --    3.67377   3.67377   3.75487   3.83500   3.83500
 Alpha virt. eigenvalues --    3.86379   4.08656   4.08656   4.22045   4.22521
 Alpha virt. eigenvalues --    4.27717   4.27717   4.32847   4.34988   4.35182
 Alpha virt. eigenvalues --    4.35461   4.35727   4.36953   4.36953   4.37386
 Alpha virt. eigenvalues --    4.42598   4.42598   4.55991   4.83966   4.83966
 Alpha virt. eigenvalues --    4.91097   4.91842   5.13835   5.13835   5.16535
 Alpha virt. eigenvalues --    5.17143   5.17180   5.24105   5.24105   5.39884
 Alpha virt. eigenvalues --    5.39884   5.44580   5.54502   5.54555   5.56637
 Alpha virt. eigenvalues --    5.68499   5.68499   5.72085   5.72085   5.98365
 Alpha virt. eigenvalues --    5.98371   6.06588   6.07721   6.08745   6.08745
 Alpha virt. eigenvalues --    6.49495   6.91805   6.91805   7.27481   7.27956
 Alpha virt. eigenvalues --    7.28120   7.34361   7.34361   7.94400   7.94400
 Alpha virt. eigenvalues --    7.98103   8.13450   8.29132   8.29817   8.62646
 Alpha virt. eigenvalues --    8.62646   9.01267   9.90684   9.90684  10.70897
 Alpha virt. eigenvalues --   10.70897  10.80264  10.89806  10.89806  10.99946
 Alpha virt. eigenvalues --   11.01828  11.01869  11.24963  11.24963  11.97621
 Alpha virt. eigenvalues --   11.97878  11.97878  12.31498  12.31530  12.57919
 Alpha virt. eigenvalues --   12.76078  12.76078  12.84345  12.84365  13.63340
 Alpha virt. eigenvalues --   13.73280  13.73280  13.74896  13.74896  14.13170
 Alpha virt. eigenvalues --   14.13884  14.17255  14.17255  14.25609  14.63014
 Alpha virt. eigenvalues --   14.63014  14.92576  14.93086  14.95239  15.17149
 Alpha virt. eigenvalues --   15.17149  15.55740  15.55742  15.59464  15.59464
 Alpha virt. eigenvalues --   15.75759  15.95362  15.95368  15.95842  15.95842
 Alpha virt. eigenvalues --   16.00163  16.00328  16.05268  16.05268  16.16497
 Alpha virt. eigenvalues --   16.23250  16.23607  16.44540  16.44540  17.38529
 Alpha virt. eigenvalues --   17.38529  17.66862  18.39727  21.49296  26.02624
 Alpha virt. eigenvalues --   26.02624  26.06478  26.07670  26.25317  26.25317
 Alpha virt. eigenvalues --   26.27454  27.06198  28.37219  28.37219  29.89410
 Alpha virt. eigenvalues --   35.13878  39.98449  46.82487  46.82495  46.91403
 Alpha virt. eigenvalues --   46.92609  47.05912  47.05912  47.18270  47.49710
 Alpha virt. eigenvalues --   47.49710  48.44383  48.52492  48.52492  49.51705
 Alpha virt. eigenvalues --   68.27425  69.77122  69.77122  71.19163  77.93838
 Alpha virt. eigenvalues --   92.34312  92.34312  93.11678 101.23503 101.24226
 Alpha virt. eigenvalues --  101.36287 101.36287 101.59051 102.93343 102.93343
 Alpha virt. eigenvalues --  102.96984 102.96985 103.02792 103.02792 103.10019
 Alpha virt. eigenvalues --  121.73514 153.87411 154.53510 154.53510 155.68324
 Alpha virt. eigenvalues --  177.58901 177.58901 178.36565 206.75838 206.75839
 Alpha virt. eigenvalues --  207.10744 207.10744 207.61667 210.23718 266.02372
 Alpha virt. eigenvalues --  266.02650 266.12756 266.12756 266.29093 309.21918
 Alpha virt. eigenvalues --  324.75595 324.75595 325.78300 347.37686 347.37686
 Alpha virt. eigenvalues --  348.11842 358.22667 612.34169 632.14928 691.00228
 Alpha virt. eigenvalues --  691.00228 691.95396 699.52708 699.52708 700.25230
 Alpha virt. eigenvalues --  855.66556 855.66618 855.73555 855.73555 855.84353
 Alpha virt. eigenvalues -- 1090.238711317.570281470.477441470.477441471.14780
 Alpha virt. eigenvalues -- 2262.567722817.789653286.022883286.022883286.62695
 Alpha virt. eigenvalues -- 6141.224566234.286608030.615228030.615228031.14114
 Alpha virt. eigenvalues -- **************************************************
 Alpha virt. eigenvalues -- **************************************************
 Alpha virt. eigenvalues -- **************************************************
     Molecular Orbital Coefficients:
                           4         5         6         7         8
                           O         O         O         O         O
     Eigenvalues --    -1.82711  -1.14608  -0.59300  -0.59300  -0.52583
   1 1   Ti 1S          0.00000   0.00000   0.00000   0.00000   0.00000
   2        2S          0.00000  -0.00000   0.00000   0.00000  -0.00000
   3        3S          0.00000   0.00000   0.00000   0.00000   0.00000
   4        4S          0.00000  -0.00000   0.00000   0.00000  -0.00000
   5        5S          0.00000   0.00000   0.00000   0.00000   0.00000
   6        6S          0.00000  -0.00000   0.00000   0.00000  -0.00000
   7        7S          0.00000   0.00001   0.00000   0.00000   0.00001
   8        8S          0.00000  -0.00003   0.00000   0.00000  -0.00003
   9        9S          0.00000   0.00010   0.00000   0.00000   0.00009
  10       10S          0.00000  -0.00029   0.00000   0.00000  -0.00025
  11       11S          0.00000   0.00075   0.00000   0.00000   0.00066
  12       12S          0.00000  -0.00176   0.00000   0.00000  -0.00157
  13       13S          0.00000   0.00353   0.00000   0.00000   0.00321
  14       14S          0.00000  -0.00446   0.00000   0.00000  -0.00464
  15       15S          0.00000  -0.02448   0.00000   0.00000  -0.01714
  16       16S          0.00000   0.23349   0.00000   0.00000   0.16353
  17       17S          0.00000  -0.11455   0.00000   0.00000  -0.09867
  18       18S          0.00000  -0.51274   0.00000   0.00000  -0.33335
  19       19S          0.00000  -0.02654   0.00000   0.00000  -0.09323
  20       20S          0.00000  -0.00210   0.00000   0.00000   0.07252
  21       21S          0.00000   0.00498   0.00000   0.00000   0.04968
  22       22S          0.00000  -0.00563   0.00000   0.00000   0.00135
  23       23S          0.00000  -0.11922   0.00000   0.00000  -0.06894
  24       24S          0.00000   0.37696   0.00000   0.00000   0.23381
  25       25S          0.00000   0.00100   0.00000   0.00000   0.00084
  26       26PX         0.00000   0.00000  -0.00000   0.00000   0.00000
  27       26PY         0.00000   0.00000   0.00000  -0.00000   0.00000
  28       26PZ         0.00000   0.00000   0.00000   0.00000   0.00000
  29       27PX         0.00000   0.00000   0.00000   0.00000   0.00000
  30       27PY        -0.00000   0.00000   0.00000   0.00000   0.00000
  31       27PZ         0.00000  -0.00000   0.00000   0.00000  -0.00000
  32       28PX         0.00000   0.00000  -0.00000   0.00000   0.00000
  33       28PY         0.00001   0.00000   0.00000  -0.00000   0.00000
  34       28PZ         0.00000   0.00001   0.00000   0.00000   0.00000
  35       29PX         0.00000   0.00000   0.00001   0.00000   0.00000
  36       29PY        -0.00006   0.00000   0.00000   0.00001   0.00000
  37       29PZ         0.00000  -0.00002   0.00000   0.00000  -0.00001
  38       30PX         0.00000   0.00000  -0.00004   0.00000   0.00000
  39       30PY         0.00021   0.00000   0.00000  -0.00004   0.00000
  40       30PZ         0.00000   0.00009   0.00000   0.00000   0.00005
  41       31PX         0.00000   0.00000   0.00013   0.00000   0.00000
  42       31PY        -0.00068   0.00000   0.00000   0.00013   0.00000
  43       31PZ         0.00000  -0.00030   0.00000   0.00000  -0.00017
  44       32PX         0.00000   0.00000  -0.00041   0.00000   0.00000
  45       32PY         0.00209   0.00000   0.00000  -0.00041   0.00000
  46       32PZ         0.00000   0.00092   0.00000   0.00000   0.00051
  47       33PX         0.00000   0.00000   0.00119   0.00000   0.00000
  48       33PY        -0.00604   0.00000   0.00000   0.00119   0.00000
  49       33PZ         0.00000  -0.00269   0.00000   0.00000  -0.00151
  50       34PX         0.00000   0.00000  -0.00298   0.00000   0.00000
  51       34PY         0.01467   0.00000   0.00000  -0.00298   0.00000
  52       34PZ         0.00000   0.00657   0.00000   0.00000   0.00377
  53       35PX         0.00000   0.00000   0.00237   0.00000   0.00000
  54       35PY        -0.00833   0.00000   0.00000   0.00237   0.00000
  55       35PZ         0.00000  -0.00259   0.00000   0.00000  -0.00238
  56       36PX         0.00000   0.00000   0.01834   0.00000   0.00000
  57       36PY        -0.11493   0.00000   0.00000   0.01834   0.00000
  58       36PZ         0.00000  -0.08852   0.00000   0.00000  -0.03695
  59       37PX         0.00000   0.00000  -0.05064   0.00000   0.00000
  60       37PY         0.25766   0.00000   0.00000  -0.05064   0.00000
  61       37PZ         0.00000   0.12578   0.00000   0.00000   0.07173
  62       38PX         0.00000   0.00000  -0.02644   0.00000   0.00000
  63       38PY         0.08371   0.00000   0.00000  -0.02644   0.00000
  64       38PZ         0.00000   0.02912   0.00000   0.00000   0.05022
  65       39PX         0.00000   0.00000  -0.07120   0.00000   0.00000
  66       39PY         0.33641   0.00000   0.00000  -0.07120   0.00000
  67       39PZ         0.00000   0.16552   0.00000   0.00000   0.11199
  68       40PX         0.00000   0.00000  -0.05468   0.00000   0.00000
  69       40PY         0.17747   0.00000   0.00000  -0.05468   0.00000
  70       40PZ         0.00000   0.08503   0.00000   0.00000   0.06224
  71       41PX         0.00000   0.00000  -0.02475   0.00000   0.00000
  72       41PY         0.00231   0.00000   0.00000  -0.02475   0.00000
  73       41PZ         0.00000   0.01756   0.00000   0.00000  -0.04100
  74       42PX         0.00000   0.00000  -0.01833   0.00000   0.00000
  75       42PY         0.00236   0.00000   0.00000  -0.01833   0.00000
  76       42PZ         0.00000   0.00304   0.00000   0.00000  -0.02135
  77       43PX         0.00000   0.00000  -0.00998   0.00000   0.00000
  78       43PY        -0.00093   0.00000   0.00000  -0.00998   0.00000
  79       43PZ         0.00000   0.00280   0.00000   0.00000  -0.00424
  80       44PX         0.00000   0.00000   0.00474   0.00000   0.00000
  81       44PY        -0.01286   0.00000   0.00000   0.00474   0.00000
  82       44PZ         0.00000   0.02883   0.00000   0.00000   0.00502
  83       45PX         0.00000   0.00000  -0.05368   0.00000   0.00000
  84       45PY         0.31413   0.00000   0.00000  -0.05368   0.00000
  85       45PZ         0.00000   0.17793   0.00000   0.00000   0.05273
  86       46PX         0.00000   0.00000   0.00173   0.00000   0.00000
  87       46PY         0.00032   0.00000   0.00000   0.00173   0.00000
  88       46PZ         0.00000  -0.00041   0.00000   0.00000   0.00103
  89       47D 0        0.00000  -0.00002   0.00000   0.00000  -0.00005
  90       47D+1        0.00000   0.00000   0.00002   0.00000   0.00000
  91       47D-1        0.00000   0.00000   0.00000   0.00002   0.00000
  92       47D+2        0.00000  -0.00000   0.00000   0.00000   0.00000
  93       47D-2        0.00000   0.00000   0.00000   0.00000   0.00000
  94       48D 0        0.00000   0.00013   0.00000   0.00000   0.00041
  95       48D+1        0.00000   0.00000  -0.00021   0.00000   0.00000
  96       48D-1       -0.00003   0.00000   0.00000  -0.00021   0.00000
  97       48D+2        0.00000   0.00000   0.00000   0.00000  -0.00000
  98       48D-2        0.00000   0.00000   0.00000   0.00000   0.00000
  99       49D 0        0.00000  -0.00111   0.00000   0.00000  -0.00357
 100       49D+1        0.00000   0.00000   0.00177   0.00000   0.00000
 101       49D-1        0.00021   0.00000   0.00000   0.00177   0.00000
[...]
 163       61F-2        0.00000   0.00000  -0.00000   0.00000
 164       61F+3        0.00001   0.00001   0.00001   0.00000
 165       61F-3        0.00001   0.00001   0.00001   0.00000
 166       62F 0        0.00509   0.00254   0.00254   0.00000
 167       62F+1        0.00242   0.00121   0.00121   0.00000
 168       62F-1        0.00242   0.00121   0.00121   0.00000
 169       62F+2        0.00003   0.00003  -0.00000   0.00003
 170       62F-2        0.00000   0.00000   0.00000   0.00000
 171       62F+3        0.00003   0.00002   0.00002   0.00000
 172       62F-3        0.00003   0.00002   0.00002   0.00000
 173       63F 0        0.01252   0.00623   0.00629  -0.00006
 174       63F+1        0.01318   0.00659   0.00659   0.00000
 175       63F-1        0.01318   0.00659   0.00659   0.00000
 176       63F+2        0.00003   0.00003   0.00000   0.00003
 177       63F-2        0.00000   0.00000   0.00000   0.00000
 178       63F+3        0.00006   0.00003   0.00003   0.00000
 179       63F-3        0.00006   0.00003   0.00003   0.00000
 180       64F 0       -0.00749  -0.00369  -0.00380   0.00011
 181       64F+1        0.00866   0.00433   0.00433   0.00000
 182       64F-1        0.00866   0.00433   0.00433   0.00000
 183       64F+2       -0.00002  -0.00002   0.00000  -0.00002
 184       64F-2       -0.00000  -0.00000   0.00000  -0.00000
 185       64F+3        0.00001   0.00001   0.00001   0.00000
 186       64F-3        0.00001   0.00001   0.00001   0.00000
 187       65F 0       -0.00097  -0.00046  -0.00051   0.00005
 188       65F+1       -0.00145  -0.00073  -0.00073  -0.00000
 189       65F-1       -0.00145  -0.00073  -0.00073  -0.00000
 190       65F+2        0.00000   0.00000   0.00000   0.00000
 191       65F-2        0.00000   0.00000   0.00000   0.00000
 192       65F+3       -0.00000  -0.00000  -0.00000  -0.00000
 193       65F-3       -0.00000  -0.00000  -0.00000  -0.00000
 194       66G 0        0.00005   0.00003   0.00003   0.00000
 195       66G+1        0.00002   0.00001   0.00001   0.00000
 196       66G-1        0.00002   0.00001   0.00001   0.00000
 197       66G+2        0.00000   0.00000  -0.00000   0.00000
 198       66G-2        0.00000   0.00000  -0.00000   0.00000
 199       66G+3        0.00000   0.00000   0.00000   0.00000
 200       66G-3        0.00000   0.00000   0.00000   0.00000
 201       66G+4        0.00000   0.00000   0.00000  -0.00000
 202       66G-4        0.00000   0.00000   0.00000  -0.00000
 203       67G 0        0.00146   0.00073   0.00073  -0.00000
 204       67G+1        0.00117   0.00058   0.00058   0.00000
 205       67G-1        0.00117   0.00058   0.00058   0.00000
 206       67G+2       -0.00000  -0.00000  -0.00000  -0.00000
 207       67G-2       -0.00000  -0.00000   0.00000  -0.00000
 208       67G+3        0.00000   0.00000   0.00000   0.00000
 209       67G-3        0.00000   0.00000   0.00000   0.00000
 210       67G+4        0.00000   0.00000   0.00000   0.00000
 211       67G-4        0.00000   0.00000   0.00000   0.00000
 212       68G 0       -0.00018  -0.00010  -0.00008  -0.00002
 213       68G+1        0.00265   0.00132   0.00132   0.00000
 214       68G-1        0.00265   0.00132   0.00132   0.00000
 215       68G+2       -0.00002  -0.00002  -0.00000  -0.00002
 216       68G-2       -0.00000  -0.00000  -0.00000  -0.00000
 217       68G+3        0.00000   0.00000   0.00000   0.00000
 218       68G-3        0.00000   0.00000   0.00000   0.00000
 219       68G+4        0.00001   0.00001   0.00000   0.00001
 220       68G-4        0.00000   0.00000   0.00000   0.00000
 221       69G 0       -0.00123  -0.00060  -0.00063   0.00004
 222       69G+1        0.00099   0.00050   0.00050   0.00000
 223       69G-1        0.00099   0.00050   0.00050   0.00000
 224       69G+2       -0.00000  -0.00000   0.00000  -0.00000
 225       69G-2       -0.00000  -0.00000   0.00000  -0.00000
 226       69G+3        0.00000   0.00000   0.00000   0.00000
 227       69G-3        0.00000   0.00000   0.00000   0.00000
 228       69G+4        0.00000   0.00000   0.00000   0.00000
 229       69G-4        0.00000   0.00000   0.00000   0.00000
 230       70H 0        0.00004   0.00002   0.00002   0.00000
 231       70H+1        0.00002   0.00001   0.00001   0.00000
 232       70H-1        0.00002   0.00001   0.00001   0.00000
 233       70H+2        0.00000   0.00000   0.00000   0.00000
 234       70H-2        0.00000   0.00000  -0.00000   0.00000
 235       70H+3        0.00000   0.00000   0.00000   0.00000
 236       70H-3        0.00000   0.00000   0.00000   0.00000
 237       70H+4        0.00000   0.00000   0.00000  -0.00000
 238       70H-4        0.00000   0.00000   0.00000  -0.00000
 239       70H+5        0.00000   0.00000   0.00000   0.00000
 240       70H-5        0.00000   0.00000   0.00000   0.00000
 241       71H 0        0.00033   0.00017   0.00017   0.00000
 242       71H+1        0.00077   0.00038   0.00038   0.00000
 243       71H-1        0.00077   0.00038   0.00038   0.00000
 244       71H+2        0.00001   0.00001   0.00000   0.00001
 245       71H-2        0.00000   0.00000   0.00000   0.00000
 246       71H+3        0.00000   0.00000   0.00000   0.00000
 247       71H-3        0.00000   0.00000   0.00000   0.00000
 248       71H+4        0.00000   0.00000   0.00000   0.00000
 249       71H-4        0.00000   0.00000   0.00000   0.00000
 250       71H+5        0.00000   0.00000   0.00000   0.00000
 251       71H-5        0.00000   0.00000   0.00000   0.00000
 252       72H 0       -0.00038  -0.00019  -0.00018  -0.00001
 253       72H+1        0.00031   0.00015   0.00015   0.00000
 254       72H-1        0.00031   0.00015   0.00015   0.00000
 255       72H+2       -0.00000  -0.00000  -0.00000  -0.00000
 256       72H-2       -0.00000  -0.00000  -0.00000  -0.00000
 257       72H+3        0.00000   0.00000   0.00000   0.00000
 258       72H-3        0.00000   0.00000   0.00000   0.00000
 259       72H+4        0.00000   0.00000   0.00000   0.00000
 260       72H-4        0.00000   0.00000   0.00000   0.00000
 261       72H+5        0.00000   0.00000   0.00000   0.00000
 262       72H-5        0.00000   0.00000   0.00000   0.00000
 263 2   O  1S         -0.00000  -0.00000  -0.00000  -0.00000
 264        2S          0.00000   0.00000   0.00000   0.00000
 265        3S         -0.00000  -0.00000  -0.00000  -0.00000
 266        4S          0.00000   0.00000   0.00000   0.00000
 267        5S         -0.00000  -0.00000  -0.00000  -0.00000
 268        6S         -0.00007  -0.00003  -0.00003  -0.00000
 269        7S         -0.00052  -0.00027  -0.00026  -0.00001
 270        8S         -0.09415  -0.04721  -0.04694  -0.00027
 271        9S         -0.07963  -0.03990  -0.03974  -0.00016
 272       10S          0.43392   0.21736   0.21656   0.00081
 273       11S          1.08653   0.54385   0.54267   0.00118
 274       12S          0.58431   0.28890   0.29541  -0.00650
 275       13S          0.05671   0.02844   0.02827   0.00018
 276       14S          0.00032   0.00016   0.00016   0.00001
 277       15S          0.00003   0.00001   0.00001   0.00000
 278       16S          0.09713   0.04930   0.04783   0.00147
 279       17PX        -0.00017  -0.00009  -0.00009  -0.00000
 280       17PY        -0.00017  -0.00009  -0.00009   0.00000
 281       17PZ        -0.00020  -0.00010  -0.00010  -0.00000
 282       18PX        -0.12473  -0.06236  -0.06236  -0.00000
 283       18PY        -0.12473  -0.06236  -0.06236  -0.00000
 284       18PZ        -0.14025  -0.07036  -0.06989  -0.00047
 285       19PX         0.13869   0.06935   0.06935   0.00000
 286       19PY         0.13869   0.06935   0.06935   0.00000
 287       19PZ         0.13387   0.06714   0.06673   0.00040
 288       20PX         0.47803   0.23901   0.23901   0.00000
 289       20PY         0.47803   0.23901   0.23901   0.00000
 290       20PZ         0.47082   0.23615   0.23468   0.00147
 291       21PX         0.70878   0.35439   0.35439   0.00000
 292       21PY         0.70878   0.35439   0.35439   0.00000
 293       21PZ         0.54470   0.27303   0.27167   0.00136
 294       22PX         0.33590   0.16795   0.16795   0.00000
 295       22PY         0.33590   0.16795   0.16795   0.00000
 296       22PZ         0.18172   0.08989   0.09183  -0.00195
 297       23PX         0.14269   0.07135   0.07135   0.00000
 298       23PY         0.14269   0.07135   0.07135   0.00000
 299       23PZ         0.15818   0.07935   0.07883   0.00052
 300       24PX         0.00065   0.00033   0.00033   0.00000
 301       24PY         0.00065   0.00033   0.00033   0.00000
 302       24PZ         0.00072   0.00036   0.00036   0.00000
 303       25PX         0.00001   0.00000   0.00000   0.00000
 304       25PY         0.00001   0.00000   0.00000   0.00000
 305       25PZ         0.00001   0.00001   0.00001   0.00000
 306       26PX         0.02742   0.01371   0.01371   0.00000
 307       26PY         0.02742   0.01371   0.01371   0.00000
 308       26PZ         0.02297   0.00972   0.01325  -0.00353
 309       27D 0        0.00056   0.00028   0.00028   0.00001
 310       27D+1        0.00020   0.00010   0.00010   0.00000
 311       27D-1        0.00020   0.00010   0.00010   0.00000
 312       27D+2        0.00002   0.00002   0.00000   0.00002
 313       27D-2        0.00000   0.00000   0.00000   0.00000
 314       28D 0        0.00967   0.00493   0.00474   0.00019
 315       28D+1        0.00438   0.00219   0.00219   0.00000
 316       28D-1        0.00438   0.00219   0.00219   0.00000
 317       28D+2        0.00057   0.00057   0.00000   0.00057
 318       28D-2        0.00000   0.00000   0.00000   0.00000
 319       29D 0        0.03183   0.01672   0.01511   0.00161
 320       29D+1        0.01143   0.00572   0.00572   0.00000
 321       29D-1        0.01143   0.00572   0.00572   0.00000
 322       29D+2        0.00261   0.00261  -0.00000   0.00261
 323       29D-2        0.00000   0.00000  -0.00000   0.00000
 324       30D 0        0.00001   0.00001   0.00000   0.00000
 325       30D+1        0.00001   0.00000   0.00000   0.00000
 326       30D-1        0.00001   0.00000   0.00000   0.00000
 327       30D+2        0.00000   0.00000  -0.00000   0.00000
 328       30D-2        0.00000   0.00000   0.00000   0.00000
 329       31D 0       -0.00000  -0.00000  -0.00000  -0.00000
 330       31D+1       -0.00000  -0.00000  -0.00000  -0.00000
 331       31D-1       -0.00000  -0.00000  -0.00000  -0.00000
 332       31D+2       -0.00000  -0.00000  -0.00000  -0.00000
 333       31D-2       -0.00000  -0.00000  -0.00000  -0.00000
 334       32D 0        0.01931   0.00966   0.00965   0.00001
 335       32D+1        0.00016   0.00008   0.00008  -0.00000
 336       32D-1        0.00016   0.00008   0.00008  -0.00000
 337       32D+2        0.00066   0.00066   0.00000   0.00066
 338       32D-2        0.00000   0.00000   0.00000   0.00000
 339       33F 0        0.00037   0.00019   0.00018   0.00001
 340       33F+1        0.00013   0.00007   0.00007   0.00000
 341       33F-1        0.00013   0.00007   0.00007   0.00000
 342       33F+2        0.00002   0.00002   0.00000   0.00002
 343       33F-2        0.00000   0.00000   0.00000   0.00000
 344       33F+3        0.00000   0.00000   0.00000   0.00000
 345       33F-3        0.00000   0.00000   0.00000   0.00000
 346       34F 0        0.00315   0.00165   0.00151   0.00014
 347       34F+1        0.00217   0.00108   0.00108   0.00000
 348       34F-1        0.00217   0.00108   0.00108   0.00000
 349       34F+2        0.00058   0.00058  -0.00000   0.00058
 350       34F-2        0.00000   0.00000   0.00000   0.00000
 351       34F+3        0.00000   0.00000   0.00000   0.00000
 352       34F-3        0.00000   0.00000   0.00000   0.00000
 353       35F 0        0.00000   0.00000   0.00000   0.00000
 354       35F+1        0.00000   0.00000   0.00000   0.00000
 355       35F-1        0.00000   0.00000   0.00000   0.00000
 356       35F+2        0.00000   0.00000  -0.00000   0.00000
 357       35F-2        0.00000   0.00000  -0.00000   0.00000
 358       35F+3        0.00000   0.00000   0.00000   0.00000
 359       35F-3        0.00000   0.00000   0.00000   0.00000
 360       36F 0        0.00428   0.00241   0.00186   0.00055
 361       36F+1       -0.00006  -0.00003  -0.00003  -0.00000
 362       36F-1       -0.00006  -0.00003  -0.00003   0.00000
 363       36F+2        0.00015   0.00015  -0.00000   0.00015
 364       36F-2        0.00000   0.00000   0.00000   0.00000
 365       36F+3        0.00000   0.00000   0.00000   0.00000
 366       36F-3        0.00000   0.00000   0.00000   0.00000
 367       37G 0        0.00028   0.00014   0.00013   0.00001
 368       37G+1        0.00012   0.00006   0.00006   0.00000
 369       37G-1        0.00012   0.00006   0.00006   0.00000
 370       37G+2        0.00004   0.00004  -0.00000   0.00004
 371       37G-2        0.00000   0.00000   0.00000   0.00000
 372       37G+3        0.00000   0.00000   0.00000   0.00000
 373       37G-3        0.00000   0.00000   0.00000   0.00000
 374       37G+4        0.00000   0.00000   0.00000   0.00000
 375       37G-4        0.00000   0.00000   0.00000   0.00000
 376       38G 0       -0.00043  -0.00021  -0.00021  -0.00000
 377       38G+1        0.00047   0.00023   0.00023   0.00000
 378       38G-1        0.00047   0.00023   0.00023   0.00000
 379       38G+2        0.00005   0.00005  -0.00000   0.00005
 380       38G-2        0.00000   0.00000   0.00000   0.00000
 381       38G+3        0.00000   0.00000   0.00000   0.00000
 382       38G-3        0.00000   0.00000   0.00000   0.00000
 383       38G+4        0.00000   0.00000   0.00000   0.00000
 384       38G-4        0.00000   0.00000   0.00000   0.00000
          Condensed to atoms (all electrons):
               1          2
     1  Ti  10.880303   0.136309
     2  O    0.136309   6.847078
          Atomic-Atomic Spin Densities.
               1          2
     1  Ti   2.012374  -0.014107
     2  O   -0.014107   0.015840
 Mulliken charges and spin densities:
               1          2
     1  Ti   0.983387   1.998267
     2  O   -0.983387   0.001733
 Sum of Mulliken charges =  -0.00000   2.00000
 Mulliken charges and spin densities with hydrogens summed into heavy atoms:
               1          2
     1  Ti   0.983387   1.998267
     2  O   -0.983387   0.001733
 Electronic spatial extent (au):  <R**2>=             77.5836
 Charge=              0.0000 electrons
 Dipole moment (field-independent basis, Debye):
    X=              0.0000    Y=              0.0000    Z=              0.6086  Tot=              0.6086
 Quadrupole moment (field-independent basis, Debye-Ang):
   XX=            -22.0719   YY=            -22.0719   ZZ=            -27.0898
   XY=              0.0000   XZ=              0.0000   YZ=              0.0000
 Traceless Quadrupole moment (field-independent basis, Debye-Ang):
   XX=              1.6726   YY=              1.6726   ZZ=             -3.3453
   XY=              0.0000   XZ=              0.0000   YZ=              0.0000
 Octapole moment (field-independent basis, Debye-Ang**2):
  XXX=              0.0000  YYY=              0.0000  ZZZ=            -15.1975  XYY=              0.0000
  XXY=              0.0000  XXZ=             -5.1394  XZZ=              0.0000  YZZ=              0.0000
  YYZ=             -5.1394  XYZ=              0.0000
 Hexadecapole moment (field-independent basis, Debye-Ang**3):
 XXXX=            -51.6095 YYYY=            -51.6095 ZZZZ=           -122.9710 XXXY=              0.0000
 XXXZ=              0.0000 YYYX=              0.0000 YYYZ=              0.0000 ZZZX=              0.0000
 ZZZY=              0.0000 XXYY=            -16.4654 XXZZ=            -28.8908 YYZZ=            -28.8908
 XXYZ=              0.0000 YYXZ=              0.0000 ZZXY=              0.0000
 N-N= 2.930827629711D+01 E-N=-2.204138868317D+02  KE= 3.846913283694D+01
 Symmetry A1   KE= 1.971814526477D+01
 Symmetry A2   KE= 1.034964572652D-31
 Symmetry B1   KE= 9.375493786154D+00
 Symmetry B2   KE= 9.375493786309D+00
 Symmetry A1   SP= 2.000000000000D+00
 Symmetry A2   SP= 2.999679551831D-32
 Symmetry B1   SP= 9.407837072587D-16
 Symmetry B2   SP= 9.759176006414D-16
 Orbital energies and kinetic energies (alpha):
                                 1                 2
   4         O                -1.827105          2.338660
   5         O                -1.146076          1.552891
   6         O                -0.593001          2.349087
   7         O                -0.593001          2.349087
   8         O                -0.525832          3.177225
   9         O                -0.356329          0.290039
  10         O                -0.215980          3.450253
  11         V                 0.011368          0.049636
  12         V                 0.011368          0.049636
  13         V                 0.021120          0.030101
  14         V                 0.023399          0.040468
  15         V                 0.037849          0.042505
 Total kinetic energy from orbitals= 4.220942448388D+01
                          Isotropic Fermi Contact Couplings
        Atom                 a.u.       MegaHertz       Gauss      10(-4) cm-1
     1  Ti(47)             0.00139      -0.17557      -0.06265      -0.05856
     2  O(17)              0.00006      -0.01854      -0.00662      -0.00618
 --------------------------------------------------------
       Center         ----  Spin Dipole Couplings  ----
                      3XX-RR        3YY-RR        3ZZ-RR
 --------------------------------------------------------
     1   Atom        0.400040      0.400040     -0.800081
     2   Atom       -0.044380     -0.044380      0.088760
 --------------------------------------------------------
                        XY            XZ            YZ
 --------------------------------------------------------
     1   Atom        0.000000      0.000000      0.000000
     2   Atom        0.000000      0.000000      0.000000
 --------------------------------------------------------


 ---------------------------------------------------------------------------------
              Anisotropic Spin Dipole Couplings in Principal Axis System
 ---------------------------------------------------------------------------------

       Atom             a.u.   MegaHertz   Gauss  10(-4) cm-1        Axes

              Baa    -0.8001    24.104     8.601     8.040  0.0000  0.0000  1.0000
     1 Ti(47) Bbb     0.4000   -12.052    -4.300    -4.020  1.0000  0.0000  0.0000
              Bcc     0.4000   -12.052    -4.300    -4.020 -0.0000  1.0000  0.0000
 
              Baa    -0.0444     3.211     1.146     1.071 -0.0000  1.0000  0.0000
     2 O(17)  Bbb    -0.0444     3.211     1.146     1.071  1.0000  0.0000  0.0000
              Bcc     0.0888    -6.423    -2.292    -2.142  0.0000  0.0000  1.0000
 

 ---------------------------------------------------------------------------------

 No NMR shielding tensors so no spin-rotation constants.
 Leave Link  601 at Sat Mar 10 01:59:52 2018, MaxMem= 10737418240 cpu:             113.8 elap:               7.4
 (Enter /home1/apps/gaussian/16rA.03/g16/l9999.exe)
 1\1\GINC-C406-024\SP\ROCCSD(T)-Full\Gen\O1Ti1(3)\AANNABE\10-Mar-2018\0
 \\#P ROCCSD(T)=(maxcyc=150, Full, SaveAmplitudes, ReadAmplitudes)/Gen 
 5d 7f SCF=(maxcycles=300) Integral(NoXCTest) MaxDisk=500GB Pop=Regular
  Pseudo=Read Guess=Read\\TiO\\0,3\Ti,0,0.,0.,0.\O,0,0.,0.,1.3\\Version
 =ES64L-G16RevA.03\HF=-73.1815429\MP2=-73.9468365\PUHF=-73.1815429\PMP2
 -0=-73.9468365\CCSD=-73.9329417\CCSD(T)=-73.9690174\RMSD=4.852e-09\PG=
 C*V [C*(O1Ti1)]\\@


 BULLDOZER: SOMEONE WHO SLEEPS THROUGH SPEECHES.
 Job cpu time:       0 days 19 hours  9 minutes 11.5 seconds.
 Elapsed time:       0 days  1 hours 12 minutes 13.4 seconds.
 File lengths (MBytes):  RWF=  12542 Int=      0 D2E=      0 Chk=     65 Scr=      1
 Normal termination of Gaussian 16 at Sat Mar 10 01:59:53 2018.
