 Entering Gaussian System, Link 0=g16
 Initial command:
 /home1/apps/gaussian/16rA.03/g16/l1.exe "/tmp/Gau-410225.inp" -scrdir="/tmp/"
 Entering Link 1 = /home1/apps/gaussian/16rA.03/g16/l1.exe PID=    410226.
  
 Copyright (c) 1988,1990,1992,1993,1995,1998,2003,2009,2016,
            Gaussian, Inc.  All Rights Reserved.
  
 This is part of the Gaussian(R) 16 program.  It is based on
 the Gaussian(R) 09 system (copyright 2009, Gaussian, Inc.),
 the Gaussian(R) 03 system (copyright 2003, Gaussian, Inc.),
 the Gaussian(R) 98 system (copyright 1998, Gaussian, Inc.),
 the Gaussian(R) 94 system (copyright 1995, Gaussian, Inc.),
 the Gaussian 92(TM) system (copyright 1992, Gaussian, Inc.),
 the Gaussian 90(TM) system (copyright 1990, Gaussian, Inc.),
 the Gaussian 88(TM) system (copyright 1988, Gaussian, Inc.),
 the Gaussian 86(TM) system (copyright 1986, Carnegie Mellon
 University), and the Gaussian 82(TM) system (copyright 1983,
 Carnegie Mellon University). Gaussian is a federally registered
 trademark of Gaussian, Inc.
  
 This software contains proprietary and confidential information,
 including trade secrets, belonging to Gaussian, Inc.
  
 This software is provided under written license and may be
 used, copied, transmitted, or stored only in accord with that
 written license.
  
 The following legend is applicable only to US Government
 contracts under FAR:
  
                    RESTRICTED RIGHTS LEGEND
  
 Use, reproduction and disclosure by the US Government is
 subject to restrictions as set forth in subparagraphs (a)
 and (c) of the Commercial Computer Software - Restricted
 Rights clause in FAR 52.227-19.
  
 Gaussian, Inc.
 340 Quinnipiac St., Bldg. 40, Wallingford CT 06492
  
  
 ---------------------------------------------------------------
 Warning -- This program may not be used in any manner that
 competes with the business of Gaussian, Inc. or will provide
 assistance to any competitor of Gaussian, Inc.  The licensee
 of this program is prohibited from giving any competitor of
 Gaussian, Inc. access to this program.  By using this program,
 the user acknowledges that Gaussian, Inc. is engaged in the
 business of creating and licensing software in the field of
 computational chemistry and represents and warrants to the
 licensee that it is not a competitor of Gaussian, Inc. and that
 it will not use this program in any manner prohibited above.
 ---------------------------------------------------------------
  

 Cite this work as:
 Gaussian 16, Revision A.03,
 M. J. Frisch, G. W. Trucks, H. B. Schlegel, G. E. Scuseria, 
 M. A. Robb, J. R. Cheeseman, G. Scalmani, V. Barone, 
 G. A. Petersson, H. Nakatsuji, X. Li, M. Caricato, A. V. Marenich, 
 J. Bloino, B. G. Janesko, R. Gomperts, B. Mennucci, H. P. Hratchian, 
 J. V. Ortiz, A. F. Izmaylov, J. L. Sonnenberg, D. Williams-Young, 
 F. Ding, F. Lipparini, F. Egidi, J. Goings, B. Peng, A. Petrone, 
 T. Henderson, D. Ranasinghe, V. G. Zakrzewski, J. Gao, N. Rega, 
 G. Zheng, W. Liang, M. Hada, M. Ehara, K. Toyota, R. Fukuda, 
 J. Hasegawa, M. Ishida, T. Nakajima, Y. Honda, O. Kitao, H. Nakai, 
 T. Vreven, K. Throssell, J. A. Montgomery, Jr., J. E. Peralta, 
 F. Ogliaro, M. J. Bearpark, J. J. Heyd, E. N. Brothers, K. N. Kudin, 
 V. N. Staroverov, T. A. Keith, R. Kobayashi, J. Normand, 
 K. Raghavachari, A. P. Rendell, J. C. Burant, S. S. Iyengar, 
 J. Tomasi, M. Cossi, J. M. Millam, M. Klene, C. Adamo, R. Cammi, 
 J. W. Ochterski, R. L. Martin, K. Morokuma, O. Farkas, 
 J. B. Foresman, and D. J. Fox, Gaussian, Inc., Wallingford CT, 2016.
 
 ******************************************
 Gaussian 16:  ES64L-G16RevA.03 25-Dec-2016
                21-Apr-2018 
 ******************************************
 %mem=160GB
 %cpu=0-31
 SetSPE:  set environment variable "MP_BIND" = "yes"
 SetSPE:  set environment variable "MP_BLIST" = "0,1,2,3,4,5,6,7,8,9,10,11,12,13,14,15,16,17,18,19,20,21,22,23,24,25,26,27,28,29,30,31"
 Will use up to   32 processors via shared memory.
 %chk=tz.chk
 %rwf=/scratch/04843/gwang18/znh/
 ----------------------------------------------------------------------
 #P ROCCSD(T)=(MaxCyc=150, FrzINGC)/Gen SCF=(maxcycle=400, vshift=200) 
 Integral(DKHSO, NoXCTest) Pop=Regular MaxDisk=500GB Guess=Read IOp(5/1
 5=2)
 ----------------------------------------------------------------------
 1/38=1,172=1/1;
 2/12=2,17=6,18=5,40=1/2;
 3/5=7,11=2,25=1,30=1,47=8,91=5,116=101/1,2,3;
 4/5=1/1;
 5/5=2,7=400,10=200,15=2,38=6/2;
 8/5=-1,6=4,9=120000,10=3/1,4;
 9/5=7,6=150,14=2/13;
 6//1;
 99/5=1,9=1/99;
 Leave Link    1 at Sat Apr 21 10:41:32 2018, MaxMem= 21474836480 cpu:               4.1 elap:               0.1
 (Enter /home1/apps/gaussian/16rA.03/g16/l101.exe)
 ---
 ZnH
 ---
 Symbolic Z-matrix:
 Charge =  0 Multiplicity = 2
 Zn                    0.        0.        0. 
 H                     0.        0.        1.5 
 
 ITRead=  0  0
 MicOpt= -1 -1
 NAtoms=      2 NQM=        2 NQMF=       0 NMMI=      0 NMMIF=      0
                NMic=       0 NMicF=      0.
                    Isotopes and Nuclear Properties:
 (Nuclear quadrupole moments (NQMom) in fm**2, nuclear magnetic moments (NMagM)
  in nuclear magnetons)

  Atom         1           2
 IAtWgt=          64           1
 AtmWgt=  63.9291454   1.0078250
 NucSpn=           0           1
 AtZEff=  -0.0000000  -0.0000000
 NQMom=    0.0000000   0.0000000
 NMagM=    0.0000000   2.7928460
 AtZNuc=  30.0000000   1.0000000
 Leave Link  101 at Sat Apr 21 10:41:32 2018, MaxMem= 21474836480 cpu:               2.7 elap:               0.1
 (Enter /home1/apps/gaussian/16rA.03/g16/l202.exe)
                          Input orientation:                          
 ---------------------------------------------------------------------
 Center     Atomic      Atomic             Coordinates (Angstroms)
 Number     Number       Type             X           Y           Z
 ---------------------------------------------------------------------
      1         30           0        0.000000    0.000000    0.000000
      2          1           0        0.000000    0.000000    1.500000
 ---------------------------------------------------------------------
 Stoichiometry    HZn(2)
 Framework group  C*V[C*(HZn)]
 Deg. of freedom     1
 Full point group                 C*V     NOp   4
 Largest Abelian subgroup         C2V     NOp   4
 Largest concise Abelian subgroup C1      NOp   1
                         Standard orientation:                         
 ---------------------------------------------------------------------
 Center     Atomic      Atomic             Coordinates (Angstroms)
 Number     Number       Type             X           Y           Z
 ---------------------------------------------------------------------
      1         30           0        0.000000    0.000000    0.048387
      2          1           0        0.000000    0.000000   -1.451613
 ---------------------------------------------------------------------
 Rotational constants (GHZ):           0.0000000         226.3824015         226.3824015
 Leave Link  202 at Sat Apr 21 10:41:32 2018, MaxMem= 21474836480 cpu:               0.5 elap:               0.0
 (Enter /home1/apps/gaussian/16rA.03/g16/l301.exe)
 General basis read from cards:  (5D, 7F)
 Centers:       1
 S 1 1.00
     Exponent=  5.8200210000D+06 Coefficients=  1.0000000000D+00
 S 1 1.00
     Exponent=  8.7152340000D+05 Coefficients=  1.0000000000D+00
 S 1 1.00
     Exponent=  1.9833500000D+05 Coefficients=  1.0000000000D+00
 S 1 1.00
     Exponent=  5.6176310000D+04 Coefficients=  1.0000000000D+00
 S 1 1.00
     Exponent=  1.8325820000D+04 Coefficients=  1.0000000000D+00
 S 1 1.00
     Exponent=  6.6149550000D+03 Coefficients=  1.0000000000D+00
 S 1 1.00
     Exponent=  2.5791990000D+03 Coefficients=  1.0000000000D+00
 S 1 1.00
     Exponent=  1.0688490000D+03 Coefficients=  1.0000000000D+00
 S 1 1.00
     Exponent=  4.6510450000D+02 Coefficients=  1.0000000000D+00
 S 1 1.00
     Exponent=  2.1041300000D+02 Coefficients=  1.0000000000D+00
 S 1 1.00
     Exponent=  9.7616290000D+01 Coefficients=  1.0000000000D+00
 S 1 1.00
     Exponent=  4.4380200000D+01 Coefficients=  1.0000000000D+00
 S 1 1.00
     Exponent=  2.1423080000D+01 Coefficients=  1.0000000000D+00
 S 1 1.00
     Exponent=  1.0308910000D+01 Coefficients=  1.0000000000D+00
 S 1 1.00
     Exponent=  4.5536450000D+00 Coefficients=  1.0000000000D+00
 S 1 1.00
     Exponent=  2.1328210000D+00 Coefficients=  1.0000000000D+00
 S 1 1.00
     Exponent=  9.2969700000D-01 Coefficients=  1.0000000000D+00
 S 1 1.00
     Exponent=  1.9214700000D-01 Coefficients=  1.0000000000D+00
 S 1 1.00
     Exponent=  8.7595000000D-02 Coefficients=  1.0000000000D+00
 S 1 1.00
     Exponent=  3.7702000000D-02 Coefficients=  1.0000000000D+00
 S 1 1.00
     Exponent=  7.0381000000D+00 Coefficients=  1.0000000000D+00
 S 1 1.00
     Exponent=  1.8099000000D+00 Coefficients=  1.0000000000D+00
 S 1 1.00
     Exponent=  1.6230000000D-02 Coefficients=  1.0000000000D+00
 P 1 1.00
     Exponent=  2.4411980000D+04 Coefficients=  1.0000000000D+00
 P 1 1.00
     Exponent=  5.7785180000D+03 Coefficients=  1.0000000000D+00
 P 1 1.00
     Exponent=  1.8768620000D+03 Coefficients=  1.0000000000D+00
 P 1 1.00
     Exponent=  7.1823610000D+02 Coefficients=  1.0000000000D+00
 P 1 1.00
     Exponent=  3.0483270000D+02 Coefficients=  1.0000000000D+00
 P 1 1.00
     Exponent=  1.3904530000D+02 Coefficients=  1.0000000000D+00
 P 1 1.00
     Exponent=  6.6804170000D+01 Coefficients=  1.0000000000D+00
 P 1 1.00
     Exponent=  3.3206990000D+01 Coefficients=  1.0000000000D+00
 P 1 1.00
     Exponent=  1.6928160000D+01 Coefficients=  1.0000000000D+00
 P 1 1.00
     Exponent=  8.6962290000D+00 Coefficients=  1.0000000000D+00
 P 1 1.00
     Exponent=  4.3505100000D+00 Coefficients=  1.0000000000D+00
 P 1 1.00
     Exponent=  2.1165230000D+00 Coefficients=  1.0000000000D+00
 P 1 1.00
     Exponent=  9.9538700000D-01 Coefficients=  1.0000000000D+00
 P 1 1.00
     Exponent=  3.7811200000D-01 Coefficients=  1.0000000000D+00
 P 1 1.00
     Exponent=  1.3457900000D-01 Coefficients=  1.0000000000D+00
 P 1 1.00
     Exponent=  4.6282000000D-02 Coefficients=  1.0000000000D+00
 P 1 1.00
     Exponent=  1.0150100000D+01 Coefficients=  1.0000000000D+00
 P 1 1.00
     Exponent=  2.3451000000D+00 Coefficients=  1.0000000000D+00
 P 1 1.00
     Exponent=  1.5920000000D-02 Coefficients=  1.0000000000D+00
 D 1 1.00
     Exponent=  2.0561770000D+02 Coefficients=  1.0000000000D+00
 D 1 1.00
     Exponent=  6.1449810000D+01 Coefficients=  1.0000000000D+00
 D 1 1.00
     Exponent=  2.3056890000D+01 Coefficients=  1.0000000000D+00
 D 1 1.00
     Exponent=  9.5777390000D+00 Coefficients=  1.0000000000D+00
 D 1 1.00
     Exponent=  4.1337340000D+00 Coefficients=  1.0000000000D+00
 D 1 1.00
     Exponent=  1.7475180000D+00 Coefficients=  1.0000000000D+00
 D 1 1.00
     Exponent=  6.9956000000D-01 Coefficients=  1.0000000000D+00
 D 1 1.00
     Exponent=  2.5160800000D-01 Coefficients=  1.0000000000D+00
 D 1 1.00
     Exponent=  7.7440000000D+00 Coefficients=  1.0000000000D+00
 D 1 1.00
     Exponent=  3.9663000000D+00 Coefficients=  1.0000000000D+00
 D 1 1.00
     Exponent=  9.0490000000D-02 Coefficients=  1.0000000000D+00
 F 1 1.00
     Exponent=  1.0327000000D+01 Coefficients=  1.0000000000D+00
 F 1 1.00
     Exponent=  4.0202000000D+00 Coefficients=  1.0000000000D+00
 F 1 1.00
     Exponent=  1.4851000000D+00 Coefficients=  1.0000000000D+00
 F 1 1.00
     Exponent=  5.4861000000D-01 Coefficients=  1.0000000000D+00
 G 1 1.00
     Exponent=  9.2538000000D+00 Coefficients=  1.0000000000D+00
 G 1 1.00
     Exponent=  4.1144000000D+00 Coefficients=  1.0000000000D+00
 G 1 1.00
     Exponent=  1.8293300000D+00 Coefficients=  1.0000000000D+00
 ****
 Centers:       2
 S 1 1.00
     Exponent=  3.3870000000D+01 Coefficients=  1.0000000000D+00
 S 1 1.00
     Exponent=  5.0950000000D+00 Coefficients=  1.0000000000D+00
 S 1 1.00
     Exponent=  1.1590000000D+00 Coefficients=  1.0000000000D+00
 S 1 1.00
     Exponent=  3.2580000000D-01 Coefficients=  1.0000000000D+00
 S 1 1.00
     Exponent=  1.0270000000D-01 Coefficients=  1.0000000000D+00
 S 1 1.00
     Exponent=  2.5260000000D-02 Coefficients=  1.0000000000D+00
 P 1 1.00
     Exponent=  1.4070000000D+00 Coefficients=  1.0000000000D+00
 P 1 1.00
     Exponent=  3.8800000000D-01 Coefficients=  1.0000000000D+00
 P 1 1.00
     Exponent=  1.0200000000D-01 Coefficients=  1.0000000000D+00
 D 1 1.00
     Exponent=  1.0570000000D+00 Coefficients=  1.0000000000D+00
 D 1 1.00
     Exponent=  2.4700000000D-01 Coefficients=  1.0000000000D+00
 ****
 Ernie: Thresh=  0.10000D-02 Tol=  0.10000D-05 Strict=F.
 There are   120 symmetry adapted cartesian basis functions of A1  symmetry.
 There are    26 symmetry adapted cartesian basis functions of A2  symmetry.
 There are    56 symmetry adapted cartesian basis functions of B1  symmetry.
 There are    56 symmetry adapted cartesian basis functions of B2  symmetry.
 There are    94 symmetry adapted basis functions of A1  symmetry.
 There are    23 symmetry adapted basis functions of A2  symmetry.
 There are    49 symmetry adapted basis functions of B1  symmetry.
 There are    49 symmetry adapted basis functions of B2  symmetry.
   215 basis functions,   258 primitive gaussians,   258 cartesian basis functions
    16 alpha electrons       15 beta electrons
       nuclear repulsion energy        10.5835442184 Hartrees.
 IExCor=    0 DFT=F Ex=HF Corr=None ExCW=0 ScaHFX=  1.000000
 ScaDFX=  1.000000  1.000000  1.000000  1.000000 ScalE2=  1.000000  1.000000
 IRadAn=      5 IRanWt=     -1 IRanGd=            0 ICorTp=0 IEmpDi=  4
 NAtoms=    2 NActive=    2 NUniq=    2 SFac= 1.00D+00 NAtFMM=   60 NAOKFM=F Big=F
 Integral buffers will be    131072 words long.
 Raffenetti 2 integral format.
 Two-electron integral symmetry is turned on.
 FoFCou: FMM=F IPFlag=           8 FMFlag=           0 FMFlg1=           0
         NFxFlg=           0 DoJE=F BraDBF=T KetDBF=T FulRan=T
         wScrn=  0.000000 ICntrl=       600 IOpCl=  3 I1Cent=           6 NGrid=           0
         NMat0=    1 NMatS0=      2 NMatT0=    0 NMatD0=    1 NMtDS0=    0 NMtDT0=    0
 Symmetry not used in FoFCou.
 Finite nuclear repulsion energy        10.5835442184.
 Leave Link  301 at Sat Apr 21 10:41:32 2018, MaxMem= 21474836480 cpu:               4.8 elap:               0.2
 (Enter /home1/apps/gaussian/16rA.03/g16/l302.exe)
 Using DK4 one-electron Hamiltonian with SO, DoBoet=T.
 NPDir=0 NMtPBC=     1 NCelOv=     1 NCel=       1 NClECP=     1 NCelD=      1
         NCelK=      1 NCelE2=     1 NClLst=     1 CellRange=     0.0.
 One-electron integrals computed using PRISM.
 One-electron integral symmetry used in STVInt
 FoFCou: FMM=F IPFlag=           8 FMFlag=      100000 FMFlg1=           0
         NFxFlg=           0 DoJE=T BraDBF=F KetDBF=T FulRan=T
         wScrn=  0.000000 ICntrl=       500 IOpCl=  0 I1Cent=           4 NGrid=           0
         NMat0=    1 NMatS0=      1 NMatT0=    0 NMatD0=    1 NMtDS0=    0 NMtDT0=    0
 Symmetry not used in FoFCou.
 UnConB:  Uncontracting AO basis from    215 functions to    215 functions (excluding duplicates).
 RelInt: Using uncontracted basis, NUnBas=   215 NBsUse=   215 0.100E-13 EigKep=  3.40D-06 EigRej= -1.00D+00
 NBasis=   215 RedAO= T EigKep=  3.40D-06  NBF=    94    23    49    49
 NBsUse=   215 1.00D-06 EigRej= -1.00D+00 NBFU=    94    23    49    49
 Leave Link  302 at Sat Apr 21 10:41:34 2018, MaxMem= 21474836480 cpu:              33.4 elap:               1.4
 (Enter /home1/apps/gaussian/16rA.03/g16/l303.exe)
 DipDrv:  MaxL=1.
 Leave Link  303 at Sat Apr 21 10:41:34 2018, MaxMem= 21474836480 cpu:               1.1 elap:               0.1
 (Enter /home1/apps/gaussian/16rA.03/g16/l401.exe)
 Initial guess from the checkpoint file:  "tz.chk"
 B after Tr=     0.000000    0.000000    0.000000
         Rot=    1.000000    0.000000    0.000000    0.000000 Ang=   0.00 deg.
 Guess basis will be translated and rotated to current coordinates.
 JPrj=2 DoOrth=T DoCkMO=T.
 Initial guess orbital symmetries:
       Occupied  (SG) (SG) (PI) (PI) (SG) (SG) (PI) (PI) (SG) (DLTA)
                 (DLTA) (SG) (PI) (PI) (SG) (SG)
       Virtual   (PI) (PI) (SG) (SG) (PI) (PI) (SG) (SG) (SG) (PI)
                 (PI) (DLTA) (DLTA) (SG) (PI) (PI) (SG) (PI) (PI)
                 (SG) (SG) (SG) (DLTA) (DLTA) (PI) (PI) (DLTA)
                 (DLTA) (SG) (PI) (PI) (PI) (PI) (SG) (PI) (PI)
                 (SG) (SG) (PHI) (PHI) (DLTA) (DLTA) (PI) (PI)
                 (SG) (SG) (SG) (DLTA) (DLTA) (PI) (PI) (SG) (PI)
                 (PI) (SG) (DLTA) (DLTA) (PI) (PI) (PI) (PI) (SG)
                 (SG) (PHI) (PHI) (DLTA) (DLTA) (PI) (PI) (SG)
                 (DLTA) (DLTA) (PI) (PI) (SG) (?A) (?A) (PHI) (PHI)
                 (DLTA) (DLTA) (PI) (PI) (SG) (SG) (PI) (PI) (SG)
                 (SG) (PHI) (PHI) (DLTA) (DLTA) (PI) (PI) (SG)
                 (DLTA) (DLTA) (PI) (PI) (SG) (PI) (PI) (SG) (SG)
                 (?A) (?A) (PHI) (PHI) (DLTA) (DLTA) (PI) (PI)
                 (SG) (DLTA) (DLTA) (PI) (PI) (SG) (PHI) (PHI)
                 (DLTA) (DLTA) (PI) (PI) (PI) (PI) (SG) (SG) (SG)
                 (?A) (?A) (PHI) (PHI) (DLTA) (DLTA) (PI) (PI)
                 (SG) (DLTA) (DLTA) (PI) (PI) (SG) (SG) (PI) (PI)
                 (SG) (SG) (DLTA) (DLTA) (PI) (PI) (SG) (PI) (PI)
                 (SG) (SG) (DLTA) (DLTA) (PI) (PI) (SG) (PI) (PI)
                 (SG) (SG) (PI) (PI) (SG) (DLTA) (DLTA) (PI) (PI)
                 (SG) (PI) (PI) (SG) (SG) (PI) (PI) (SG) (SG) (PI)
                 (PI) (SG) (SG) (SG) (PI) (PI) (SG) (SG) (PI) (PI)
                 (SG) (SG) (SG) (SG) (SG)
 The electronic state of the initial guess is 2-SG.
 Leave Link  401 at Sat Apr 21 10:41:36 2018, MaxMem= 21474836480 cpu:               6.5 elap:               0.3
 (Enter /home1/apps/gaussian/16rA.03/g16/l502.exe)
 Keep R1 and R2 ints in memory in symmetry-blocked form, NReq=338797193.
 FoFCou: FMM=F IPFlag=           8 FMFlag=           0 FMFlg1=           0
         NFxFlg=           0 DoJE=F BraDBF=F KetDBF=F FulRan=T
         wScrn=  0.000000 ICntrl=       600 IOpCl=  0 I1Cent=           0 NGrid=           0
         NMat0=    1 NMatS0=  23220 NMatT0=    0 NMatD0=    1 NMtDS0=    0 NMtDT0=    0
 Petite list used in FoFCou.
 Restricted open shell SCF:
 Using DIIS extrapolation, IDIIS=  1040.
 NGot= 21474836480 LenX= 21336348183 LenY= 21336281178
 Requested convergence on RMS density matrix=1.00D-08 within 400 cycles.
 Requested convergence on MAX density matrix=1.00D-06.
 Requested convergence on             energy=1.00D-06.
 Virtual orbitals will be shifted by   0.200 hartree.
 No special actions if energy rises.

 Cycle   1  Pass 1  IDiag  1:
 E= -1794.80003796652    
 DIIS: error= 7.05D-03 at cycle   1 NSaved=   1.
 NSaved= 1 IEnMin= 1 EnMin= -1794.80003796652     IErMin= 1 ErrMin= 7.05D-03
 ErrMax= 7.05D-03  0.00D+00 EMaxC= 1.00D-01 BMatC= 1.65D-03 BMatP= 1.65D-03
 IDIUse=3 WtCom= 9.29D-01 WtEn= 7.05D-02
 Coeff-Com:  0.100D+01
 Coeff-En:   0.100D+01
 Coeff:      0.100D+01
 Gap=     0.098 Goal=   None    Shift=    0.200
 GapD=    0.098 DampG=0.500 DampE=1.000 DampFc=0.5000 IDamp=-1.
 Damping current iteration by 5.00D-01
 RMSDP=1.66D-04 MaxDP=7.16D-03              OVMax= 7.76D-03

 Cycle   2  Pass 1  IDiag  1:
 E= -1794.80024160681     Delta-E=       -0.000203640289 Rises=F Damp=T
 DIIS: error= 3.68D-03 at cycle   2 NSaved=   2.
 NSaved= 2 IEnMin= 2 EnMin= -1794.80024160681     IErMin= 2 ErrMin= 3.68D-03
 ErrMax= 3.68D-03  0.00D+00 EMaxC= 1.00D-01 BMatC= 4.46D-04 BMatP= 1.65D-03
 IDIUse=3 WtCom= 9.63D-01 WtEn= 3.68D-02
 Coeff-Com: -0.969D+00 0.197D+01
 Coeff-En:   0.000D+00 0.100D+01
 Coeff:     -0.934D+00 0.193D+01
 Gap=     0.098 Goal=   None    Shift=    0.200
 RMSDP=1.00D-04 MaxDP=4.39D-03 DE=-2.04D-04 OVMax= 2.59D-03

 Cycle   3  Pass 1  IDiag  1:
 E= -1794.80049959805     Delta-E=       -0.000257991242 Rises=F Damp=F
 DIIS: error= 9.06D-04 at cycle   3 NSaved=   3.
 NSaved= 3 IEnMin= 3 EnMin= -1794.80049959805     IErMin= 3 ErrMin= 9.06D-04
 ErrMax= 9.06D-04  0.00D+00 EMaxC= 1.00D-01 BMatC= 3.70D-05 BMatP= 4.46D-04
 IDIUse=3 WtCom= 9.91D-01 WtEn= 9.06D-03
 Coeff-Com: -0.446D+00 0.853D+00 0.592D+00
 Coeff-En:   0.000D+00 0.000D+00 0.100D+01
 Coeff:     -0.442D+00 0.846D+00 0.596D+00
 Gap=     0.098 Goal=   None    Shift=    0.200
 RMSDP=1.40D-05 MaxDP=7.79D-04 DE=-2.58D-04 OVMax= 1.87D-03

 Cycle   4  Pass 1  IDiag  1:
 E= -1794.80051701809     Delta-E=       -0.000017420044 Rises=F Damp=F
 DIIS: error= 1.42D-04 at cycle   4 NSaved=   4.
 NSaved= 4 IEnMin= 4 EnMin= -1794.80051701809     IErMin= 4 ErrMin= 1.42D-04
 ErrMax= 1.42D-04  0.00D+00 EMaxC= 1.00D-01 BMatC= 2.46D-06 BMatP= 3.70D-05
 IDIUse=3 WtCom= 9.99D-01 WtEn= 1.42D-03
 Coeff-Com:  0.167D+00-0.336D+00-0.461D-01 0.122D+01
 Coeff-En:   0.000D+00 0.000D+00 0.000D+00 0.100D+01
 Coeff:      0.166D+00-0.335D+00-0.460D-01 0.121D+01
 Gap=     0.098 Goal=   None    Shift=    0.200
 RMSDP=1.84D-05 MaxDP=1.60D-03 DE=-1.74D-05 OVMax= 2.31D-03

 Cycle   5  Pass 1  IDiag  1:
 E= -1794.80052370226     Delta-E=       -0.000006684162 Rises=F Damp=F
 DIIS: error= 8.17D-05 at cycle   5 NSaved=   5.
 NSaved= 5 IEnMin= 5 EnMin= -1794.80052370226     IErMin= 5 ErrMin= 8.17D-05
 ErrMax= 8.17D-05  0.00D+00 EMaxC= 1.00D-01 BMatC= 4.99D-07 BMatP= 2.46D-06
 IDIUse=1 WtCom= 1.00D+00 WtEn= 0.00D+00
 Coeff-Com:  0.778D-01-0.150D+00-0.462D-01-0.842D-01 0.120D+01
 Coeff:      0.778D-01-0.150D+00-0.462D-01-0.842D-01 0.120D+01
 Gap=     0.098 Goal=   None    Shift=    0.200
 RMSDP=8.15D-06 MaxDP=5.10D-04 DE=-6.68D-06 OVMax= 1.11D-03

 Cycle   6  Pass 1  IDiag  1:
 E= -1794.80052494519     Delta-E=       -0.000001242930 Rises=F Damp=F
 DIIS: error= 2.70D-05 at cycle   6 NSaved=   6.
 NSaved= 6 IEnMin= 6 EnMin= -1794.80052494519     IErMin= 6 ErrMin= 2.70D-05
 ErrMax= 2.70D-05  0.00D+00 EMaxC= 1.00D-01 BMatC= 6.36D-08 BMatP= 4.99D-07
 IDIUse=1 WtCom= 1.00D+00 WtEn= 0.00D+00
 Coeff-Com: -0.301D-01 0.601D-01-0.120D-01-0.140D+00-0.157D+00 0.128D+01
 Coeff:     -0.301D-01 0.601D-01-0.120D-01-0.140D+00-0.157D+00 0.128D+01
 Gap=     0.098 Goal=   None    Shift=    0.200
 RMSDP=2.96D-06 MaxDP=1.46D-04 DE=-1.24D-06 OVMax= 3.98D-04

 Cycle   7  Pass 1  IDiag  1:
 E= -1794.80052511715     Delta-E=       -0.000000171964 Rises=F Damp=F
 DIIS: error= 1.24D-05 at cycle   7 NSaved=   7.
 NSaved= 7 IEnMin= 7 EnMin= -1794.80052511715     IErMin= 7 ErrMin= 1.24D-05
 ErrMax= 1.24D-05  0.00D+00 EMaxC= 1.00D-01 BMatC= 1.57D-08 BMatP= 6.36D-08
 IDIUse=1 WtCom= 1.00D+00 WtEn= 0.00D+00
 Coeff-Com: -0.153D-01 0.300D-01-0.516D-02-0.625D-01-0.442D-01 0.294D-01
 Coeff-Com:  0.107D+01
 Coeff:     -0.153D-01 0.300D-01-0.516D-02-0.625D-01-0.442D-01 0.294D-01
 Coeff:      0.107D+01
 Gap=     0.098 Goal=   None    Shift=    0.200
 RMSDP=1.63D-06 MaxDP=1.44D-04 DE=-1.72D-07 OVMax= 2.19D-04

 Cycle   8  Pass 1  IDiag  1:
 E= -1794.80052515847     Delta-E=       -0.000000041319 Rises=F Damp=F
 DIIS: error= 6.93D-06 at cycle   8 NSaved=   8.
 NSaved= 8 IEnMin= 8 EnMin= -1794.80052515847     IErMin= 8 ErrMin= 6.93D-06
 ErrMax= 6.93D-06  0.00D+00 EMaxC= 1.00D-01 BMatC= 3.58D-09 BMatP= 1.57D-08
 IDIUse=1 WtCom= 1.00D+00 WtEn= 0.00D+00
 Coeff-Com: -0.195D-02 0.393D-02 0.418D-02-0.213D-01 0.128D-01 0.773D-01
 Coeff-Com: -0.824D+00 0.175D+01
 Coeff:     -0.195D-02 0.393D-02 0.418D-02-0.213D-01 0.128D-01 0.773D-01
 Coeff:     -0.824D+00 0.175D+01
 Gap=     0.098 Goal=   None    Shift=    0.200
 RMSDP=1.02D-06 MaxDP=1.01D-04 DE=-4.13D-08 OVMax= 1.31D-04

 Cycle   9  Pass 1  IDiag  1:
 E= -1794.80052517102     Delta-E=       -0.000000012547 Rises=F Damp=F
 DIIS: error= 3.87D-06 at cycle   9 NSaved=   9.
 NSaved= 9 IEnMin= 9 EnMin= -1794.80052517102     IErMin= 9 ErrMin= 3.87D-06
 ErrMax= 3.87D-06  0.00D+00 EMaxC= 1.00D-01 BMatC= 1.16D-09 BMatP= 3.58D-09
 IDIUse=1 WtCom= 1.00D+00 WtEn= 0.00D+00
 Coeff-Com: -0.150D-02 0.301D-02-0.200D-02 0.616D-02-0.173D-01 0.563D-01
 Coeff-Com: -0.652D-01-0.886D+00 0.191D+01
 Coeff:     -0.150D-02 0.301D-02-0.200D-02 0.616D-02-0.173D-01 0.563D-01
 Coeff:     -0.652D-01-0.886D+00 0.191D+01
 Gap=     0.098 Goal=   None    Shift=    0.200
 RMSDP=6.23D-07 MaxDP=5.24D-05 DE=-1.25D-08 OVMax= 6.92D-05

 Cycle  10  Pass 1  IDiag  1:
 E= -1794.80052517437     Delta-E=       -0.000000003352 Rises=F Damp=F
 DIIS: error= 2.14D-06 at cycle  10 NSaved=  10.
 NSaved=10 IEnMin=10 EnMin= -1794.80052517437     IErMin=10 ErrMin= 2.14D-06
 ErrMax= 2.14D-06  0.00D+00 EMaxC= 1.00D-01 BMatC= 2.32D-10 BMatP= 1.16D-09
 IDIUse=1 WtCom= 1.00D+00 WtEn= 0.00D+00
 Coeff-Com: -0.901D-03 0.179D-02 0.695D-03-0.575D-02-0.304D-02 0.150D-01
 Coeff-Com:  0.277D-01-0.136D+00-0.445D+00 0.155D+01
 Coeff:     -0.901D-03 0.179D-02 0.695D-03-0.575D-02-0.304D-02 0.150D-01
 Coeff:      0.277D-01-0.136D+00-0.445D+00 0.155D+01
 Gap=     0.098 Goal=   None    Shift=    0.200
 RMSDP=3.99D-07 MaxDP=3.94D-05 DE=-3.35D-09 OVMax= 3.77D-05

 Cycle  11  Pass 1  IDiag  1:
 E= -1794.80052517522     Delta-E=       -0.000000000852 Rises=F Damp=F
 DIIS: error= 1.13D-06 at cycle  11 NSaved=  11.
 NSaved=11 IEnMin=11 EnMin= -1794.80052517522     IErMin=11 ErrMin= 1.13D-06
 ErrMax= 1.13D-06  0.00D+00 EMaxC= 1.00D-01 BMatC= 6.54D-11 BMatP= 2.32D-10
 IDIUse=1 WtCom= 1.00D+00 WtEn= 0.00D+00
 Coeff-Com: -0.175D-03 0.340D-03-0.151D-03-0.148D-03 0.184D-02-0.307D-03
 Coeff-Com: -0.363D-01 0.744D-02 0.471D+00-0.195D+01 0.251D+01
 Coeff:     -0.175D-03 0.340D-03-0.151D-03-0.148D-03 0.184D-02-0.307D-03
 Coeff:     -0.363D-01 0.744D-02 0.471D+00-0.195D+01 0.251D+01
 Gap=     0.098 Goal=   None    Shift=    0.200
 RMSDP=2.11D-07 MaxDP=2.94D-05 DE=-8.52D-10 OVMax= 1.86D-05

 Cycle  12  Pass 1  IDiag  1:
 E= -1794.80052517545     Delta-E=       -0.000000000233 Rises=F Damp=F
 DIIS: error= 6.26D-07 at cycle  12 NSaved=  12.
 NSaved=12 IEnMin=12 EnMin= -1794.80052517545     IErMin=12 ErrMin= 6.26D-07
 ErrMax= 6.26D-07  0.00D+00 EMaxC= 1.00D-01 BMatC= 2.16D-11 BMatP= 6.54D-11
 IDIUse=1 WtCom= 1.00D+00 WtEn= 0.00D+00
 Coeff-Com: -0.362D-04 0.764D-04-0.206D-03 0.590D-03 0.689D-03 0.136D-02
 Coeff-Com: -0.229D-01 0.205D-01 0.106D+00-0.346D+00-0.621D+00 0.186D+01
 Coeff:     -0.362D-04 0.764D-04-0.206D-03 0.590D-03 0.689D-03 0.136D-02
 Coeff:     -0.229D-01 0.205D-01 0.106D+00-0.346D+00-0.621D+00 0.186D+01
 Gap=     0.098 Goal=   None    Shift=    0.200
 RMSDP=1.24D-07 MaxDP=1.08D-05 DE=-2.33D-10 OVMax= 1.08D-05

 Cycle  13  Pass 1  IDiag  1:
 E= -1794.80052517553     Delta-E=       -0.000000000077 Rises=F Damp=F
 DIIS: error= 3.40D-07 at cycle  13 NSaved=  13.
 NSaved=13 IEnMin=13 EnMin= -1794.80052517553     IErMin=13 ErrMin= 3.40D-07
 ErrMax= 3.40D-07  0.00D+00 EMaxC= 1.00D-01 BMatC= 6.64D-12 BMatP= 2.16D-11
 IDIUse=1 WtCom= 1.00D+00 WtEn= 0.00D+00
 Coeff-Com: -0.484D-04 0.977D-04 0.115D-03-0.243D-03-0.429D-03 0.331D-02
 Coeff-Com: -0.964D-02 0.122D-01 0.346D-01-0.277D+00 0.829D+00-0.213D+01
 Coeff-Com:  0.254D+01
 Coeff:     -0.484D-04 0.977D-04 0.115D-03-0.243D-03-0.429D-03 0.331D-02
 Coeff:     -0.964D-02 0.122D-01 0.346D-01-0.277D+00 0.829D+00-0.213D+01
 Coeff:      0.254D+01
 Gap=     0.098 Goal=   None    Shift=    0.200
 RMSDP=7.17D-08 MaxDP=9.75D-06 DE=-7.69D-11 OVMax= 5.21D-06

 Cycle  14  Pass 1  IDiag  1:
 E= -1794.80052517555     Delta-E=       -0.000000000019 Rises=F Damp=F
 DIIS: error= 1.97D-07 at cycle  14 NSaved=  14.
 NSaved=14 IEnMin=14 EnMin= -1794.80052517555     IErMin=14 ErrMin= 1.97D-07
 ErrMax= 1.97D-07  0.00D+00 EMaxC= 1.00D-01 BMatC= 2.48D-12 BMatP= 6.64D-12
 IDIUse=1 WtCom= 1.00D+00 WtEn= 0.00D+00
 Coeff-Com: -0.818D-05 0.165D-04 0.642D-04-0.185D-03-0.292D-03 0.160D-02
 Coeff-Com: -0.355D-02 0.131D-01 0.216D-01-0.258D+00 0.691D+00-0.110D+01
 Coeff-Com: -0.367D-01 0.167D+01
 Coeff:     -0.818D-05 0.165D-04 0.642D-04-0.185D-03-0.292D-03 0.160D-02
 Coeff:     -0.355D-02 0.131D-01 0.216D-01-0.258D+00 0.691D+00-0.110D+01
 Coeff:     -0.367D-01 0.167D+01
 Gap=     0.098 Goal=   None    Shift=    0.200
 RMSDP=3.82D-08 MaxDP=3.16D-06 DE=-1.89D-11 OVMax= 3.24D-06

 Cycle  15  Pass 1  IDiag  1:
 E= -1794.80052517556     Delta-E=       -0.000000000010 Rises=F Damp=F
 DIIS: error= 1.11D-07 at cycle  15 NSaved=  15.
 NSaved=15 IEnMin=15 EnMin= -1794.80052517556     IErMin=15 ErrMin= 1.11D-07
 ErrMax= 1.11D-07  0.00D+00 EMaxC= 1.00D-01 BMatC= 8.82D-13 BMatP= 2.48D-12
 IDIUse=1 WtCom= 1.00D+00 WtEn= 0.00D+00
 Coeff-Com:  0.803D-05-0.159D-04 0.147D-04 0.484D-04 0.178D-03-0.133D-02
 Coeff-Com:  0.199D-02-0.675D-02 0.308D-01-0.614D-01 0.990D-01-0.344D+00
 Coeff-Com:  0.988D+00-0.265D+01 0.294D+01
 Coeff:      0.803D-05-0.159D-04 0.147D-04 0.484D-04 0.178D-03-0.133D-02
 Coeff:      0.199D-02-0.675D-02 0.308D-01-0.614D-01 0.990D-01-0.344D+00
 Coeff:      0.988D+00-0.265D+01 0.294D+01
 Gap=     0.098 Goal=   None    Shift=    0.200
 RMSDP=2.57D-08 MaxDP=2.19D-06 DE=-1.02D-11 OVMax= 1.86D-06

 Cycle  16  Pass 1  IDiag  1:
 E= -1794.80052517556     Delta-E=       -0.000000000005 Rises=F Damp=F
 DIIS: error= 6.57D-08 at cycle  16 NSaved=  16.
 NSaved=16 IEnMin=16 EnMin= -1794.80052517556     IErMin=16 ErrMin= 6.57D-08
 ErrMax= 6.57D-08  0.00D+00 EMaxC= 1.00D-01 BMatC= 3.50D-13 BMatP= 8.82D-13
 IDIUse=1 WtCom= 1.00D+00 WtEn= 0.00D+00
 Large coefficients: NSaved= 16 BigCof=    0.00 CofMax=   10.00 Det=-1.47D-15
 Inversion failed.  Reducing to 15 matrices.
 Coeff-Com: -0.158D-06 0.278D-04-0.401D-04 0.185D-03-0.428D-03 0.414D-03
 Coeff-Com: -0.353D-02 0.153D-01-0.349D-01 0.134D+00-0.474D+00 0.766D+00
 Coeff-Com: -0.854D+00-0.204D+00 0.165D+01
 Coeff:     -0.158D-06 0.278D-04-0.401D-04 0.185D-03-0.428D-03 0.414D-03
 Coeff:     -0.353D-02 0.153D-01-0.349D-01 0.134D+00-0.474D+00 0.766D+00
 Coeff:     -0.854D+00-0.204D+00 0.165D+01
 Gap=     0.098 Goal=   None    Shift=    0.200
 RMSDP=1.35D-08 MaxDP=1.29D-06 DE=-4.77D-12 OVMax= 1.15D-06

 Cycle  17  Pass 1  IDiag  1:
 E= -1794.80052517556     Delta-E=        0.000000000002 Rises=F Damp=F
 DIIS: error= 4.00D-08 at cycle  17 NSaved=  16.
 NSaved=16 IEnMin=15 EnMin= -1794.80052517556     IErMin=16 ErrMin= 4.00D-08
 ErrMax= 4.00D-08  0.00D+00 EMaxC= 1.00D-01 BMatC= 1.39D-13 BMatP= 3.50D-13
 IDIUse=1 WtCom= 1.00D+00 WtEn= 0.00D+00
 Large coefficients: NSaved= 16 BigCof=    0.00 CofMax=   10.00 Det=-1.21D-15
 Inversion failed.  Reducing to 15 matrices.
 Coeff-Com:  0.912D-07-0.209D-04-0.907D-05 0.215D-03-0.677D-03 0.218D-02
 Coeff-Com: -0.255D-02-0.891D-02 0.495D-01-0.104D+00 0.166D+00-0.374D+00
 Coeff-Com:  0.773D+00-0.232D+01 0.282D+01
 Coeff:      0.912D-07-0.209D-04-0.907D-05 0.215D-03-0.677D-03 0.218D-02
 Coeff:     -0.255D-02-0.891D-02 0.495D-01-0.104D+00 0.166D+00-0.374D+00
 Coeff:      0.773D+00-0.232D+01 0.282D+01
 Gap=     0.098 Goal=   None    Shift=    0.200
 RMSDP=9.56D-09 MaxDP=8.93D-07 DE= 2.05D-12 OVMax= 6.76D-07

 SCF Done:  E(ROHF) =  -1794.80052518     A.U. after   17 cycles
            NFock= 17  Conv=0.96D-08     -V/T= 1.9478
 <Sx>= 0.0000 <Sy>= 0.0000 <Sz>= 0.5000 <S**2>= 0.7500 S= 0.5000
 <L.S>=  0.00000000000    
 KE= 1.893683679390D+03 PE=-4.419371010428D+03 EE= 7.203032616440D+02
 Annihilation of the first spin contaminant:
 S**2 before annihilation     0.7500,   after     0.7500
 Leave Link  502 at Sat Apr 21 10:41:40 2018, MaxMem= 21474836480 cpu:              90.7 elap:               4.2
 (Enter /home1/apps/gaussian/16rA.03/g16/l801.exe)
 Windowed orbitals will be sorted by symmetry type.
 GenMOA:  NOpAll=  4 NOp2=4 NOpUse=  4 JSym2X=1
 FoFJK:  IHMeth= 1 ICntrl=       0 DoSepK=F KAlg= 0 I1Cent=           0 FoldK=F
 IRaf=         0 NMat=       1 IRICut=       1 DoRegI=T DoRafI=F ISym2E= 1 IDoP0=0 IntGTp=1.
 FoFCou: FMM=F IPFlag=           8 FMFlag=      100000 FMFlg1=           0
         NFxFlg=           0 DoJE=F BraDBF=F KetDBF=F FulRan=T
         wScrn=  0.000000 ICntrl=         0 IOpCl=  1 I1Cent=           0 NGrid=           0
         NMat0=    1 NMatS0=      1 NMatT0=    0 NMatD0=    1 NMtDS0=    0 NMtDT0=    0
 Petite list used in FoFCou.
 <Sx>= 0.0000 <Sy>= 0.0000 <Sz>= 0.5000 <S**2>= 0.7500 S= 0.5000
 ExpMin= 1.59D-02 ExpMax= 5.82D+06 ExpMxC= 5.82D+06 IAcc=4 IRadAn=    199590 AccDes= 0.00D+00
 HarFok:  IExCor=  205 AccDes= 0.00D+00 IRadAn=    199590 IDoV=-2 UseB2=F ITyADJ=14
 ICtDFT= 12500011 ScaDFX=  1.000000  1.000000  1.000000  1.000000
 DSYEVD-2 returned Info=       18526 IAlg= 4 N=   190 NDim=   190 NE2=   113023779 trying  DSYEV.
 Largest valence mixing into a core orbital is  7.57D-05
 Largest core mixing into a valence orbital is  2.13D-05
 Largest valence mixing into a core orbital is  7.57D-05
 Largest core mixing into a valence orbital is  2.13D-05
 Range of M.O.s used for correlation:     6   215
 NBasis=   215 NAE=    16 NBE=    15 NFC=     5 NFV=     0
 NROrb=    210 NOA=    11 NOB=    10 NVA=   199 NVB=   200

 **** Warning!!: The largest alpha MO coefficient is  0.20264376D+03


 **** Warning!!: The largest beta MO coefficient is  0.20264442D+03

 Singles contribution to E2=   -0.9680694899D-03
 Leave Link  801 at Sat Apr 21 10:41:42 2018, MaxMem= 21474836480 cpu:              26.6 elap:               0.9
 (Enter /home1/apps/gaussian/16rA.03/g16/l804.exe)
 Open-shell transformation, MDV= 21474836480 ITran=4 ISComp=2.
 Unit  1 TFree=       1395324 TCopy=       1164346.
 Semi-Direct transformation.
 ModeAB=           2 MOrb=            11 LenV=   21473378783
 LASXX=     12635546 LTotXX=    12635546 LenRXX=    12635546
 LTotAB=    12895983 MaxLAS=    77179410 LenRXY=    77179410
 NonZer=    78690150 LenScr=   118801920 LnRSAI=           0
 LnScr1=           0 LExtra=     7633084 Total=    216249960
 MaxDsk= 67108864000 SrtSym=           F ITran=            4
 DoSDTr:  NPSUse= 32
 JobTyp=1 Pass  1:  I=   1 to  11.
 (rs|ai) integrals will be sorted in core.
 Complete sort for first half transformation.
 First half transformation complete.
 Begin second half transformation for I=  10.
 Begin second half transformation for I=  10.
 Complete sort for second half transformation.
 Second half transformation complete.
 ModeAB=           2 MOrb=            10 LenV=   21473378783
 LASXX=     11482507 LTotXX=    11482507 LenRXX=    70163100
 LTotAB=    10505990 MaxLAS=    70163100 LenRXY=    10505990
 NonZer=    71536500 LenScr=   108071424 LnRSAI=           0
 LnScr1=           0 LExtra=    97448040 Total=    286188554
 MaxDsk= 67108864000 SrtSym=           F ITran=            4
 DoSDTr:  NPSUse= 32
 JobTyp=2 Pass  1:  I=   1 to  10.
 (rs|ai) integrals will be sorted in core.
 Complete sort for first half transformation.
 First half transformation complete.
 Begin second half transformation for I=  10.
 Begin second half transformation for I=  10.
 Complete sort for second half transformation.
 Second half transformation complete.
 Spin components of T(2) and E(2):
     alpha-alpha T2 =       0.1891859528D-01 E2=     -0.1727729927D+00
     alpha-beta  T2 =       0.7667364528D-01 E2=     -0.7007857461D+00
     beta-beta   T2 =       0.1630222602D-01 E2=     -0.1641174655D+00
 ANorm=    0.1054932469D+01
 E2 =    -0.1038644274D+01 EUMP2 =    -0.17958391694494D+04
 (S**2,0)=  0.75000D+00           (S**2,1)=  0.75000D+00
 E(PUHF)=      -0.17948005252D+04        E(PMP2)=      -0.17958391694D+04
 Leave Link  804 at Sat Apr 21 10:42:14 2018, MaxMem= 21474836480 cpu:            1016.7 elap:              31.9
 (Enter /home1/apps/gaussian/16rA.03/g16/l913.exe)
 CIDS:  MDV= 21474836480.
 Frozen-core window:  NFC=   5 NFV=   0.
 IFCWin=0 IBDFC=1 NFBD=     0     0 NFCmp=     0     0 NFFFC=     0     0
 Using original routines for 1st iteration.
 Using DD4UQ or CC4UQ for 2nd and later iterations.
 Keep R2 and R3 ints in memory in symmetry-blocked form, NReq=338809967.
 FoFCou: FMM=F IPFlag=           8 FMFlag=           0 FMFlg1=           0
         NFxFlg=           0 DoJE=F BraDBF=F KetDBF=F FulRan=T
         wScrn=  0.000000 ICntrl=       600 IOpCl=  0 I1Cent=           0 NGrid=           0
         NMat0=    1 NMatS0=  23220 NMatT0=    0 NMatD0=    1 NMtDS0=    0 NMtDT0=    0
 Petite list used in FoFCou.
 CIDS: In Core Option IDoMem=           1.
 CCSD(T)
 =======
 Iterations= 150 Convergence= 0.100D-06
 Produce multiple copies of IABC intergrals
 Iteration Nr.   1
 **********************
 DD1Dir will call FoFMem   1 times, MxPair=       320
 NAB=   110 NAA=    55 NBB=    45.
 DD1Dir will call FoFMem   1 times, MxPair=       320
 NAB=   110 NAA=    55 NBB=    45.
 MP4(R+Q)= -0.16652409D+00
 Maximum subspace dimension=  5
 A-vector RMS=  1.1349863D-04 Max=  1.1035015D-03 conv= 1.00D-05.
 RLE energy=       -1.0506399187
 E3=        0.15462213D+00        EROMP3=      -0.17956845473D+04
 E4(SDQ)=  -0.98384683D-01        ROMP4(SDQ)=  -0.17957829320D+04
 VARIATIONAL ENERGIES WITH THE FIRST-ORDER WAVEFUNCTION:
 DE(Corr)=  -1.0505037     E(Corr)=     -1795.8510288    
 NORM(A)=   0.10559055D+01
 Iteration Nr.   2
 **********************
 DD1Dir will call FoFMem   1 times, MxPair=       320
 NAB=   110 NAA=    55 NBB=    45.
 A-vector RMS=  3.4767739D-03 Max=  2.5627615D-02 conv= 1.00D-05.
 RLE energy=       -1.0265912483
 DE(Corr)= -0.88846072     E(CORR)=     -1795.6889859     Delta= 1.62D-01
 NORM(A)=   0.10531281D+01
 Iteration Nr.   3
 **********************
 DD1Dir will call FoFMem   1 times, MxPair=       320
 NAB=   110 NAA=    55 NBB=    45.
 A-vector RMS=  2.8199305D-03 Max=  2.3314656D-02 conv= 1.00D-05.
 RLE energy=       -0.9708266197
 DE(Corr)= -0.89837028     E(CORR)=     -1795.6988955     Delta=-9.91D-03
 NORM(A)=   0.10517173D+01
 Iteration Nr.   4
 **********************
 DD1Dir will call FoFMem   1 times, MxPair=       320
 NAB=   110 NAA=    55 NBB=    45.
 A-vector RMS=  1.5068738D-03 Max=  1.4983464D-02 conv= 1.00D-05.
 RLE energy=       -0.8416041289
 DE(Corr)= -0.92544394     E(CORR)=     -1795.7259691     Delta=-2.71D-02
 NORM(A)=   0.10807078D+01
 Iteration Nr.   5
 **********************
 DD1Dir will call FoFMem   1 times, MxPair=       320
 NAB=   110 NAA=    55 NBB=    45.
 A-vector RMS=  3.3184623D-03 Max=  2.0512057D-02 conv= 1.00D-05.
 RLE energy=       -0.9382470020
 DE(Corr)=  -1.0037347     E(CORR)=     -1795.8042599     Delta=-7.83D-02
 NORM(A)=   0.10645028D+01
 Iteration Nr.   6
 **********************
 DD1Dir will call FoFMem   1 times, MxPair=       320
 NAB=   110 NAA=    55 NBB=    45.
 A-vector RMS=  2.5408544D-04 Max=  2.0757785D-03 conv= 1.00D-05.
 RLE energy=       -0.9454724243
 DE(Corr)= -0.94912125     E(CORR)=     -1795.7496464     Delta= 5.46D-02
 NORM(A)=   0.10621153D+01
 Iteration Nr.   7
 **********************
 DD1Dir will call FoFMem   1 times, MxPair=       320
 NAB=   110 NAA=    55 NBB=    45.
 A-vector RMS=  9.4454543D-05 Max=  1.7337922D-03 conv= 1.00D-05.
 RLE energy=       -0.9442723876
 DE(Corr)= -0.94433511     E(CORR)=     -1795.7448603     Delta= 4.79D-03
 NORM(A)=   0.10628493D+01
 Iteration Nr.   8
 **********************
 DD1Dir will call FoFMem   1 times, MxPair=       320
 NAB=   110 NAA=    55 NBB=    45.
 A-vector RMS=  5.2896596D-05 Max=  6.3855664D-04 conv= 1.00D-05.
 RLE energy=       -0.9446762251
 DE(Corr)= -0.94490292     E(CORR)=     -1795.7454281     Delta=-5.68D-04
 NORM(A)=   0.10630994D+01
 Iteration Nr.   9
 **********************
 DD1Dir will call FoFMem   1 times, MxPair=       320
 NAB=   110 NAA=    55 NBB=    45.
 A-vector RMS=  2.3398158D-05 Max=  1.7651037D-04 conv= 1.00D-05.
 RLE energy=       -0.9447310461
 DE(Corr)= -0.94471819     E(CORR)=     -1795.7452434     Delta= 1.85D-04
 NORM(A)=   0.10632360D+01
 Iteration Nr.  10
 **********************
 DD1Dir will call FoFMem   1 times, MxPair=       320
 NAB=   110 NAA=    55 NBB=    45.
 A-vector RMS=  9.2303443D-06 Max=  1.4601479D-04 conv= 1.00D-05.
 RLE energy=       -0.9447264728
 DE(Corr)= -0.94474331     E(CORR)=     -1795.7452685     Delta=-2.51D-05
 NORM(A)=   0.10632286D+01
 Iteration Nr.  11
 **********************
 DD1Dir will call FoFMem   1 times, MxPair=       320
 NAB=   110 NAA=    55 NBB=    45.
 A-vector RMS=  4.7458730D-06 Max=  5.5004648D-05 conv= 1.00D-05.
 RLE energy=       -0.9447277447
 DE(Corr)= -0.94474021     E(CORR)=     -1795.7452654     Delta= 3.10D-06
 NORM(A)=   0.10632097D+01
 Iteration Nr.  12
 **********************
 DD1Dir will call FoFMem   1 times, MxPair=       320
 NAB=   110 NAA=    55 NBB=    45.
 A-vector RMS=  2.1614246D-06 Max=  3.8810309D-05 conv= 1.00D-05.
 RLE energy=       -0.9447343479
 DE(Corr)= -0.94473373     E(CORR)=     -1795.7452589     Delta= 6.48D-06
 NORM(A)=   0.10632010D+01
 Iteration Nr.  13
 **********************
 DD1Dir will call FoFMem   1 times, MxPair=       320
 NAB=   110 NAA=    55 NBB=    45.
 A-vector RMS=  8.0686247D-07 Max=  1.4403296D-05 conv= 1.00D-05.
 RLE energy=       -0.9447271108
 DE(Corr)= -0.94472772     E(CORR)=     -1795.7452529     Delta= 6.01D-06
 NORM(A)=   0.10631982D+01
 Iteration Nr.  14
 **********************
 DD1Dir will call FoFMem   1 times, MxPair=       320
 NAB=   110 NAA=    55 NBB=    45.
 A-vector RMS=  3.7402926D-07 Max=  4.6038629D-06 conv= 1.00D-05.
 RLE energy=       -0.9447289749
 DE(Corr)= -0.94473012     E(CORR)=     -1795.7452553     Delta=-2.40D-06
 NORM(A)=   0.10631975D+01
 Iteration Nr.  15
 **********************
 DD1Dir will call FoFMem   1 times, MxPair=       320
 NAB=   110 NAA=    55 NBB=    45.
 A-vector RMS=  2.2599214D-07 Max=  3.3793915D-06 conv= 1.00D-05.
 RLE energy=       -0.9447288078
 DE(Corr)= -0.94472860     E(CORR)=     -1795.7452538     Delta= 1.53D-06
 NORM(A)=   0.10631982D+01
 Iteration Nr.  16
 **********************
 DD1Dir will call FoFMem   1 times, MxPair=       320
 NAB=   110 NAA=    55 NBB=    45.
 A-vector RMS=  1.1668140D-07 Max=  1.6726244D-06 conv= 1.00D-05.
 RLE energy=       -0.9447290578
 DE(Corr)= -0.94472909     E(CORR)=     -1795.7452543     Delta=-4.92D-07
 NORM(A)=   0.10631988D+01
 Iteration Nr.  17
 **********************
 DD1Dir will call FoFMem   1 times, MxPair=       320
 NAB=   110 NAA=    55 NBB=    45.
 A-vector RMS=  7.0059191D-08 Max=  1.0254643D-06 conv= 1.00D-05.
 RLE energy=       -0.9447291644
 DE(Corr)= -0.94472909     E(CORR)=     -1795.7452543     Delta=-3.15D-09
 NORM(A)=   0.10631995D+01
 CI/CC converged in   17 iterations to DelEn=-3.15D-09 Conv= 1.00D-07 ErrA1= 7.01D-08 Conv= 1.00D-05
 Wavefunction amplitudes converged. E(Corr)=     -1795.7452543    
 Largest amplitude= 7.07D-02
 Time for triples=     4763.02 seconds.
 T4(CCSD)= -0.29795599D-01
 T5(CCSD)=  0.32334189D-02
 CCSD(T)= -0.17957718164D+04
 Discarding MO integrals.
 Leave Link  913 at Sat Apr 21 10:46:03 2018, MaxMem= 21474836480 cpu:            7268.5 elap:             227.9
 (Enter /home1/apps/gaussian/16rA.03/g16/l601.exe)
 Copying SCF densities to generalized density rwf, IOpCl= 0 IROHF=1.

 **********************************************************************

            Population analysis using the SCF density.

 **********************************************************************

 Orbital symmetries:
       Occupied  (SG) (SG) (PI) (PI) (SG) (SG) (PI) (PI) (SG) (DLTA)
                 (DLTA) (SG) (PI) (PI) (SG) (SG)
       Virtual   (PI) (PI) (SG) (SG) (PI) (PI) (SG) (SG) (SG) (PI)
                 (PI) (DLTA) (DLTA) (SG) (PI) (PI) (SG) (PI) (PI)
                 (SG) (SG) (SG) (DLTA) (DLTA) (PI) (PI) (DLTA)
                 (DLTA) (SG) (PI) (PI) (PI) (PI) (SG) (PI) (PI)
                 (SG) (SG) (PHI) (PHI) (DLTA) (DLTA) (PI) (PI)
                 (SG) (SG) (SG) (DLTA) (DLTA) (PI) (PI) (SG) (PI)
                 (PI) (DLTA) (DLTA) (SG) (PI) (PI) (PI) (PI) (SG)
                 (SG) (PHI) (PHI) (DLTA) (DLTA) (PI) (PI) (SG)
                 (DLTA) (DLTA) (PI) (PI) (SG) (?A) (?A) (PHI) (PHI)
                 (DLTA) (DLTA) (SG) (PI) (PI) (SG) (PI) (PI) (SG)
                 (SG) (PHI) (PHI) (DLTA) (DLTA) (PI) (PI) (SG)
                 (DLTA) (DLTA) (PI) (PI) (SG) (PI) (PI) (SG) (SG)
                 (?A) (?A) (PHI) (PHI) (DLTA) (DLTA) (PI) (PI)
                 (SG) (DLTA) (DLTA) (PI) (PI) (SG) (PHI) (PHI)
                 (DLTA) (DLTA) (PI) (PI) (PI) (PI) (SG) (SG) (SG)
                 (?A) (?A) (PHI) (PHI) (DLTA) (DLTA) (PI) (PI)
                 (SG) (DLTA) (DLTA) (PI) (PI) (SG) (SG) (PI) (PI)
                 (SG) (SG) (DLTA) (DLTA) (PI) (PI) (SG) (PI) (PI)
                 (SG) (SG) (DLTA) (DLTA) (PI) (PI) (SG) (PI) (PI)
                 (SG) (SG) (PI) (PI) (SG) (DLTA) (DLTA) (PI) (PI)
                 (SG) (PI) (PI) (SG) (SG) (PI) (PI) (SG) (SG) (PI)
                 (PI) (SG) (SG) (SG) (PI) (PI) (SG) (SG) (PI) (PI)
                 (SG) (SG) (SG) (SG) (SG)
 The electronic state is 2-SG.
 Alpha  occ. eigenvalues -- -357.59276 -45.36107 -39.16401 -39.16401 -39.16301
 Alpha  occ. eigenvalues --   -5.83101  -3.90992  -3.90971  -3.90971  -0.80038
 Alpha  occ. eigenvalues --   -0.79779  -0.79779  -0.79338  -0.79338  -0.46696
 Alpha  occ. eigenvalues --   -0.27504
 Alpha virt. eigenvalues --    0.02106   0.02106   0.02844   0.03972   0.07721
 Alpha virt. eigenvalues --    0.07721   0.08863   0.15840   0.18578   0.24264
 Alpha virt. eigenvalues --    0.24264   0.25022   0.25022   0.25715   0.29276
 Alpha virt. eigenvalues --    0.29276   0.35310   0.38331   0.38331   0.56579
 Alpha virt. eigenvalues --    0.58945   0.65041   0.85548   0.85548   0.85556
 Alpha virt. eigenvalues --    0.85556   0.91572   0.91572   0.97063   1.05271
 Alpha virt. eigenvalues --    1.05271   1.11528   1.11528   1.13767   1.28594
 Alpha virt. eigenvalues --    1.28594   1.31155   1.71454   1.85298   1.85298
 Alpha virt. eigenvalues --    1.96887   1.96887   2.31973   2.31973   2.42712
 Alpha virt. eigenvalues --    2.57764   2.65107   2.74415   2.74415   2.74681
 Alpha virt. eigenvalues --    2.74681   2.98677   3.50353   3.50353   3.93065
 Alpha virt. eigenvalues --    3.93065   3.93480   4.15958   4.15958   4.32182
 Alpha virt. eigenvalues --    4.32182   4.61203   5.12035   5.33868   5.33868
 Alpha virt. eigenvalues --    5.40316   5.40316   5.60416   5.60416   5.78387
 Alpha virt. eigenvalues --    7.19294   7.19294   7.25631   7.25631   7.45093
 Alpha virt. eigenvalues --    7.74690   7.74690   7.75273   7.75273   7.76602
 Alpha virt. eigenvalues --    7.76602   7.92359   7.93285   7.93285   8.62362
 Alpha virt. eigenvalues --    8.81644   8.81644   9.12489  10.33377  13.75280
 Alpha virt. eigenvalues --   13.75280  13.79621  13.79621  13.93810  13.93810
 Alpha virt. eigenvalues --   14.04648  15.82707  15.82707  15.87310  15.87310
 Alpha virt. eigenvalues --   16.19118  18.61670  18.61670  18.69045  18.98205
 Alpha virt. eigenvalues --   20.18373  20.18373  20.18803  20.18803  20.19539
 Alpha virt. eigenvalues --   20.19539  20.26848  20.26848  20.52113  30.75339
 Alpha virt. eigenvalues --   30.75339  30.79308  30.79308  31.08706  35.93650
 Alpha virt. eigenvalues --   35.93650  35.96726  35.96726  36.04128  36.04128
 Alpha virt. eigenvalues --   36.10227  36.10227  36.10750  36.40696  39.58441
 Alpha virt. eigenvalues --   47.19008  47.19008  47.19484  47.19484  47.20050
 Alpha virt. eigenvalues --   47.20050  47.24381  47.24381  47.38515  55.39466
 Alpha virt. eigenvalues --   55.39466  55.43141  55.43141  55.70775  61.89680
 Alpha virt. eigenvalues --   66.76874  66.76874  67.05402  81.33560  99.56103
 Alpha virt. eigenvalues --   99.56103  99.59391  99.59391  99.84344 121.24325
 Alpha virt. eigenvalues --  121.24325 121.50182 178.56452 212.96215 212.96215
 Alpha virt. eigenvalues --  212.98695 212.98695 213.18923 229.04996 229.04996
 Alpha virt. eigenvalues --  229.28491 429.25280 466.68709 466.68709 466.89334
 Alpha virt. eigenvalues --  640.29792 640.29792 640.31291 640.31291 640.44395
 Alpha virt. eigenvalues -- 1015.259491015.259491015.435141058.562582313.17176
 Alpha virt. eigenvalues -- 2313.171762313.314202546.553695450.515805450.51580
 Alpha virt. eigenvalues -- 5450.620025873.56355******************************
 Alpha virt. eigenvalues -- **************************************************
 Alpha virt. eigenvalues -- ****************************************
     Molecular Orbital Coefficients:
                          11        12        13        14        15
                           O         O         O         O         O
     Eigenvalues --    -0.79779  -0.79779  -0.79338  -0.79338  -0.46696
   1 1   Zn 1S          0.00000   0.00000   0.00000   0.00000  -0.00000
   2        2S          0.00000   0.00000   0.00000   0.00000  -0.00001
   3        3S          0.00000   0.00000   0.00000   0.00000  -0.00002
   4        4S          0.00000   0.00000   0.00000   0.00000  -0.00006
   5        5S          0.00000   0.00000   0.00000   0.00000  -0.00016
   6        6S          0.00000   0.00000   0.00000   0.00000  -0.00041
   7        7S          0.00000  -0.00000   0.00000   0.00000  -0.00104
   8        8S          0.00000   0.00000   0.00000   0.00000  -0.00256
   9        9S          0.00000  -0.00000   0.00000   0.00000  -0.00561
  10       10S          0.00000   0.00001   0.00000   0.00000  -0.01039
  11       11S          0.00000  -0.00002   0.00000   0.00000  -0.01154
  12       12S         -0.00000   0.00007   0.00000   0.00000   0.00413
  13       13S         -0.00000  -0.00040   0.00000   0.00000   0.05437
  14       14S         -0.00000   0.00125   0.00000   0.00000   0.06455
  15       15S         -0.00000   0.00494   0.00000   0.00000  -0.06438
  16       16S          0.00000  -0.01784   0.00000   0.00000  -0.04674
  17       17S          0.00000  -0.00884   0.00000   0.00000  -0.11717
  18       18S         -0.00000  -0.02373   0.00000   0.00000   0.24755
  19       19S         -0.00000  -0.00058   0.00000   0.00000   0.19945
  20       20S          0.00000  -0.01365   0.00000   0.00000   0.03584
  21       21S          0.00000  -0.00346   0.00000   0.00000   0.02060
  22       22S         -0.00000   0.02324   0.00000   0.00000  -0.12283
  23       23S         -0.00000  -0.00073   0.00000   0.00000  -0.00997
  24       24PX         0.00000   0.00000   0.00000   0.00000   0.00000
  25       24PY         0.00000   0.00000   0.00000   0.00000   0.00000
  26       24PZ         0.00000  -0.00000   0.00000   0.00000  -0.00000
  27       25PX         0.00000   0.00000   0.00000   0.00000   0.00000
  28       25PY         0.00000   0.00000   0.00000   0.00000   0.00000
  29       25PZ         0.00000  -0.00000   0.00000   0.00000  -0.00002
  30       26PX         0.00000   0.00000   0.00000   0.00000   0.00000
  31       26PY         0.00000   0.00000   0.00000   0.00000   0.00000
  32       26PZ         0.00000  -0.00001   0.00000   0.00000  -0.00009
  33       27PX         0.00000   0.00000   0.00001   0.00000   0.00000
  34       27PY         0.00000   0.00000   0.00000   0.00001   0.00000
  35       27PZ         0.00000  -0.00004   0.00000   0.00000  -0.00034
  36       28PX         0.00000   0.00000   0.00002   0.00000   0.00000
  37       28PY         0.00000   0.00000   0.00000   0.00002   0.00000
  38       28PZ         0.00000  -0.00015   0.00000   0.00000  -0.00115
  39       29PX         0.00000   0.00000   0.00006   0.00000   0.00000
  40       29PY         0.00000   0.00000   0.00000   0.00006   0.00000
  41       29PZ         0.00000  -0.00040   0.00000   0.00000  -0.00335
  42       30PX         0.00000   0.00000   0.00014   0.00000   0.00000
  43       30PY         0.00000   0.00000   0.00000   0.00014   0.00000
  44       30PZ         0.00000  -0.00098   0.00000   0.00000  -0.00748
  45       31PX         0.00000   0.00000   0.00022   0.00000   0.00000
  46       31PY         0.00000   0.00000   0.00000   0.00022   0.00000
  47       31PZ         0.00000  -0.00143   0.00000   0.00000  -0.01292
  48       32PX         0.00000   0.00000   0.00032   0.00000   0.00000
  49       32PY         0.00000   0.00000   0.00000   0.00032   0.00000
  50       32PZ         0.00000  -0.00226   0.00000   0.00000  -0.01096
  51       33PX         0.00000   0.00000   0.00069   0.00000   0.00000
  52       33PY         0.00000   0.00000   0.00000   0.00069   0.00000
  53       33PZ         0.00000  -0.00514   0.00000   0.00000   0.01606
  54       34PX         0.00000   0.00000  -0.00116   0.00000   0.00000
  55       34PY         0.00000   0.00000   0.00000  -0.00116   0.00000
  56       34PZ        -0.00000   0.00814   0.00000   0.00000   0.02922
  57       35PX         0.00000   0.00000  -0.00501   0.00000   0.00000
  58       35PY         0.00000   0.00000   0.00000  -0.00501   0.00000
  59       35PZ        -0.00000   0.03042   0.00000   0.00000   0.01737
  60       36PX         0.00000   0.00000   0.00067   0.00000   0.00000
  61       36PY         0.00000   0.00000   0.00000   0.00067   0.00000
  62       36PZ        -0.00000   0.00157   0.00000   0.00000   0.03496
  63       37PX         0.00000   0.00000  -0.00010   0.00000   0.00000
  64       37PY         0.00000   0.00000   0.00000  -0.00010   0.00000
  65       37PZ        -0.00000  -0.00177   0.00000   0.00000  -0.05560
  66       38PX         0.00000   0.00000  -0.00012   0.00000   0.00000
  67       38PY         0.00000   0.00000   0.00000  -0.00012   0.00000
  68       38PZ         0.00000  -0.00806   0.00000   0.00000  -0.09870
  69       39PX         0.00000   0.00000   0.00126   0.00000   0.00000
  70       39PY         0.00000   0.00000   0.00000   0.00126   0.00000
  71       39PZ         0.00000   0.00130   0.00000   0.00000  -0.02028
  72       40PX         0.00000   0.00000  -0.00068   0.00000   0.00000
  73       40PY         0.00000   0.00000   0.00000  -0.00068   0.00000
  74       40PZ        -0.00000   0.00509   0.00000   0.00000  -0.00916
  75       41PX         0.00000   0.00000   0.00394   0.00000   0.00000
  76       41PY         0.00000   0.00000   0.00000   0.00394   0.00000
  77       41PZ         0.00000  -0.02497   0.00000   0.00000   0.03178
  78       42PX         0.00000   0.00000  -0.00024   0.00000   0.00000
  79       42PY         0.00000   0.00000   0.00000  -0.00024   0.00000
  80       42PZ        -0.00000   0.00059   0.00000   0.00000   0.00161
  81       43D 0       -0.00000   0.00241   0.00000   0.00000  -0.00042
  82       43D+1        0.00000   0.00000   0.00246   0.00000   0.00000
  83       43D-1        0.00000   0.00000   0.00000   0.00246   0.00000
  84       43D+2        0.00246   0.00000   0.00000   0.00000  -0.00000
  85       43D-2        0.00000   0.00000   0.00000   0.00000   0.00000
  86       44D 0       -0.00000   0.01830   0.00000   0.00000  -0.00320
  87       44D+1        0.00000   0.00000   0.01873   0.00000   0.00000
  88       44D-1        0.00000   0.00000   0.00000   0.01873   0.00000
  89       44D+2        0.01874   0.00000   0.00000   0.00000  -0.00000
  90       44D-2        0.00000   0.00000   0.00000   0.00000   0.00000
  91       45D 0       -0.00000   0.07525   0.00000   0.00000  -0.01316
  92       45D+1        0.00000   0.00000   0.07702   0.00000   0.00000
  93       45D-1        0.00000   0.00000   0.00000   0.07702   0.00000
  94       45D+2        0.07706   0.00000   0.00000   0.00000  -0.00000
  95       45D-2        0.00000   0.00000   0.00000   0.00000   0.00000
  96       46D 0       -0.00000   0.19371   0.00000   0.00000  -0.03390
  97       46D+1        0.00000   0.00000   0.19818   0.00000   0.00000
  98       46D-1        0.00000   0.00000   0.00000   0.19818   0.00000
  99       46D+2        0.19818   0.00000   0.00000   0.00000  -0.00000
 100       46D-2        0.00000   0.00000   0.00000   0.00000   0.00000
 101       47D 0       -0.00000   0.28310   0.00000   0.00000  -0.05138
 102       47D+1        0.00000   0.00000   0.28998   0.00000   0.00000
 103       47D-1        0.00000   0.00000   0.00000   0.28998   0.00000
 104       47D+2        0.28945   0.00000   0.00000   0.00000  -0.00000
 105       47D-2        0.00000   0.00000   0.00000   0.00000   0.00000
 106       48D 0       -0.00000   0.35061   0.00000   0.00000  -0.06137
 107       48D+1        0.00000   0.00000   0.35881   0.00000   0.00000
 108       48D-1        0.00000   0.00000   0.00000   0.35881   0.00000
 109       48D+2        0.35899   0.00000   0.00000   0.00000  -0.00000
 110       48D-2        0.00000   0.00000   0.00000   0.00000   0.00000
 111       49D 0       -0.00000   0.27053   0.00000   0.00000  -0.04005
 112       49D+1        0.00000   0.00000   0.27425   0.00000   0.00000
 113       49D-1        0.00000   0.00000   0.00000   0.27425   0.00000
 114       49D+2        0.27563   0.00000   0.00000   0.00000  -0.00000
 115       49D-2        0.00000   0.00000   0.00000   0.00000   0.00000
 116       50D 0       -0.00000   0.10364   0.00000   0.00000  -0.00811
 117       50D+1        0.00000   0.00000   0.10418   0.00000   0.00000
 118       50D-1        0.00000   0.00000   0.00000   0.10418   0.00000
 119       50D+2        0.10270   0.00000   0.00000   0.00000   0.00000
 120       50D-2        0.00000   0.00000   0.00000   0.00000   0.00000
 121       51D 0        0.00000   0.00456   0.00000   0.00000  -0.00076
 122       51D+1        0.00000   0.00000   0.00478   0.00000   0.00000
 123       51D-1        0.00000   0.00000   0.00000   0.00478   0.00000
 124       51D+2        0.00490   0.00000   0.00000   0.00000   0.00000
 125       51D-2        0.00000   0.00000   0.00000   0.00000   0.00000
 126       52D 0        0.00000   0.03678   0.00000   0.00000  -0.00411
 127       52D+1        0.00000   0.00000   0.03716   0.00000   0.00000
 128       52D-1        0.00000   0.00000   0.00000   0.03716   0.00000
 129       52D+2        0.03777   0.00000   0.00000   0.00000   0.00000
 130       52D-2        0.00000   0.00000   0.00000   0.00000   0.00000
 131       53D 0        0.00000   0.00519   0.00000   0.00000   0.00849
 132       53D+1        0.00000   0.00000   0.00416   0.00000   0.00000
 133       53D-1        0.00000   0.00000   0.00000   0.00416   0.00000
 134       53D+2        0.00375  -0.00000   0.00000   0.00000   0.00000
 135       53D-2        0.00000   0.00000   0.00000   0.00000   0.00000
 136       54F 0       -0.00000   0.00008   0.00000   0.00000  -0.00015
 137       54F+1        0.00000   0.00000   0.00012   0.00000   0.00000
 138       54F-1        0.00000   0.00000   0.00000   0.00012   0.00000
 139       54F+2        0.00009   0.00000   0.00000   0.00000  -0.00000
 140       54F-2        0.00000   0.00000   0.00000   0.00000   0.00000
 141       54F+3        0.00000   0.00000  -0.00000   0.00000   0.00000
 142       54F-3        0.00000   0.00000   0.00000  -0.00000   0.00000
 143       55F 0       -0.00000   0.00026   0.00000   0.00000  -0.00023
 144       55F+1        0.00000   0.00000   0.00025   0.00000   0.00000
 145       55F-1        0.00000   0.00000   0.00000   0.00025   0.00000
 146       55F+2        0.00023   0.00000   0.00000   0.00000  -0.00000
 147       55F-2        0.00000   0.00000   0.00000   0.00000   0.00000
 148       55F+3        0.00000   0.00000  -0.00000   0.00000   0.00000
 149       55F-3        0.00000   0.00000   0.00000  -0.00000   0.00000
 150       56F 0        0.00000   0.00030   0.00000   0.00000  -0.00206
 151       56F+1        0.00000   0.00000   0.00090   0.00000   0.00000
 152       56F-1        0.00000   0.00000   0.00000   0.00090   0.00000
 153       56F+2        0.00060   0.00000   0.00000   0.00000  -0.00000
 154       56F-2        0.00000   0.00000   0.00000   0.00000   0.00000
 155       56F+3        0.00000   0.00000  -0.00000   0.00000   0.00000
 156       56F-3        0.00000   0.00000   0.00000  -0.00000   0.00000
 157       57F 0       -0.00000  -0.00105   0.00000   0.00000  -0.00397
 158       57F+1        0.00000   0.00000  -0.00008   0.00000   0.00000
 159       57F-1        0.00000   0.00000   0.00000  -0.00008   0.00000
 160       57F+2        0.00072   0.00000   0.00000   0.00000  -0.00000
 161       57F-2        0.00000   0.00000   0.00000   0.00000   0.00000
 162       57F+3        0.00000   0.00000  -0.00000   0.00000   0.00000
 163       57F-3        0.00000   0.00000   0.00000  -0.00000   0.00000
 164       58G 0        0.00000  -0.00006   0.00000   0.00000   0.00009
 165       58G+1        0.00000   0.00000  -0.00008   0.00000   0.00000
 166       58G-1        0.00000   0.00000   0.00000  -0.00008   0.00000
 167       58G+2       -0.00007  -0.00000   0.00000   0.00000   0.00000
 168       58G-2        0.00000   0.00000   0.00000   0.00000   0.00000
 169       58G+3        0.00000   0.00000   0.00000   0.00000   0.00000
 170       58G-3        0.00000   0.00000   0.00000   0.00000   0.00000
 171       58G+4        0.00000  -0.00000   0.00000   0.00000  -0.00000
 172       58G-4        0.00000   0.00000   0.00000   0.00000   0.00000
 173       59G 0       -0.00000  -0.00007   0.00000   0.00000  -0.00023
 174       59G+1        0.00000   0.00000   0.00003   0.00000   0.00000
 175       59G-1        0.00000   0.00000   0.00000   0.00003   0.00000
 176       59G+2        0.00007   0.00000   0.00000   0.00000  -0.00000
 177       59G-2        0.00000   0.00000   0.00000   0.00000   0.00000
 178       59G+3        0.00000   0.00000   0.00000   0.00000   0.00000
 179       59G-3        0.00000   0.00000   0.00000   0.00000   0.00000
 180       59G+4        0.00000  -0.00000   0.00000   0.00000   0.00000
 181       59G-4        0.00000   0.00000   0.00000   0.00000   0.00000
 182       60G 0        0.00000  -0.00026   0.00000   0.00000   0.00092
 183       60G+1        0.00000   0.00000  -0.00053   0.00000   0.00000
 184       60G-1        0.00000   0.00000   0.00000  -0.00053   0.00000
 185       60G+2       -0.00050  -0.00000   0.00000   0.00000   0.00000
 186       60G-2        0.00000   0.00000   0.00000   0.00000   0.00000
 187       60G+3        0.00000   0.00000  -0.00000   0.00000   0.00000
 188       60G-3        0.00000   0.00000   0.00000  -0.00000   0.00000
 189       60G+4       -0.00000  -0.00000   0.00000   0.00000  -0.00000
 190       60G-4        0.00000   0.00000   0.00000   0.00000   0.00000
 191 2   H  1S         -0.00000   0.00121   0.00000   0.00000   0.00450
 192        2S         -0.00000   0.00864   0.00000   0.00000   0.03276
 193        3S         -0.00000   0.03607   0.00000   0.00000   0.13289
 194        4S         -0.00000   0.05881   0.00000   0.00000   0.31428
 195        5S          0.00000   0.03183   0.00000   0.00000   0.24850
 196        6S          0.00000   0.00564   0.00000   0.00000   0.01965
 197        7PX         0.00000   0.00000  -0.00232   0.00000   0.00000
 198        7PY         0.00000   0.00000   0.00000  -0.00232   0.00000
 199        7PZ        -0.00000   0.00469   0.00000   0.00000   0.00533
 200        8PX         0.00000   0.00000  -0.00219   0.00000   0.00000
 201        8PY         0.00000   0.00000   0.00000  -0.00219   0.00000
 202        8PZ         0.00000   0.01024   0.00000   0.00000   0.02709
 203        9PX         0.00000   0.00000  -0.00206   0.00000   0.00000
 204        9PY         0.00000   0.00000   0.00000  -0.00206   0.00000
 205        9PZ         0.00000   0.00423   0.00000   0.00000   0.01328
 206       10D 0        0.00000   0.00112   0.00000   0.00000   0.00228
 207       10D+1        0.00000   0.00000  -0.00126   0.00000   0.00000
 208       10D-1        0.00000   0.00000   0.00000  -0.00126   0.00000
 209       10D+2        0.00033  -0.00000   0.00000   0.00000   0.00000
 210       10D-2        0.00000   0.00000   0.00000   0.00000   0.00000
 211       11D 0       -0.00000   0.00323   0.00000   0.00000   0.00159
 212       11D+1        0.00000   0.00000   0.00038   0.00000   0.00000
 213       11D-1        0.00000   0.00000   0.00000   0.00038   0.00000
 214       11D+2       -0.00059  -0.00000   0.00000   0.00000   0.00000
 215       11D-2        0.00000   0.00000   0.00000   0.00000   0.00000
                          16        17        18        19        20
                           O         V         V         V         V
     Eigenvalues --    -0.27504   0.02106   0.02106   0.02844   0.03972
   1 1   Zn 1S         -0.00000   0.00000   0.00000   0.00000   0.00000
   2        2S         -0.00001   0.00000   0.00000   0.00000   0.00000
   3        3S         -0.00002   0.00000   0.00000   0.00001   0.00000
   4        4S         -0.00006   0.00000   0.00000   0.00001   0.00001
   5        5S         -0.00014   0.00000   0.00000   0.00003   0.00003
   6        6S         -0.00036   0.00000   0.00000   0.00008   0.00007
   7        7S         -0.00093   0.00000   0.00000   0.00023   0.00019
   8        8S         -0.00230   0.00000   0.00000   0.00051   0.00041
   9        9S         -0.00507   0.00000   0.00000   0.00125   0.00106
  10       10S         -0.00929   0.00000   0.00000   0.00197   0.00153
  11       11S         -0.01056   0.00000   0.00000   0.00299   0.00268
  12       12S          0.00425   0.00000   0.00000  -0.00256  -0.00280
  13       13S          0.04715   0.00000   0.00000  -0.00574  -0.00234
  14       14S          0.06927   0.00000   0.00000  -0.04711  -0.05245
  15       15S         -0.02581   0.00000   0.00000  -0.07935  -0.10384
  16       16S         -0.17924   0.00000   0.00000   0.35630   0.43933
  17       17S         -0.15492   0.00000   0.00000   0.11322   0.13158
  18       18S          0.22464   0.00000   0.00000  -0.21933  -0.25458
  19       19S          0.56765   0.00000   0.00000   0.83280   0.80501
  20       20S          0.23095   0.00000   0.00000  -0.80769  -1.60079
  21       21S         -0.00728   0.00000   0.00000   0.07267   0.09152
  22       22S          0.03769   0.00000   0.00000  -0.33778  -0.43288
  23       23S          0.01029   0.00000   0.00000   3.35965  -0.16511
  24       24PX         0.00000   0.00000   0.00000   0.00000   0.00000
  25       24PY         0.00000   0.00000   0.00000   0.00000   0.00000
  26       24PZ         0.00001   0.00000   0.00000  -0.00000  -0.00000
  27       25PX         0.00000   0.00000   0.00001   0.00000   0.00000
  28       25PY         0.00000   0.00001   0.00000   0.00000   0.00000
  29       25PZ         0.00003   0.00000   0.00000  -0.00000  -0.00000
  30       26PX         0.00000   0.00000   0.00005   0.00000   0.00000
  31       26PY         0.00000   0.00005   0.00000   0.00000   0.00000
  32       26PZ         0.00012   0.00000   0.00000  -0.00000  -0.00002
  33       27PX         0.00000   0.00000   0.00019   0.00000   0.00000
  34       27PY         0.00000   0.00019   0.00000   0.00000   0.00000
  35       27PZ         0.00048   0.00000   0.00000  -0.00000  -0.00008
  36       28PX         0.00000   0.00000   0.00070   0.00000   0.00000
  37       28PY         0.00000   0.00070   0.00000   0.00000   0.00000
  38       28PZ         0.00162   0.00000   0.00000  -0.00003  -0.00025
  39       29PX         0.00000   0.00000   0.00186   0.00000   0.00000
  40       29PY         0.00000   0.00186   0.00000   0.00000   0.00000
  41       29PZ         0.00470   0.00000   0.00000  -0.00002  -0.00079
  42       30PX         0.00000   0.00000   0.00469   0.00000   0.00000
  43       30PY         0.00000   0.00469   0.00000   0.00000   0.00000
  44       30PZ         0.01048   0.00000   0.00000  -0.00025  -0.00158
  45       31PX         0.00000   0.00000   0.00643   0.00000   0.00000
  46       31PY         0.00000   0.00643   0.00000   0.00000   0.00000
  47       31PZ         0.01817   0.00000   0.00000   0.00018  -0.00329
  48       32PX         0.00000   0.00000   0.01210   0.00000   0.00000
  49       32PY         0.00000   0.01210   0.00000   0.00000   0.00000
  50       32PZ         0.01513   0.00000   0.00000  -0.00226  -0.00056
  51       33PX         0.00000   0.00000   0.03545   0.00000   0.00000
  52       33PY         0.00000   0.03545   0.00000   0.00000   0.00000
  53       33PZ        -0.02508   0.00000   0.00000  -0.01614   0.01869
  54       34PX         0.00000   0.00000  -0.04623   0.00000   0.00000
  55       34PY         0.00000  -0.04623   0.00000   0.00000   0.00000
  56       34PZ        -0.03931   0.00000   0.00000   0.01141  -0.00300
  57       35PX         0.00000   0.00000  -0.18756   0.00000   0.00000
  58       35PY         0.00000  -0.18756   0.00000   0.00000   0.00000
  59       35PZ        -0.00321   0.00000   0.00000   0.06996  -0.05409
  60       36PX         0.00000   0.00000   0.00824   0.00000   0.00000
  61       36PY         0.00000   0.00824   0.00000   0.00000   0.00000
  62       36PZ        -0.05598   0.00000   0.00000  -0.01146   0.01669
  63       37PX         0.00000   0.00000  -0.00303   0.00000   0.00000
  64       37PY         0.00000  -0.00303   0.00000   0.00000   0.00000
  65       37PZ         0.08558   0.00000   0.00000   0.01416  -0.01973
  66       38PX         0.00000   0.00000   0.19709   0.00000   0.00000
  67       38PY         0.00000   0.19709   0.00000   0.00000   0.00000
  68       38PZ         0.29084   0.00000   0.00000  -0.19006  -0.11887
  69       39PX         0.00000   0.00000  -0.04617   0.00000   0.00000
  70       39PY         0.00000  -0.04617   0.00000   0.00000   0.00000
  71       39PZ         0.19257   0.00000   0.00000  -0.31766  -0.44174
  72       40PX         0.00000   0.00000  -0.03424   0.00000   0.00000
  73       40PY         0.00000  -0.03424   0.00000   0.00000   0.00000
  74       40PZ         0.01490   0.00000   0.00000   0.01429  -0.01535
  75       41PX         0.00000   0.00000   0.16035   0.00000   0.00000
  76       41PY         0.00000   0.16035   0.00000   0.00000   0.00000
  77       41PZ        -0.06505   0.00000   0.00000  -0.06909   0.06615
  78       42PX         0.00000   0.00000   0.96033   0.00000   0.00000
  79       42PY         0.00000   0.96033   0.00000   0.00000   0.00000
  80       42PZ         0.00060   0.00000   0.00000  -1.00551   1.75645
  81       43D 0        0.00020   0.00000   0.00000   0.00003  -0.00006
  82       43D+1        0.00000   0.00000  -0.00000   0.00000   0.00000
  83       43D-1        0.00000  -0.00000   0.00000   0.00000   0.00000
  84       43D+2       -0.00000   0.00000   0.00000   0.00000   0.00000
  85       43D-2        0.00000   0.00000   0.00000   0.00000   0.00000
  86       44D 0        0.00151   0.00000   0.00000   0.00024  -0.00040
  87       44D+1        0.00000   0.00000  -0.00003   0.00000   0.00000
  88       44D-1        0.00000  -0.00003   0.00000   0.00000   0.00000
  89       44D+2       -0.00000   0.00000   0.00000   0.00000   0.00000
  90       44D-2        0.00000   0.00000   0.00000   0.00000   0.00000
  91       45D 0        0.00623   0.00000   0.00000   0.00092  -0.00184
  92       45D+1        0.00000   0.00000  -0.00003   0.00000   0.00000
  93       45D-1        0.00000  -0.00003   0.00000   0.00000   0.00000
  94       45D+2       -0.00000   0.00000   0.00000   0.00000   0.00000
  95       45D-2        0.00000   0.00000   0.00000   0.00000   0.00000
  96       46D 0        0.01598   0.00000   0.00000   0.00323  -0.00156
  97       46D+1        0.00000   0.00000  -0.00135   0.00000   0.00000
  98       46D-1        0.00000  -0.00135   0.00000   0.00000   0.00000
  99       46D+2       -0.00000   0.00000   0.00000   0.00000   0.00000
 100       46D-2        0.00000   0.00000   0.00000   0.00000   0.00000
 101       47D 0        0.02352   0.00000   0.00000   0.01775   0.04435
 102       47D+1        0.00000   0.00000  -0.02086   0.00000   0.00000
 103       47D-1        0.00000  -0.02086   0.00000   0.00000   0.00000
 104       47D+2       -0.00000   0.00000   0.00000   0.00000   0.00000
 105       47D-2        0.00000   0.00000   0.00000   0.00000   0.00000
 106       48D 0        0.02869   0.00000   0.00000   0.00535  -0.00432
 107       48D+1        0.00000   0.00000  -0.00179   0.00000   0.00000
 108       48D-1        0.00000  -0.00179   0.00000   0.00000   0.00000
 109       48D+2       -0.00000   0.00000   0.00000   0.00000   0.00000
 110       48D-2        0.00000   0.00000   0.00000   0.00000   0.00000
 111       49D 0        0.02040   0.00000   0.00000   0.00146  -0.00951
 112       49D+1        0.00000   0.00000   0.00160   0.00000   0.00000
 113       49D-1        0.00000   0.00160   0.00000   0.00000   0.00000
 114       49D+2       -0.00000   0.00000   0.00000  -0.00000   0.00000
 115       49D-2        0.00000   0.00000   0.00000   0.00000   0.00000
 116       50D 0        0.02115   0.00000   0.00000   0.01082   0.01107
 117       50D+1        0.00000   0.00000  -0.00521   0.00000   0.00000
 118       50D-1        0.00000  -0.00521   0.00000   0.00000   0.00000
 119       50D+2        0.00000   0.00000   0.00000  -0.00000   0.00000
 120       50D-2        0.00000   0.00000   0.00000   0.00000   0.00000
 121       51D 0        0.00043   0.00000   0.00000  -0.00136  -0.00524
 122       51D+1        0.00000   0.00000   0.00207   0.00000   0.00000
 123       51D-1        0.00000   0.00207   0.00000   0.00000   0.00000
 124       51D+2        0.00000   0.00000   0.00000   0.00000  -0.00000
 125       51D-2        0.00000   0.00000   0.00000   0.00000   0.00000
 126       52D 0        0.00274   0.00000   0.00000  -0.01362  -0.05107
 127       52D+1        0.00000   0.00000   0.02033   0.00000   0.00000
 128       52D-1        0.00000   0.02033   0.00000   0.00000   0.00000
 129       52D+2        0.00000   0.00000   0.00000  -0.00000  -0.00000
 130       52D-2        0.00000   0.00000   0.00000   0.00000   0.00000
 131       53D 0        0.03286   0.00000   0.00000   0.06812   0.06569
 132       53D+1        0.00000   0.00000   0.01765   0.00000   0.00000
 133       53D-1        0.00000   0.01765   0.00000   0.00000   0.00000
 134       53D+2        0.00000   0.00000   0.00000  -0.00000  -0.00000
 135       53D-2        0.00000   0.00000   0.00000   0.00000   0.00000
 136       54F 0        0.00009   0.00000   0.00000   0.00005  -0.00001
 137       54F+1        0.00000   0.00000  -0.00002   0.00000   0.00000
 138       54F-1        0.00000  -0.00002   0.00000   0.00000   0.00000
 139       54F+2       -0.00000   0.00000   0.00000   0.00000   0.00000
 140       54F-2        0.00000   0.00000   0.00000   0.00000   0.00000
 141       54F+3        0.00000   0.00000   0.00000   0.00000   0.00000
 142       54F-3        0.00000  -0.00000   0.00000   0.00000   0.00000
 143       55F 0        0.00017   0.00000   0.00000  -0.00011  -0.00007
 144       55F+1        0.00000   0.00000   0.00005   0.00000   0.00000
 145       55F-1        0.00000   0.00005   0.00000   0.00000   0.00000
 146       55F+2       -0.00000   0.00000   0.00000   0.00000   0.00000
 147       55F-2        0.00000   0.00000   0.00000   0.00000   0.00000
 148       55F+3        0.00000   0.00000   0.00000   0.00000   0.00000
 149       55F-3        0.00000  -0.00000   0.00000   0.00000   0.00000
 150       56F 0        0.00118   0.00000   0.00000   0.00069  -0.00016
 151       56F+1        0.00000   0.00000  -0.00026   0.00000   0.00000
 152       56F-1        0.00000  -0.00026   0.00000   0.00000   0.00000
 153       56F+2       -0.00000   0.00000   0.00000   0.00000   0.00000
 154       56F-2        0.00000   0.00000   0.00000   0.00000   0.00000
 155       56F+3        0.00000   0.00000   0.00000   0.00000   0.00000
 156       56F-3        0.00000  -0.00000   0.00000   0.00000   0.00000
 157       57F 0        0.00215   0.00000   0.00000  -0.00163  -0.00054
 158       57F+1        0.00000   0.00000   0.00101   0.00000   0.00000
 159       57F-1        0.00000   0.00101   0.00000   0.00000   0.00000
 160       57F+2       -0.00000   0.00000   0.00000   0.00000   0.00000
 161       57F-2        0.00000   0.00000   0.00000   0.00000   0.00000
 162       57F+3        0.00000   0.00000   0.00000   0.00000   0.00000
 163       57F-3        0.00000  -0.00000   0.00000   0.00000   0.00000
 164       58G 0       -0.00003   0.00000   0.00000  -0.00001  -0.00000
 165       58G+1        0.00000   0.00000  -0.00001   0.00000   0.00000
 166       58G-1        0.00000  -0.00001   0.00000   0.00000   0.00000
 167       58G+2        0.00000   0.00000   0.00000  -0.00000  -0.00000
 168       58G-2        0.00000   0.00000   0.00000   0.00000   0.00000
 169       58G+3        0.00000   0.00000  -0.00000   0.00000   0.00000
 170       58G-3        0.00000  -0.00000   0.00000   0.00000   0.00000
 171       58G+4       -0.00000   0.00000   0.00000   0.00000  -0.00000
 172       58G-4        0.00000   0.00000   0.00000   0.00000   0.00000
 173       59G 0        0.00006   0.00000   0.00000   0.00001   0.00002
 174       59G+1        0.00000   0.00000   0.00003   0.00000   0.00000
 175       59G-1        0.00000   0.00003   0.00000   0.00000   0.00000
 176       59G+2        0.00000   0.00000   0.00000  -0.00000  -0.00000
 177       59G-2        0.00000   0.00000   0.00000   0.00000   0.00000
 178       59G+3        0.00000   0.00000   0.00000   0.00000   0.00000
 179       59G-3        0.00000   0.00000   0.00000   0.00000   0.00000
 180       59G+4        0.00000   0.00000   0.00000  -0.00000  -0.00000
 181       59G-4        0.00000   0.00000   0.00000   0.00000   0.00000
 182       60G 0       -0.00028   0.00000   0.00000  -0.00005   0.00000
 183       60G+1        0.00000   0.00000  -0.00007   0.00000   0.00000
 184       60G-1        0.00000  -0.00007   0.00000   0.00000   0.00000
 185       60G+2       -0.00000   0.00000   0.00000  -0.00000  -0.00000
 186       60G-2        0.00000   0.00000   0.00000   0.00000   0.00000
 187       60G+3        0.00000   0.00000  -0.00000   0.00000   0.00000
 188       60G-3        0.00000  -0.00000   0.00000   0.00000   0.00000
 189       60G+4       -0.00000   0.00000   0.00000   0.00000   0.00000
 190       60G-4        0.00000   0.00000   0.00000   0.00000   0.00000
 191 2   H  1S         -0.00197   0.00000   0.00000  -0.00024   0.00040
 192        2S         -0.01452   0.00000   0.00000  -0.00270   0.00440
 193        3S         -0.06044   0.00000   0.00000  -0.00490   0.00792
 194        4S         -0.15195   0.00000   0.00000  -0.04123   0.07255
 195        5S         -0.26243   0.00000   0.00000  -0.42050  -0.40648
 196        6S         -0.02615   0.00000   0.00000  -2.44153   1.77332
 197        7PX         0.00000   0.00000   0.00206   0.00000   0.00000
 198        7PY         0.00000   0.00206   0.00000   0.00000   0.00000
 199        7PZ         0.00045   0.00000   0.00000  -0.00055   0.00123
 200        8PX         0.00000   0.00000   0.00349   0.00000   0.00000
 201        8PY         0.00000   0.00349   0.00000   0.00000   0.00000
 202        8PZ        -0.01006   0.00000   0.00000  -0.00830  -0.00632
 203        9PX         0.00000   0.00000   0.00235   0.00000   0.00000
 204        9PY         0.00000   0.00235   0.00000   0.00000   0.00000
 205        9PZ        -0.02969   0.00000   0.00000  -0.24722  -0.11145
 206       10D 0       -0.00044   0.00000   0.00000   0.00090   0.00084
 207       10D+1        0.00000   0.00000   0.00065   0.00000   0.00000
 208       10D-1        0.00000   0.00065   0.00000   0.00000   0.00000
 209       10D+2        0.00000   0.00000   0.00000  -0.00000  -0.00000
 210       10D-2        0.00000   0.00000   0.00000   0.00000   0.00000
 211       11D 0       -0.00393   0.00000   0.00000  -0.01236  -0.00199
 212       11D+1        0.00000   0.00000  -0.00519   0.00000   0.00000
 213       11D-1        0.00000  -0.00519   0.00000   0.00000   0.00000
 214       11D+2        0.00000   0.00000   0.00000  -0.00000  -0.00000
 215       11D-2        0.00000   0.00000   0.00000   0.00000   0.00000
                          21
                           V
     Eigenvalues --     0.07721
   1 1   Zn 1S          0.00000
   2        2S          0.00000
   3        3S          0.00000
   4        4S          0.00000
   5        5S          0.00000
   6        6S          0.00000
   7        7S          0.00000
   8        8S          0.00000
   9        9S          0.00000
  10       10S          0.00000
  11       11S          0.00000
  12       12S          0.00000
  13       13S          0.00000
  14       14S          0.00000
  15       15S          0.00000
  16       16S          0.00000
  17       17S          0.00000
  18       18S          0.00000
[...]
   1 1   Zn 1S          0.00000   0.00000   0.00000   0.00000
   2        2S          0.00002   0.00001   0.00001   0.00000
   3        3S          0.00013   0.00007   0.00007   0.00000
   4        4S          0.00076   0.00038   0.00038   0.00000
   5        5S          0.00387   0.00194   0.00193   0.00000
   6        6S          0.01745   0.00873   0.00872   0.00000
   7        7S          0.06866   0.03433   0.03433   0.00001
   8        8S          0.21930   0.10966   0.10964   0.00002
   9        9S          0.50774   0.25389   0.25385   0.00004
  10       10S          0.70404   0.35203   0.35201   0.00001
  11       11S          0.37767   0.18878   0.18889  -0.00012
  12       12S          0.17776   0.08893   0.08883   0.00009
  13       13S          0.98952   0.49514   0.49438   0.00076
  14       14S          0.84629   0.42273   0.42356  -0.00083
  15       15S          0.37395   0.18760   0.18635   0.00125
  16       16S          1.05160   0.52885   0.52275   0.00609
  17       17S          0.57075   0.27859   0.29216  -0.01356
  18       18S          0.41515   0.26238   0.15277   0.10962
  19       19S          0.61268   0.47367   0.13901   0.33466
  20       20S          0.17381   0.15086   0.02295   0.12790
  21       21S         -0.04822  -0.02400  -0.02422   0.00023
  22       22S          0.11413   0.05670   0.05743  -0.00074
  23       23S         -0.00482  -0.00025  -0.00456   0.00431
  24       24PX         0.00000   0.00000   0.00000  -0.00000
  25       24PY         0.00000   0.00000   0.00000  -0.00000
  26       24PZ         0.00000   0.00000   0.00000   0.00000
  27       25PX         0.00003   0.00002   0.00002  -0.00000
  28       25PY         0.00003   0.00002   0.00002  -0.00000
  29       25PZ         0.00003   0.00002   0.00002   0.00000
  30       26PX         0.00048   0.00024   0.00024  -0.00000
  31       26PY         0.00048   0.00024   0.00024  -0.00000
  32       26PZ         0.00048   0.00024   0.00024   0.00000
  33       27PX         0.00456   0.00228   0.00228  -0.00000
  34       27PY         0.00456   0.00228   0.00228  -0.00000
  35       27PZ         0.00457   0.00229   0.00228   0.00000
  36       28PX         0.03020   0.01510   0.01510  -0.00000
  37       28PY         0.03020   0.01510   0.01510  -0.00000
  38       28PZ         0.03027   0.01515   0.01512   0.00003
  39       29PX         0.13623   0.06811   0.06811  -0.00000
  40       29PY         0.13623   0.06811   0.06811  -0.00000
  41       29PZ         0.13653   0.06832   0.06821   0.00011
  42       30PX         0.39674   0.19837   0.19837  -0.00000
  43       30PY         0.39674   0.19837   0.19837  -0.00000
  44       30PZ         0.39750   0.19889   0.19861   0.00027
  45       31PX         0.68341   0.34171   0.34171  -0.00000
  46       31PY         0.68341   0.34171   0.34171  -0.00000
  47       31PZ         0.68412   0.34219   0.34193   0.00027
  48       32PX         0.57520   0.28760   0.28760  -0.00000
  49       32PY         0.57520   0.28760   0.28760  -0.00000
  50       32PZ         0.57451   0.28715   0.28736  -0.00020
  51       33PX         0.28566   0.14283   0.14283  -0.00000
  52       33PY         0.28566   0.14283   0.14283  -0.00000
  53       33PZ         0.28501   0.14313   0.14188   0.00125
  54       34PX         0.55239   0.27619   0.27619  -0.00000
  55       34PY         0.55239   0.27619   0.27619  -0.00000
  56       34PZ         0.56402   0.28339   0.28063   0.00275
  57       35PX         0.74347   0.37174   0.37174  -0.00000
  58       35PY         0.74347   0.37174   0.37174  -0.00000
  59       35PZ         0.77414   0.38712   0.38702   0.00010
  60       36PX         0.45292   0.22646   0.22646  -0.00000
  61       36PY         0.45292   0.22646   0.22646  -0.00000
  62       36PZ         0.43379   0.21372   0.22007  -0.00635
  63       37PX         0.03636   0.01818   0.01818  -0.00000
  64       37PY         0.03636   0.01818   0.01818  -0.00000
  65       37PZ         0.10965   0.07351   0.03614   0.03737
  66       38PX        -0.00095  -0.00048  -0.00048   0.00000
  67       38PY        -0.00095  -0.00048  -0.00048   0.00000
  68       38PZ         0.31014   0.26009   0.05005   0.21004
  69       39PX         0.00014   0.00007   0.00007  -0.00000
  70       39PY         0.00014   0.00007   0.00007  -0.00000
  71       39PZ         0.13991   0.13188   0.00804   0.12384
  72       40PX        -0.01610  -0.00805  -0.00805   0.00000
  73       40PY        -0.01610  -0.00805  -0.00805   0.00000
  74       40PZ        -0.01498  -0.00780  -0.00718  -0.00062
  75       41PX         0.11925   0.05962   0.05962  -0.00000
  76       41PY         0.11925   0.05962   0.05962  -0.00000
  77       41PZ         0.09669   0.04969   0.04700   0.00269
  78       42PX        -0.00001  -0.00001  -0.00001   0.00000
  79       42PY        -0.00001  -0.00001  -0.00001   0.00000
  80       42PZ        -0.00044  -0.00012  -0.00032   0.00020
  81       43D 0        0.00019   0.00010   0.00010   0.00000
  82       43D+1        0.00020   0.00010   0.00010  -0.00000
  83       43D-1        0.00020   0.00010   0.00010  -0.00000
  84       43D+2        0.00020   0.00010   0.00010  -0.00000
  85       43D-2        0.00020   0.00010   0.00010  -0.00000
  86       44D 0        0.00589   0.00295   0.00293   0.00002
  87       44D+1        0.00596   0.00298   0.00298  -0.00000
  88       44D-1        0.00596   0.00298   0.00298  -0.00000
  89       44D+2        0.00597   0.00298   0.00298  -0.00000
  90       44D-2        0.00597   0.00298   0.00298  -0.00000
  91       45D 0        0.05761   0.02890   0.02871   0.00019
  92       45D+1        0.05835   0.02918   0.02918  -0.00000
  93       45D-1        0.05835   0.02918   0.02918  -0.00000
  94       45D+2        0.05841   0.02920   0.02920  -0.00000
  95       45D-2        0.05841   0.02920   0.02920  -0.00000
  96       46D 0        0.25321   0.12702   0.12619   0.00082
  97       46D+1        0.25632   0.12816   0.12816  -0.00000
  98       46D-1        0.25632   0.12816   0.12816  -0.00000
  99       46D+2        0.25646   0.12823   0.12823  -0.00000
 100       46D-2        0.25646   0.12823   0.12823  -0.00000
 101       47D 0        0.48879   0.24517   0.24362   0.00155
 102       47D+1        0.49468   0.24734   0.24734  -0.00000
 103       47D-1        0.49468   0.24734   0.24734  -0.00000
 104       47D+2        0.49410   0.24705   0.24705  -0.00000
 105       47D-2        0.49410   0.24705   0.24705  -0.00000
 106       48D 0        0.63104   0.31639   0.31465   0.00175
 107       48D+1        0.63815   0.31907   0.31907  -0.00000
 108       48D-1        0.63815   0.31907   0.31907  -0.00000
 109       48D+2        0.63893   0.31947   0.31947  -0.00000
 110       48D-2        0.63893   0.31947   0.31947  -0.00000
 111       49D 0        0.39045   0.19538   0.19508   0.00030
 112       49D+1        0.39025   0.19513   0.19513  -0.00000
 113       49D-1        0.39025   0.19513   0.19513  -0.00000
 114       49D+2        0.39193   0.19597   0.19597  -0.00000
 115       49D-2        0.39193   0.19597   0.19597  -0.00000
 116       50D 0        0.08643   0.04238   0.04405  -0.00167
 117       50D+1        0.08291   0.04146   0.04146  -0.00000
 118       50D-1        0.08291   0.04146   0.04146  -0.00000
 119       50D+2        0.08105   0.04052   0.04052  -0.00000
 120       50D-2        0.08105   0.04052   0.04052  -0.00000
 121       51D 0        0.00652   0.00327   0.00325   0.00002
 122       51D+1        0.00677   0.00339   0.00339  -0.00000
 123       51D-1        0.00677   0.00339   0.00339  -0.00000
 124       51D+2        0.00696   0.00348   0.00348  -0.00000
 125       51D-2        0.00696   0.00348   0.00348  -0.00000
 126       52D 0        0.06326   0.03172   0.03154   0.00018
 127       52D+1        0.06388   0.03194   0.03194  -0.00000
 128       52D-1        0.06388   0.03194   0.03194  -0.00000
 129       52D+2        0.06497   0.03249   0.03249  -0.00000
 130       52D-2        0.06497   0.03249   0.03249  -0.00000
 131       53D 0        0.00267  -0.00035   0.00302  -0.00337
 132       53D+1        0.00129   0.00064   0.00064  -0.00000
 133       53D-1        0.00129   0.00064   0.00064  -0.00000
 134       53D+2        0.00113   0.00056   0.00056  -0.00000
 135       53D-2        0.00113   0.00056   0.00056  -0.00000
 136       54F 0        0.00000   0.00000   0.00000   0.00000
 137       54F+1        0.00000   0.00000   0.00000  -0.00000
 138       54F-1        0.00000   0.00000   0.00000  -0.00000
 139       54F+2        0.00000   0.00000   0.00000  -0.00000
 140       54F-2        0.00000   0.00000   0.00000  -0.00000
 141       54F+3        0.00000   0.00000   0.00000   0.00000
 142       54F-3        0.00000   0.00000   0.00000  -0.00000
 143       55F 0        0.00000   0.00000   0.00000   0.00000
 144       55F+1        0.00000   0.00000   0.00000  -0.00000
 145       55F-1        0.00000   0.00000   0.00000  -0.00000
 146       55F+2        0.00000   0.00000   0.00000   0.00000
 147       55F-2        0.00000   0.00000   0.00000  -0.00000
 148       55F+3        0.00000   0.00000   0.00000   0.00000
 149       55F-3        0.00000   0.00000   0.00000  -0.00000
 150       56F 0        0.00011   0.00006   0.00005   0.00001
 151       56F+1        0.00000   0.00000   0.00000  -0.00000
 152       56F-1        0.00000   0.00000   0.00000  -0.00000
 153       56F+2        0.00000   0.00000   0.00000   0.00000
 154       56F-2        0.00000   0.00000   0.00000  -0.00000
 155       56F+3        0.00000   0.00000   0.00000  -0.00000
 156       56F-3        0.00000   0.00000   0.00000  -0.00000
 157       57F 0        0.00105   0.00059   0.00047   0.00012
 158       57F+1        0.00000   0.00000   0.00000  -0.00000
 159       57F-1        0.00000   0.00000   0.00000  -0.00000
 160       57F+2        0.00000   0.00000   0.00000   0.00000
 161       57F-2        0.00000   0.00000   0.00000  -0.00000
 162       57F+3        0.00000   0.00000   0.00000  -0.00000
 163       57F-3        0.00000   0.00000   0.00000  -0.00000
 164       58G 0        0.00000   0.00000   0.00000   0.00000
 165       58G+1        0.00000   0.00000   0.00000  -0.00000
 166       58G-1        0.00000   0.00000   0.00000  -0.00000
 167       58G+2        0.00000   0.00000   0.00000  -0.00000
 168       58G-2        0.00000   0.00000   0.00000  -0.00000
 169       58G+3        0.00000   0.00000   0.00000   0.00000
 170       58G-3       -0.00000  -0.00000   0.00000  -0.00000
 171       58G+4        0.00000   0.00000   0.00000   0.00000
 172       58G-4        0.00000   0.00000   0.00000  -0.00000
 173       59G 0       -0.00000  -0.00000  -0.00000  -0.00000
 174       59G+1       -0.00000  -0.00000  -0.00000   0.00000
 175       59G-1       -0.00000  -0.00000  -0.00000   0.00000
 176       59G+2       -0.00000  -0.00000  -0.00000   0.00000
 177       59G-2       -0.00000  -0.00000  -0.00000   0.00000
 178       59G+3       -0.00000  -0.00000  -0.00000   0.00000
 179       59G-3        0.00000   0.00000   0.00000   0.00000
 180       59G+4       -0.00000  -0.00000  -0.00000   0.00000
 181       59G-4        0.00000   0.00000   0.00000  -0.00000
 182       60G 0        0.00002   0.00001   0.00001   0.00000
 183       60G+1        0.00000   0.00000   0.00000  -0.00000
 184       60G-1        0.00000   0.00000   0.00000  -0.00000
 185       60G+2        0.00000   0.00000   0.00000  -0.00000
 186       60G-2        0.00000   0.00000   0.00000  -0.00000
 187       60G+3       -0.00000  -0.00000   0.00000  -0.00000
 188       60G-3       -0.00000  -0.00000  -0.00000  -0.00000
 189       60G+4        0.00000  -0.00000   0.00000  -0.00000
 190       60G-4       -0.00000  -0.00000  -0.00000   0.00000
 191 2   H  1S          0.00103   0.00056   0.00047   0.00008
 192        2S          0.02374   0.01284   0.01090   0.00194
 193        3S          0.19220   0.10364   0.08855   0.01509
 194        4S          0.60854   0.32550   0.28303   0.04247
 195        5S          0.46955   0.24541   0.22414   0.02127
 196        6S          0.01709   0.00540   0.01169  -0.00630
 197        7PX         0.00021   0.00010   0.00010  -0.00000
 198        7PY         0.00021   0.00010   0.00010  -0.00000
 199        7PZ         0.00167   0.00084   0.00083   0.00001
 200        8PX         0.00061   0.00031   0.00031  -0.00000
 201        8PY         0.00061   0.00031   0.00031  -0.00000
 202        8PZ         0.00906   0.00392   0.00514  -0.00121
 203        9PX         0.00038   0.00019   0.00019  -0.00000
 204        9PY         0.00038   0.00019   0.00019  -0.00000
 205        9PZ        -0.00816  -0.01118   0.00303  -0.01421
 206       10D 0        0.00031   0.00015   0.00016  -0.00001
 207       10D+1        0.00023   0.00012   0.00012  -0.00000
 208       10D-1        0.00023   0.00012   0.00012  -0.00000
 209       10D+2        0.00001   0.00001   0.00001  -0.00000
 210       10D-2        0.00001   0.00001   0.00001  -0.00000
 211       11D 0       -0.00050  -0.00053   0.00003  -0.00056
 212       11D+1       -0.00016  -0.00008  -0.00008   0.00000
 213       11D-1       -0.00016  -0.00008  -0.00008   0.00000
 214       11D+2       -0.00011  -0.00006  -0.00006   0.00000
 215       11D-2       -0.00011  -0.00006  -0.00006   0.00000
          Condensed to atoms (all electrons):
               1          2
     1  Zn  29.445265   0.237868
     2  H    0.237868   1.078999
          Atomic-Atomic Spin Densities.
               1          2
     1  Zn   1.087451  -0.146027
     2  H   -0.146027   0.204603
 Mulliken charges and spin densities:
               1          2
     1  Zn   0.316867   0.941424
     2  H   -0.316867   0.058576
 Sum of Mulliken charges =  -0.00000   1.00000
 Mulliken charges and spin densities with hydrogens summed into heavy atoms:
               1          2
     1  Zn  -0.000000   1.000000
 Electronic spatial extent (au):  <R**2>=             45.4081
 Charge=             -0.0000 electrons
 Dipole moment (field-independent basis, Debye):
    X=              0.0000    Y=              0.0000    Z=              0.4877  Tot=              0.4877
 Quadrupole moment (field-independent basis, Debye-Ang):
   XX=            -14.7345   YY=            -14.7345   ZZ=            -21.1478
   XY=              0.0000   XZ=              0.0000   YZ=              0.0000
 Traceless Quadrupole moment (field-independent basis, Debye-Ang):
   XX=              2.1378   YY=              2.1378   ZZ=             -4.2755
   XY=              0.0000   XZ=              0.0000   YZ=              0.0000
 Octapole moment (field-independent basis, Debye-Ang**2):
  XXX=              0.0000  YYY=              0.0000  ZZZ=              2.3154  XYY=              0.0000
  XXY=              0.0000  XXZ=              0.0258  XZZ=              0.0000  YZZ=              0.0000
  YYZ=              0.0258  XYZ=              0.0000
 Hexadecapole moment (field-independent basis, Debye-Ang**3):
 XXXX=            -20.1747 YYYY=            -20.1747 ZZZZ=            -65.6856 XXXY=              0.0000
 XXXZ=              0.0000 YYYX=              0.0000 YYYZ=              0.0000 ZZZX=              0.0000
 ZZZY=              0.0000 XXYY=             -6.7249 XXZZ=            -13.8940 YYZZ=            -13.8940
 XXYZ=              0.0000 YYXZ=              0.0000 ZZXY=              0.0000
 N-N= 1.058354421840D+01 E-N=-4.419371007987D+03  KE= 1.893683679390D+03
 Symmetry A1   KE= 1.424825314388D+03
 Symmetry A2   KE= 2.230324269419D+01
 Symmetry B1   KE= 2.232775611547D+02
 Symmetry B2   KE= 2.232775611536D+02
 Symmetry A1   SP= 1.000000000000D+00
 Symmetry A2   SP=-4.007267242851D-16
 Symmetry B1   SP=-1.276508958279D-15
 Symmetry B2   SP=-1.276823257406D-15
 Orbital energies and kinetic energies (alpha):
                                 1                 2
  11         O                -0.797791         11.151621
  12         O                -0.797791         10.681093
  13         O                -0.793380         11.139136
  14         O                -0.793380         11.139136
  15         O                -0.466962          1.273880
  16         O                -0.275035          0.975854
  17         V                 0.021064          0.096999
  18         V                 0.021064          0.096999
  19         V                 0.028439          0.059153
  20         V                 0.039721          0.075547
  21         V                 0.077212          0.328252
 Total kinetic energy from orbitals= 1.894659533575D+03
 FoFCou: FMM=F IPFlag=           8 FMFlag=           0 FMFlg1=           0
         NFxFlg=           0 DoJE=F BraDBF=T KetDBF=F FulRan=T
         wScrn=  0.000000 ICntrl=   2000500 IOpCl=  0 I1Cent=           5 NGrid=           0
         NMat0=    1 NMatS0=      1 NMatT0=    0 NMatD0=    1 NMtDS0=    0 NMtDT0=    0
 Symmetry not used in FoFCou.
                          Isotropic Fermi Contact Couplings
        Atom                 a.u.       MegaHertz       Gauss      10(-4) cm-1
     1  Zn(67)             4.57438    1281.90704     457.41631     427.59816
     2  H(1)               0.03030     135.44895      48.33155      45.18091
 --------------------------------------------------------
       Center         ----  Spin Dipole Couplings  ----
                      3XX-RR        3YY-RR        3ZZ-RR
 --------------------------------------------------------
     1   Atom       -0.611015     -0.611015      1.222030
     2   Atom       -0.004628     -0.004628      0.009256
 --------------------------------------------------------
                        XY            XZ            YZ
 --------------------------------------------------------
     1   Atom        0.000000      0.000000      0.000000
     2   Atom        0.000000      0.000000      0.000000
 --------------------------------------------------------


 ---------------------------------------------------------------------------------
              Anisotropic Spin Dipole Couplings in Principal Axis System
 ---------------------------------------------------------------------------------

       Atom             a.u.   MegaHertz   Gauss  10(-4) cm-1        Axes

              Baa    -0.6110   -20.439    -7.293    -6.818 -0.0000  1.0000  0.0000
     1 Zn(67) Bbb    -0.6110   -20.439    -7.293    -6.818  1.0000  0.0000  0.0000
              Bcc     1.2220    40.878    14.586    13.635  0.0000  0.0000  1.0000
 
              Baa    -0.0046    -2.469    -0.881    -0.824  1.0000  0.0000  0.0000
     2 H(1)   Bbb    -0.0046    -2.469    -0.881    -0.824 -0.0000  1.0000  0.0000
              Bcc     0.0093     4.939     1.762     1.647  0.0000  0.0000  1.0000
 

 ---------------------------------------------------------------------------------

 No NMR shielding tensors so no spin-rotation constants.
 Leave Link  601 at Sat Apr 21 10:46:05 2018, MaxMem= 21474836480 cpu:              16.4 elap:               0.6
 (Enter /home1/apps/gaussian/16rA.03/g16/l9999.exe)

 Test job not archived.
 1\1\GINC-C496-013\SP\ROCCSD(T)-FC1\Gen\H1Zn1(2)\GWANG18\21-Apr-2018\0\
 \#P ROCCSD(T)=(MaxCyc=150, FrzINGC)/Gen SCF=(maxcycle=400, vshift=200)
  Integral(DKHSO, NoXCTest) Pop=Regular MaxDisk=500GB Guess=Read IOp(5/
 15=2)\\ZnH\\0,2\Zn,0,0.,0.,0.\H,0,0.,0.,1.5\\Version=ES64L-G16RevA.03\
 State=2-SG\HF=-1794.8005252\MP2=-1795.8391694\MP3=-1795.6845473\PUHF=-
 1794.8005252\PMP2-0=-1795.8391694\MP4SDQ=-1795.782932\CCSD=-1795.74525
 43\CCSD(T)=-1795.7718164\RMSD=9.561e-09\PG=C*V [C*(H1Zn1)]\\@


 YOU WILL NEVER "FIND" TIME FOR ANYTHING.
 IF YOU WANT TIME, YOU MUST MAKE IT.

                        -- CHARLES BIXTON
 Job cpu time:       0 days  2 hours 21 minutes 14.1 seconds.
 Elapsed time:       0 days  0 hours  4 minutes 27.6 seconds.
 File lengths (MBytes):  RWF=   3233 Int=      0 D2E=      0 Chk=      6 Scr=      1
 Normal termination of Gaussian 16 at Sat Apr 21 10:46:05 2018.
