 Entering Gaussian System, Link 0=g16
 Initial command:
 /home1/apps/gaussian/16rA.03/g16/l1.exe "/tmp/Gau-123426.inp" -scrdir="/tmp/"
 Entering Link 1 = /home1/apps/gaussian/16rA.03/g16/l1.exe PID=    123427.
  
 Copyright (c) 1988,1990,1992,1993,1995,1998,2003,2009,2016,
            Gaussian, Inc.  All Rights Reserved.
  
 This is part of the Gaussian(R) 16 program.  It is based on
 the Gaussian(R) 09 system (copyright 2009, Gaussian, Inc.),
 the Gaussian(R) 03 system (copyright 2003, Gaussian, Inc.),
 the Gaussian(R) 98 system (copyright 1998, Gaussian, Inc.),
 the Gaussian(R) 94 system (copyright 1995, Gaussian, Inc.),
 the Gaussian 92(TM) system (copyright 1992, Gaussian, Inc.),
 the Gaussian 90(TM) system (copyright 1990, Gaussian, Inc.),
 the Gaussian 88(TM) system (copyright 1988, Gaussian, Inc.),
 the Gaussian 86(TM) system (copyright 1986, Carnegie Mellon
 University), and the Gaussian 82(TM) system (copyright 1983,
 Carnegie Mellon University). Gaussian is a federally registered
 trademark of Gaussian, Inc.
  
 This software contains proprietary and confidential information,
 including trade secrets, belonging to Gaussian, Inc.
  
 This software is provided under written license and may be
 used, copied, transmitted, or stored only in accord with that
 written license.
  
 The following legend is applicable only to US Government
 contracts under FAR:
  
                    RESTRICTED RIGHTS LEGEND
  
 Use, reproduction and disclosure by the US Government is
 subject to restrictions as set forth in subparagraphs (a)
 and (c) of the Commercial Computer Software - Restricted
 Rights clause in FAR 52.227-19.
  
 Gaussian, Inc.
 340 Quinnipiac St., Bldg. 40, Wallingford CT 06492
  
  
 ---------------------------------------------------------------
 Warning -- This program may not be used in any manner that
 competes with the business of Gaussian, Inc. or will provide
 assistance to any competitor of Gaussian, Inc.  The licensee
 of this program is prohibited from giving any competitor of
 Gaussian, Inc. access to this program.  By using this program,
 the user acknowledges that Gaussian, Inc. is engaged in the
 business of creating and licensing software in the field of
 computational chemistry and represents and warrants to the
 licensee that it is not a competitor of Gaussian, Inc. and that
 it will not use this program in any manner prohibited above.
 ---------------------------------------------------------------
  

 Cite this work as:
 Gaussian 16, Revision A.03,
 M. J. Frisch, G. W. Trucks, H. B. Schlegel, G. E. Scuseria, 
 M. A. Robb, J. R. Cheeseman, G. Scalmani, V. Barone, 
 G. A. Petersson, H. Nakatsuji, X. Li, M. Caricato, A. V. Marenich, 
 J. Bloino, B. G. Janesko, R. Gomperts, B. Mennucci, H. P. Hratchian, 
 J. V. Ortiz, A. F. Izmaylov, J. L. Sonnenberg, D. Williams-Young, 
 F. Ding, F. Lipparini, F. Egidi, J. Goings, B. Peng, A. Petrone, 
 T. Henderson, D. Ranasinghe, V. G. Zakrzewski, J. Gao, N. Rega, 
 G. Zheng, W. Liang, M. Hada, M. Ehara, K. Toyota, R. Fukuda, 
 J. Hasegawa, M. Ishida, T. Nakajima, Y. Honda, O. Kitao, H. Nakai, 
 T. Vreven, K. Throssell, J. A. Montgomery, Jr., J. E. Peralta, 
 F. Ogliaro, M. J. Bearpark, J. J. Heyd, E. N. Brothers, K. N. Kudin, 
 V. N. Staroverov, T. A. Keith, R. Kobayashi, J. Normand, 
 K. Raghavachari, A. P. Rendell, J. C. Burant, S. S. Iyengar, 
 J. Tomasi, M. Cossi, J. M. Millam, M. Klene, C. Adamo, R. Cammi, 
 J. W. Ochterski, R. L. Martin, K. Morokuma, O. Farkas, 
 J. B. Foresman, and D. J. Fox, Gaussian, Inc., Wallingford CT, 2016.
 
 ******************************************
 Gaussian 16:  ES64L-G16RevA.03 25-Dec-2016
                29-Apr-2018 
 ******************************************
 %mem=160GB
 %cpu=0-31
 SetSPE:  set environment variable "MP_BIND" = "yes"
 SetSPE:  set environment variable "MP_BLIST" = "0,1,2,3,4,5,6,7,8,9,10,11,12,13,14,15,16,17,18,19,20,21,22,23,24,25,26,27,28,29,30,31"
 Will use up to   32 processors via shared memory.
 %chk=5z.chk
 %rwf=/scratch/04843/gwang18/znh/
 ----------------------------------------------------------------------
 #P ROCCSD(T)=(MaxCyc=150, FrzINGC)/Gen SCF=(maxcycle=400, vshift=200) 
 Integral(DKHSO, NoXCTest) Pop=Regular MaxDisk=500GB Guess=Read IOp(5/1
 5=2)
 ----------------------------------------------------------------------
 1/38=1,172=1/1;
 2/12=2,17=6,18=5,40=1/2;
 3/5=7,11=2,25=1,30=1,47=8,91=5,116=101/1,2,3;
 4/5=1/1;
 5/5=2,7=400,10=200,15=2,38=6/2;
 8/5=-1,6=4,9=120000,10=3/1,4;
 9/5=7,6=150,14=2/13;
 6//1;
 99/5=1,9=1/99;
 Leave Link    1 at Sun Apr 29 13:54:32 2018, MaxMem= 21474836480 cpu:               2.2 elap:               0.1
 (Enter /home1/apps/gaussian/16rA.03/g16/l101.exe)
 ---
 ZnH
 ---
 Symbolic Z-matrix:
 Charge =  0 Multiplicity = 2
 Zn                    0.        0.        0. 
 H                     0.        0.        1.2 
 
 ITRead=  0  0
 MicOpt= -1 -1
 NAtoms=      2 NQM=        2 NQMF=       0 NMMI=      0 NMMIF=      0
                NMic=       0 NMicF=      0.
                    Isotopes and Nuclear Properties:
 (Nuclear quadrupole moments (NQMom) in fm**2, nuclear magnetic moments (NMagM)
  in nuclear magnetons)

  Atom         1           2
 IAtWgt=          64           1
 AtmWgt=  63.9291454   1.0078250
 NucSpn=           0           1
 AtZEff=  -0.0000000  -0.0000000
 NQMom=    0.0000000   0.0000000
 NMagM=    0.0000000   2.7928460
 AtZNuc=  30.0000000   1.0000000
 Leave Link  101 at Sun Apr 29 13:54:32 2018, MaxMem= 21474836480 cpu:               2.7 elap:               0.1
 (Enter /home1/apps/gaussian/16rA.03/g16/l202.exe)
                          Input orientation:                          
 ---------------------------------------------------------------------
 Center     Atomic      Atomic             Coordinates (Angstroms)
 Number     Number       Type             X           Y           Z
 ---------------------------------------------------------------------
      1         30           0        0.000000    0.000000    0.000000
      2          1           0        0.000000    0.000000    1.200000
 ---------------------------------------------------------------------
 Stoichiometry    HZn(2)
 Framework group  C*V[C*(HZn)]
 Deg. of freedom     1
 Full point group                 C*V     NOp   4
 Largest Abelian subgroup         C2V     NOp   4
 Largest concise Abelian subgroup C1      NOp   1
                         Standard orientation:                         
 ---------------------------------------------------------------------
 Center     Atomic      Atomic             Coordinates (Angstroms)
 Number     Number       Type             X           Y           Z
 ---------------------------------------------------------------------
      1         30           0        0.000000    0.000000    0.038710
      2          1           0        0.000000    0.000000   -1.161290
 ---------------------------------------------------------------------
 Rotational constants (GHZ):           0.0000000         353.7225024         353.7225024
 Leave Link  202 at Sun Apr 29 13:54:33 2018, MaxMem= 21474836480 cpu:               0.5 elap:               0.0
 (Enter /home1/apps/gaussian/16rA.03/g16/l301.exe)
 General basis read from cards:  (5D, 7F)
 Centers:       1
 S 1 1.00
     Exponent=  1.8741300000D+08 Coefficients=  1.0000000000D+00
 S 1 1.00
     Exponent=  3.3512700000D+07 Coefficients=  1.0000000000D+00
 S 1 1.00
     Exponent=  7.5047500000D+06 Coefficients=  1.0000000000D+00
 S 1 1.00
     Exponent=  2.0178700000D+06 Coefficients=  1.0000000000D+00
 S 1 1.00
     Exponent=  6.2857800000D+05 Coefficients=  1.0000000000D+00
 S 1 1.00
     Exponent=  2.2016300000D+05 Coefficients=  1.0000000000D+00
 S 1 1.00
     Exponent=  8.4595200000D+04 Coefficients=  1.0000000000D+00
 S 1 1.00
     Exponent=  3.4955500000D+04 Coefficients=  1.0000000000D+00
 S 1 1.00
     Exponent=  1.5290300000D+04 Coefficients=  1.0000000000D+00
 S 1 1.00
     Exponent=  6.9949300000D+03 Coefficients=  1.0000000000D+00
 S 1 1.00
     Exponent=  3.3165900000D+03 Coefficients=  1.0000000000D+00
 S 1 1.00
     Exponent=  1.6192400000D+03 Coefficients=  1.0000000000D+00
 S 1 1.00
     Exponent=  8.1034300000D+02 Coefficients=  1.0000000000D+00
 S 1 1.00
     Exponent=  4.1439300000D+02 Coefficients=  1.0000000000D+00
 S 1 1.00
     Exponent=  2.1605800000D+02 Coefficients=  1.0000000000D+00
 S 1 1.00
     Exponent=  1.1463500000D+02 Coefficients=  1.0000000000D+00
 S 1 1.00
     Exponent=  6.1762300000D+01 Coefficients=  1.0000000000D+00
 S 1 1.00
     Exponent=  3.3692400000D+01 Coefficients=  1.0000000000D+00
 S 1 1.00
     Exponent=  1.8531500000D+01 Coefficients=  1.0000000000D+00
 S 1 1.00
     Exponent=  1.0214400000D+01 Coefficients=  1.0000000000D+00
 S 1 1.00
     Exponent=  5.5942800000D+00 Coefficients=  1.0000000000D+00
 S 1 1.00
     Exponent=  3.0096800000D+00 Coefficients=  1.0000000000D+00
 S 1 1.00
     Exponent=  1.5668400000D+00 Coefficients=  1.0000000000D+00
 S 1 1.00
     Exponent=  7.8143700000D-01 Coefficients=  1.0000000000D+00
 S 1 1.00
     Exponent=  2.5811800000D-01 Coefficients=  1.0000000000D+00
 S 1 1.00
     Exponent=  1.3855600000D-01 Coefficients=  1.0000000000D+00
 S 1 1.00
     Exponent=  6.6171000000D-02 Coefficients=  1.0000000000D+00
 S 1 1.00
     Exponent=  3.0986000000D-02 Coefficients=  1.0000000000D+00
 S 1 1.00
     Exponent=  1.0450800000D+01 Coefficients=  1.0000000000D+00
 S 1 1.00
     Exponent=  3.9198000000D+00 Coefficients=  1.0000000000D+00
 S 1 1.00
     Exponent=  1.4510000000D-02 Coefficients=  1.0000000000D+00
 P 1 1.00
     Exponent=  1.1034900000D+05 Coefficients=  1.0000000000D+00
 P 1 1.00
     Exponent=  2.6971300000D+04 Coefficients=  1.0000000000D+00
 P 1 1.00
     Exponent=  8.5600700000D+03 Coefficients=  1.0000000000D+00
 P 1 1.00
     Exponent=  3.2488000000D+03 Coefficients=  1.0000000000D+00
 P 1 1.00
     Exponent=  1.3894100000D+03 Coefficients=  1.0000000000D+00
 P 1 1.00
     Exponent=  6.4304300000D+02 Coefficients=  1.0000000000D+00
 P 1 1.00
     Exponent=  3.1400500000D+02 Coefficients=  1.0000000000D+00
 P 1 1.00
     Exponent=  1.5948900000D+02 Coefficients=  1.0000000000D+00
 P 1 1.00
     Exponent=  8.3666200000D+01 Coefficients=  1.0000000000D+00
 P 1 1.00
     Exponent=  4.5157400000D+01 Coefficients=  1.0000000000D+00
 P 1 1.00
     Exponent=  2.4963000000D+01 Coefficients=  1.0000000000D+00
 P 1 1.00
     Exponent=  1.4004300000D+01 Coefficients=  1.0000000000D+00
 P 1 1.00
     Exponent=  7.8326700000D+00 Coefficients=  1.0000000000D+00
 P 1 1.00
     Exponent=  4.2841000000D+00 Coefficients=  1.0000000000D+00
 P 1 1.00
     Exponent=  2.2890100000D+00 Coefficients=  1.0000000000D+00
 P 1 1.00
     Exponent=  1.1943600000D+00 Coefficients=  1.0000000000D+00
 P 1 1.00
     Exponent=  5.9425800000D-01 Coefficients=  1.0000000000D+00
 P 1 1.00
     Exponent=  2.2691400000D-01 Coefficients=  1.0000000000D+00
 P 1 1.00
     Exponent=  9.0179000000D-02 Coefficients=  1.0000000000D+00
 P 1 1.00
     Exponent=  3.5718000000D-02 Coefficients=  1.0000000000D+00
 P 1 1.00
     Exponent=  1.4897100000D+01 Coefficients=  1.0000000000D+00
 P 1 1.00
     Exponent=  4.7100000000D+00 Coefficients=  1.0000000000D+00
 P 1 1.00
     Exponent=  1.4150000000D-02 Coefficients=  1.0000000000D+00
 D 1 1.00
     Exponent=  8.5412230000D+02 Coefficients=  1.0000000000D+00
 D 1 1.00
     Exponent=  2.5794960000D+02 Coefficients=  1.0000000000D+00
 D 1 1.00
     Exponent=  1.0023190000D+02 Coefficients=  1.0000000000D+00
 D 1 1.00
     Exponent=  4.4176210000D+01 Coefficients=  1.0000000000D+00
 D 1 1.00
     Exponent=  2.0784760000D+01 Coefficients=  1.0000000000D+00
 D 1 1.00
     Exponent=  1.0227560000D+01 Coefficients=  1.0000000000D+00
 D 1 1.00
     Exponent=  5.1512410000D+00 Coefficients=  1.0000000000D+00
 D 1 1.00
     Exponent=  2.5908470000D+00 Coefficients=  1.0000000000D+00
 D 1 1.00
     Exponent=  1.2858010000D+00 Coefficients=  1.0000000000D+00
 D 1 1.00
     Exponent=  6.2534400000D-01 Coefficients=  1.0000000000D+00
 D 1 1.00
     Exponent=  2.9394300000D-01 Coefficients=  1.0000000000D+00
 D 1 1.00
     Exponent=  1.2899700000D-01 Coefficients=  1.0000000000D+00
 D 1 1.00
     Exponent=  1.1593600000D+01 Coefficients=  1.0000000000D+00
 D 1 1.00
     Exponent=  7.2491000000D+00 Coefficients=  1.0000000000D+00
 D 1 1.00
     Exponent=  5.6610000000D-02 Coefficients=  1.0000000000D+00
 F 1 1.00
     Exponent=  1.7862800000D+01 Coefficients=  1.0000000000D+00
 F 1 1.00
     Exponent=  8.0392000000D+00 Coefficients=  1.0000000000D+00
 F 1 1.00
     Exponent=  3.6180000000D+00 Coefficients=  1.0000000000D+00
 F 1 1.00
     Exponent=  1.6283000000D+00 Coefficients=  1.0000000000D+00
 F 1 1.00
     Exponent=  5.7210000000D-01 Coefficients=  1.0000000000D+00
 F 1 1.00
     Exponent=  2.0101000000D-01 Coefficients=  1.0000000000D+00
 G 1 1.00
     Exponent=  1.2540600000D+01 Coefficients=  1.0000000000D+00
 G 1 1.00
     Exponent=  6.2306000000D+00 Coefficients=  1.0000000000D+00
 G 1 1.00
     Exponent=  3.0956000000D+00 Coefficients=  1.0000000000D+00
 G 1 1.00
     Exponent=  1.1951000000D+00 Coefficients=  1.0000000000D+00
 G 1 1.00
     Exponent=  4.6139000000D-01 Coefficients=  1.0000000000D+00
 H 1 1.00
     Exponent=  1.1226100000D+01 Coefficients=  1.0000000000D+00
 H 1 1.00
     Exponent=  5.5189000000D+00 Coefficients=  1.0000000000D+00
 H 1 1.00
     Exponent=  2.4250000000D+00 Coefficients=  1.0000000000D+00
 H 1 1.00
     Exponent=  1.0655400000D+00 Coefficients=  1.0000000000D+00
 I 1 1.00
     Exponent=  1.1018800000D+01 Coefficients=  1.0000000000D+00
 I 1 1.00
     Exponent=  5.5487000000D+00 Coefficients=  1.0000000000D+00
 I 1 1.00
     Exponent=  2.7941400000D+00 Coefficients=  1.0000000000D+00
 ****
 Centers:       2
 S 1 1.00
     Exponent=  4.0200000000D+02 Coefficients=  1.0000000000D+00
 S 1 1.00
     Exponent=  6.0240000000D+01 Coefficients=  1.0000000000D+00
 S 1 1.00
     Exponent=  1.3730000000D+01 Coefficients=  1.0000000000D+00
 S 1 1.00
     Exponent=  3.9050000000D+00 Coefficients=  1.0000000000D+00
 S 1 1.00
     Exponent=  1.2830000000D+00 Coefficients=  1.0000000000D+00
 S 1 1.00
     Exponent=  4.6550000000D-01 Coefficients=  1.0000000000D+00
 S 1 1.00
     Exponent=  1.8110000000D-01 Coefficients=  1.0000000000D+00
 S 1 1.00
     Exponent=  7.2790000000D-02 Coefficients=  1.0000000000D+00
 S 1 1.00
     Exponent=  2.0700000000D-02 Coefficients=  1.0000000000D+00
 P 1 1.00
     Exponent=  4.5160000000D+00 Coefficients=  1.0000000000D+00
 P 1 1.00
     Exponent=  1.7120000000D+00 Coefficients=  1.0000000000D+00
 P 1 1.00
     Exponent=  6.4900000000D-01 Coefficients=  1.0000000000D+00
 P 1 1.00
     Exponent=  2.4600000000D-01 Coefficients=  1.0000000000D+00
 P 1 1.00
     Exponent=  7.4400000000D-02 Coefficients=  1.0000000000D+00
 D 1 1.00
     Exponent=  2.9500000000D+00 Coefficients=  1.0000000000D+00
 D 1 1.00
     Exponent=  1.2060000000D+00 Coefficients=  1.0000000000D+00
 D 1 1.00
     Exponent=  4.9300000000D-01 Coefficients=  1.0000000000D+00
 D 1 1.00
     Exponent=  1.5600000000D-01 Coefficients=  1.0000000000D+00
 F 1 1.00
     Exponent=  2.5060000000D+00 Coefficients=  1.0000000000D+00
 F 1 1.00
     Exponent=  8.7500000000D-01 Coefficients=  1.0000000000D+00
 F 1 1.00
     Exponent=  2.7400000000D-01 Coefficients=  1.0000000000D+00
 G 1 1.00
     Exponent=  2.3580000000D+00 Coefficients=  1.0000000000D+00
 G 1 1.00
     Exponent=  5.4300000000D-01 Coefficients=  1.0000000000D+00
 ****
 Ernie: Thresh=  0.10000D-02 Tol=  0.10000D-05 Strict=F.
 There are   248 symmetry adapted cartesian basis functions of A1  symmetry.
 There are    79 symmetry adapted cartesian basis functions of A2  symmetry.
 There are   137 symmetry adapted cartesian basis functions of B1  symmetry.
 There are   137 symmetry adapted cartesian basis functions of B2  symmetry.
 There are   169 symmetry adapted basis functions of A1  symmetry.
 There are    59 symmetry adapted basis functions of A2  symmetry.
 There are   100 symmetry adapted basis functions of B1  symmetry.
 There are   100 symmetry adapted basis functions of B2  symmetry.
   428 basis functions,   601 primitive gaussians,   601 cartesian basis functions
    16 alpha electrons       15 beta electrons
       nuclear repulsion energy        13.2294302730 Hartrees.
 IExCor=    0 DFT=F Ex=HF Corr=None ExCW=0 ScaHFX=  1.000000
 ScaDFX=  1.000000  1.000000  1.000000  1.000000 ScalE2=  1.000000  1.000000
 IRadAn=      5 IRanWt=     -1 IRanGd=            0 ICorTp=0 IEmpDi=  4
 NAtoms=    2 NActive=    2 NUniq=    2 SFac= 1.00D+00 NAtFMM=   60 NAOKFM=F Big=F
 Integral buffers will be    131072 words long.
 Raffenetti 2 integral format.
 Two-electron integral symmetry is turned on.
 FoFCou: FMM=F IPFlag=           8 FMFlag=           0 FMFlg1=           0
         NFxFlg=           0 DoJE=F BraDBF=T KetDBF=T FulRan=T
         wScrn=  0.000000 ICntrl=       600 IOpCl=  3 I1Cent=           6 NGrid=           0
         NMat0=    1 NMatS0=      2 NMatT0=    0 NMatD0=    1 NMtDS0=    0 NMtDT0=    0
 Symmetry not used in FoFCou.
 Finite nuclear repulsion energy        13.2294302730.
 Leave Link  301 at Sun Apr 29 13:54:33 2018, MaxMem= 21474836480 cpu:               5.5 elap:               0.2
 (Enter /home1/apps/gaussian/16rA.03/g16/l302.exe)
 Using DK4 one-electron Hamiltonian with SO, DoBoet=T.
 NPDir=0 NMtPBC=     1 NCelOv=     1 NCel=       1 NClECP=     1 NCelD=      1
         NCelK=      1 NCelE2=     1 NClLst=     1 CellRange=     0.0.
 One-electron integrals computed using PRISM.
 One-electron integral symmetry used in STVInt
 FoFCou: FMM=F IPFlag=           8 FMFlag=      100000 FMFlg1=           0
         NFxFlg=           0 DoJE=T BraDBF=F KetDBF=T FulRan=T
         wScrn=  0.000000 ICntrl=       500 IOpCl=  0 I1Cent=           4 NGrid=           0
         NMat0=    1 NMatS0=      1 NMatT0=    0 NMatD0=    1 NMtDS0=    0 NMtDT0=    0
 Symmetry not used in FoFCou.
 UnConB:  Uncontracting AO basis from    428 functions to    428 functions (excluding duplicates).
 RelInt: Using uncontracted basis, NUnBas=   428 NBsUse=   428 0.100E-13 EigKep=  2.27D-09 EigRej= -1.00D+00
 NBasis=   428 RedAO= T EigKep=  1.28D-06  NBF=   169    59   100   100
 NBsUse=   424 1.00D-06 EigRej=  1.04D-07 NBFU=   167    59    99    99
 Leave Link  302 at Sun Apr 29 13:54:41 2018, MaxMem= 21474836480 cpu:             189.5 elap:               7.3
 (Enter /home1/apps/gaussian/16rA.03/g16/l303.exe)
 DipDrv:  MaxL=1.
 Leave Link  303 at Sun Apr 29 13:54:41 2018, MaxMem= 21474836480 cpu:               1.8 elap:               0.1
 (Enter /home1/apps/gaussian/16rA.03/g16/l401.exe)
 Initial guess from the checkpoint file:  "5z.chk"
 B after Tr=     0.000000    0.000000    0.000000
         Rot=    1.000000    0.000000    0.000000    0.000000 Ang=   0.00 deg.
 Guess basis will be translated and rotated to current coordinates.
 JPrj=2 DoOrth=T DoCkMO=T.
 Initial guess orbital symmetries:
       Occupied  (SG) (SG) (PI) (PI) (SG) (SG) (SG) (PI) (PI) (SG)
                 (DLTA) (DLTA) (PI) (PI) (SG) (SG)
       Virtual   (PI) (PI) (SG) (SG) (PI) (PI) (SG) (SG) (PI) (PI)
                 (DLTA) (DLTA) (SG) (SG) (PI) (PI) (SG) (PI) (PI)
                 (SG) (SG) (PI) (PI) (DLTA) (DLTA) (SG) (DLTA)
                 (DLTA) (SG) (PI) (PI) (SG) (PI) (PI) (SG) (PHI)
                 (PHI) (PI) (PI) (DLTA) (DLTA) (SG) (PI) (PI) (SG)
                 (DLTA) (DLTA) (PHI) (PHI) (SG) (PI) (PI) (DLTA)
                 (DLTA) (PI) (PI) (SG) (SG) (SG) (DLTA) (DLTA)
                 (PI) (PI) (PI) (PI) (SG) (SG) (PHI) (PHI) (PI)
                 (PI) (DLTA) (DLTA) (PI) (PI) (DLTA) (DLTA) (?A)
                 (?A) (PHI) (PHI) (SG) (SG) (PI) (PI) (DLTA) (DLTA)
                 (SG) (PI) (PI) (SG) (PHI) (PHI) (SG) (DLTA) (DLTA)
                 (PI) (PI) (SG) (PI) (PI) (SG) (SG) (PHI) (PHI)
                 (DLTA) (DLTA) (PI) (PI) (DLTA) (DLTA) (DLTA) (DLTA)
                 (PI) (PI) (SG) (PI) (PI) (PI) (PI) (SG) (SG) (?A)
                 (?A) (PHI) (PHI) (DLTA) (DLTA) (SG) (?B) (?B)
                 (?A) (?A) (PHI) (PHI) (PI) (PI) (DLTA) (DLTA)
                 (SG) (PI) (PI) (SG) (PI) (PI) (DLTA) (DLTA) (SG)
                 (PI) (PI) (SG) (PHI) (PHI) (DLTA) (DLTA) (PI)
                 (PI) (SG) (SG) (?A) (?A) (PHI) (PHI) (DLTA) (DLTA)
                 (PI) (PI) (SG) (?B) (?B) (?A) (?A) (PHI) (PHI)
                 (DLTA) (DLTA) (SG) (PI) (PI) (SG) (DLTA) (DLTA)
                 (PI) (PI) (SG) (PI) (PI) (SG) (PHI) (PHI) (DLTA)
                 (DLTA) (PI) (PI) (SG) (SG) (DLTA) (DLTA) (PI)
                 (PI) (SG) (?A) (?A) (PHI) (PHI) (DLTA) (DLTA)
                 (PI) (PI) (SG) (?B) (?B) (?A) (?A) (PHI) (PHI)
                 (DLTA) (DLTA) (PI) (PI) (SG) (PI) (PI) (SG) (DLTA)
                 (DLTA) (PI) (PI) (SG) (SG) (PI) (PI) (SG) (SG)
                 (DLTA) (DLTA) (PI) (PI) (SG) (PI) (PI) (SG) (SG)
                 (DLTA) (DLTA) (PI) (PI) (SG) (PI) (PI) (SG) (SG)
                 (DLTA) (DLTA) (PI) (PI) (SG) (PI) (PI) (SG) (SG)
                 (DLTA) (DLTA) (PI) (PI) (SG) (PI) (PI) (SG) (SG)
                 (PI) (PI) (SG) (SG) (PI) (PI) (SG) (SG) (PI) (PI)
                 (SG) (SG) (PI) (PI) (SG) (SG) (SG) (SG) (SG) (SG)
                 (DLTA) (DLTA) (SG) (SG) (SG) (DLTA) (SG) (SG)
                 (SG) (SG) (DLTA) (DLTA) (SG) (?A) (SG) (DLTA)
                 (DLTA) (SG) (?A) (SG) (SG) (DLTA) (?A) (SG) (DLTA)
                 (SG) (SG) (DLTA) (SG) (SG) (?A) (SG) (SG) (?A)
                 (SG) (SG) (DLTA) (?A) (SG) (SG) (?A) (SG) (SG)
                 (DLTA) (DLTA) (DLTA) (DLTA) (DLTA) (?A) (DLTA)
                 (DLTA) (?A) (DLTA) (?A) (SG) (DLTA) (DLTA) (?A)
                 (?A) (DLTA) (?A) (SG) (SG) (?A) (PI) (PI) (PI)
                 (PHI) (PI) (PI) (PHI) (PI) (PI) (PHI) (PI) (?B)
                 (PHI) (PI) (PI) (PHI) (?B) (PI) (PHI) (PI) (PHI)
                 (PI) (PI) (PHI) (PHI) (?B) (?B) (PI) (PI) (PI)
                 (PHI) (PI) (PI) (PHI) (PI) (PI) (PHI) (PI) (?B)
                 (PHI) (PI) (PI) (PHI) (?B) (PI) (PHI) (PI) (PHI)
                 (PI) (PI) (PHI) (PHI) (?B) (?B)
 The electronic state of the initial guess is 2-SG.
 Leave Link  401 at Sun Apr 29 13:54:41 2018, MaxMem= 21474836480 cpu:              11.3 elap:               0.4
 (Enter /home1/apps/gaussian/16rA.03/g16/l502.exe)
 Keep R1 and R2 ints in memory in symmetry-blocked form, NReq=5277864979.
 FoFCou: FMM=F IPFlag=           8 FMFlag=           0 FMFlg1=           0
         NFxFlg=           0 DoJE=F BraDBF=F KetDBF=F FulRan=T
         wScrn=  0.000000 ICntrl=       600 IOpCl=  0 I1Cent=           0 NGrid=           0
         NMat0=    1 NMatS0=  91806 NMatT0=    0 NMatD0=    1 NMtDS0=    0 NMtDT0=    0
 Petite list used in FoFCou.
 Restricted open shell SCF:
 Using DIIS extrapolation, IDIIS=  1040.
 NGot= 21474836480 LenX= 19347000587 LenY= 19346638785
 Requested convergence on RMS density matrix=1.00D-08 within 400 cycles.
 Requested convergence on MAX density matrix=1.00D-06.
 Requested convergence on             energy=1.00D-06.
 Virtual orbitals will be shifted by   0.200 hartree.
 No special actions if energy rises.

 Cycle   1  Pass 1  IDiag  1:
 E= -1794.74486609698    
 DIIS: error= 2.12D+00 at cycle   1 NSaved=   1.
 NSaved= 1 IEnMin= 1 EnMin= -1794.74486609698     IErMin= 1 ErrMin= 2.12D+00
 ErrMax= 2.12D+00  0.00D+00 EMaxC= 1.00D-01 BMatC= 6.91D+02 BMatP= 6.91D+02
 IDIUse=3 WtCom= 0.00D+00 WtEn= 1.00D+00
 Coeff-Com:  0.100D+01
 Coeff-En:   0.100D+01
 Coeff:      0.100D+01
 Fock symm off for IB=2 I1=    6 I=  173 J=  167 Cut=1.00D-07 Err=1.89D-07
 Fock matrix is not symmetric: symmetry in diagonalization turned off.
 Gap=     0.105 Goal=   None    Shift=    0.200
 GapD=    0.105 DampG=1.000 DampE=0.125 DampFc=0.1250 IDamp=-1.
 Damping current iteration by 1.25D-01
 RMSDP=1.17D-03 MaxDP=9.30D-02              OVMax= 1.00D+00

 Cycle   2  Pass 1  IDiag  1:
 E= -1794.74493471763     Delta-E=       -0.000068620647 Rises=F Damp=T
 DIIS: error= 1.86D+00 at cycle   2 NSaved=   2.
 NSaved= 2 IEnMin= 2 EnMin= -1794.74493471763     IErMin= 2 ErrMin= 1.86D+00
 ErrMax= 1.86D+00  0.00D+00 EMaxC= 1.00D-01 BMatC= 5.29D+02 BMatP= 6.91D+02
 IDIUse=3 WtCom= 0.00D+00 WtEn= 1.00D+00
 Coeff-Com: -0.700D+01 0.800D+01
 Coeff-En:   0.000D+00 0.100D+01
 Coeff:      0.000D+00 0.100D+01
 Gap=     0.086 Goal=   None    Shift=    0.200
 RMSDP=1.03D-03 MaxDP=8.18D-02 DE=-6.86D-05 OVMax= 3.84D-04

 Cycle   3  Pass 1  IDiag  1:
 E= -1794.74541758792     Delta-E=       -0.000482870288 Rises=F Damp=F
 DIIS: error= 7.75D-05 at cycle   3 NSaved=   3.
 NSaved= 3 IEnMin= 3 EnMin= -1794.74541758792     IErMin= 3 ErrMin= 7.75D-05
 ErrMax= 7.75D-05  0.00D+00 EMaxC= 1.00D-01 BMatC= 6.03D-07 BMatP= 5.29D+02
 IDIUse=1 WtCom= 1.00D+00 WtEn= 0.00D+00
 Coeff-Com: -0.236D+00 0.270D+00 0.966D+00
 Coeff:     -0.236D+00 0.270D+00 0.966D+00
 Gap=     0.085 Goal=   None    Shift=    0.200
 DSYEVD-2 returned Info=      135946 IAlg= 4 N=   424 NDim=   424 NE2=    45628864 trying  DSYEV.
 RMSDP=3.77D-05 MaxDP=6.79D-03 DE=-4.83D-04 OVMax= 1.21D-04

 Cycle   4  Pass 1  IDiag  1:
 E= -1794.74541774919     Delta-E=       -0.000000161272 Rises=F Damp=F
 DIIS: error= 1.07D-05 at cycle   4 NSaved=   4.
 NSaved= 4 IEnMin= 4 EnMin= -1794.74541774919     IErMin= 4 ErrMin= 1.07D-05
 ErrMax= 1.07D-05  0.00D+00 EMaxC= 1.00D-01 BMatC= 1.12D-08 BMatP= 6.03D-07
 IDIUse=1 WtCom= 1.00D+00 WtEn= 0.00D+00
 Coeff-Com: -0.236D+00 0.270D+00-0.111D+00 0.108D+01
 Coeff:     -0.236D+00 0.270D+00-0.111D+00 0.108D+01
 Gap=     0.085 Goal=   None    Shift=    0.200
 RMSDP=7.59D-06 MaxDP=1.25D-03 DE=-1.61D-07 OVMax= 3.44D-05

 Cycle   5  Pass 1  IDiag  1:
 E= -1794.74541775610     Delta-E=       -0.000000006915 Rises=F Damp=F
 DIIS: error= 9.18D-06 at cycle   5 NSaved=   5.
 NSaved= 5 IEnMin= 5 EnMin= -1794.74541775610     IErMin= 5 ErrMin= 9.18D-06
 ErrMax= 9.18D-06  0.00D+00 EMaxC= 1.00D-01 BMatC= 5.03D-09 BMatP= 1.12D-08
 IDIUse=1 WtCom= 1.00D+00 WtEn= 0.00D+00
 Coeff-Com: -0.231D+00 0.264D+00-0.345D-01-0.279D+00 0.128D+01
 Coeff:     -0.231D+00 0.264D+00-0.345D-01-0.279D+00 0.128D+01
 Gap=     0.085 Goal=   None    Shift=    0.200
 DSYEVD-2 returned Info=      135946 IAlg= 4 N=   424 NDim=   424 NE2=    45628864 trying  DSYEV.
 RMSDP=2.17D-06 MaxDP=4.68D-04 DE=-6.92D-09 OVMax= 1.36D-05

 Cycle   6  Pass 1  IDiag  1:
 E= -1794.74541775707     Delta-E=       -0.000000000965 Rises=F Damp=F
 DIIS: error= 8.64D-06 at cycle   6 NSaved=   6.
 NSaved= 6 IEnMin= 6 EnMin= -1794.74541775707     IErMin= 6 ErrMin= 8.64D-06
 ErrMax= 8.64D-06  0.00D+00 EMaxC= 1.00D-01 BMatC= 4.49D-09 BMatP= 5.03D-09
 IDIUse=1 WtCom= 1.00D+00 WtEn= 0.00D+00
 Coeff-Com: -0.227D+00 0.259D+00-0.354D-01-0.174D+00 0.461D+00 0.716D+00
 Coeff:     -0.227D+00 0.259D+00-0.354D-01-0.174D+00 0.461D+00 0.716D+00
 Gap=     0.085 Goal=   None    Shift=    0.200
 RMSDP=8.29D-07 MaxDP=2.43D-04 DE=-9.65D-10 OVMax= 6.35D-06

 Cycle   7  Pass 1  IDiag  1:
 E= -1794.74541775744     Delta-E=       -0.000000000370 Rises=F Damp=F
 DIIS: error= 8.39D-06 at cycle   7 NSaved=   7.
 NSaved= 7 IEnMin= 7 EnMin= -1794.74541775744     IErMin= 7 ErrMin= 8.39D-06
 ErrMax= 8.39D-06  0.00D+00 EMaxC= 1.00D-01 BMatC= 4.25D-09 BMatP= 4.49D-09
 IDIUse=1 WtCom= 1.00D+00 WtEn= 0.00D+00
 Coeff-Com: -0.220D+00 0.252D+00-0.395D-01-0.192D-01-0.185D+00 0.155D+00
 Coeff-Com:  0.106D+01
 Coeff:     -0.220D+00 0.252D+00-0.395D-01-0.192D-01-0.185D+00 0.155D+00
 Coeff:      0.106D+01
 Gap=     0.085 Goal=   None    Shift=    0.200
 RMSDP=7.79D-07 MaxDP=2.47D-04 DE=-3.70D-10 OVMax= 4.90D-06

 Cycle   8  Pass 1  IDiag  1:
 E= -1794.74541775793     Delta-E=       -0.000000000489 Rises=F Damp=F
 DIIS: error= 8.16D-06 at cycle   8 NSaved=   8.
 NSaved= 8 IEnMin= 8 EnMin= -1794.74541775793     IErMin= 8 ErrMin= 8.16D-06
 ErrMax= 8.16D-06  0.00D+00 EMaxC= 1.00D-01 BMatC= 4.03D-09 BMatP= 4.25D-09
 IDIUse=1 WtCom= 1.00D+00 WtEn= 0.00D+00
 Coeff-Com: -0.214D+00 0.244D+00-0.386D-01-0.200D-01-0.718D-01-0.110D+00
 Coeff-Com: -0.434D-01 0.125D+01
 Coeff:     -0.214D+00 0.244D+00-0.386D-01-0.200D-01-0.718D-01-0.110D+00
 Coeff:     -0.434D-01 0.125D+01
 Gap=     0.085 Goal=   None    Shift=    0.200
 RMSDP=8.17D-07 MaxDP=2.62D-04 DE=-4.89D-10 OVMax= 5.13D-06

 Cycle   9  Pass 1  IDiag  1:
 E= -1794.74541775846     Delta-E=       -0.000000000536 Rises=F Damp=F
 DIIS: error= 7.91D-06 at cycle   9 NSaved=   9.
 NSaved= 9 IEnMin= 9 EnMin= -1794.74541775846     IErMin= 9 ErrMin= 7.91D-06
 ErrMax= 7.91D-06  0.00D+00 EMaxC= 1.00D-01 BMatC= 3.80D-09 BMatP= 4.03D-09
 IDIUse=1 WtCom= 1.00D+00 WtEn= 0.00D+00
 Coeff-Com: -0.192D+00 0.219D+00-0.329D-01-0.766D-01 0.248D+00-0.249D-01
 Coeff-Com: -0.685D+00-0.208D+01 0.362D+01
 Coeff:     -0.192D+00 0.219D+00-0.329D-01-0.766D-01 0.248D+00-0.249D-01
 Coeff:     -0.685D+00-0.208D+01 0.362D+01
 Gap=     0.085 Goal=   None    Shift=    0.200
 DSYEVD-2 returned Info=      135946 IAlg= 4 N=   424 NDim=   424 NE2=    45628864 trying  DSYEV.
 RMSDP=1.97D-06 MaxDP=6.33D-04 DE=-5.36D-10 OVMax= 1.07D-05

 Cycle  10  Pass 1  IDiag  1:
 E= -1794.74541775960     Delta-E=       -0.000000001140 Rises=F Damp=F
 DIIS: error= 7.29D-06 at cycle  10 NSaved=  10.
 NSaved=10 IEnMin=10 EnMin= -1794.74541775960     IErMin=10 ErrMin= 7.29D-06
 ErrMax= 7.29D-06  0.00D+00 EMaxC= 1.00D-01 BMatC= 3.26D-09 BMatP= 3.80D-09
 IDIUse=1 WtCom= 1.00D+00 WtEn= 0.00D+00
 Coeff-Com: -0.178D+00 0.204D+00-0.309D-01-0.459D-01 0.733D-01 0.636D-01
 Coeff-Com:  0.134D-03-0.846D+00-0.504D-01 0.181D+01
 Coeff:     -0.178D+00 0.204D+00-0.309D-01-0.459D-01 0.733D-01 0.636D-01
 Coeff:      0.134D-03-0.846D+00-0.504D-01 0.181D+01
 Gap=     0.085 Goal=   None    Shift=    0.200
 DSYEVD-2 returned Info=      135946 IAlg= 4 N=   424 NDim=   424 NE2=    45628864 trying  DSYEV.
 RMSDP=1.77D-06 MaxDP=5.72D-04 DE=-1.14D-09 OVMax= 1.16D-05

 Cycle  11  Pass 1  IDiag  1:
 E= -1794.74541776071     Delta-E=       -0.000000001111 Rises=F Damp=F
 DIIS: error= 6.76D-06 at cycle  11 NSaved=  11.
 NSaved=11 IEnMin=11 EnMin= -1794.74541776071     IErMin=11 ErrMin= 6.76D-06
 ErrMax= 6.76D-06  0.00D+00 EMaxC= 1.00D-01 BMatC= 2.81D-09 BMatP= 3.26D-09
 IDIUse=1 WtCom= 1.00D+00 WtEn= 0.00D+00
 Large coefficients: NSaved= 11 BigCof=   12.47 CofMax=   10.00 Det=-9.16D-14
 Inversion failed.  Reducing to 10 matrices.
 Large coefficients: NSaved= 10 BigCof=   14.56 CofMax=   10.00 Det=-1.01D-13
 Inversion failed.  Reducing to  9 matrices.
 Large coefficients: NSaved=  9 BigCof=   14.57 CofMax=   10.00 Det=-1.04D-13
 Inversion failed.  Reducing to  8 matrices.
 Large coefficients: NSaved=  8 BigCof=   14.59 CofMax=   10.00 Det=-1.19D-13
 Inversion failed.  Reducing to  7 matrices.
 Large coefficients: NSaved=  7 BigCof=   14.65 CofMax=   10.00 Det=-2.08D-13
 Inversion failed.  Reducing to  6 matrices.
 Large coefficients: NSaved=  6 BigCof=   14.66 CofMax=   10.00 Det=-2.19D-13
 Inversion failed.  Reducing to  5 matrices.
 Large coefficients: NSaved=  5 BigCof=   14.67 CofMax=   10.00 Det=-2.42D-13
 Inversion failed.  Reducing to  4 matrices.
 Large coefficients: NSaved=  4 BigCof=   14.65 CofMax=   10.00 Det=-2.47D-13
 Inversion failed.  Reducing to  3 matrices.
 Large coefficients: NSaved=  3 BigCof=   14.69 CofMax=   10.00 Det=-2.47D-13
 Inversion failed.  Reducing to  2 matrices.
 Large coefficients: NSaved=  2 BigCof=   13.94 CofMax=   10.00 Det=-1.68D-11
 Coeff-Com: -0.129D+02 0.139D+02
 Coeff:     -0.129D+02 0.139D+02
 Gap=     0.085 Goal=   None    Shift=    0.200
 RMSDP=1.44D-05 MaxDP=4.61D-03 DE=-1.11D-09 OVMax= 7.09D-05

 Cycle  12  Pass 1  IDiag  1:
 E= -1794.74541776579     Delta-E=       -0.000000005072 Rises=F Damp=F
 DIIS: error= 2.25D-06 at cycle  12 NSaved=   3.
 NSaved= 3 IEnMin= 3 EnMin= -1794.74541776579     IErMin= 3 ErrMin= 2.25D-06
 ErrMax= 2.25D-06  0.00D+00 EMaxC= 1.00D-01 BMatC= 5.29D-10 BMatP= 2.81D-09
 IDIUse=1 WtCom= 1.00D+00 WtEn= 0.00D+00
 Large coefficients: NSaved=  3 BigCof=   14.63 CofMax=   10.00 Det=-1.15D-12
 Inversion failed.  Reducing to  2 matrices.
 Coeff-Com: -0.470D+00 0.147D+01
 Coeff:     -0.470D+00 0.147D+01
 Gap=     0.085 Goal=   None    Shift=    0.200
 RMSDP=5.91D-06 MaxDP=1.92D-03 DE=-5.07D-09 OVMax= 5.51D-05

 Cycle  13  Pass 1  IDiag  1:
 E= -1794.74541776746     Delta-E=       -0.000000001670 Rises=F Damp=F
 DIIS: error= 8.21D-07 at cycle  13 NSaved=   3.
 NSaved= 3 IEnMin= 3 EnMin= -1794.74541776746     IErMin= 3 ErrMin= 8.21D-07
 ErrMax= 8.21D-07  0.00D+00 EMaxC= 1.00D-01 BMatC= 6.73D-11 BMatP= 5.29D-10
 IDIUse=1 WtCom= 1.00D+00 WtEn= 0.00D+00
 Coeff-Com:  0.552D-01-0.672D+00 0.162D+01
 Coeff:      0.552D-01-0.672D+00 0.162D+01
 Gap=     0.085 Goal=   None    Shift=    0.200
 RMSDP=1.48D-06 MaxDP=4.77D-04 DE=-1.67D-09 OVMax= 1.36D-05

 Cycle  14  Pass 1  IDiag  1:
 E= -1794.74541776763     Delta-E=       -0.000000000173 Rises=F Damp=F
 DIIS: error= 4.90D-07 at cycle  14 NSaved=   4.
 NSaved= 4 IEnMin= 4 EnMin= -1794.74541776763     IErMin= 4 ErrMin= 4.90D-07
 ErrMax= 4.90D-07  0.00D+00 EMaxC= 1.00D-01 BMatC= 2.26D-11 BMatP= 6.73D-11
 IDIUse=1 WtCom= 1.00D+00 WtEn= 0.00D+00
 Coeff-Com:  0.511D-01-0.475D+00 0.618D+00 0.806D+00
 Coeff:      0.511D-01-0.475D+00 0.618D+00 0.806D+00
 Gap=     0.085 Goal=   None    Shift=    0.200
 RMSDP=5.96D-07 MaxDP=1.95D-04 DE=-1.73D-10 OVMax= 8.21D-06

 Cycle  15  Pass 1  IDiag  1:
 E= -1794.74541776769     Delta-E=       -0.000000000062 Rises=F Damp=F
 DIIS: error= 2.86D-07 at cycle  15 NSaved=   5.
 NSaved= 5 IEnMin= 5 EnMin= -1794.74541776769     IErMin= 5 ErrMin= 2.86D-07
 ErrMax= 2.86D-07  0.00D+00 EMaxC= 1.00D-01 BMatC= 7.61D-12 BMatP= 2.26D-11
 IDIUse=1 WtCom= 1.00D+00 WtEn= 0.00D+00
 Coeff-Com:  0.287D-01-0.186D+00-0.542D-01 0.163D+00 0.105D+01
 Coeff:      0.287D-01-0.186D+00-0.542D-01 0.163D+00 0.105D+01
 Gap=     0.085 Goal=   None    Shift=    0.200
 RMSDP=2.93D-07 MaxDP=9.48D-05 DE=-6.21D-11 OVMax= 5.11D-06

 Cycle  16  Pass 1  IDiag  1:
 E= -1794.74541776771     Delta-E=       -0.000000000020 Rises=F Damp=F
 DIIS: error= 1.65D-07 at cycle  16 NSaved=   6.
 NSaved= 6 IEnMin= 6 EnMin= -1794.74541776771     IErMin= 6 ErrMin= 1.65D-07
 ErrMax= 1.65D-07  0.00D+00 EMaxC= 1.00D-01 BMatC= 2.57D-12 BMatP= 7.61D-12
 IDIUse=1 WtCom= 1.00D+00 WtEn= 0.00D+00
 Coeff-Com: -0.156D-02 0.373D-01-0.138D-01-0.575D+00-0.322D+00 0.188D+01
 Coeff:     -0.156D-02 0.373D-01-0.138D-01-0.575D+00-0.322D+00 0.188D+01
 Gap=     0.085 Goal=   None    Shift=    0.200
 RMSDP=1.60D-07 MaxDP=5.27D-05 DE=-1.96D-11 OVMax= 2.64D-06

 Cycle  17  Pass 1  IDiag  1:
 E= -1794.74541776772     Delta-E=       -0.000000000010 Rises=F Damp=F
 DIIS: error= 1.02D-07 at cycle  17 NSaved=   7.
 NSaved= 7 IEnMin= 7 EnMin= -1794.74541776772     IErMin= 7 ErrMin= 1.02D-07
 ErrMax= 1.02D-07  0.00D+00 EMaxC= 1.00D-01 BMatC= 1.01D-12 BMatP= 2.57D-12
 IDIUse=1 WtCom= 1.00D+00 WtEn= 0.00D+00
 Coeff-Com: -0.501D-03 0.141D-01 0.714D-01-0.205D+00-0.477D+00-0.265D+00
 Coeff-Com:  0.186D+01
 Coeff:     -0.501D-03 0.141D-01 0.714D-01-0.205D+00-0.477D+00-0.265D+00
 Coeff:      0.186D+01
 Gap=     0.085 Goal=   None    Shift=    0.200
 RMSDP=7.68D-08 MaxDP=2.56D-05 DE=-9.78D-12 OVMax= 1.65D-06

 Cycle  18  Pass 1  IDiag  1:
 E= -1794.74541776772     Delta-E=        0.000000000002 Rises=F Damp=F
 DIIS: error= 6.38D-08 at cycle  18 NSaved=   8.
 NSaved= 8 IEnMin= 7 EnMin= -1794.74541776772     IErMin= 8 ErrMin= 6.38D-08
 ErrMax= 6.38D-08  0.00D+00 EMaxC= 1.00D-01 BMatC= 4.24D-13 BMatP= 1.01D-12
 IDIUse=1 WtCom= 1.00D+00 WtEn= 0.00D+00
 Coeff-Com: -0.186D-03 0.680D-02 0.324D-01 0.234D-01-0.257D+00-0.334D+00
 Coeff-Com: -0.651D+00 0.218D+01
 Coeff:     -0.186D-03 0.680D-02 0.324D-01 0.234D-01-0.257D+00-0.334D+00
 Coeff:     -0.651D+00 0.218D+01
 Gap=     0.085 Goal=   None    Shift=    0.200
 RMSDP=4.33D-08 MaxDP=1.41D-05 DE= 1.82D-12 OVMax= 1.08D-06

 Cycle  19  Pass 1  IDiag  1:
 E= -1794.74541776772     Delta-E=       -0.000000000006 Rises=F Damp=F
 DIIS: error= 4.07D-08 at cycle  19 NSaved=   9.
 NSaved= 9 IEnMin= 9 EnMin= -1794.74541776772     IErMin= 9 ErrMin= 4.07D-08
 ErrMax= 4.07D-08  0.00D+00 EMaxC= 1.00D-01 BMatC= 1.85D-13 BMatP= 4.24D-13
 IDIUse=1 WtCom= 1.00D+00 WtEn= 0.00D+00
 Coeff-Com: -0.110D-02 0.134D-01-0.242D-01-0.403D-01 0.413D-01 0.141D+00
 Coeff-Com:  0.118D+00-0.279D+01 0.354D+01
 Coeff:     -0.110D-02 0.134D-01-0.242D-01-0.403D-01 0.413D-01 0.141D+00
 Coeff:      0.118D+00-0.279D+01 0.354D+01
 Gap=     0.085 Goal=   None    Shift=    0.200
 RMSDP=2.44D-08 MaxDP=8.07D-06 DE=-5.68D-12 OVMax= 6.99D-07

 Cycle  20  Pass 1  IDiag  1:
 E= -1794.74541776772     Delta-E=        0.000000000002 Rises=F Damp=F
 DIIS: error= 2.63D-08 at cycle  20 NSaved=  10.
 NSaved=10 IEnMin= 9 EnMin= -1794.74541776772     IErMin=10 ErrMin= 2.63D-08
 ErrMax= 2.63D-08  0.00D+00 EMaxC= 1.00D-01 BMatC= 8.44D-14 BMatP= 1.85D-13
 IDIUse=1 WtCom= 1.00D+00 WtEn= 0.00D+00
 Coeff-Com: -0.860D-03 0.961D-02-0.110D-01-0.237D-01-0.544D-02-0.898D-01
 Coeff-Com:  0.700D+00-0.136D+01-0.899D+00 0.268D+01
 Coeff:     -0.860D-03 0.961D-02-0.110D-01-0.237D-01-0.544D-02-0.898D-01
 Coeff:      0.700D+00-0.136D+01-0.899D+00 0.268D+01
 Gap=     0.085 Goal=   None    Shift=    0.200
 DSYEVD-2 returned Info=         849 IAlg= 4 N=   424 NDim=   424 NE2=    45628864 trying  DSYEV.
 RMSDP=1.45D-08 MaxDP=4.66D-06 DE= 2.27D-12 OVMax= 4.66D-07

 Cycle  21  Pass 1  IDiag  1:
 E= -1794.74541776772     Delta-E=        0.000000000003 Rises=F Damp=F
 DIIS: error= 1.73D-08 at cycle  21 NSaved=  11.
 NSaved=11 IEnMin= 9 EnMin= -1794.74541776772     IErMin=11 ErrMin= 1.73D-08
 ErrMax= 1.73D-08  0.00D+00 EMaxC= 1.00D-01 BMatC= 4.03D-14 BMatP= 8.44D-14
 IDIUse=1 WtCom= 1.00D+00 WtEn= 0.00D+00
 Coeff-Com: -0.328D-03 0.404D-02-0.400D-02 0.359D-01-0.703D-01-0.107D+00
 Coeff-Com:  0.585D-01-0.594D-01 0.431D+00-0.188D+01 0.259D+01
 Coeff:     -0.328D-03 0.404D-02-0.400D-02 0.359D-01-0.703D-01-0.107D+00
 Coeff:      0.585D-01-0.594D-01 0.431D+00-0.188D+01 0.259D+01
 Gap=     0.085 Goal=   None    Shift=    0.200
 RMSDP=8.64D-09 MaxDP=2.78D-06 DE= 2.73D-12 OVMax= 3.07D-07

 Cycle  22  Pass 1  IDiag  1:
 E= -1794.74541776772     Delta-E=       -0.000000000004 Rises=F Damp=F
 DIIS: error= 1.14D-08 at cycle  22 NSaved=  12.
 NSaved=12 IEnMin= 9 EnMin= -1794.74541776772     IErMin=12 ErrMin= 1.14D-08
 ErrMax= 1.14D-08  0.00D+00 EMaxC= 1.00D-01 BMatC= 2.06D-14 BMatP= 4.03D-14
 IDIUse=1 WtCom= 1.00D+00 WtEn= 0.00D+00
 Coeff-Com: -0.211D-03 0.234D-02-0.539D-02 0.203D-01-0.353D-02-0.305D-01
 Coeff-Com: -0.128D+00-0.309D+00 0.131D+01-0.160D+01-0.450D+00 0.220D+01
 Coeff:     -0.211D-03 0.234D-02-0.539D-02 0.203D-01-0.353D-02-0.305D-01
 Coeff:     -0.128D+00-0.309D+00 0.131D+01-0.160D+01-0.450D+00 0.220D+01
 Gap=     0.085 Goal=   None    Shift=    0.200
 RMSDP=5.61D-09 MaxDP=1.76D-06 DE=-3.87D-12 OVMax= 2.05D-07

 Cycle  23  Pass 1  IDiag  1:
 E= -1794.74541776772     Delta-E=        0.000000000001 Rises=F Damp=F
 DIIS: error= 7.97D-09 at cycle  23 NSaved=  13.
 NSaved=13 IEnMin= 9 EnMin= -1794.74541776772     IErMin=13 ErrMin= 7.97D-09
 ErrMax= 7.97D-09  0.00D+00 EMaxC= 1.00D-01 BMatC= 1.16D-14 BMatP= 2.06D-14
 IDIUse=1 WtCom= 1.00D+00 WtEn= 0.00D+00
 Coeff-Com: -0.165D-03 0.153D-02-0.194D-02-0.946D-02 0.136D-01 0.499D-01
 Coeff-Com: -0.476D-01-0.220D+00 0.203D+00-0.303D-01 0.155D+00-0.179D+01
 Coeff-Com:  0.268D+01
 Coeff:     -0.165D-03 0.153D-02-0.194D-02-0.946D-02 0.136D-01 0.499D-01
 Coeff:     -0.476D-01-0.220D+00 0.203D+00-0.303D-01 0.155D+00-0.179D+01
 Coeff:      0.268D+01
 Gap=     0.085 Goal=   None    Shift=    0.200
 RMSDP=3.63D-09 MaxDP=1.12D-06 DE= 9.09D-13 OVMax= 1.38D-07

 Cycle  24  Pass 1  IDiag  1:
 E= -1794.74541776772     Delta-E=       -0.000000000001 Rises=F Damp=F
 DIIS: error= 7.97D-09 at cycle  24 NSaved=  14.
 NSaved=14 IEnMin= 9 EnMin= -1794.74541776772     IErMin=13 ErrMin= 7.97D-09
 ErrMax= 7.97D-09  0.00D+00 EMaxC= 1.00D-01 BMatC= 7.55D-15 BMatP= 1.16D-14
 IDIUse=1 WtCom= 1.00D+00 WtEn= 0.00D+00
 Coeff-Com: -0.126D-03 0.110D-02-0.933D-03-0.783D-02 0.877D-02 0.366D-01
 Coeff-Com: -0.218D-01-0.142D+00 0.538D-01-0.557D-02 0.207D+00-0.107D+01
 Coeff-Com:  0.767D+00 0.118D+01
 Coeff:     -0.126D-03 0.110D-02-0.933D-03-0.783D-02 0.877D-02 0.366D-01
 Coeff:     -0.218D-01-0.142D+00 0.538D-01-0.557D-02 0.207D+00-0.107D+01
 Coeff:      0.767D+00 0.118D+01
 Gap=     0.085 Goal=   None    Shift=    0.200
 RMSDP=2.33D-09 MaxDP=7.12D-07 DE=-9.09D-13 OVMax= 9.39D-08

 SCF Done:  E(ROHF) =  -1794.74541777     A.U. after   24 cycles
            NFock= 24  Conv=0.23D-08     -V/T= 1.9475
 <Sx>= 0.0000 <Sy>= 0.0000 <Sz>= 0.5000 <S**2>= 0.7500 S= 0.5000
 <L.S>=  0.00000000000    
 KE= 1.894257419754D+03 PE=-4.424716530988D+03 EE= 7.224842631938D+02
 Annihilation of the first spin contaminant:
 S**2 before annihilation     0.7500,   after     0.7500
 Leave Link  502 at Sun Apr 29 13:55:56 2018, MaxMem= 21474836480 cpu:            1624.9 elap:              74.5
 (Enter /home1/apps/gaussian/16rA.03/g16/l801.exe)
 Windowed orbitals will be sorted by symmetry type.
 An orbital has undefined symmetry, so N**3 symmetry is turned off.
 GenMOA:  NOpAll=  4 NOp2=4 NOpUse=  4 JSym2X=1
 FoFJK:  IHMeth= 1 ICntrl=       0 DoSepK=F KAlg= 0 I1Cent=           0 FoldK=F
 IRaf=         0 NMat=       1 IRICut=       1 DoRegI=T DoRafI=F ISym2E= 1 IDoP0=0 IntGTp=1.
 FoFCou: FMM=F IPFlag=           8 FMFlag=      100000 FMFlg1=           0
         NFxFlg=           0 DoJE=F BraDBF=F KetDBF=F FulRan=T
         wScrn=  0.000000 ICntrl=         0 IOpCl=  1 I1Cent=           0 NGrid=           0
         NMat0=    1 NMatS0=      1 NMatT0=    0 NMatD0=    1 NMtDS0=    0 NMtDT0=    0
 Petite list used in FoFCou.
 <Sx>= 0.0000 <Sy>= 0.0000 <Sz>= 0.5000 <S**2>= 0.7500 S= 0.5000
 ExpMin= 1.42D-02 ExpMax= 1.87D+08 ExpMxC= 1.87D+08 IAcc=4 IRadAn=    399590 AccDes= 0.00D+00
 HarFok:  IExCor=  205 AccDes= 0.00D+00 IRadAn=    399590 IDoV=-2 UseB2=F ITyADJ=14
 ICtDFT= 12500011 ScaDFX=  1.000000  1.000000  1.000000  1.000000
 Spurious integrated density or basis function:
 NE=   31 NElCor=    0 El error=4.52D-09 rel=1.46D-10 Tolerance=1.00D-03
 Shell     1     absolute error=6.33D-02              Tolerance=1.20D-02
 Shell     1       signed error=6.33D-02              Tolerance=1.00D-01
 Largest valence mixing into a core orbital is  7.56D-05
 Largest core mixing into a valence orbital is  2.13D-05
 Largest valence mixing into a core orbital is  7.57D-05
 Largest core mixing into a valence orbital is  2.14D-05
 Range of M.O.s used for correlation:     6   424
 NBasis=   428 NAE=    16 NBE=    15 NFC=     5 NFV=     0
 NROrb=    419 NOA=    11 NOB=    10 NVA=   408 NVB=   409

 **** Warning!!: The largest alpha MO coefficient is  0.32991377D+03


 **** Warning!!: The largest beta MO coefficient is  0.32991992D+03

 Singles contribution to E2=   -0.7844535841D-03
 Leave Link  801 at Sun Apr 29 13:56:15 2018, MaxMem= 21474836480 cpu:             606.8 elap:              19.0
 (Enter /home1/apps/gaussian/16rA.03/g16/l804.exe)
 Open-shell transformation, MDV= 21474836480 ITran=4 ISComp=1.
 Unit  1 TFree=       5554751 TCopy=       4236379.
 Semi-Direct transformation.
 ModeAB=           2 MOrb=            11 LenV=   21469487517
 LASXX=    397586728 LTotXX=   397586728 LenRXX=   397586728
 LTotAB=   400706460 MaxLAS=   833772709 LenRXY=   833772709
 NonZer=   848415502 LenScr=  1277614080 LnRSAI=           0
 LnScr1=           0 LExtra=    31033957 Total=   2540007474
 MaxDsk= 67108864000 SrtSym=           F ITran=            4
 DoSDTr:  NPSUse= 32
 JobTyp=1 Pass  1:  I=   1 to  11.
 (rs|ai) integrals will be sorted in core.
 Complete sort for first half transformation.
 First half transformation complete.
 Begin second half transformation for I=  10.
 Begin second half transformation for I=  10.
 Complete sort for second half transformation.
 Second half transformation complete.
 ModeAB=           2 MOrb=            10 LenV=   21469487517
 LASXX=    361921045 LTotXX=   361921045 LenRXX=   757975190
 LTotAB=   345842220 MaxLAS=   757975190 LenRXY=   345842220
 NonZer=   771286820 LenScr=  1161467904 LnRSAI=           0
 LnScr1=           0 LExtra=  1262393394 Total=   3527678708
 MaxDsk= 67108864000 SrtSym=           F ITran=            4
 DoSDTr:  NPSUse= 32
 JobTyp=2 Pass  1:  I=   1 to  10.
 (rs|ai) integrals will be sorted in core.
 Complete sort for first half transformation.
 First half transformation complete.
 Begin second half transformation for I=  10.
 Begin second half transformation for I=  10.
 Complete sort for second half transformation.
 Second half transformation complete.
 SymMOI:  orbitals are not symmetric.
 Spin components of T(2) and E(2):
     alpha-alpha T2 =       0.1972207839D-01 E2=     -0.1818456676D+00
     alpha-beta  T2 =       0.7883571599D-01 E2=     -0.7733405893D+00
     beta-beta   T2 =       0.1715998296D-01 E2=     -0.1734595843D+00
 ANorm=    0.1056609712D+01
 E2 =    -0.1129430295D+01 EUMP2 =    -0.17958748480625D+04
 (S**2,0)=  0.75000D+00           (S**2,1)=  0.75000D+00
 E(PUHF)=      -0.17947454178D+04        E(PMP2)=      -0.17958748481D+04
 Leave Link  804 at Sun Apr 29 14:06:37 2018, MaxMem= 21474836480 cpu:           19803.4 elap:             621.0
 (Enter /home1/apps/gaussian/16rA.03/g16/l913.exe)
 CIDS:  MDV= 21474836480.
 Frozen-core window:  NFC=   5 NFV=   0.
 IFCWin=0 IBDFC=1 NFBD=     0     0 NFCmp=     0     0 NFFFC=     0     0
 Using original routines for 1st iteration.
 Using DD4UQ or CC4UQ for 2nd and later iterations.
 Keep R2 and R3 ints in memory in symmetry-blocked form, NReq=5277894331.
 FoFCou: FMM=F IPFlag=           8 FMFlag=           0 FMFlg1=           0
         NFxFlg=           0 DoJE=F BraDBF=F KetDBF=F FulRan=T
         wScrn=  0.000000 ICntrl=       600 IOpCl=  0 I1Cent=           0 NGrid=           0
         NMat0=    1 NMatS0=  91806 NMatT0=    0 NMatD0=    1 NMtDS0=    0 NMtDT0=    0
 Petite list used in FoFCou.
 CIDS: In Core Option IDoMem=           1.
 CCSD(T)
 =======
 Iterations= 150 Convergence= 0.100D-06
 Produce multiple copies of IABC intergrals
 Iteration Nr.   1
 **********************
 DD1Dir will call FoFMem   1 times, MxPair=       320
 NAB=   110 NAA=    55 NBB=    45.
 DD1Dir will call FoFMem   1 times, MxPair=       320
 NAB=   110 NAA=    55 NBB=    45.
 MP4(R+Q)= -0.17436221D+00
 Maximum subspace dimension=  5
 A-vector RMS=  7.2692388D-05 Max=  1.2297651D-03 conv= 1.00D-05.
 RLE energy=       -1.1394319841
 E3=        0.16439702D+00        EROMP3=      -0.17957104510D+04
 E4(SDQ)=  -0.99767432D-01        ROMP4(SDQ)=  -0.17958102185D+04
 VARIATIONAL ENERGIES WITH THE FIRST-ORDER WAVEFUNCTION:
 DE(Corr)=  -1.1393445     E(Corr)=     -1795.8847623    
 NORM(A)=   0.10573301D+01
 Iteration Nr.   2
 **********************
 DD1Dir will call FoFMem   1 times, MxPair=       320
 NAB=   110 NAA=    55 NBB=    45.
 A-vector RMS=  2.3578572D-03 Max=  2.4851612D-02 conv= 1.00D-05.
 RLE energy=       -1.1133790668
 DE(Corr)= -0.96770419     E(CORR)=     -1795.7131220     Delta= 1.72D-01
 NORM(A)=   0.10541357D+01
 Iteration Nr.   3
 **********************
 DD1Dir will call FoFMem   1 times, MxPair=       320
 NAB=   110 NAA=    55 NBB=    45.
 A-vector RMS=  1.8801411D-03 Max=  2.1940416D-02 conv= 1.00D-05.
 RLE energy=       -1.0592364452
 DE(Corr)= -0.97830490     E(CORR)=     -1795.7237227     Delta=-1.06D-02
 NORM(A)=   0.10513900D+01
 Iteration Nr.   4
 **********************
 DD1Dir will call FoFMem   1 times, MxPair=       320
 NAB=   110 NAA=    55 NBB=    45.
 A-vector RMS=  1.0802599D-03 Max=  1.4614855D-02 conv= 1.00D-05.
 RLE energy=       -0.9479843525
 DE(Corr)=  -1.0033274     E(CORR)=     -1795.7487452     Delta=-2.50D-02
 NORM(A)=   0.10637386D+01
 Iteration Nr.   5
 **********************
 DD1Dir will call FoFMem   1 times, MxPair=       320
 NAB=   110 NAA=    55 NBB=    45.
 A-vector RMS=  1.5389475D-03 Max=  1.3674936D-02 conv= 1.00D-05.
 RLE energy=       -1.0175394959
 DE(Corr)=  -1.0657427     E(CORR)=     -1795.8111605     Delta=-6.24D-02
 NORM(A)=   0.10594893D+01
 Iteration Nr.   6
 **********************
 DD1Dir will call FoFMem   1 times, MxPair=       320
 NAB=   110 NAA=    55 NBB=    45.
 A-vector RMS=  1.6218951D-04 Max=  1.8629373D-03 conv= 1.00D-05.
 RLE energy=       -1.0254357506
 DE(Corr)=  -1.0293234     E(CORR)=     -1795.7747412     Delta= 3.64D-02
 NORM(A)=   0.10579974D+01
 Iteration Nr.   7
 **********************
 DD1Dir will call FoFMem   1 times, MxPair=       320
 NAB=   110 NAA=    55 NBB=    45.
 A-vector RMS=  4.7753561D-05 Max=  1.3278366D-03 conv= 1.00D-05.
 RLE energy=       -1.0246321903
 DE(Corr)=  -1.0246472     E(CORR)=     -1795.7700650     Delta= 4.68D-03
 NORM(A)=   0.10583213D+01
 Iteration Nr.   8
 **********************
 DD1Dir will call FoFMem   1 times, MxPair=       320
 NAB=   110 NAA=    55 NBB=    45.
 A-vector RMS=  2.9910720D-05 Max=  5.3584851D-04 conv= 1.00D-05.
 RLE energy=       -1.0248489469
 DE(Corr)=  -1.0249909     E(CORR)=     -1795.7704087     Delta=-3.44D-04
 NORM(A)=   0.10584684D+01
 Iteration Nr.   9
 **********************
 DD1Dir will call FoFMem   1 times, MxPair=       320
 NAB=   110 NAA=    55 NBB=    45.
 A-vector RMS=  1.4184241D-05 Max=  1.8284387D-04 conv= 1.00D-05.
 RLE energy=       -1.0248942652
 DE(Corr)=  -1.0248798     E(CORR)=     -1795.7702976     Delta= 1.11D-04
 NORM(A)=   0.10585513D+01
 Iteration Nr.  10
 **********************
 DD1Dir will call FoFMem   1 times, MxPair=       320
 NAB=   110 NAA=    55 NBB=    45.
 A-vector RMS=  4.9170604D-06 Max=  8.9459476D-05 conv= 1.00D-05.
 RLE energy=       -1.0248902342
 DE(Corr)=  -1.0248958     E(CORR)=     -1795.7703136     Delta=-1.60D-05
 NORM(A)=   0.10585474D+01
 Iteration Nr.  11
 **********************
 DD1Dir will call FoFMem   1 times, MxPair=       320
 NAB=   110 NAA=    55 NBB=    45.
 A-vector RMS=  2.5769091D-06 Max=  4.7494667D-05 conv= 1.00D-05.
 RLE energy=       -1.0248851591
 DE(Corr)=  -1.0248942     E(CORR)=     -1795.7703119     Delta= 1.65D-06
 NORM(A)=   0.10585348D+01
 Iteration Nr.  12
 **********************
 DD1Dir will call FoFMem   1 times, MxPair=       320
 NAB=   110 NAA=    55 NBB=    45.
 A-vector RMS=  9.5977241D-07 Max=  1.7165464D-05 conv= 1.00D-05.
 RLE energy=       -1.0248930258
 DE(Corr)=  -1.0248929     E(CORR)=     -1795.7703106     Delta= 1.28D-06
 NORM(A)=   0.10585307D+01
 Iteration Nr.  13
 **********************
 DD1Dir will call FoFMem   1 times, MxPair=       320
 NAB=   110 NAA=    55 NBB=    45.
 A-vector RMS=  4.1564515D-07 Max=  8.6895068D-06 conv= 1.00D-05.
 RLE energy=       -1.0248876904
 DE(Corr)=  -1.0248874     E(CORR)=     -1795.7703051     Delta= 5.50D-06
 NORM(A)=   0.10585291D+01
 Iteration Nr.  14
 **********************
 DD1Dir will call FoFMem   1 times, MxPair=       320
 NAB=   110 NAA=    55 NBB=    45.
 A-vector RMS=  1.6791779D-07 Max=  2.0775280D-06 conv= 1.00D-05.
 RLE energy=       -1.0248884319
 DE(Corr)=  -1.0248892     E(CORR)=     -1795.7703070     Delta=-1.84D-06
 NORM(A)=   0.10585287D+01
 Iteration Nr.  15
 **********************
 DD1Dir will call FoFMem   1 times, MxPair=       320
 NAB=   110 NAA=    55 NBB=    45.
 A-vector RMS=  7.3718529D-08 Max=  1.0072931D-06 conv= 1.00D-05.
 RLE energy=       -1.0248885342
 DE(Corr)=  -1.0248885     E(CORR)=     -1795.7703063     Delta= 7.36D-07
 NORM(A)=   0.10585290D+01
 Iteration Nr.  16
 **********************
 DD1Dir will call FoFMem   1 times, MxPair=       320
 NAB=   110 NAA=    55 NBB=    45.
 A-vector RMS=  4.6243584D-08 Max=  7.4797033D-07 conv= 1.00D-05.
 RLE energy=       -1.0248885869
 DE(Corr)=  -1.0248886     E(CORR)=     -1795.7703064     Delta=-1.28D-07
 NORM(A)=   0.10585292D+01
 Iteration Nr.  17
 **********************
 DD1Dir will call FoFMem   1 times, MxPair=       320
 NAB=   110 NAA=    55 NBB=    45.
 A-vector RMS=  2.7752400D-08 Max=  5.1652749D-07 conv= 1.00D-05.
 RLE energy=       -1.0248886568
 DE(Corr)=  -1.0248886     E(CORR)=     -1795.7703064     Delta=-1.59D-08
 NORM(A)=   0.10585294D+01
 CI/CC converged in   17 iterations to DelEn=-1.59D-08 Conv= 1.00D-07 ErrA1= 2.78D-08 Conv= 1.00D-05
 Wavefunction amplitudes converged. E(Corr)=     -1795.7703064    
 Largest amplitude= 5.93D-02
 Time for triples=   177852.74 seconds.
 T4(CCSD)= -0.32749680D-01
 T5(CCSD)=  0.31618408D-02
 CCSD(T)= -0.17957998942D+04
 Discarding MO integrals.
 Leave Link  913 at Sun Apr 29 16:02:15 2018, MaxMem= 21474836480 cpu:          220374.1 elap:            6937.6
 (Enter /home1/apps/gaussian/16rA.03/g16/l601.exe)
 Copying SCF densities to generalized density rwf, IOpCl= 0 IROHF=1.

 **********************************************************************

            Population analysis using the SCF density.

 **********************************************************************

 Orbital symmetries:
       Occupied  (SG) (SG) (PI) (PI) (SG) (SG) (SG) (PI) (PI) (SG)
                 (DLTA) (DLTA) (PI) (PI) (SG) (SG)
       Virtual   (SG) (PI) (PI) (SG) (PI) (PI) (SG) (SG) (SG) (PI)
                 (PI) (DLTA) (DLTA) (SG) (PI) (PI) (SG) (PI) (PI)
                 (SG) (SG) (SG) (PI) (PI) (DLTA) (DLTA) (DLTA)
                 (DLTA) (SG) (SG) (PI) (PI) (PI) (PI) (PHI) (PHI)
                 (PI) (PI) (DLTA) (DLTA) (SG) (SG) (SG) (PI) (PI)
                 (SG) (DLTA) (DLTA) (PHI) (PHI) (SG) (PI) (PI)
                 (DLTA) (DLTA) (PI) (PI) (SG) (SG) (DLTA) (DLTA)
                 (PI) (PI) (?A) (?A) (PI) (PI) (SG) (PHI) (PHI)
                 (PI) (PI) (DLTA) (DLTA) (PHI) (PHI) (SG) (SG)
                 (SG) (PI) (PI) (DLTA) (DLTA) (DLTA) (DLTA) (?A)
                 (?A) (PI) (PI) (SG) (PI) (PI) (SG) (PHI) (PHI)
                 (DLTA) (DLTA) (SG) (PI) (PI) (SG) (PHI) (PHI)
                 (SG) (DLTA) (DLTA) (PI) (PI) (SG) (PI) (PI) (DLTA)
                 (DLTA) (PHI) (PHI) (PI) (PI) (SG) (?B) (?B) (?A)
                 (?A) (DLTA) (DLTA) (SG) (?A) (?A) (PI) (PI) (PHI)
                 (PHI) (DLTA) (DLTA) (SG) (PI) (PI) (DLTA) (DLTA)
                 (PHI) (PHI) (SG) (PI) (PI) (SG) (PI) (PI) (DLTA)
                 (DLTA) (SG) (PI) (PI) (SG) (SG) (SG) (PI) (PI)
                 (DLTA) (DLTA) (PHI) (PHI) (PI) (PI) (SG) (?A)
                 (?A) (SG) (PHI) (PHI) (DLTA) (DLTA) (PI) (PI)
                 (PHI) (PHI) (DLTA) (DLTA) (SG) (PI) (PI) (DLTA)
                 (DLTA) (DLTA) (DLTA) (PI) (PI) (SG) (?A) (?A)
                 (PHI) (PHI) (?B) (?B) (?A) (?A) (PI) (PI) (SG)
                 (PHI) (PHI) (DLTA) (DLTA) (DLTA) (DLTA) (SG) (PI)
                 (PI) (SG) (PI) (PI) (PI) (PI) (SG) (SG) (?B) (?B)
                 (?A) (?A) (PHI) (PHI) (SG) (DLTA) (DLTA) (SG)
                 (SG) (PI) (PI) (SG) (DLTA) (DLTA) (PI) (PI) (SG)
                 (PI) (PI) (SG) (PHI) (PHI) (DLTA) (DLTA) (PI)
                 (PI) (?A) (?A) (SG) (PHI) (PHI) (DLTA) (DLTA)
                 (PI) (PI) (SG) (?B) (?B) (?A) (?A) (PHI) (PHI)
                 (DLTA) (DLTA) (SG) (PI) (PI) (SG) (SG) (SG) (SG)
                 (?B) (?B) (?A) (?A) (PHI) (PHI) (DLTA) (DLTA)
                 (PI) (PI) (SG) (DLTA) (DLTA) (PI) (PI) (SG) (PI)
                 (PI) (SG) (?A) (?A) (PHI) (PHI) (DLTA) (DLTA)
                 (PI) (PI) (SG) (SG) (PHI) (PHI) (DLTA) (DLTA)
                 (PI) (PI) (?B) (?B) (SG) (?A) (?A) (PHI) (PHI)
                 (DLTA) (DLTA) (PI) (PI) (SG) (DLTA) (DLTA) (PI)
                 (PI) (SG) (SG) (SG) (?B) (?B) (?A) (?A) (PHI)
                 (PHI) (DLTA) (DLTA) (PI) (PI) (SG) (PI) (PI) (SG)
                 (DLTA) (DLTA) (PI) (PI) (SG) (SG) (SG) (PI) (PI)
                 (SG) (DLTA) (DLTA) (PI) (PI) (SG) (SG) (PI) (PI)
                 (SG) (DLTA) (DLTA) (PI) (PI) (SG) (SG) (PI) (PI)
                 (SG) (SG) (DLTA) (DLTA) (PI) (PI) (SG) (PI) (PI)
                 (SG) (SG) (PI) (PI) (SG) (SG) (DLTA) (DLTA) (PI)
                 (PI) (SG) (SG) (PI) (PI) (SG) (SG) (PI) (PI) (SG)
                 (SG) (PI) (PI) (SG) (SG) (PI) (PI) (SG) (SG) (SG)
                 (PI) (PI) (SG) (SG) (SG) (SG) (SG) (SG) (SG)
 The electronic state is 2-SG.
 Alpha  occ. eigenvalues -- -357.60062 -45.37343 -39.17564 -39.17522 -39.17522
 Alpha  occ. eigenvalues --   -5.84442  -3.92902  -3.91940  -3.91940  -0.83411
 Alpha  occ. eigenvalues --   -0.80715  -0.80715  -0.80628  -0.80628  -0.49016
 Alpha  occ. eigenvalues --   -0.26544
 Alpha virt. eigenvalues --    0.01977   0.01977   0.02105   0.03398   0.06418
 Alpha virt. eigenvalues --    0.06418   0.06962   0.11883   0.14004   0.15302
 Alpha virt. eigenvalues --    0.15302   0.15541   0.15541   0.19189   0.20480
 Alpha virt. eigenvalues --    0.20480   0.24207   0.26944   0.26944   0.36515
 Alpha virt. eigenvalues --    0.38057   0.44420   0.44502   0.44502   0.47124
 Alpha virt. eigenvalues --    0.47124   0.54557   0.54557   0.56822   0.60949
 Alpha virt. eigenvalues --    0.63335   0.63335   0.66310   0.66310   0.75593
 Alpha virt. eigenvalues --    0.75593   0.87392   0.87392   0.89642   0.89642
 Alpha virt. eigenvalues --    0.90033   0.98495   1.04922   1.05114   1.05114
 Alpha virt. eigenvalues --    1.15973   1.20694   1.20694   1.25715   1.25715
 Alpha virt. eigenvalues --    1.29339   1.37568   1.37568   1.44354   1.44354
 Alpha virt. eigenvalues --    1.46747   1.46747   1.48826   1.82098   1.89385
 Alpha virt. eigenvalues --    1.89385   1.95387   1.95387   2.16850   2.16850
 Alpha virt. eigenvalues --    2.18681   2.18681   2.19954   2.26439   2.26439
 Alpha virt. eigenvalues --    2.34324   2.34324   2.36122   2.36122   2.40348
 Alpha virt. eigenvalues --    2.40348   2.40853   2.57378   2.69082   2.82800
 Alpha virt. eigenvalues --    2.82800   2.85250   2.85250   3.00329   3.00329
 Alpha virt. eigenvalues --    3.00969   3.00969   3.01613   3.01613   3.03528
 Alpha virt. eigenvalues --    3.26192   3.26192   3.43807   3.45993   3.45993
 Alpha virt. eigenvalues --    3.47757   3.47757   3.64720   3.90162   3.90162
 Alpha virt. eigenvalues --    3.91303   4.21888   4.21888   4.55253   4.84344
 Alpha virt. eigenvalues --    4.84344   5.11109   5.11109   5.19832   5.49910
 Alpha virt. eigenvalues --    5.49910   5.57380   5.57380   5.84643   5.84643
 Alpha virt. eigenvalues --    5.88417   5.88417   5.91309   5.95485   5.95485
 Alpha virt. eigenvalues --    6.07796   6.07796   6.08095   6.08095   6.09818
 Alpha virt. eigenvalues --    6.14478   6.14478   6.21301   6.21301   6.24283
 Alpha virt. eigenvalues --    6.24283   6.32941   6.32941   6.40206   6.42841
 Alpha virt. eigenvalues --    6.42841   6.57335   6.57335   6.71637   6.71637
 Alpha virt. eigenvalues --    6.78143   6.79836   6.79836   7.46443   7.59787
 Alpha virt. eigenvalues --    7.59787   7.79035   7.79035   8.08196   8.90089
 Alpha virt. eigenvalues --    8.90089   9.12535   9.68143  11.36512  12.82027
 Alpha virt. eigenvalues --   12.82027  12.86212  12.86212  12.89854  12.89854
 Alpha virt. eigenvalues --   12.92660  12.92660  13.07199  13.13926  13.13926
 Alpha virt. eigenvalues --   13.18951  13.24861  13.24861  13.26824  13.26824
 Alpha virt. eigenvalues --   13.39589  13.39589  13.58950  13.58950  13.69274
 Alpha virt. eigenvalues --   13.69274  13.82696  14.01916  14.01916  14.03113
 Alpha virt. eigenvalues --   14.03113  14.29712  14.29712  14.40910  14.40910
 Alpha virt. eigenvalues --   14.45810  14.96974  14.96974  15.07535  15.07535
 Alpha virt. eigenvalues --   15.10689  15.10689  15.17080  15.17080  15.31375
 Alpha virt. eigenvalues --   15.31375  15.32931  15.44304  15.44304  15.52275
 Alpha virt. eigenvalues --   15.52275  15.83021  15.83021  15.99733  16.14059
 Alpha virt. eigenvalues --   16.14059  16.32403  17.31367  17.31367  17.76518
 Alpha virt. eigenvalues --   17.76518  17.77225  17.77225  17.77434  17.77434
 Alpha virt. eigenvalues --   17.78587  17.78587  17.99544  17.99544  18.13387
 Alpha virt. eigenvalues --   19.11728  19.11728  19.18614  20.32531  20.85138
 Alpha virt. eigenvalues --   20.85138  21.91127  25.56849  25.56849  25.70814
 Alpha virt. eigenvalues --   25.70814  25.95101  26.45390  26.45390  27.91725
 Alpha virt. eigenvalues --   31.27710  31.27710  31.42310  31.42310  32.17306
 Alpha virt. eigenvalues --   32.17306  32.84019  32.84019  32.86352  32.89697
 Alpha virt. eigenvalues --   32.89697  33.16571  33.16571  33.77020  33.77020
 Alpha virt. eigenvalues --   34.13748  34.23069  34.23069  34.26811  34.26811
 Alpha virt. eigenvalues --   34.42794  34.42794  34.59181  34.59181  34.71336
 Alpha virt. eigenvalues --   34.90271  34.90271  36.50330  37.75212  40.80473
 Alpha virt. eigenvalues --   40.80473  40.80684  40.80684  40.81214  40.81214
 Alpha virt. eigenvalues --   40.87668  40.87668  41.23810  41.23810  41.80227
 Alpha virt. eigenvalues --   41.80227  41.97132  45.97537  45.97537  46.11929
 Alpha virt. eigenvalues --   46.11929  46.51634  49.69231  49.69231  51.17341
 Alpha virt. eigenvalues --   69.87245  69.87245  69.91402  69.91402  70.11037
 Alpha virt. eigenvalues --   70.11037  70.49913  70.49913  70.82947  72.48467
 Alpha virt. eigenvalues --   72.93838  72.93838  73.03983  73.03983  73.55431
 Alpha virt. eigenvalues --   73.55431  74.09949  74.09949  74.10034  74.12522
 Alpha virt. eigenvalues --   74.12522  74.22956  74.22956  74.33702  74.33702
 Alpha virt. eigenvalues --   74.53356  74.53356  75.18398  77.97767  77.97767
 Alpha virt. eigenvalues --   78.11866  78.11866  78.60439  86.20405  86.20405
 Alpha virt. eigenvalues --   86.20784  86.20784  86.21234  86.21234  86.24667
 Alpha virt. eigenvalues --   86.24667  86.44124  86.44124  86.75892  86.75892
 Alpha virt. eigenvalues --   86.80206  90.07712  90.07712  91.65680 128.17153
 Alpha virt. eigenvalues --  128.17153 128.29582 128.29582 128.68280 136.69182
 Alpha virt. eigenvalues --  142.76067 164.70385 164.70385 166.34128 218.71081
 Alpha virt. eigenvalues --  218.71081 218.82339 218.82339 219.18068 289.39136
 Alpha virt. eigenvalues --  309.64218 309.64218 311.28026 425.01129 425.01129
 Alpha virt. eigenvalues --  425.10547 425.10547 425.40880 592.70483 598.50932
 Alpha virt. eigenvalues --  598.50932 600.09270 779.99820 989.54755 989.54755
 Alpha virt. eigenvalues --  989.61871 989.61871 989.848751181.910861181.91086
 Alpha virt. eigenvalues -- 1183.332211205.838352367.981762367.981762369.23671
 Alpha virt. eigenvalues -- 2410.002492877.429822877.429822877.473052877.47305
 Alpha virt. eigenvalues -- 2877.612944692.198374779.327084779.327084780.37745
 Alpha virt. eigenvalues -- 8831.316069662.252089662.252089663.05678**********
 Alpha virt. eigenvalues -- **************************************************
 Alpha virt. eigenvalues -- **************************************************
 Alpha virt. eigenvalues -- **************************************************
 Alpha virt. eigenvalues -- ******************************
     Molecular Orbital Coefficients:
                          11        12        13        14        15
                           O         O         O         O         O
     Eigenvalues --    -0.80715  -0.80715  -0.80628  -0.80628  -0.49016
   1 1   Zn 1S         -0.00000  -0.00000  -0.00000   0.00000  -0.00000
   2        2S          0.00000  -0.00000  -0.00000  -0.00000  -0.00000
   3        3S         -0.00000  -0.00000  -0.00000   0.00000  -0.00000
   4        4S          0.00000  -0.00000  -0.00000  -0.00000  -0.00000
   5        5S         -0.00000  -0.00000  -0.00000   0.00000  -0.00001
   6        6S          0.00000  -0.00000  -0.00000  -0.00000  -0.00002
   7        7S         -0.00000  -0.00000  -0.00000   0.00000  -0.00004
   8        8S          0.00000  -0.00000  -0.00000  -0.00000  -0.00008
   9        9S         -0.00000  -0.00000  -0.00000   0.00000  -0.00017
  10       10S          0.00000  -0.00000  -0.00000  -0.00000  -0.00035
  11       11S         -0.00000  -0.00000  -0.00000   0.00000  -0.00075
  12       12S          0.00000  -0.00000  -0.00000  -0.00000  -0.00159
  13       13S         -0.00000  -0.00000  -0.00000  -0.00000  -0.00322
  14       14S          0.00000  -0.00000  -0.00000   0.00000  -0.00607
  15       15S         -0.00000  -0.00000  -0.00000  -0.00000  -0.00990
  16       16S          0.00000  -0.00000  -0.00000   0.00000  -0.01202
  17       17S         -0.00000  -0.00000  -0.00000  -0.00000  -0.00505
  18       18S          0.00000   0.00000   0.00000   0.00000   0.01885
  19       19S          0.00000   0.00000   0.00000  -0.00000   0.06094
  20       20S          0.00000   0.00000   0.00000   0.00000   0.03285
  21       21S         -0.00000  -0.00000   0.00000   0.00000   0.00348
  22       22S         -0.00000  -0.00000   0.00000   0.00000  -0.09593
  23       23S          0.00000   0.00000  -0.00000  -0.00000  -0.18057
  24       24S         -0.00000  -0.00000  -0.00000   0.00000  -0.11120
  25       25S         -0.00000  -0.00000   0.00000  -0.00000   0.11659
  26       26S          0.00000   0.00000  -0.00000  -0.00000   0.23500
  27       27S         -0.00000   0.00000  -0.00000   0.00000   0.13982
  28       28S         -0.00000  -0.00000   0.00000  -0.00000   0.00106
  29       29S          0.00000   0.00000  -0.00000  -0.00000   0.03610
  30       30S          0.00000   0.00000  -0.00000  -0.00000  -0.02040
  31       31S          0.00000  -0.00000   0.00000   0.00000  -0.00034
  32       32PX         0.00000   0.00000  -0.00000  -0.00000  -0.00000
  33       32PY         0.00000   0.00000   0.00000  -0.00000   0.00000
  34       32PZ         0.00000  -0.00000   0.00000   0.00000  -0.00000
  35       33PX         0.00000  -0.00000  -0.00000  -0.00000  -0.00000
  36       33PY         0.00000   0.00000   0.00000  -0.00000   0.00000
  37       33PZ         0.00000  -0.00000   0.00000   0.00000  -0.00000
  38       34PX         0.00000   0.00000  -0.00000  -0.00000  -0.00000
  39       34PY         0.00000   0.00000   0.00000  -0.00000   0.00000
  40       34PZ         0.00000  -0.00000   0.00000  -0.00000  -0.00001
  41       35PX         0.00000  -0.00000  -0.00000  -0.00000  -0.00000
  42       35PY         0.00000   0.00000   0.00000  -0.00000   0.00000
  43       35PZ         0.00000  -0.00000   0.00000   0.00000  -0.00004
  44       36PX         0.00000   0.00000  -0.00000  -0.00000  -0.00000
  45       36PY         0.00000   0.00000   0.00000  -0.00000   0.00000
  46       36PZ         0.00000  -0.00000   0.00000   0.00000  -0.00014
  47       37PX         0.00000  -0.00000  -0.00000  -0.00000  -0.00000
  48       37PY         0.00000   0.00000   0.00000  -0.00000   0.00000
  49       37PZ         0.00000  -0.00000   0.00000   0.00000  -0.00044
  50       38PX         0.00000  -0.00000  -0.00001  -0.00000  -0.00000
  51       38PY         0.00000   0.00000   0.00000  -0.00001   0.00000
  52       38PZ         0.00000  -0.00000   0.00000  -0.00000  -0.00121
  53       39PX         0.00000  -0.00000  -0.00003  -0.00001  -0.00000
  54       39PY         0.00000   0.00000   0.00001  -0.00003   0.00000
  55       39PZ         0.00000  -0.00000   0.00000   0.00000  -0.00314
  56       40PX         0.00000  -0.00000  -0.00008  -0.00003  -0.00000
  57       40PY         0.00000   0.00000   0.00003  -0.00008   0.00000
  58       40PZ         0.00000  -0.00000   0.00000  -0.00000  -0.00668
  59       41PX         0.00000  -0.00000  -0.00011  -0.00004  -0.00000
  60       41PY         0.00000   0.00000   0.00004  -0.00011   0.00000
  61       41PZ         0.00000  -0.00000   0.00000   0.00000  -0.01200
  62       42PX         0.00000  -0.00000  -0.00021  -0.00007  -0.00000
  63       42PY         0.00000   0.00000   0.00007  -0.00021   0.00000
  64       42PZ         0.00000  -0.00000   0.00000  -0.00000  -0.01452
  65       43PX        -0.00000  -0.00000  -0.00069  -0.00024   0.00000
  66       43PY         0.00000   0.00000   0.00024  -0.00069  -0.00000
  67       43PZ        -0.00000  -0.00000   0.00000  -0.00000   0.00308
  68       44PX        -0.00000   0.00000   0.00012   0.00004   0.00000
  69       44PY        -0.00000  -0.00000  -0.00004   0.00012  -0.00000
  70       44PZ        -0.00000   0.00000  -0.00000  -0.00000   0.00912
  71       45PX        -0.00000  -0.00000  -0.00088  -0.00031   0.00000
  72       45PY         0.00000   0.00000   0.00031  -0.00088  -0.00000
  73       45PZ        -0.00000  -0.00000   0.00000  -0.00000   0.03829
  74       46PX        -0.00000   0.00000   0.00097   0.00033   0.00000
  75       46PY        -0.00000  -0.00000  -0.00033   0.00097  -0.00000
  76       46PZ        -0.00000   0.00000  -0.00000   0.00000   0.05349
  77       47PX        -0.00000  -0.00000   0.00010   0.00004   0.00000
  78       47PY        -0.00000  -0.00000  -0.00004   0.00010  -0.00000
  79       47PZ        -0.00000  -0.00000  -0.00000  -0.00000   0.04248
  80       48PX         0.00000   0.00000   0.00023   0.00008  -0.00000
  81       48PY        -0.00000   0.00000  -0.00008   0.00023   0.00000
  82       48PZ         0.00000   0.00000   0.00000   0.00000  -0.00409
  83       49PX        -0.00000  -0.00000  -0.00149  -0.00052  -0.00000
  84       49PY         0.00000   0.00000   0.00052  -0.00149   0.00000
  85       49PZ         0.00000  -0.00000   0.00000   0.00000  -0.07551
  86       50PX         0.00000   0.00000  -0.00010  -0.00004  -0.00000
  87       50PY         0.00000   0.00000   0.00004  -0.00010   0.00000
  88       50PZ         0.00000   0.00000   0.00000  -0.00000  -0.06168
  89       51PX         0.00000   0.00000   0.00038   0.00013  -0.00000
  90       51PY        -0.00000   0.00000  -0.00013   0.00038   0.00000
  91       51PZ         0.00000  -0.00000   0.00000  -0.00000  -0.00726
  92       52PX         0.00000   0.00000   0.00060   0.00021  -0.00000
  93       52PY        -0.00000  -0.00000  -0.00021   0.00060   0.00000
  94       52PZ         0.00000   0.00000  -0.00000   0.00000  -0.01307
  95       53PX         0.00000   0.00000   0.00115   0.00040  -0.00000
  96       53PY        -0.00000  -0.00000  -0.00040   0.00115   0.00000
  97       53PZ         0.00000   0.00000  -0.00000   0.00000   0.00350
  98       54PX         0.00000  -0.00000  -0.00007  -0.00002  -0.00000
  99       54PY         0.00000   0.00000   0.00002  -0.00007   0.00000
 100       54PZ         0.00000   0.00000  -0.00000   0.00000   0.00024
 101       55D 0       -0.00000   0.00000  -0.00000  -0.00000  -0.00004
 102       55D+1        0.00000   0.00000   0.00012   0.00004  -0.00000
 103       55D-1       -0.00000  -0.00000  -0.00004   0.00012   0.00000
 104       55D+2        0.00013   0.00000  -0.00000   0.00000  -0.00000
 105       55D-2       -0.00000   0.00013  -0.00000  -0.00000  -0.00000
 106       56D 0       -0.00000   0.00000  -0.00000  -0.00000  -0.00031
 107       56D+1        0.00000   0.00000   0.00106   0.00037  -0.00000
 108       56D-1       -0.00000  -0.00000  -0.00037   0.00106   0.00000
 109       56D+2        0.00112   0.00004  -0.00000   0.00000  -0.00000
 110       56D-2       -0.00004   0.00112  -0.00000  -0.00000  -0.00000
 111       57D 0       -0.00000   0.00000  -0.00000  -0.00000  -0.00173
 112       57D+1        0.00000   0.00000   0.00590   0.00205  -0.00000
 113       57D-1       -0.00000  -0.00000  -0.00205   0.00590   0.00000
 114       57D+2        0.00626   0.00023  -0.00000   0.00000  -0.00000
 115       57D-2       -0.00023   0.00626  -0.00000  -0.00000  -0.00000
 116       58D 0       -0.00000   0.00000  -0.00000  -0.00000  -0.00676
 117       58D+1        0.00000   0.00000   0.02294   0.00795  -0.00000
 118       58D-1       -0.00000  -0.00000  -0.00795   0.02294   0.00000
 119       58D+2        0.02434   0.00088  -0.00000   0.00000  -0.00000
 120       58D-2       -0.00088   0.02434  -0.00000  -0.00000  -0.00000
 121       59D 0       -0.00000   0.00000  -0.00000  -0.00000  -0.01946
 122       59D+1        0.00000   0.00000   0.06637   0.02299  -0.00000
 123       59D-1       -0.00000  -0.00000  -0.02299   0.06637   0.00000
 124       59D+2        0.07039   0.00253  -0.00000   0.00000  -0.00000
 125       59D-2       -0.00253   0.07039  -0.00000  -0.00000  -0.00000
 126       60D 0       -0.00000   0.00000  -0.00000  -0.00000  -0.04047
 127       60D+1        0.00000   0.00000   0.14574   0.05047  -0.00000
 128       60D-1       -0.00000  -0.00000  -0.05047   0.14574   0.00000
 129       60D+2        0.15360   0.00553  -0.00000   0.00000  -0.00000
 130       60D-2       -0.00553   0.15360  -0.00000  -0.00000  -0.00000
 131       61D 0       -0.00000   0.00000  -0.00000  -0.00000  -0.06715
 132       61D+1        0.00000   0.00000   0.23187   0.08030  -0.00000
 133       61D-1       -0.00000  -0.00000  -0.08030   0.23187   0.00000
 134       61D+2        0.24550   0.00883  -0.00000   0.00000  -0.00000
 135       61D-2       -0.00883   0.24550  -0.00000  -0.00000  -0.00000
 136       62D 0       -0.00000   0.00000  -0.00000  -0.00000  -0.08072
 137       62D+1        0.00000   0.00000   0.27377   0.09481  -0.00000
 138       62D-1       -0.00000  -0.00000  -0.09481   0.27377   0.00000
 139       62D+2        0.29063   0.01046  -0.00000   0.00000  -0.00000
 140       62D-2       -0.01046   0.29063  -0.00000  -0.00000  -0.00000
 141       63D 0       -0.00000   0.00000  -0.00000  -0.00000  -0.07247
 142       63D+1        0.00000   0.00000   0.25518   0.08837  -0.00000
 143       63D-1       -0.00000  -0.00000  -0.08837   0.25518   0.00000
 144       63D+2        0.27009   0.00972  -0.00000   0.00000  -0.00000
 145       63D-2       -0.00972   0.27009  -0.00000  -0.00000  -0.00000
 146       64D 0       -0.00000  -0.00000  -0.00000  -0.00000  -0.05467
 147       64D+1        0.00000   0.00000   0.18191   0.06300  -0.00000
 148       64D-1       -0.00000  -0.00000  -0.06300   0.18191   0.00000
 149       64D+2        0.19396   0.00698  -0.00000   0.00000  -0.00000
 150       64D-2       -0.00698   0.19396  -0.00000  -0.00000  -0.00000
 151       65D 0       -0.00000  -0.00000  -0.00000  -0.00000  -0.02439
 152       65D+1        0.00000   0.00000   0.08658   0.02998  -0.00000
 153       65D-1       -0.00000  -0.00000  -0.02998   0.08658   0.00000
 154       65D+2        0.09225   0.00332  -0.00000   0.00000  -0.00000
 155       65D-2       -0.00332   0.09225  -0.00000  -0.00000  -0.00000
 156       66D 0       -0.00000  -0.00000  -0.00000   0.00000  -0.00289
 157       66D+1        0.00000   0.00000   0.01805   0.00625   0.00000
 158       66D-1       -0.00000  -0.00000  -0.00625   0.01805   0.00000
 159       66D+2        0.01776   0.00064  -0.00000   0.00000   0.00000
 160       66D-2       -0.00064   0.01776  -0.00000  -0.00000  -0.00000
 161       67D 0       -0.00000  -0.00000   0.00000  -0.00000  -0.00172
 162       67D+1        0.00000   0.00000   0.00030   0.00010  -0.00000
 163       67D-1       -0.00000  -0.00000  -0.00010   0.00030   0.00000
 164       67D+2        0.00097   0.00004  -0.00000   0.00000  -0.00000
 165       67D-2       -0.00004   0.00097  -0.00000  -0.00000   0.00000
 166       68D 0        0.00000  -0.00000   0.00000  -0.00000  -0.00160
 167       68D+1       -0.00000  -0.00000  -0.00008  -0.00003  -0.00000
 168       68D-1        0.00000   0.00000   0.00003  -0.00008   0.00000
 169       68D+2        0.00064   0.00002  -0.00000   0.00000  -0.00000
 170       68D-2       -0.00002   0.00064  -0.00000  -0.00000   0.00000
 171       69D 0        0.00000   0.00000  -0.00000   0.00000   0.00374
 172       69D+1       -0.00000   0.00000   0.00016   0.00006   0.00000
 173       69D-1       -0.00000   0.00000  -0.00006   0.00016  -0.00000
 174       69D+2       -0.00003  -0.00000   0.00000   0.00000   0.00000
 175       69D-2        0.00000  -0.00003   0.00000   0.00000  -0.00000
 176       70F 0        0.00000  -0.00000   0.00000  -0.00000  -0.00005
 177       70F+1        0.00000   0.00000   0.00003   0.00001   0.00000
 178       70F-1       -0.00000  -0.00000  -0.00001   0.00003   0.00000
 179       70F+2        0.00002   0.00000  -0.00000   0.00000   0.00000
 180       70F-2       -0.00000   0.00002  -0.00000  -0.00000  -0.00000
 181       70F+3       -0.00000   0.00000   0.00000  -0.00000   0.00000
 182       70F-3       -0.00000   0.00000  -0.00000  -0.00000  -0.00000
 183       71F 0       -0.00000  -0.00000  -0.00000   0.00000  -0.00025
 184       71F+1        0.00000   0.00000   0.00005   0.00002   0.00000
 185       71F-1       -0.00000  -0.00000  -0.00002   0.00005   0.00000
 186       71F+2        0.00008   0.00000  -0.00000   0.00000  -0.00000
 187       71F-2       -0.00000   0.00008  -0.00000  -0.00000  -0.00000
 188       71F+3       -0.00000   0.00000   0.00000  -0.00000   0.00000
 189       71F-3       -0.00000   0.00000  -0.00000  -0.00000  -0.00000
 190       72F 0       -0.00000   0.00000   0.00000  -0.00000  -0.00058
 191       72F+1        0.00000   0.00000   0.00021   0.00007   0.00000
 192       72F-1       -0.00000  -0.00000  -0.00007   0.00021  -0.00000
 193       72F+2        0.00016   0.00001  -0.00000   0.00000   0.00000
 194       72F-2       -0.00001   0.00016  -0.00000  -0.00000  -0.00000
 195       72F+3       -0.00000   0.00000   0.00000  -0.00000   0.00000
 196       72F-3       -0.00000   0.00000  -0.00000  -0.00000  -0.00000
 197       73F 0        0.00000  -0.00000   0.00000  -0.00000  -0.00221
 198       73F+1        0.00000  -0.00000  -0.00005  -0.00002   0.00000
 199       73F-1        0.00000   0.00000   0.00002  -0.00005  -0.00000
 200       73F+2        0.00038   0.00001  -0.00000   0.00000  -0.00000
 201       73F-2       -0.00001   0.00038  -0.00000  -0.00000  -0.00000
 202       73F+3       -0.00000   0.00000   0.00000   0.00000   0.00000
 203       73F-3       -0.00000   0.00000  -0.00000  -0.00000  -0.00000
 204       74F 0        0.00000  -0.00000   0.00000   0.00000  -0.00212
 205       74F+1        0.00000   0.00000   0.00023   0.00008   0.00000
 206       74F-1       -0.00000  -0.00000  -0.00008   0.00023  -0.00000
 207       74F+2        0.00062   0.00002  -0.00000   0.00000   0.00000
 208       74F-2       -0.00002   0.00062  -0.00000  -0.00000  -0.00000
 209       74F+3       -0.00000   0.00000   0.00000   0.00000   0.00000
 210       74F-3       -0.00000   0.00000  -0.00000  -0.00000  -0.00000
 211       75F 0       -0.00000  -0.00000   0.00000   0.00000  -0.00099
 212       75F+1       -0.00000  -0.00000  -0.00022  -0.00008   0.00000
 213       75F-1        0.00000   0.00000   0.00008  -0.00022  -0.00000
 214       75F+2       -0.00002  -0.00000  -0.00000   0.00000  -0.00000
 215       75F-2        0.00000  -0.00002  -0.00000  -0.00000  -0.00000
 216       75F+3        0.00000   0.00000  -0.00000   0.00000   0.00000
 217       75F-3       -0.00000   0.00000  -0.00000  -0.00000  -0.00000
 218       76G 0        0.00000   0.00000   0.00000  -0.00000   0.00002
 219       76G+1       -0.00000  -0.00000  -0.00001  -0.00000  -0.00000
 220       76G-1        0.00000   0.00000   0.00000  -0.00001   0.00000
 221       76G+2       -0.00001  -0.00000   0.00000  -0.00000  -0.00000
 222       76G-2        0.00000  -0.00001   0.00000   0.00000   0.00000
 223       76G+3        0.00000  -0.00000   0.00000   0.00000  -0.00000
 224       76G-3        0.00000  -0.00000   0.00000   0.00000   0.00000
 225       76G+4        0.00000   0.00000  -0.00000  -0.00000   0.00000
 226       76G-4       -0.00000   0.00000  -0.00000   0.00000  -0.00000
 227       77G 0        0.00000   0.00000   0.00000  -0.00000   0.00000
 228       77G+1       -0.00000  -0.00000  -0.00006  -0.00002  -0.00000
 229       77G-1        0.00000   0.00000   0.00002  -0.00006   0.00000
 230       77G+2       -0.00003  -0.00000   0.00000  -0.00000  -0.00000
 231       77G-2        0.00000  -0.00003   0.00000   0.00000   0.00000
 232       77G+3        0.00000  -0.00000   0.00000   0.00000   0.00000
 233       77G-3        0.00000  -0.00000   0.00000   0.00000   0.00000
 234       77G+4        0.00000   0.00000   0.00000   0.00000  -0.00000
 235       77G-4       -0.00000   0.00000   0.00000   0.00000   0.00000
 236       78G 0       -0.00000  -0.00000  -0.00000   0.00000   0.00020
[...]
 208       74F-2        0.00000   0.00000   0.00000   0.00000
 209       74F+3        0.00000   0.00000   0.00000   0.00000
 210       74F-3        0.00000   0.00000   0.00000   0.00000
 211       75F 0        0.00039   0.00016   0.00023  -0.00007
 212       75F+1        0.00000   0.00000   0.00000   0.00000
 213       75F-1        0.00000   0.00000   0.00000   0.00000
 214       75F+2        0.00000   0.00000   0.00000  -0.00000
 215       75F-2        0.00000   0.00000   0.00000   0.00000
 216       75F+3        0.00000   0.00000   0.00000   0.00000
 217       75F-3        0.00000   0.00000   0.00000   0.00000
 218       76G 0        0.00000   0.00000   0.00000   0.00000
 219       76G+1        0.00000   0.00000   0.00000   0.00000
 220       76G-1        0.00000   0.00000   0.00000   0.00000
 221       76G+2        0.00000   0.00000   0.00000   0.00000
 222       76G-2        0.00000   0.00000   0.00000   0.00000
 223       76G+3        0.00000   0.00000   0.00000   0.00000
 224       76G-3        0.00000   0.00000   0.00000   0.00000
 225       76G+4        0.00000   0.00000   0.00000   0.00000
 226       76G-4        0.00000   0.00000   0.00000  -0.00000
 227       77G 0       -0.00000  -0.00000  -0.00000  -0.00000
 228       77G+1       -0.00000  -0.00000  -0.00000   0.00000
 229       77G-1       -0.00000  -0.00000  -0.00000   0.00000
 230       77G+2        0.00000   0.00000   0.00000   0.00000
 231       77G-2        0.00000   0.00000   0.00000   0.00000
 232       77G+3        0.00000   0.00000   0.00000   0.00000
 233       77G-3        0.00000   0.00000   0.00000   0.00000
 234       77G+4        0.00000   0.00000   0.00000  -0.00000
 235       77G-4        0.00000   0.00000   0.00000  -0.00000
 236       78G 0        0.00000   0.00000   0.00000   0.00000
 237       78G+1        0.00000   0.00000   0.00000   0.00000
 238       78G-1        0.00000   0.00000   0.00000   0.00000
 239       78G+2       -0.00000  -0.00000  -0.00000   0.00000
 240       78G-2       -0.00000  -0.00000  -0.00000   0.00000
 241       78G+3        0.00000   0.00000   0.00000   0.00000
 242       78G-3        0.00000   0.00000   0.00000   0.00000
 243       78G+4        0.00000   0.00000   0.00000   0.00000
 244       78G-4       -0.00000  -0.00000  -0.00000  -0.00000
 245       79G 0        0.00004   0.00002   0.00002  -0.00000
 246       79G+1        0.00000   0.00000   0.00000   0.00000
 247       79G-1        0.00000   0.00000   0.00000   0.00000
 248       79G+2        0.00000   0.00000   0.00000   0.00000
 249       79G-2        0.00000   0.00000   0.00000   0.00000
 250       79G+3        0.00000   0.00000   0.00000   0.00000
 251       79G-3        0.00000   0.00000   0.00000   0.00000
 252       79G+4        0.00000   0.00000   0.00000  -0.00000
 253       79G-4        0.00000   0.00000   0.00000  -0.00000
 254       80G 0       -0.00001  -0.00002   0.00001  -0.00003
 255       80G+1       -0.00001  -0.00000  -0.00000   0.00000
 256       80G-1       -0.00001  -0.00000  -0.00000   0.00000
 257       80G+2        0.00000   0.00000   0.00000   0.00000
 258       80G-2        0.00000   0.00000   0.00000   0.00000
 259       80G+3        0.00000   0.00000   0.00000   0.00000
 260       80G-3        0.00000   0.00000   0.00000   0.00000
 261       80G+4        0.00000   0.00000   0.00000   0.00000
 262       80G-4        0.00000   0.00000   0.00000  -0.00000
 263       81H 0        0.00000   0.00000   0.00000  -0.00000
 264       81H+1        0.00000   0.00000   0.00000   0.00000
 265       81H-1        0.00000   0.00000   0.00000   0.00000
 266       81H+2        0.00000   0.00000   0.00000  -0.00000
 267       81H-2        0.00000   0.00000   0.00000   0.00000
 268       81H+3        0.00000   0.00000   0.00000   0.00000
 269       81H-3        0.00000   0.00000   0.00000   0.00000
 270       81H+4       -0.00000  -0.00000  -0.00000  -0.00000
 271       81H-4       -0.00000  -0.00000  -0.00000  -0.00000
 272       81H+5        0.00000   0.00000   0.00000  -0.00000
 273       81H-5        0.00000   0.00000   0.00000   0.00000
 274       82H 0       -0.00000   0.00000  -0.00000   0.00000
 275       82H+1       -0.00000  -0.00000  -0.00000   0.00000
 276       82H-1       -0.00000  -0.00000  -0.00000   0.00000
 277       82H+2       -0.00000  -0.00000  -0.00000   0.00000
 278       82H-2       -0.00000  -0.00000  -0.00000   0.00000
 279       82H+3        0.00000   0.00000   0.00000   0.00000
 280       82H-3        0.00000   0.00000   0.00000   0.00000
 281       82H+4        0.00000   0.00000   0.00000  -0.00000
 282       82H-4        0.00000   0.00000   0.00000   0.00000
 283       82H+5        0.00000   0.00000   0.00000  -0.00000
 284       82H-5        0.00000   0.00000   0.00000  -0.00000
 285       83H 0        0.00000   0.00000   0.00000   0.00000
 286       83H+1        0.00000   0.00000   0.00000   0.00000
 287       83H-1        0.00000   0.00000   0.00000   0.00000
 288       83H+2        0.00000   0.00000   0.00000   0.00000
 289       83H-2        0.00000   0.00000   0.00000   0.00000
 290       83H+3        0.00000   0.00000   0.00000   0.00000
 291       83H-3        0.00000   0.00000   0.00000  -0.00000
 292       83H+4        0.00000   0.00000   0.00000  -0.00000
 293       83H-4        0.00000   0.00000   0.00000   0.00000
 294       83H+5        0.00000   0.00000  -0.00000   0.00000
 295       83H-5       -0.00000  -0.00000   0.00000  -0.00000
 296       84H 0        0.00001   0.00000   0.00000  -0.00000
 297       84H+1        0.00000   0.00000   0.00000   0.00000
 298       84H-1        0.00000   0.00000   0.00000   0.00000
 299       84H+2        0.00000   0.00000   0.00000   0.00000
 300       84H-2        0.00000   0.00000   0.00000   0.00000
 301       84H+3        0.00000   0.00000   0.00000   0.00000
 302       84H-3        0.00000   0.00000   0.00000   0.00000
 303       84H+4        0.00000   0.00000   0.00000   0.00000
 304       84H-4        0.00000   0.00000   0.00000   0.00000
 305       84H+5        0.00000   0.00000  -0.00000   0.00000
 306       84H-5       -0.00000  -0.00000   0.00000  -0.00000
 307       85I 0        0.00000   0.00000   0.00000  -0.00000
 308       85I+1        0.00000   0.00000   0.00000   0.00000
 309       85I-1        0.00000   0.00000   0.00000   0.00000
 310       85I+2        0.00000   0.00000   0.00000   0.00000
 311       85I-2        0.00000   0.00000   0.00000   0.00000
 312       85I+3        0.00000   0.00000   0.00000   0.00000
 313       85I-3        0.00000   0.00000   0.00000   0.00000
 314       85I+4        0.00000   0.00000   0.00000   0.00000
 315       85I-4        0.00000   0.00000   0.00000   0.00000
 316       85I+5        0.00000   0.00000   0.00000  -0.00000
 317       85I-5        0.00000   0.00000   0.00000   0.00000
 318       85I+6        0.00000   0.00000   0.00000  -0.00000
 319       85I-6        0.00000   0.00000   0.00000   0.00000
 320       86I 0       -0.00000  -0.00000  -0.00000   0.00000
 321       86I+1       -0.00000  -0.00000  -0.00000  -0.00000
 322       86I-1       -0.00000  -0.00000  -0.00000   0.00000
 323       86I+2       -0.00000  -0.00000  -0.00000  -0.00000
 324       86I-2       -0.00000  -0.00000  -0.00000  -0.00000
 325       86I+3        0.00000   0.00000   0.00000   0.00000
 326       86I-3        0.00000   0.00000   0.00000  -0.00000
 327       86I+4        0.00000   0.00000   0.00000   0.00000
 328       86I-4        0.00000   0.00000   0.00000  -0.00000
 329       86I+5        0.00000   0.00000   0.00000   0.00000
 330       86I-5        0.00000   0.00000   0.00000   0.00000
 331       86I+6        0.00000   0.00000   0.00000   0.00000
 332       86I-6        0.00000   0.00000   0.00000   0.00000
 333       87I 0        0.00000   0.00000   0.00000  -0.00000
 334       87I+1        0.00000   0.00000   0.00000   0.00000
 335       87I-1        0.00000   0.00000   0.00000   0.00000
 336       87I+2        0.00000   0.00000   0.00000  -0.00000
 337       87I-2        0.00000   0.00000   0.00000   0.00000
 338       87I+3        0.00000   0.00000   0.00000   0.00000
 339       87I-3        0.00000   0.00000   0.00000  -0.00000
 340       87I+4        0.00000   0.00000   0.00000   0.00000
 341       87I-4        0.00000   0.00000   0.00000  -0.00000
 342       87I+5        0.00000   0.00000   0.00000  -0.00000
 343       87I-5        0.00000   0.00000   0.00000   0.00000
 344       87I+6        0.00000   0.00000   0.00000   0.00000
 345       87I-6        0.00000   0.00000   0.00000   0.00000
 346 2   H  1S          0.00001   0.00001   0.00001   0.00000
 347        2S          0.00031   0.00016   0.00014   0.00002
 348        3S          0.00419   0.00223   0.00196   0.00026
 349        4S          0.03296   0.01751   0.01545   0.00205
 350        5S          0.15758   0.08347   0.07411   0.00936
 351        6S          0.44560   0.23675   0.20885   0.02790
 352        7S          0.53702   0.28443   0.25259   0.03185
 353        8S          0.12538   0.05476   0.07062  -0.01586
 354        9S          0.00576   0.00406   0.00171   0.00235
 355       10PX         0.00003   0.00002   0.00002   0.00000
 356       10PY         0.00003   0.00002   0.00002   0.00000
 357       10PZ         0.00016   0.00008   0.00008   0.00000
 358       11PX         0.00046   0.00023   0.00023   0.00000
 359       11PY         0.00046   0.00023   0.00023   0.00000
 360       11PZ         0.00190   0.00096   0.00095   0.00001
 361       12PX         0.00278   0.00139   0.00139   0.00000
 362       12PY         0.00278   0.00139   0.00139   0.00000
 363       12PZ         0.00478   0.00201   0.00277  -0.00075
 364       13PX         0.00156   0.00078   0.00078   0.00000
 365       13PY         0.00156   0.00078   0.00078   0.00000
 366       13PZ         0.00055  -0.00188   0.00243  -0.00431
 367       14PX         0.00009   0.00004   0.00004  -0.00000
 368       14PY         0.00009   0.00004   0.00004   0.00000
 369       14PZ        -0.00230  -0.00271   0.00041  -0.00312
 370       15D 0        0.00012   0.00006   0.00006   0.00000
 371       15D+1        0.00004   0.00002   0.00002   0.00000
 372       15D-1        0.00004   0.00002   0.00002   0.00000
 373       15D+2        0.00000   0.00000   0.00000   0.00000
 374       15D-2        0.00000   0.00000   0.00000   0.00000
 375       16D 0        0.00052   0.00024   0.00028  -0.00004
 376       16D+1        0.00063   0.00032   0.00032   0.00000
 377       16D-1        0.00063   0.00032   0.00032   0.00000
 378       16D+2        0.00005   0.00002   0.00002   0.00000
 379       16D-2        0.00005   0.00002   0.00002   0.00000
 380       17D 0       -0.00123  -0.00068  -0.00055  -0.00012
 381       17D+1        0.00086   0.00043   0.00043   0.00000
 382       17D-1        0.00086   0.00043   0.00043   0.00000
 383       17D+2        0.00016   0.00008   0.00008   0.00000
 384       17D-2        0.00016   0.00008   0.00008   0.00000
 385       18D 0        0.00141   0.00147  -0.00007   0.00154
 386       18D+1        0.00001   0.00000   0.00000   0.00000
 387       18D-1        0.00001   0.00000   0.00000   0.00000
 388       18D+2       -0.00002  -0.00001  -0.00001   0.00000
 389       18D-2       -0.00002  -0.00001  -0.00001   0.00000
 390       19F 0        0.00007   0.00003   0.00003  -0.00000
 391       19F+1        0.00005   0.00002   0.00002  -0.00000
 392       19F-1        0.00005   0.00002   0.00002   0.00000
 393       19F+2        0.00000   0.00000   0.00000   0.00000
 394       19F-2        0.00000   0.00000   0.00000   0.00000
 395       19F+3        0.00000   0.00000   0.00000   0.00000
 396       19F-3        0.00000   0.00000   0.00000   0.00000
 397       20F 0        0.00015   0.00007   0.00008  -0.00000
 398       20F+1        0.00029   0.00014   0.00014  -0.00000
 399       20F-1        0.00029   0.00014   0.00014   0.00000
 400       20F+2        0.00009   0.00005   0.00005  -0.00000
 401       20F-2        0.00009   0.00005   0.00005  -0.00000
 402       20F+3        0.00000   0.00000   0.00000   0.00000
 403       20F-3        0.00000   0.00000   0.00000   0.00000
 404       21F 0       -0.00001   0.00003  -0.00004   0.00007
 405       21F+1       -0.00004  -0.00002  -0.00002   0.00000
 406       21F-1       -0.00004  -0.00002  -0.00002   0.00000
 407       21F+2        0.00001   0.00000   0.00000   0.00000
 408       21F-2        0.00001   0.00000   0.00000  -0.00000
 409       21F+3        0.00000   0.00000   0.00000   0.00000
 410       21F-3        0.00000   0.00000   0.00000   0.00000
 411       22G 0        0.00004   0.00002   0.00002  -0.00000
 412       22G+1        0.00002   0.00001   0.00001  -0.00000
 413       22G-1        0.00002   0.00001   0.00001   0.00000
 414       22G+2        0.00000   0.00000   0.00000   0.00000
 415       22G-2        0.00000   0.00000   0.00000   0.00000
 416       22G+3        0.00000   0.00000   0.00000   0.00000
 417       22G-3        0.00000   0.00000   0.00000   0.00000
 418       22G+4        0.00000   0.00000   0.00000   0.00000
 419       22G-4       -0.00000  -0.00000  -0.00000   0.00000
 420       23G 0        0.00003   0.00001   0.00002  -0.00001
 421       23G+1        0.00000   0.00000   0.00000  -0.00000
 422       23G-1        0.00000   0.00000   0.00000   0.00000
 423       23G+2        0.00002   0.00001   0.00001  -0.00000
 424       23G-2        0.00002   0.00001   0.00001  -0.00000
 425       23G+3        0.00000   0.00000   0.00000   0.00000
 426       23G-3        0.00000   0.00000   0.00000   0.00000
 427       23G+4        0.00000   0.00000   0.00000   0.00000
 428       23G-4        0.00000   0.00000   0.00000  -0.00000
          Condensed to atoms (all electrons):
               1          2
     1  Zn  29.452600   0.218206
     2  H    0.218206   1.110988
          Atomic-Atomic Spin Densities.
               1          2
     1  Zn   1.127981  -0.179167
     2  H   -0.179167   0.230354
 Mulliken charges and spin densities:
               1          2
     1  Zn   0.329194   0.948814
     2  H   -0.329194   0.051186
 Sum of Mulliken charges =  -0.00000   1.00000
 Mulliken charges and spin densities with hydrogens summed into heavy atoms:
               1          2
     1  Zn  -0.000000   1.000000
 Electronic spatial extent (au):  <R**2>=             42.0906
 Charge=             -0.0000 electrons
 Dipole moment (field-independent basis, Debye):
    X=              0.0000    Y=             -0.0000    Z=             -0.2695  Tot=              0.2695
 Quadrupole moment (field-independent basis, Debye-Ang):
   XX=            -14.6083   YY=            -14.6083   ZZ=            -20.7032
   XY=              0.0000   XZ=              0.0000   YZ=              0.0000
 Traceless Quadrupole moment (field-independent basis, Debye-Ang):
   XX=              2.0316   YY=              2.0316   ZZ=             -4.0632
   XY=              0.0000   XZ=              0.0000   YZ=              0.0000
 Octapole moment (field-independent basis, Debye-Ang**2):
  XXX=              0.0000  YYY=             -0.0000  ZZZ=             -2.7824  XYY=              0.0000
  XXY=             -0.0000  XXZ=             -1.1328  XZZ=              0.0000  YZZ=             -0.0000
  YYZ=             -1.1328  XYZ=              0.0000
 Hexadecapole moment (field-independent basis, Debye-Ang**3):
 XXXX=            -20.0682 YYYY=            -20.0682 ZZZZ=            -57.7894 XXXY=              0.0000
 XXXZ=              0.0000 YYYX=              0.0000 YYYZ=              0.0000 ZZZX=              0.0000
 ZZZY=              0.0000 XXYY=             -6.6894 XXZZ=            -12.6867 YYZZ=            -12.6867
 XXYZ=              0.0000 YYXZ=              0.0000 ZZXY=             -0.0000
 N-N= 1.322943027300D+01 E-N=-4.424716530854D+03  KE= 1.894257419754D+03
 Orbital energies and kinetic energies (alpha):
                                 1                 2
  11         O                -0.807147         11.187489
  12         O                -0.807147         11.187489
  13         O                -0.806281         11.127602
  14         O                -0.806281         11.127602
  15         O                -0.490161          2.094706
  16         O                -0.265441          0.994759
  17         V                 0.019770          0.041772
  18         V                 0.019770          0.077925
  19         V                 0.021046          0.077925
  20         V                 0.033984          0.056409
  21         V                 0.064179          0.273271
 Total kinetic energy from orbitals= 1.895252179043D+03
 FoFCou: FMM=F IPFlag=           8 FMFlag=           0 FMFlg1=           0
         NFxFlg=           0 DoJE=F BraDBF=T KetDBF=F FulRan=T
         wScrn=  0.000000 ICntrl=   2000500 IOpCl=  0 I1Cent=           5 NGrid=           0
         NMat0=    1 NMatS0=      1 NMatT0=    0 NMatD0=    1 NMtDS0=    0 NMtDT0=    0
 Symmetry not used in FoFCou.
                          Isotropic Fermi Contact Couplings
        Atom                 a.u.       MegaHertz       Gauss      10(-4) cm-1
     1  Zn(67)             3.63115    1017.58112     363.09825     339.42853
     2  H(1)               0.03109     138.96995      49.58794      46.35539
 --------------------------------------------------------
       Center         ----  Spin Dipole Couplings  ----
                      3XX-RR        3YY-RR        3ZZ-RR
 --------------------------------------------------------
     1   Atom       -0.831668     -0.831668      1.663337
     2   Atom       -0.005402     -0.005402      0.010804
 --------------------------------------------------------
                        XY            XZ            YZ
 --------------------------------------------------------
     1   Atom        0.000000      0.000000      0.000000
     2   Atom        0.000000      0.000000      0.000000
 --------------------------------------------------------


 ---------------------------------------------------------------------------------
              Anisotropic Spin Dipole Couplings in Principal Axis System
 ---------------------------------------------------------------------------------

       Atom             a.u.   MegaHertz   Gauss  10(-4) cm-1        Axes

              Baa    -0.8317   -27.820    -9.927    -9.280 -0.0000  1.0000  0.0000
     1 Zn(67) Bbb    -0.8317   -27.820    -9.927    -9.280  1.0000  0.0000  0.0000
              Bcc     1.6633    55.640    19.854    18.559  0.0000  0.0000  1.0000
 
              Baa    -0.0054    -2.882    -1.029    -0.961 -0.0000  1.0000  0.0000
     2 H(1)   Bbb    -0.0054    -2.882    -1.029    -0.961  1.0000  0.0000  0.0000
              Bcc     0.0108     5.765     2.057     1.923  0.0000  0.0000  1.0000
 

 ---------------------------------------------------------------------------------

 No NMR shielding tensors so no spin-rotation constants.
 Leave Link  601 at Sun Apr 29 16:02:24 2018, MaxMem= 21474836480 cpu:              92.5 elap:               3.0
 (Enter /home1/apps/gaussian/16rA.03/g16/l9999.exe)

 Test job not archived.
 1\1\GINC-C503-011\SP\ROCCSD(T)-FC1\Gen\H1Zn1(2)\GWANG18\29-Apr-2018\0\
 \#P ROCCSD(T)=(MaxCyc=150, FrzINGC)/Gen SCF=(maxcycle=400, vshift=200)
  Integral(DKHSO, NoXCTest) Pop=Regular MaxDisk=500GB Guess=Read IOp(5/
 15=2)\\ZnH\\0,2\Zn,0,0.,0.,0.\H,0,0.,0.,1.2\\Version=ES64L-G16RevA.03\
 State=2-SG\HF=-1794.7454178\MP2=-1795.8748481\MP3=-1795.710451\PUHF=-1
 794.7454178\PMP2-0=-1795.8748481\MP4SDQ=-1795.8102185\CCSD=-1795.77030
 64\CCSD(T)=-1795.7998942\RMSD=2.326e-09\PG=C*V [C*(H1Zn1)]\\@


 THERE IS NO SCIENCE WITHOUT FANCY, NOR ART WITHOUT FACTS.
     -- VLADIMIR NABAKOV
 Job cpu time:       2 days 19 hours 25 minutes 30.3 seconds.
 Elapsed time:       0 days  2 hours  7 minutes 43.9 seconds.
 File lengths (MBytes):  RWF=  81012 Int=      0 D2E=      0 Chk=     23 Scr=      1
 Normal termination of Gaussian 16 at Sun Apr 29 16:02:24 2018.
