 Entering Gaussian System, Link 0=g16
 Initial command:
 /home1/apps/gaussian/16rA.03/g16/l1.exe "/tmp/Gau-207332.inp" -scrdir="/tmp/"
 Entering Link 1 = /home1/apps/gaussian/16rA.03/g16/l1.exe PID=    207333.
  
 Copyright (c) 1988,1990,1992,1993,1995,1998,2003,2009,2016,
            Gaussian, Inc.  All Rights Reserved.
  
 This is part of the Gaussian(R) 16 program.  It is based on
 the Gaussian(R) 09 system (copyright 2009, Gaussian, Inc.),
 the Gaussian(R) 03 system (copyright 2003, Gaussian, Inc.),
 the Gaussian(R) 98 system (copyright 1998, Gaussian, Inc.),
 the Gaussian(R) 94 system (copyright 1995, Gaussian, Inc.),
 the Gaussian 92(TM) system (copyright 1992, Gaussian, Inc.),
 the Gaussian 90(TM) system (copyright 1990, Gaussian, Inc.),
 the Gaussian 88(TM) system (copyright 1988, Gaussian, Inc.),
 the Gaussian 86(TM) system (copyright 1986, Carnegie Mellon
 University), and the Gaussian 82(TM) system (copyright 1983,
 Carnegie Mellon University). Gaussian is a federally registered
 trademark of Gaussian, Inc.
  
 This software contains proprietary and confidential information,
 including trade secrets, belonging to Gaussian, Inc.
  
 This software is provided under written license and may be
 used, copied, transmitted, or stored only in accord with that
 written license.
  
 The following legend is applicable only to US Government
 contracts under FAR:
  
                    RESTRICTED RIGHTS LEGEND
  
 Use, reproduction and disclosure by the US Government is
 subject to restrictions as set forth in subparagraphs (a)
 and (c) of the Commercial Computer Software - Restricted
 Rights clause in FAR 52.227-19.
  
 Gaussian, Inc.
 340 Quinnipiac St., Bldg. 40, Wallingford CT 06492
  
  
 ---------------------------------------------------------------
 Warning -- This program may not be used in any manner that
 competes with the business of Gaussian, Inc. or will provide
 assistance to any competitor of Gaussian, Inc.  The licensee
 of this program is prohibited from giving any competitor of
 Gaussian, Inc. access to this program.  By using this program,
 the user acknowledges that Gaussian, Inc. is engaged in the
 business of creating and licensing software in the field of
 computational chemistry and represents and warrants to the
 licensee that it is not a competitor of Gaussian, Inc. and that
 it will not use this program in any manner prohibited above.
 ---------------------------------------------------------------
  

 Cite this work as:
 Gaussian 16, Revision A.03,
 M. J. Frisch, G. W. Trucks, H. B. Schlegel, G. E. Scuseria, 
 M. A. Robb, J. R. Cheeseman, G. Scalmani, V. Barone, 
 G. A. Petersson, H. Nakatsuji, X. Li, M. Caricato, A. V. Marenich, 
 J. Bloino, B. G. Janesko, R. Gomperts, B. Mennucci, H. P. Hratchian, 
 J. V. Ortiz, A. F. Izmaylov, J. L. Sonnenberg, D. Williams-Young, 
 F. Ding, F. Lipparini, F. Egidi, J. Goings, B. Peng, A. Petrone, 
 T. Henderson, D. Ranasinghe, V. G. Zakrzewski, J. Gao, N. Rega, 
 G. Zheng, W. Liang, M. Hada, M. Ehara, K. Toyota, R. Fukuda, 
 J. Hasegawa, M. Ishida, T. Nakajima, Y. Honda, O. Kitao, H. Nakai, 
 T. Vreven, K. Throssell, J. A. Montgomery, Jr., J. E. Peralta, 
 F. Ogliaro, M. J. Bearpark, J. J. Heyd, E. N. Brothers, K. N. Kudin, 
 V. N. Staroverov, T. A. Keith, R. Kobayashi, J. Normand, 
 K. Raghavachari, A. P. Rendell, J. C. Burant, S. S. Iyengar, 
 J. Tomasi, M. Cossi, J. M. Millam, M. Klene, C. Adamo, R. Cammi, 
 J. W. Ochterski, R. L. Martin, K. Morokuma, O. Farkas, 
 J. B. Foresman, and D. J. Fox, Gaussian, Inc., Wallingford CT, 2016.
 
 ******************************************
 Gaussian 16:  ES64L-G16RevA.03 25-Dec-2016
                12-Feb-2018 
 ******************************************
 %mem=64GB
 %cpu=0-31
 SetSPE:  set environment variable "MP_BIND" = "yes"
 SetSPE:  set environment variable "MP_BLIST" = "0,1,2,3,4,5,6,7,8,9,10,11,12,13,14,15,16,17,18,19,20,21,22,23,24,25,26,27,28,29,30,31"
 Will use up to   32 processors via shared memory.
 %chk=ScH
 ----------------------------------------------------------------------
 #P ROCCSD(T)=(maxcyc=150, Full)/Gen 5d 7f SCF=(maxcycles=300) Integral
 (NoXCTest, DKHSO) MaxDisk=500GB Pop=Regular IOp(5/15=2) Guess=Read
 ----------------------------------------------------------------------
 1/38=1,172=1/1;
 2/12=2,17=6,18=5,40=1/2;
 3/5=7,8=11,11=2,25=1,30=1,47=8,91=5,116=101/1,2,3;
 4/5=1/1;
 5/5=2,7=300,15=2,38=6/2;
 8/5=-1,6=4,9=120000,10=90/1,4;
 9/5=7,6=150,14=2/13;
 6//1;
 99/5=1,9=1/99;
 Leave Link    1 at Mon Feb 12 20:03:09 2018, MaxMem=  8589934592 cpu:               8.4 elap:               0.3
 (Enter /home1/apps/gaussian/16rA.03/g16/l101.exe)
 ---
 ScH
 ---
 Symbolic Z-matrix:
 Charge =  0 Multiplicity = 1
 Sc                    0.        0.        0. 
 H                     0.        0.        1. 
 
 ITRead=  0  0
 MicOpt= -1 -1
 NAtoms=      2 NQM=        2 NQMF=       0 NMMI=      0 NMMIF=      0
                NMic=       0 NMicF=      0.
                    Isotopes and Nuclear Properties:
 (Nuclear quadrupole moments (NQMom) in fm**2, nuclear magnetic moments (NMagM)
  in nuclear magnetons)

  Atom         1           2
 IAtWgt=          45           1
 AtmWgt=  44.9559136   1.0078250
 NucSpn=           7           1
 AtZEff=  -0.0000000  -0.0000000
 NQMom=  -22.0000000   0.0000000
 NMagM=    4.7564830   2.7928460
 AtZNuc=  21.0000000   1.0000000
 Leave Link  101 at Mon Feb 12 20:03:10 2018, MaxMem=  8589934592 cpu:               3.1 elap:               0.1
 (Enter /home1/apps/gaussian/16rA.03/g16/l202.exe)
                          Input orientation:                          
 ---------------------------------------------------------------------
 Center     Atomic      Atomic             Coordinates (Angstroms)
 Number     Number       Type             X           Y           Z
 ---------------------------------------------------------------------
      1         21           0        0.000000    0.000000    0.000000
      2          1           0        0.000000    0.000000    1.000000
 ---------------------------------------------------------------------
 Stoichiometry    HSc
 Framework group  C*V[C*(HSc)]
 Deg. of freedom     1
 Full point group                 C*V     NOp   4
 Largest Abelian subgroup         C2V     NOp   4
 Largest concise Abelian subgroup C1      NOp   1
                         Standard orientation:                         
 ---------------------------------------------------------------------
 Center     Atomic      Atomic             Coordinates (Angstroms)
 Number     Number       Type             X           Y           Z
 ---------------------------------------------------------------------
      1         21           0        0.000000    0.000000    0.045455
      2          1           0        0.000000    0.000000   -0.954545
 ---------------------------------------------------------------------
 Rotational constants (GHZ):           0.0000000         512.6967625         512.6967625
 Leave Link  202 at Mon Feb 12 20:03:10 2018, MaxMem=  8589934592 cpu:               0.7 elap:               0.1
 (Enter /home1/apps/gaussian/16rA.03/g16/l301.exe)
 General basis read from cards:  (5D, 7F)
 Centers:       1
 S 1 1.00
     Exponent=  2.7152780000D+06 Coefficients=  1.0000000000D+00
 S 1 1.00
     Exponent=  4.0659840000D+05 Coefficients=  1.0000000000D+00
 S 1 1.00
     Exponent=  9.2530040000D+04 Coefficients=  1.0000000000D+00
 S 1 1.00
     Exponent=  2.6207920000D+04 Coefficients=  1.0000000000D+00
 S 1 1.00
     Exponent=  8.5494290000D+03 Coefficients=  1.0000000000D+00
 S 1 1.00
     Exponent=  3.0859750000D+03 Coefficients=  1.0000000000D+00
 S 1 1.00
     Exponent=  1.2031720000D+03 Coefficients=  1.0000000000D+00
 S 1 1.00
     Exponent=  4.9848690000D+02 Coefficients=  1.0000000000D+00
 S 1 1.00
     Exponent=  2.1673600000D+02 Coefficients=  1.0000000000D+00
 S 1 1.00
     Exponent=  9.7874760000D+01 Coefficients=  1.0000000000D+00
 S 1 1.00
     Exponent=  4.5204330000D+01 Coefficients=  1.0000000000D+00
 S 1 1.00
     Exponent=  2.0211870000D+01 Coefficients=  1.0000000000D+00
 S 1 1.00
     Exponent=  9.5747510000D+00 Coefficients=  1.0000000000D+00
 S 1 1.00
     Exponent=  4.5403460000D+00 Coefficients=  1.0000000000D+00
 S 1 1.00
     Exponent=  1.9956870000D+00 Coefficients=  1.0000000000D+00
 S 1 1.00
     Exponent=  9.4221500000D-01 Coefficients=  1.0000000000D+00
 S 1 1.00
     Exponent=  4.1784500000D-01 Coefficients=  1.0000000000D+00
 S 1 1.00
     Exponent=  9.5761000000D-02 Coefficients=  1.0000000000D+00
 S 1 1.00
     Exponent=  5.1351000000D-02 Coefficients=  1.0000000000D+00
 S 1 1.00
     Exponent=  2.3878000000D-02 Coefficients=  1.0000000000D+00
 S 1 1.00
     Exponent=  2.6472000000D+00 Coefficients=  1.0000000000D+00
 S 1 1.00
     Exponent=  6.2170000000D-01 Coefficients=  1.0000000000D+00
 S 1 1.00
     Exponent=  1.1100000000D-02 Coefficients=  1.0000000000D+00
 P 1 1.00
     Exponent=  1.0592190000D+04 Coefficients=  1.0000000000D+00
 P 1 1.00
     Exponent=  2.5075330000D+03 Coefficients=  1.0000000000D+00
 P 1 1.00
     Exponent=  8.1445710000D+02 Coefficients=  1.0000000000D+00
 P 1 1.00
     Exponent=  3.1151950000D+02 Coefficients=  1.0000000000D+00
 P 1 1.00
     Exponent=  1.3196170000D+02 Coefficients=  1.0000000000D+00
 P 1 1.00
     Exponent=  5.9987180000D+01 Coefficients=  1.0000000000D+00
 P 1 1.00
     Exponent=  2.8662500000D+01 Coefficients=  1.0000000000D+00
 P 1 1.00
     Exponent=  1.4108510000D+01 Coefficients=  1.0000000000D+00
 P 1 1.00
     Exponent=  7.1037060000D+00 Coefficients=  1.0000000000D+00
 P 1 1.00
     Exponent=  3.6092000000D+00 Coefficients=  1.0000000000D+00
 P 1 1.00
     Exponent=  1.7760700000D+00 Coefficients=  1.0000000000D+00
 P 1 1.00
     Exponent=  8.5476000000D-01 Coefficients=  1.0000000000D+00
 P 1 1.00
     Exponent=  4.0223900000D-01 Coefficients=  1.0000000000D+00
 P 1 1.00
     Exponent=  1.5468000000D-01 Coefficients=  1.0000000000D+00
 P 1 1.00
     Exponent=  6.4888000000D-02 Coefficients=  1.0000000000D+00
 P 1 1.00
     Exponent=  2.6301000000D-02 Coefficients=  1.0000000000D+00
 P 1 1.00
     Exponent=  3.4418000000D+00 Coefficients=  1.0000000000D+00
 P 1 1.00
     Exponent=  8.0840000000D-01 Coefficients=  1.0000000000D+00
 P 1 1.00
     Exponent=  1.0660000000D-02 Coefficients=  1.0000000000D+00
 D 1 1.00
     Exponent=  5.0654200000D+01 Coefficients=  1.0000000000D+00
 D 1 1.00
     Exponent=  1.4732500000D+01 Coefficients=  1.0000000000D+00
 D 1 1.00
     Exponent=  5.1804600000D+00 Coefficients=  1.0000000000D+00
 D 1 1.00
     Exponent=  2.0195900000D+00 Coefficients=  1.0000000000D+00
 D 1 1.00
     Exponent=  7.9921900000D-01 Coefficients=  1.0000000000D+00
 D 1 1.00
     Exponent=  3.0531600000D-01 Coefficients=  1.0000000000D+00
 D 1 1.00
     Exponent=  1.1044400000D-01 Coefficients=  1.0000000000D+00
 D 1 1.00
     Exponent=  3.7065000000D-02 Coefficients=  1.0000000000D+00
 D 1 1.00
     Exponent=  1.8520000000D+00 Coefficients=  1.0000000000D+00
 D 1 1.00
     Exponent=  7.8750000000D-01 Coefficients=  1.0000000000D+00
 D 1 1.00
     Exponent=  1.2440000000D-02 Coefficients=  1.0000000000D+00
 F 1 1.00
     Exponent=  2.1048000000D+00 Coefficients=  1.0000000000D+00
 F 1 1.00
     Exponent=  6.5870000000D-01 Coefficients=  1.0000000000D+00
 F 1 1.00
     Exponent=  1.6360000000D-01 Coefficients=  1.0000000000D+00
 F 1 1.00
     Exponent=  4.0630000000D-02 Coefficients=  1.0000000000D+00
 G 1 1.00
     Exponent=  1.7850000000D+00 Coefficients=  1.0000000000D+00
 G 1 1.00
     Exponent=  4.1120000000D-01 Coefficients=  1.0000000000D+00
 G 1 1.00
     Exponent=  9.4730000000D-02 Coefficients=  1.0000000000D+00
 ****
 Centers:       2
 S 1 1.00
     Exponent=  3.3870000000D+01 Coefficients=  1.0000000000D+00
 S 1 1.00
     Exponent=  5.0950000000D+00 Coefficients=  1.0000000000D+00
 S 1 1.00
     Exponent=  1.1590000000D+00 Coefficients=  1.0000000000D+00
 S 1 1.00
     Exponent=  3.2580000000D-01 Coefficients=  1.0000000000D+00
 S 1 1.00
     Exponent=  1.0270000000D-01 Coefficients=  1.0000000000D+00
 S 1 1.00
     Exponent=  2.5260000000D-02 Coefficients=  1.0000000000D+00
 P 1 1.00
     Exponent=  1.4070000000D+00 Coefficients=  1.0000000000D+00
 P 1 1.00
     Exponent=  3.8800000000D-01 Coefficients=  1.0000000000D+00
 P 1 1.00
     Exponent=  1.0200000000D-01 Coefficients=  1.0000000000D+00
 D 1 1.00
     Exponent=  1.0570000000D+00 Coefficients=  1.0000000000D+00
 D 1 1.00
     Exponent=  2.4700000000D-01 Coefficients=  1.0000000000D+00
 ****
 Ernie: Thresh=  0.10000D-02 Tol=  0.10000D-05 Strict=F.
 There are   120 symmetry adapted cartesian basis functions of A1  symmetry.
 There are    26 symmetry adapted cartesian basis functions of A2  symmetry.
 There are    56 symmetry adapted cartesian basis functions of B1  symmetry.
 There are    56 symmetry adapted cartesian basis functions of B2  symmetry.
 There are    94 symmetry adapted basis functions of A1  symmetry.
 There are    23 symmetry adapted basis functions of A2  symmetry.
 There are    49 symmetry adapted basis functions of B1  symmetry.
 There are    49 symmetry adapted basis functions of B2  symmetry.
   215 basis functions,   258 primitive gaussians,   258 cartesian basis functions
    11 alpha electrons       11 beta electrons
       nuclear repulsion energy        11.1127214293 Hartrees.
 IExCor=    0 DFT=F Ex=HF Corr=None ExCW=0 ScaHFX=  1.000000
 ScaDFX=  1.000000  1.000000  1.000000  1.000000 ScalE2=  1.000000  1.000000
 IRadAn=      5 IRanWt=     -1 IRanGd=            0 ICorTp=0 IEmpDi=  4
 NAtoms=    2 NActive=    2 NUniq=    2 SFac= 1.00D+00 NAtFMM=   60 NAOKFM=F Big=F
 Integral buffers will be    131072 words long.
 Raffenetti 2 integral format.
 Two-electron integral symmetry is turned on.
 FoFCou: FMM=F IPFlag=           8 FMFlag=           0 FMFlg1=           0
         NFxFlg=           0 DoJE=F BraDBF=T KetDBF=T FulRan=T
         wScrn=  0.000000 ICntrl=       600 IOpCl=  3 I1Cent=           6 NGrid=           0
         NMat0=    1 NMatS0=      2 NMatT0=    0 NMatD0=    1 NMtDS0=    0 NMtDT0=    0
 Symmetry not used in FoFCou.
 Finite nuclear repulsion energy        11.1127214293.
 Leave Link  301 at Mon Feb 12 20:03:11 2018, MaxMem=  8589934592 cpu:              12.4 elap:               0.4
 (Enter /home1/apps/gaussian/16rA.03/g16/l302.exe)
 Using DK4 one-electron Hamiltonian with SO, DoBoet=T.
 NPDir=0 NMtPBC=     1 NCelOv=     1 NCel=       1 NClECP=     1 NCelD=      1
         NCelK=      1 NCelE2=     1 NClLst=     1 CellRange=     0.0.
 One-electron integrals computed using PRISM.
 One-electron integral symmetry used in STVInt
 FoFCou: FMM=F IPFlag=           8 FMFlag=      100000 FMFlg1=           0
         NFxFlg=           0 DoJE=T BraDBF=F KetDBF=T FulRan=T
         wScrn=  0.000000 ICntrl=       500 IOpCl=  0 I1Cent=           4 NGrid=           0
         NMat0=    1 NMatS0=      1 NMatT0=    0 NMatD0=    1 NMtDS0=    0 NMtDT0=    0
 Symmetry not used in FoFCou.
 UnConB:  Uncontracting AO basis from    215 functions to    215 functions (excluding duplicates).
 GSVD:  received Info=                   1 from GESDD.
 RelInt: Using uncontracted basis, NUnBas=   215 NBsUse=   215 0.100E-13 EigKep=  5.25D-07 EigRej= -1.00D+00
 NBasis=   215 RedAO= T EigKep=  1.52D-06  NBF=    94    23    49    49
 NBsUse=   211 1.00D-06 EigRej=  9.64D-07 NBFU=    92    23    48    48
 Leave Link  302 at Mon Feb 12 20:03:16 2018, MaxMem=  8589934592 cpu:             136.4 elap:               5.3
 (Enter /home1/apps/gaussian/16rA.03/g16/l303.exe)
 DipDrv:  MaxL=1.
 Leave Link  303 at Mon Feb 12 20:03:17 2018, MaxMem=  8589934592 cpu:               1.9 elap:               0.1
 (Enter /home1/apps/gaussian/16rA.03/g16/l401.exe)
 Initial guess from the checkpoint file:  "ScH.chk"
 B after Tr=     0.000000    0.000000    0.000000
         Rot=    1.000000    0.000000    0.000000    0.000000 Ang=   0.00 deg.
 Guess basis will be translated and rotated to current coordinates.
 JPrj=2 DoOrth=T DoCkMO=T.
 Initial guess orbital symmetries:
       Occupied  (SG) (SG) (PI) (PI) (SG) (SG) (SG) (PI) (PI) (SG)
                 (SG)
       Virtual   (PI) (PI) (SG) (SG) (SG) (DLTA) (DLTA) (PI) (PI)
                 (PI) (PI) (SG) (DLTA) (DLTA) (SG) (PI) (PI) (SG)
                 (SG) (PI) (PI) (SG) (PI) (PI) (PHI) (PHI) (DLTA)
                 (DLTA) (DLTA) (DLTA) (PI) (PI) (SG) (SG) (SG)
                 (PI) (PI) (SG) (DLTA) (DLTA) (DLTA) (DLTA) (PI)
                 (PI) (?A) (?A) (PHI) (PHI) (SG) (PI) (PI) (SG)
                 (PI) (PI) (PHI) (PHI) (DLTA) (DLTA) (SG) (SG)
                 (PI) (PI) (SG) (SG) (PI) (PI) (DLTA) (DLTA) (SG)
                 (DLTA) (DLTA) (PI) (PI) (SG) (PI) (PI) (PI) (PI)
                 (SG) (SG) (?A) (?A) (PHI) (PHI) (DLTA) (DLTA)
                 (PI) (PI) (PHI) (PHI) (DLTA) (DLTA) (SG) (PI)
                 (PI) (SG) (DLTA) (DLTA) (SG) (PI) (PI) (SG) (SG)
                 (PI) (PI) (DLTA) (DLTA) (SG) (PI) (PI) (PI) (PI)
                 (SG) (SG) (DLTA) (DLTA) (PI) (PI) (SG) (PHI) (PHI)
                 (DLTA) (DLTA) (PI) (PI) (SG) (?A) (?A) (PHI) (PHI)
                 (DLTA) (DLTA) (PI) (PI) (SG) (SG) (PI) (PI) (SG)
                 (SG) (DLTA) (DLTA) (PI) (PI) (SG) (SG) (PI) (PI)
                 (SG) (DLTA) (DLTA) (PI) (PI) (SG) (SG) (PI) (PI)
                 (SG) (DLTA) (DLTA) (PI) (PI) (SG) (SG) (SG) (PI)
                 (PI) (SG) (DLTA) (DLTA) (PI) (PI) (SG) (PI) (PI)
                 (SG) (SG) (PI) (PI) (SG) (SG) (PI) (PI) (SG) (SG)
                 (PI) (PI) (SG) (SG) (PI) (PI) (SG) (SG) (SG) (PI)
                 (PI) (SG) (SG) (SG) (SG)
 The electronic state of the initial guess is 1-SG.
 Leave Link  401 at Mon Feb 12 20:03:18 2018, MaxMem=  8589934592 cpu:               9.1 elap:               0.3
 (Enter /home1/apps/gaussian/16rA.03/g16/l502.exe)
 Keep R1 and R2 ints in memory in symmetry-blocked form, NReq=338797193.
 FoFCou: FMM=F IPFlag=           8 FMFlag=           0 FMFlg1=           0
         NFxFlg=           0 DoJE=F BraDBF=F KetDBF=F FulRan=T
         wScrn=  0.000000 ICntrl=       600 IOpCl=  0 I1Cent=           0 NGrid=           0
         NMat0=    1 NMatS0=  23220 NMatT0=    0 NMatD0=    1 NMtDS0=    0 NMtDT0=    0
 Petite list used in FoFCou.
 Restricted open shell SCF:
 Using DIIS extrapolation, IDIIS=  1040.
 NGot=  8589934592 LenX=  8451446295 LenY=  8451379290
 Requested convergence on RMS density matrix=1.00D-08 within 300 cycles.
 Requested convergence on MAX density matrix=1.00D-06.
 Requested convergence on             energy=1.00D-06.
 No special actions if energy rises.

 Cycle   1  Pass 1  IDiag  1:
 E= -763.443094943183    
 DIIS: error= 5.21D-02 at cycle   1 NSaved=   1.
 NSaved= 1 IEnMin= 1 EnMin= -763.443094943183     IErMin= 1 ErrMin= 5.21D-02
 ErrMax= 5.21D-02  0.00D+00 EMaxC= 1.00D-01 BMatC= 1.86D-01 BMatP= 1.86D-01
 IDIUse=3 WtCom= 4.79D-01 WtEn= 5.21D-01
 Coeff-Com:  0.100D+01
 Coeff-En:   0.100D+01
 Coeff:      0.100D+01
 Gap=     0.275 Goal=   None    Shift=    0.000
 GapD=    0.275 DampG=1.000 DampE=0.250 DampFc=0.2500 IDamp=-1.
 Damping current iteration by 2.50D-01
 RMSDP=3.30D-03 MaxDP=1.34D-01              OVMax= 1.46D-01

 Cycle   2  Pass 1  IDiag  1:
 E= -763.460019092713     Delta-E=       -0.016924149530 Rises=F Damp=T
 DIIS: error= 4.08D-02 at cycle   2 NSaved=   2.
 NSaved= 2 IEnMin= 2 EnMin= -763.460019092713     IErMin= 2 ErrMin= 4.08D-02
 ErrMax= 4.08D-02  0.00D+00 EMaxC= 1.00D-01 BMatC= 1.10D-01 BMatP= 1.86D-01
 IDIUse=3 WtCom= 5.92D-01 WtEn= 4.08D-01
 Coeff-Com: -0.311D+01 0.411D+01
 Coeff-En:   0.000D+00 0.100D+01
 Coeff:     -0.184D+01 0.284D+01
 Gap=     0.235 Goal=   None    Shift=    0.000
 RMSDP=2.94D-03 MaxDP=1.24D-01 DE=-1.69D-02 OVMax= 5.67D-02

 Cycle   3  Pass 1  IDiag  1:
 E= -763.539941241624     Delta-E=       -0.079922148911 Rises=F Damp=F
 DIIS: error= 7.14D-03 at cycle   3 NSaved=   3.
 NSaved= 3 IEnMin= 3 EnMin= -763.539941241624     IErMin= 3 ErrMin= 7.14D-03
 ErrMax= 7.14D-03  0.00D+00 EMaxC= 1.00D-01 BMatC= 2.53D-03 BMatP= 1.10D-01
 IDIUse=3 WtCom= 9.29D-01 WtEn= 7.14D-02
 Coeff-Com:  0.177D+01-0.239D+01 0.162D+01
 Coeff-En:   0.000D+00 0.000D+00 0.100D+01
 Coeff:      0.164D+01-0.222D+01 0.158D+01
 Gap=     0.229 Goal=   None    Shift=    0.000
 RMSDP=9.67D-04 MaxDP=3.88D-02 DE=-7.99D-02 OVMax= 7.05D-02

 Cycle   4  Pass 1  IDiag  1:
 E= -763.550241515292     Delta-E=       -0.010300273668 Rises=F Damp=F
 DIIS: error= 3.27D-03 at cycle   4 NSaved=   4.
 NSaved= 4 IEnMin= 4 EnMin= -763.550241515292     IErMin= 4 ErrMin= 3.27D-03
 ErrMax= 3.27D-03  0.00D+00 EMaxC= 1.00D-01 BMatC= 4.42D-04 BMatP= 2.53D-03
 IDIUse=3 WtCom= 9.67D-01 WtEn= 3.27D-02
 Coeff-Com:  0.856D+00-0.113D+01 0.578D-01 0.122D+01
 Coeff-En:   0.000D+00 0.000D+00 0.000D+00 0.100D+01
 Coeff:      0.828D+00-0.110D+01 0.559D-01 0.121D+01
 Gap=     0.228 Goal=   None    Shift=    0.000
 RMSDP=4.29D-04 MaxDP=1.80D-02 DE=-1.03D-02 OVMax= 4.18D-02

 Cycle   5  Pass 1  IDiag  1:
 E= -763.552676072847     Delta-E=       -0.002434557555 Rises=F Damp=F
 DIIS: error= 1.10D-03 at cycle   5 NSaved=   5.
 NSaved= 5 IEnMin= 5 EnMin= -763.552676072847     IErMin= 5 ErrMin= 1.10D-03
 ErrMax= 1.10D-03  0.00D+00 EMaxC= 1.00D-01 BMatC= 5.13D-05 BMatP= 4.42D-04
 IDIUse=3 WtCom= 9.89D-01 WtEn= 1.10D-02
 Coeff-Com: -0.145D+00 0.194D+00 0.380D-01-0.649D+00 0.156D+01
 Coeff-En:   0.000D+00 0.000D+00 0.000D+00 0.000D+00 0.100D+01
 Coeff:     -0.144D+00 0.192D+00 0.376D-01-0.642D+00 0.156D+01
 Gap=     0.227 Goal=   None    Shift=    0.000
 RMSDP=2.66D-04 MaxDP=1.30D-02 DE=-2.43D-03 OVMax= 2.59D-02

 Cycle   6  Pass 1  IDiag  1:
 E= -763.553117019188     Delta-E=       -0.000440946341 Rises=F Damp=F
 DIIS: error= 3.06D-04 at cycle   6 NSaved=   6.
 NSaved= 6 IEnMin= 6 EnMin= -763.553117019188     IErMin= 6 ErrMin= 3.06D-04
 ErrMax= 3.06D-04  0.00D+00 EMaxC= 1.00D-01 BMatC= 7.90D-06 BMatP= 5.13D-05
 IDIUse=3 WtCom= 9.97D-01 WtEn= 3.06D-03
 Coeff-Com:  0.116D+00-0.155D+00 0.351D-01 0.224D+00-0.101D+01 0.179D+01
 Coeff-En:   0.000D+00 0.000D+00 0.000D+00 0.000D+00 0.000D+00 0.100D+01
 Coeff:      0.116D+00-0.155D+00 0.350D-01 0.223D+00-0.100D+01 0.179D+01
 Gap=     0.226 Goal=   None    Shift=    0.000
 RMSDP=1.44D-04 MaxDP=5.92D-03 DE=-4.41D-04 OVMax= 1.36D-02

 Cycle   7  Pass 1  IDiag  1:
 E= -763.553181646728     Delta-E=       -0.000064627540 Rises=F Damp=F
 DIIS: error= 5.61D-05 at cycle   7 NSaved=   7.
 NSaved= 7 IEnMin= 7 EnMin= -763.553181646728     IErMin= 7 ErrMin= 5.61D-05
 ErrMax= 5.61D-05  0.00D+00 EMaxC= 1.00D-01 BMatC= 2.54D-07 BMatP= 7.90D-06
 IDIUse=1 WtCom= 1.00D+00 WtEn= 0.00D+00
 Coeff-Com:  0.487D-02-0.659D-02 0.518D-02-0.177D-02 0.306D-01-0.217D+00
 Coeff-Com:  0.118D+01
 Coeff:      0.487D-02-0.659D-02 0.518D-02-0.177D-02 0.306D-01-0.217D+00
 Coeff:      0.118D+01
 Gap=     0.226 Goal=   None    Shift=    0.000
 RMSDP=2.31D-05 MaxDP=1.31D-03 DE=-6.46D-05 OVMax= 1.70D-03

 Cycle   8  Pass 1  IDiag  1:
 E= -763.553182867903     Delta-E=       -0.000001221175 Rises=F Damp=F
 DIIS: error= 1.17D-05 at cycle   8 NSaved=   8.
 NSaved= 8 IEnMin= 8 EnMin= -763.553182867903     IErMin= 8 ErrMin= 1.17D-05
 ErrMax= 1.17D-05  0.00D+00 EMaxC= 1.00D-01 BMatC= 2.04D-08 BMatP= 2.54D-07
 IDIUse=1 WtCom= 1.00D+00 WtEn= 0.00D+00
 Coeff-Com:  0.266D-02-0.356D-02 0.123D-02-0.259D-02 0.275D-01-0.911D-01
 Coeff-Com:  0.191D+00 0.875D+00
 Coeff:      0.266D-02-0.356D-02 0.123D-02-0.259D-02 0.275D-01-0.911D-01
 Coeff:      0.191D+00 0.875D+00
 Gap=     0.226 Goal=   None    Shift=    0.000
 RMSDP=5.10D-06 MaxDP=3.21D-04 DE=-1.22D-06 OVMax= 2.15D-04

 Cycle   9  Pass 1  IDiag  1:
 E= -763.553182912476     Delta-E=       -0.000000044573 Rises=F Damp=F
 DIIS: error= 6.50D-06 at cycle   9 NSaved=   9.
 NSaved= 9 IEnMin= 9 EnMin= -763.553182912476     IErMin= 9 ErrMin= 6.50D-06
 ErrMax= 6.50D-06  0.00D+00 EMaxC= 1.00D-01 BMatC= 1.76D-09 BMatP= 2.04D-08
 IDIUse=1 WtCom= 1.00D+00 WtEn= 0.00D+00
 Coeff-Com:  0.896D-03-0.118D-02 0.336D-04 0.185D-02-0.749D-02 0.235D-01
 Coeff-Com: -0.121D+00-0.545D-01 0.116D+01
 Coeff:      0.896D-03-0.118D-02 0.336D-04 0.185D-02-0.749D-02 0.235D-01
 Coeff:     -0.121D+00-0.545D-01 0.116D+01
 Gap=     0.226 Goal=   None    Shift=    0.000
 RMSDP=2.32D-06 MaxDP=1.47D-04 DE=-4.46D-08 OVMax= 1.02D-04

 Cycle  10  Pass 1  IDiag  1:
 E= -763.553182919864     Delta-E=       -0.000000007389 Rises=F Damp=F
 DIIS: error= 7.02D-07 at cycle  10 NSaved=  10.
 NSaved=10 IEnMin=10 EnMin= -763.553182919864     IErMin=10 ErrMin= 7.02D-07
 ErrMax= 7.02D-07  0.00D+00 EMaxC= 1.00D-01 BMatC= 6.46D-11 BMatP= 1.76D-09
 IDIUse=1 WtCom= 1.00D+00 WtEn= 0.00D+00
 Coeff-Com: -0.470D-03 0.624D-03-0.172D-03-0.253D-03 0.452D-03 0.106D-02
 Coeff-Com:  0.491D-02-0.350D-01-0.178D+00 0.121D+01
 Coeff:     -0.470D-03 0.624D-03-0.172D-03-0.253D-03 0.452D-03 0.106D-02
 Coeff:      0.491D-02-0.350D-01-0.178D+00 0.121D+01
 Gap=     0.226 Goal=   None    Shift=    0.000
 RMSDP=2.62D-07 MaxDP=1.85D-05 DE=-7.39D-09 OVMax= 2.13D-05

 Cycle  11  Pass 1  IDiag  1:
 E= -763.553182920157     Delta-E=       -0.000000000293 Rises=F Damp=F
 DIIS: error= 1.20D-07 at cycle  11 NSaved=  11.
 NSaved=11 IEnMin=11 EnMin= -763.553182920157     IErMin=11 ErrMin= 1.20D-07
 ErrMax= 1.20D-07  0.00D+00 EMaxC= 1.00D-01 BMatC= 2.26D-12 BMatP= 6.46D-11
 IDIUse=1 WtCom= 1.00D+00 WtEn= 0.00D+00
 Coeff-Com:  0.928D-04-0.123D-03 0.405D-04 0.557D-05 0.172D-04-0.735D-03
 Coeff-Com:  0.345D-02 0.248D-02-0.725D-02-0.145D+00 0.115D+01
 Coeff:      0.928D-04-0.123D-03 0.405D-04 0.557D-05 0.172D-04-0.735D-03
 Coeff:      0.345D-02 0.248D-02-0.725D-02-0.145D+00 0.115D+01
 Gap=     0.226 Goal=   None    Shift=    0.000
 RMSDP=2.17D-07 MaxDP=1.48D-05 DE=-2.93D-10 OVMax= 2.56D-06

 Cycle  12  Pass 1  IDiag  1:
 E= -763.553182920164     Delta-E=       -0.000000000007 Rises=F Damp=F
 DIIS: error= 1.92D-08 at cycle  12 NSaved=  12.
 NSaved=12 IEnMin=12 EnMin= -763.553182920164     IErMin=12 ErrMin= 1.92D-08
 ErrMax= 1.92D-08  0.00D+00 EMaxC= 1.00D-01 BMatC= 5.99D-14 BMatP= 2.26D-12
 IDIUse=1 WtCom= 1.00D+00 WtEn= 0.00D+00
 Coeff-Com:  0.119D-05-0.158D-05-0.878D-06 0.129D-04-0.419D-04 0.174D-03
 Coeff-Com: -0.107D-02 0.127D-02 0.701D-02-0.168D-01-0.185D+00 0.119D+01
 Coeff:      0.119D-05-0.158D-05-0.878D-06 0.129D-04-0.419D-04 0.174D-03
 Coeff:     -0.107D-02 0.127D-02 0.701D-02-0.168D-01-0.185D+00 0.119D+01
 Gap=     0.226 Goal=   None    Shift=    0.000
 RMSDP=4.72D-08 MaxDP=3.36D-06 DE=-7.05D-12 OVMax= 5.52D-07

 Cycle  13  Pass 1  IDiag  1:
 E= -763.553182920165     Delta-E=       -0.000000000001 Rises=F Damp=F
 DIIS: error= 4.58D-09 at cycle  13 NSaved=  13.
 NSaved=13 IEnMin=13 EnMin= -763.553182920165     IErMin=13 ErrMin= 4.58D-09
 ErrMax= 4.58D-09  0.00D+00 EMaxC= 1.00D-01 BMatC= 1.81D-15 BMatP= 5.99D-14
 IDIUse=1 WtCom= 1.00D+00 WtEn= 0.00D+00
 Coeff-Com: -0.123D-06 0.171D-06-0.386D-06-0.502D-06 0.639D-05-0.375D-04
 Coeff-Com:  0.266D-03-0.468D-03-0.145D-02 0.559D-02 0.320D-01-0.345D+00
 Coeff-Com:  0.131D+01
 Coeff:     -0.123D-06 0.171D-06-0.386D-06-0.502D-06 0.639D-05-0.375D-04
 Coeff:      0.266D-03-0.468D-03-0.145D-02 0.559D-02 0.320D-01-0.345D+00
 Coeff:      0.131D+01
 Gap=     0.226 Goal=   None    Shift=    0.000
 RMSDP=2.16D-09 MaxDP=1.05D-07 DE=-6.82D-13 OVMax= 1.30D-07

 SCF Done:  E(ROHF) =  -763.553182920     A.U. after   13 cycles
            NFock= 13  Conv=0.22D-08     -V/T= 1.9711
 <Sx>= 0.0000 <Sy>= 0.0000 <Sz>= 0.0000 <S**2>=-0.0000 S=-0.0000
 <L.S>=  0.00000000000    
 KE= 7.862902790611D+02 PE=-1.853519307759D+03 EE= 2.925631243480D+02
 Annihilation of the first spin contaminant:
 S**2 before annihilation    -0.0000,   after     0.0000
 Leave Link  502 at Mon Feb 12 20:03:27 2018, MaxMem=  8589934592 cpu:             282.3 elap:               9.4
 (Enter /home1/apps/gaussian/16rA.03/g16/l801.exe)
 Windowed orbitals will be sorted by symmetry type.
 GenMOA:  NOpAll=  4 NOp2=4 NOpUse=  4 JSym2X=1
 FoFJK:  IHMeth= 1 ICntrl=       0 DoSepK=F KAlg= 0 I1Cent=           0 FoldK=F
 IRaf=         0 NMat=       1 IRICut=       1 DoRegI=T DoRafI=F ISym2E= 1 IDoP0=0 IntGTp=1.
 FoFCou: FMM=F IPFlag=           8 FMFlag=      100000 FMFlg1=           0
         NFxFlg=           0 DoJE=F BraDBF=F KetDBF=F FulRan=T
         wScrn=  0.000000 ICntrl=         0 IOpCl=  1 I1Cent=           0 NGrid=           0
         NMat0=    1 NMatS0=      1 NMatT0=    0 NMatD0=    1 NMtDS0=    0 NMtDT0=    0
 Petite list used in FoFCou.
 <Sx>= 0.0000 <Sy>= 0.0000 <Sz>= 0.0000 <S**2>= 0.0000 S= 0.0000
 Range of M.O.s used for correlation:     1   211
 NBasis=   215 NAE=    11 NBE=    11 NFC=     0 NFV=     0
 NROrb=    211 NOA=    11 NOB=    11 NVA=   200 NVB=   200

 **** Warning!!: The largest alpha MO coefficient is  0.31130904D+03


 **** Warning!!: The largest beta MO coefficient is  0.31130904D+03

 Singles contribution to E2=   -0.2395969503D-15
 Leave Link  801 at Mon Feb 12 20:03:31 2018, MaxMem=  8589934592 cpu:              95.5 elap:               3.0
 (Enter /home1/apps/gaussian/16rA.03/g16/l804.exe)
 Open-shell transformation, MDV=  8589934592 ITran=4 ISComp=2.
 Unit  1 TFree=       1395966 TCopy=       1258292.
 Semi-Direct transformation.
 ModeAB=           2 MOrb=            11 LenV=    8588469024
 LASXX=     12971248 LTotXX=    12971248 LenRXX=    12971248
 LTotAB=    13251238 MaxLAS=    77546931 LenRXY=    77546931
 NonZer=    79213409 LenScr=   119568384 LnRSAI=           0
 LnScr1=           0 LExtra=     8297033 Total=    218383596
 MaxDsk= 67108864000 SrtSym=           F ITran=            4
 DoSDTr:  NPSUse= 32
 JobTyp=1 Pass  1:  I=   1 to  11.
 (rs|ai) integrals will be sorted in core.
 Complete sort for first half transformation.
 First half transformation complete.
 Begin second half transformation for I=  10.
 Begin second half transformation for I=  10.
 Complete sort for second half transformation.
 Second half transformation complete.
 ModeAB=           2 MOrb=            11 LenV=    8588469024
 LASXX=     12971248 LTotXX=    12971248 LenRXX=    77546931
 LTotAB=    11859060 MaxLAS=    77546931 LenRXY=    11859060
 NonZer=    79213409 LenScr=   119568384 LnRSAI=           0
 LnScr1=           0 LExtra=    98815212 Total=    307789587
 MaxDsk= 67108864000 SrtSym=           F ITran=            4
 DoSDTr:  NPSUse= 32
 JobTyp=2 Pass  1:  I=   1 to  11.
 (rs|ai) integrals will be sorted in core.
 Complete sort for first half transformation.
 First half transformation complete.
 Begin second half transformation for I=  10.
 Begin second half transformation for I=  10.
 Complete sort for second half transformation.
 Second half transformation complete.
 Spin components of T(2) and E(2):
     alpha-alpha T2 =       0.1230800343D-01 E2=     -0.1026231941D+00
     alpha-beta  T2 =       0.8916080952D-01 E2=     -0.5621804596D+00
     beta-beta   T2 =       0.1230800343D-01 E2=     -0.1026231941D+00
 ANorm=    0.1055356251D+01
 E2 =    -0.7674268479D+00 EUMP2 =    -0.76432060976804D+03
 (S**2,0)=  0.00000D+00           (S**2,1)=  0.00000D+00
 E(PUHF)=      -0.76355318292D+03        E(PMP2)=      -0.76432060977D+03
 Leave Link  804 at Mon Feb 12 20:05:25 2018, MaxMem=  8589934592 cpu:            3633.0 elap:             113.6
 (Enter /home1/apps/gaussian/16rA.03/g16/l913.exe)
 CIDS:  MDV=  8589934592.
 IFCWin=0 IBDFC=1 NFBD=     0     0 NFCmp=     0     0 NFFFC=     0     0
 Using original routines for 1st iteration.
 Using DD4UQ or CC4UQ for 2nd and later iterations.
 Keep R2 and R3 ints in memory in symmetry-blocked form, NReq=338810587.
 FoFCou: FMM=F IPFlag=           8 FMFlag=           0 FMFlg1=           0
         NFxFlg=           0 DoJE=F BraDBF=F KetDBF=F FulRan=T
         wScrn=  0.000000 ICntrl=       600 IOpCl=  0 I1Cent=           0 NGrid=           0
         NMat0=    1 NMatS0=  23220 NMatT0=    0 NMatD0=    1 NMtDS0=    0 NMtDT0=    0
 Petite list used in FoFCou.
 CIDS: In Core Option IDoMem=           1.
 CCSD(T)
 =======
 Iterations= 150 Convergence= 0.100D-06
 Produce multiple copies of IABC intergrals
 Iteration Nr.   1
 **********************
 DD1Dir will call FoFMem   1 times, MxPair=       352
 NAB=   121 NAA=    55 NBB=    55.
 DD1Dir will call FoFMem   1 times, MxPair=       352
 NAB=   121 NAA=    55 NBB=    55.
 MP4(R+Q)=  0.24743976D-01
 Maximum subspace dimension=  5
 A-vector RMS=  1.8137189D-05 Max=  5.5301196D-03 conv= 1.00D-05.
 RLE energy=       -0.7564302205
 E3=       -0.13587485D-01        EROMP3=      -0.76433419725D+03
 E4(SDQ)=  -0.18572718D-03        ROMP4(SDQ)=  -0.76433438298D+03
 VARIATIONAL ENERGIES WITH THE FIRST-ORDER WAVEFUNCTION:
 DE(Corr)= -0.75627036     E(Corr)=     -764.30945328    
 NORM(A)=   0.10499617D+01
 Iteration Nr.   2
 **********************
 DD1Dir will call FoFMem   1 times, MxPair=       352
 NAB=   121 NAA=    55 NBB=    55.
 A-vector RMS=  2.0133169D-03 Max=  2.9010722D-02 conv= 1.00D-05.
 RLE energy=       -0.7607876069
 DE(Corr)= -0.76957120     E(CORR)=     -764.32275412     Delta=-1.33D-02
 NORM(A)=   0.10527803D+01
 Iteration Nr.   3
 **********************
 DD1Dir will call FoFMem   1 times, MxPair=       352
 NAB=   121 NAA=    55 NBB=    55.
 A-vector RMS=  1.4600296D-03 Max=  2.1300395D-02 conv= 1.00D-05.
 RLE energy=       -0.7705251194
 DE(Corr)= -0.77259659     E(CORR)=     -764.32577951     Delta=-3.03D-03
 NORM(A)=   0.10593832D+01
 Iteration Nr.   4
 **********************
 DD1Dir will call FoFMem   1 times, MxPair=       352
 NAB=   121 NAA=    55 NBB=    55.
 A-vector RMS=  9.8892132D-04 Max=  1.4380400D-02 conv= 1.00D-05.
 RLE energy=       -0.7826580366
 DE(Corr)= -0.77583430     E(CORR)=     -764.32901722     Delta=-3.24D-03
 NORM(A)=   0.10737547D+01
 Iteration Nr.   5
 **********************
 DD1Dir will call FoFMem   1 times, MxPair=       352
 NAB=   121 NAA=    55 NBB=    55.
 A-vector RMS=  1.4758822D-04 Max=  1.9707424D-03 conv= 1.00D-05.
 RLE energy=       -0.7815374675
 DE(Corr)= -0.78179296     E(CORR)=     -764.33497588     Delta=-5.96D-03
 NORM(A)=   0.10728842D+01
 Iteration Nr.   6
 **********************
 DD1Dir will call FoFMem   1 times, MxPair=       352
 NAB=   121 NAA=    55 NBB=    55.
 A-vector RMS=  3.7972820D-05 Max=  4.4824087D-04 conv= 1.00D-05.
 RLE energy=       -0.7810273725
 DE(Corr)= -0.78125701     E(CORR)=     -764.33443993     Delta= 5.36D-04
 NORM(A)=   0.10723490D+01
 Iteration Nr.   7
 **********************
 DD1Dir will call FoFMem   1 times, MxPair=       352
 NAB=   121 NAA=    55 NBB=    55.
 A-vector RMS=  1.0352587D-05 Max=  1.3572052D-04 conv= 1.00D-05.
 RLE energy=       -0.7810206682
 DE(Corr)= -0.78102034     E(CORR)=     -764.33420326     Delta= 2.37D-04
 NORM(A)=   0.10723687D+01
 Iteration Nr.   8
 **********************
 DD1Dir will call FoFMem   1 times, MxPair=       352
 NAB=   121 NAA=    55 NBB=    55.
 A-vector RMS=  7.5050970D-06 Max=  1.0108288D-04 conv= 1.00D-05.
 RLE energy=       -0.7810250527
 DE(Corr)= -0.78102708     E(CORR)=     -764.33421000     Delta=-6.74D-06
 NORM(A)=   0.10723516D+01
 Iteration Nr.   9
 **********************
 DD1Dir will call FoFMem   1 times, MxPair=       352
 NAB=   121 NAA=    55 NBB=    55.
 A-vector RMS=  2.8772957D-06 Max=  3.8434519D-05 conv= 1.00D-05.
 RLE energy=       -0.7810244753
 DE(Corr)= -0.78102242     E(CORR)=     -764.33420534     Delta= 4.66D-06
 NORM(A)=   0.10723521D+01
 Iteration Nr.  10
 **********************
 DD1Dir will call FoFMem   1 times, MxPair=       352
 NAB=   121 NAA=    55 NBB=    55.
 A-vector RMS=  1.5293445D-06 Max=  2.0418162D-05 conv= 1.00D-05.
 RLE energy=       -0.7810236744
 DE(Corr)= -0.78102423     E(CORR)=     -764.33420715     Delta=-1.81D-06
 NORM(A)=   0.10723486D+01
 Iteration Nr.  11
 **********************
 DD1Dir will call FoFMem   1 times, MxPair=       352
 NAB=   121 NAA=    55 NBB=    55.
 A-vector RMS=  4.7941907D-07 Max=  5.1039838D-06 conv= 1.00D-05.
 RLE energy=       -0.7810234511
 DE(Corr)= -0.78102327     E(CORR)=     -764.33420619     Delta= 9.57D-07
 NORM(A)=   0.10723496D+01
 Iteration Nr.  12
 **********************
 DD1Dir will call FoFMem   1 times, MxPair=       352
 NAB=   121 NAA=    55 NBB=    55.
 A-vector RMS=  1.4480099D-07 Max=  1.9420063D-06 conv= 1.00D-05.
 RLE energy=       -0.7810234267
 DE(Corr)= -0.78102346     E(CORR)=     -764.33420638     Delta=-1.84D-07
 NORM(A)=   0.10723499D+01
 Iteration Nr.  13
 **********************
 DD1Dir will call FoFMem   1 times, MxPair=       352
 NAB=   121 NAA=    55 NBB=    55.
 A-vector RMS=  1.0275261D-07 Max=  1.0214124D-06 conv= 1.00D-05.
 RLE energy=       -0.7810234392
 DE(Corr)= -0.78102340     E(CORR)=     -764.33420632     Delta= 6.26D-08
 NORM(A)=   0.10723504D+01
 CI/CC converged in   13 iterations to DelEn= 6.26D-08 Conv= 1.00D-07 ErrA1= 1.03D-07 Conv= 1.00D-05
 Wavefunction amplitudes converged. E(Corr)=     -764.33420632    
 Largest amplitude= 5.54D-02
 Time for triples=    12070.53 seconds.
 T4(CCSD)= -0.17999600D-01
 T5(CCSD)=  0.44763637D-03
 CCSD(T)= -0.76435175828D+03
 Discarding MO integrals.
 Leave Link  913 at Mon Feb 12 20:14:42 2018, MaxMem=  8589934592 cpu:           17827.8 elap:             557.2
 (Enter /home1/apps/gaussian/16rA.03/g16/l601.exe)
 Copying SCF densities to generalized density rwf, IOpCl= 0 IROHF=1.

 **********************************************************************

            Population analysis using the SCF density.

 **********************************************************************

 Orbital symmetries:
       Occupied  (SG) (SG) (PI) (PI) (SG) (SG) (SG) (PI) (PI) (SG)
                 (SG)
       Virtual   (SG) (PI) (PI) (SG) (SG) (PI) (PI) (DLTA) (DLTA)
                 (SG) (PI) (PI) (SG) (PI) (PI) (DLTA) (DLTA) (SG)
                 (SG) (SG) (PI) (PI) (DLTA) (DLTA) (PHI) (PHI)
                 (PI) (PI) (PI) (PI) (DLTA) (DLTA) (SG) (SG) (SG)
                 (PI) (PI) (SG) (PI) (PI) (SG) (DLTA) (DLTA) (PHI)
                 (PHI) (?A) (?A) (DLTA) (DLTA) (SG) (PI) (PI) (PI)
                 (PI) (DLTA) (DLTA) (PHI) (PHI) (SG) (PI) (PI)
                 (SG) (SG) (SG) (PI) (PI) (DLTA) (DLTA) (SG) (DLTA)
                 (DLTA) (PI) (PI) (SG) (PI) (PI) (PI) (PI) (PHI)
                 (PHI) (?A) (?A) (SG) (SG) (DLTA) (DLTA) (PI) (PI)
                 (PHI) (PHI) (DLTA) (DLTA) (SG) (SG) (PI) (PI)
                 (DLTA) (DLTA) (PI) (PI) (SG) (SG) (PI) (PI) (SG)
                 (DLTA) (DLTA) (PI) (PI) (SG) (PI) (PI) (SG) (SG)
                 (DLTA) (DLTA) (PI) (PI) (PHI) (PHI) (DLTA) (DLTA)
                 (PI) (PI) (PHI) (PHI) (?A) (?A) (SG) (DLTA) (DLTA)
                 (SG) (PI) (PI) (PI) (PI) (SG) (SG) (SG) (DLTA)
                 (DLTA) (PI) (PI) (SG) (SG) (PI) (PI) (SG) (SG)
                 (DLTA) (DLTA) (PI) (PI) (SG) (PI) (PI) (SG) (SG)
                 (DLTA) (DLTA) (PI) (PI) (SG) (SG) (PI) (PI) (SG)
                 (SG) (DLTA) (DLTA) (PI) (PI) (PI) (PI) (SG) (SG)
                 (PI) (PI) (SG) (SG) (PI) (PI) (SG) (SG) (PI) (PI)
                 (SG) (SG) (PI) (PI) (SG) (SG) (SG) (PI) (PI) (SG)
                 (SG) (SG) (SG) (SG)
 The electronic state is 1-SG.
 Alpha  occ. eigenvalues -- -166.79751 -19.22899 -15.65433 -15.65433 -15.64791
 Alpha  occ. eigenvalues --   -2.59946  -1.66024  -1.56002  -1.56002  -0.47562
 Alpha  occ. eigenvalues --   -0.21297
 Alpha virt. eigenvalues --    0.01284   0.01417   0.01417   0.02345   0.03459
 Alpha virt. eigenvalues --    0.03916   0.03916   0.03957   0.03957   0.04734
 Alpha virt. eigenvalues --    0.05040   0.05040   0.09614   0.10957   0.10957
 Alpha virt. eigenvalues --    0.11116   0.11116   0.11509   0.15076   0.15923
 Alpha virt. eigenvalues --    0.15926   0.15926   0.17186   0.17186   0.17309
 Alpha virt. eigenvalues --    0.17309   0.17587   0.17587   0.19784   0.19784
 Alpha virt. eigenvalues --    0.20303   0.20303   0.21362   0.34194   0.39730
 Alpha virt. eigenvalues --    0.40126   0.40126   0.44797   0.47133   0.47133
 Alpha virt. eigenvalues --    0.47345   0.47490   0.47490   0.49052   0.49052
 Alpha virt. eigenvalues --    0.49199   0.49199   0.49922   0.49922   0.50613
 Alpha virt. eigenvalues --    0.51150   0.51150   0.56627   0.56627   0.63290
 Alpha virt. eigenvalues --    0.63290   0.64628   0.64628   0.72537   0.82235
 Alpha virt. eigenvalues --    0.82235   0.91573   1.10247   1.14035   1.15634
 Alpha virt. eigenvalues --    1.15634   1.19280   1.19280   1.29604   1.35692
 Alpha virt. eigenvalues --    1.35692   1.37059   1.37059   1.54989   1.61109
 Alpha virt. eigenvalues --    1.61109   1.66473   1.66473   1.97865   1.97865
 Alpha virt. eigenvalues --    1.98330   1.98330   1.99720   2.08224   2.10377
 Alpha virt. eigenvalues --    2.10377   2.16222   2.16222   2.19843   2.19843
 Alpha virt. eigenvalues --    2.34964   2.34964   2.40186   2.60947   2.92537
 Alpha virt. eigenvalues --    2.92537   3.00573   3.00573   3.06643   3.06643
 Alpha virt. eigenvalues --    3.38342   3.72176   4.11725   4.11725   4.28176
 Alpha virt. eigenvalues --    4.28954   4.28954   4.53393   4.53393   4.74084
 Alpha virt. eigenvalues --    5.37684   5.37684   5.38685   5.62740   5.99645
 Alpha virt. eigenvalues --    5.99645   6.05794   6.05794   6.75164   6.75164
 Alpha virt. eigenvalues --    6.81566   6.81566   7.20319   7.20319   7.78296
 Alpha virt. eigenvalues --    7.78296   7.78680   7.78680   7.91208   7.94600
 Alpha virt. eigenvalues --    7.94600   8.29671   8.84612   8.84612   8.90505
 Alpha virt. eigenvalues --    8.90505   9.26416   9.40397   9.86949  11.18212
 Alpha virt. eigenvalues --   11.18212  11.22750  11.22750  12.43305  17.11625
 Alpha virt. eigenvalues --   18.10898  18.10898  18.42626  19.46284  20.55081
 Alpha virt. eigenvalues --   20.55081  20.59251  20.59251  35.34775  38.11803
 Alpha virt. eigenvalues --   38.11803  39.58049  43.61838  45.44120  45.44120
 Alpha virt. eigenvalues --   45.47730  45.47730  62.98321  79.96811  83.72184
 Alpha virt. eigenvalues --   83.72184  85.19127 144.28981 145.46477 145.46477
 Alpha virt. eigenvalues --  145.48795 145.48795 188.63870 188.63870 189.94379
 Alpha virt. eigenvalues --  198.62464 434.98083 434.98083 436.17637 503.47107
 Alpha virt. eigenvalues -- 1036.274231036.274231037.306951250.967612581.36819
 Alpha virt. eigenvalues -- 2581.368192582.205653026.171316812.775236812.77523
 Alpha virt. eigenvalues -- 6813.374107087.09712******************************
 Alpha virt. eigenvalues -- **************************************************
     Molecular Orbital Coefficients:
                           7         8         9        10        11
                           O         O         O         O         O
     Eigenvalues --    -1.66024  -1.56002  -1.56002  -0.47562  -0.21297
   1 1   Sc 1S          0.00000   0.00000   0.00000  -0.00000  -0.00000
   2        2S          0.00000   0.00000   0.00000  -0.00001  -0.00001
   3        3S          0.00001   0.00000   0.00000  -0.00002  -0.00002
   4        4S          0.00003   0.00000   0.00000  -0.00004  -0.00006
   5        5S          0.00009   0.00000   0.00000  -0.00012  -0.00018
   6        6S          0.00024   0.00000   0.00000  -0.00035  -0.00050
   7        7S          0.00066   0.00000   0.00000  -0.00095  -0.00134
   8        8S          0.00165   0.00000   0.00000  -0.00238  -0.00341
   9        9S          0.00373   0.00000   0.00000  -0.00536  -0.00758
  10       10S          0.00667   0.00000   0.00000  -0.00962  -0.01387
  11       11S          0.00772   0.00000   0.00000  -0.01114  -0.01548
  12       12S         -0.00332   0.00000   0.00000   0.00472   0.00561
  13       13S         -0.02915   0.00000   0.00000   0.04336   0.06540
  14       14S         -0.05748   0.00000   0.00000   0.08805   0.10873
  15       15S         -0.03641   0.00000   0.00000   0.04667  -0.02149
  16       16S          0.15637   0.00000   0.00000  -0.25658  -0.23468
  17       17S          0.22481   0.00000   0.00000  -0.36875  -0.27269
  18       18S          0.09813   0.00000   0.00000  -0.30447   0.34698
  19       19S         -0.03092   0.00000   0.00000   0.06657   0.53047
  20       20S         -0.02799   0.00000   0.00000   0.02327   0.15196
  21       21S          0.03655   0.00000   0.00000  -0.05030  -0.00148
  22       22S         -0.15974   0.00000   0.00000   0.20657   0.00604
  23       23S         -0.00351   0.00000   0.00000   0.00460  -0.00091
  24       24PX         0.00000  -0.00003   0.00000   0.00000   0.00000
  25       24PY         0.00000   0.00000  -0.00003   0.00000   0.00000
  26       24PZ        -0.00003   0.00000   0.00000  -0.00001  -0.00000
  27       25PX         0.00000  -0.00018   0.00000   0.00000   0.00000
  28       25PY         0.00000   0.00000  -0.00018   0.00000   0.00000
  29       25PZ        -0.00017   0.00000   0.00000  -0.00005  -0.00000
  30       26PX         0.00000  -0.00088   0.00000   0.00000   0.00000
  31       26PY         0.00000   0.00000  -0.00088   0.00000   0.00000
  32       26PZ        -0.00083   0.00000   0.00000  -0.00026  -0.00001
  33       27PX         0.00000  -0.00357   0.00000   0.00000   0.00000
  34       27PY         0.00000   0.00000  -0.00357   0.00000   0.00000
  35       27PZ        -0.00337   0.00000   0.00000  -0.00105  -0.00003
  36       28PX         0.00000  -0.01232   0.00000   0.00000   0.00000
  37       28PY         0.00000   0.00000  -0.01232   0.00000   0.00000
  38       28PZ        -0.01165   0.00000   0.00000  -0.00362  -0.00013
  39       29PX         0.00000  -0.03455   0.00000   0.00000   0.00000
  40       29PY         0.00000   0.00000  -0.03455   0.00000   0.00000
  41       29PZ        -0.03264   0.00000   0.00000  -0.01015  -0.00029
  42       30PX         0.00000  -0.07697   0.00000   0.00000   0.00000
  43       30PY         0.00000   0.00000  -0.07697   0.00000   0.00000
  44       30PZ        -0.07277   0.00000   0.00000  -0.02269  -0.00088
  45       31PX         0.00000  -0.12330   0.00000   0.00000   0.00000
  46       31PY         0.00000   0.00000  -0.12330   0.00000   0.00000
  47       31PZ        -0.11630   0.00000   0.00000  -0.03651  -0.00078
  48       32PX         0.00000  -0.13553   0.00000   0.00000   0.00000
  49       32PY         0.00000   0.00000  -0.13553   0.00000   0.00000
  50       32PZ        -0.12826   0.00000   0.00000  -0.04019  -0.00272
  51       33PX         0.00000   0.10207   0.00000   0.00000   0.00000
  52       33PY         0.00000   0.00000   0.10207   0.00000   0.00000
  53       33PZ         0.10875   0.00000   0.00000   0.03084   0.03144
  54       34PX         0.00000   0.31935   0.00000   0.00000   0.00000
  55       34PY         0.00000   0.00000   0.31935   0.00000   0.00000
  56       34PZ         0.29818   0.00000   0.00000   0.10860   0.00641
  57       35PX         0.00000   0.43438   0.00000   0.00000   0.00000
  58       35PY         0.00000   0.00000   0.43438   0.00000   0.00000
  59       35PZ         0.40293   0.00000   0.00000   0.10297   0.02187
  60       36PX         0.00000   0.29616   0.00000   0.00000   0.00000
  61       36PY         0.00000   0.00000   0.29616   0.00000   0.00000
  62       36PZ         0.23057   0.00000   0.00000   0.17598  -0.00838
  63       37PX         0.00000   0.04624   0.00000   0.00000   0.00000
  64       37PY         0.00000   0.00000   0.04624   0.00000   0.00000
  65       37PZ         0.00095   0.00000   0.00000   0.11633  -0.03233
  66       38PX         0.00000  -0.00478   0.00000   0.00000   0.00000
  67       38PY         0.00000   0.00000  -0.00478   0.00000   0.00000
  68       38PZ        -0.01295   0.00000   0.00000   0.02699  -0.01346
  69       39PX         0.00000   0.00289   0.00000   0.00000   0.00000
  70       39PY         0.00000   0.00000   0.00289   0.00000   0.00000
  71       39PZ         0.01522   0.00000   0.00000  -0.02493   0.03602
  72       40PX         0.00000  -0.08914   0.00000   0.00000   0.00000
  73       40PY         0.00000   0.00000  -0.08914   0.00000   0.00000
  74       40PZ        -0.09767   0.00000   0.00000  -0.02353  -0.03259
  75       41PX         0.00000   0.03136   0.00000   0.00000   0.00000
  76       41PY         0.00000   0.00000   0.03136   0.00000   0.00000
  77       41PZ         0.03137   0.00000   0.00000   0.05029  -0.01700
  78       42PX         0.00000  -0.00083   0.00000   0.00000   0.00000
  79       42PY         0.00000   0.00000  -0.00083   0.00000   0.00000
  80       42PZ        -0.00010   0.00000   0.00000   0.00233   0.00143
  81       43D 0       -0.00021   0.00000   0.00000   0.00345  -0.00126
  82       43D+1        0.00000  -0.00014   0.00000   0.00000   0.00000
  83       43D-1        0.00000   0.00000  -0.00014   0.00000   0.00000
  84       43D+2       -0.00000   0.00000   0.00000  -0.00000   0.00000
  85       43D-2        0.00000   0.00000   0.00000   0.00000   0.00000
  86       44D 0       -0.00112   0.00000   0.00000   0.02213  -0.00811
  87       44D+1        0.00000  -0.00081   0.00000   0.00000   0.00000
  88       44D-1        0.00000   0.00000  -0.00081   0.00000   0.00000
  89       44D+2       -0.00000   0.00000   0.00000  -0.00000   0.00000
  90       44D-2        0.00000   0.00000   0.00000   0.00000   0.00000
  91       45D 0       -0.00470   0.00000   0.00000   0.08051  -0.02961
  92       45D+1        0.00000  -0.00313   0.00000   0.00000   0.00000
  93       45D-1        0.00000   0.00000  -0.00313   0.00000   0.00000
  94       45D+2       -0.00000   0.00000   0.00000  -0.00000   0.00000
  95       45D-2        0.00000   0.00000   0.00000   0.00000   0.00000
  96       46D 0        0.01161   0.00000   0.00000   0.16197  -0.05874
  97       46D+1        0.00000  -0.00850   0.00000   0.00000   0.00000
  98       46D-1        0.00000   0.00000  -0.00850   0.00000   0.00000
  99       46D+2        0.00000   0.00000   0.00000  -0.00000   0.00000
 100       46D-2        0.00000   0.00000   0.00000   0.00000   0.00000
 101       47D 0       -0.00698   0.00000   0.00000   0.10421  -0.06190
 102       47D+1        0.00000  -0.09440   0.00000   0.00000   0.00000
 103       47D-1        0.00000   0.00000  -0.09440   0.00000   0.00000
 104       47D+2        0.00000   0.00000   0.00000  -0.00000   0.00000
 105       47D-2        0.00000   0.00000   0.00000   0.00000   0.00000
 106       48D 0        0.01261   0.00000   0.00000   0.22198  -0.10942
 107       48D+1        0.00000  -0.00340   0.00000   0.00000   0.00000
 108       48D-1        0.00000   0.00000  -0.00340   0.00000   0.00000
 109       48D+2        0.00000   0.00000   0.00000  -0.00000   0.00000
 110       48D-2        0.00000   0.00000   0.00000   0.00000   0.00000
 111       49D 0        0.00876   0.00000   0.00000   0.07169  -0.07387
 112       49D+1        0.00000   0.00124   0.00000   0.00000   0.00000
 113       49D-1        0.00000   0.00000   0.00124   0.00000   0.00000
 114       49D+2       -0.00000   0.00000   0.00000   0.00000  -0.00000
 115       49D-2        0.00000   0.00000   0.00000   0.00000   0.00000
 116       50D 0       -0.00268   0.00000   0.00000   0.00557  -0.02431
 117       50D+1        0.00000  -0.00023   0.00000   0.00000   0.00000
 118       50D-1        0.00000   0.00000  -0.00023   0.00000   0.00000
 119       50D+2       -0.00000   0.00000   0.00000   0.00000  -0.00000
 120       50D-2        0.00000   0.00000   0.00000   0.00000   0.00000
 121       51D 0       -0.02734   0.00000   0.00000   0.02800  -0.01035
 122       51D+1        0.00000  -0.00027   0.00000   0.00000   0.00000
 123       51D-1        0.00000   0.00000  -0.00027   0.00000   0.00000
 124       51D+2       -0.00000   0.00000   0.00000   0.00000  -0.00000
 125       51D-2        0.00000   0.00000   0.00000   0.00000   0.00000
 126       52D 0       -0.00279   0.00000   0.00000   0.16599  -0.03601
 127       52D+1        0.00000   0.08212   0.00000   0.00000   0.00000
 128       52D-1        0.00000   0.00000   0.08212   0.00000   0.00000
 129       52D+2       -0.00000   0.00000   0.00000   0.00000  -0.00000
 130       52D-2        0.00000   0.00000   0.00000   0.00000   0.00000
 131       53D 0       -0.00046   0.00000   0.00000   0.00087  -0.00112
 132       53D+1        0.00000   0.00008   0.00000   0.00000   0.00000
 133       53D-1        0.00000   0.00000   0.00008   0.00000   0.00000
 134       53D+2       -0.00000   0.00000   0.00000   0.00000   0.00000
 135       53D-2        0.00000   0.00000   0.00000   0.00000   0.00000
 136       54F 0        0.00526   0.00000   0.00000  -0.00961   0.00150
 137       54F+1        0.00000  -0.00272   0.00000   0.00000   0.00000
 138       54F-1        0.00000   0.00000  -0.00272   0.00000   0.00000
 139       54F+2       -0.00000   0.00000   0.00000   0.00000  -0.00000
 140       54F-2        0.00000   0.00000   0.00000   0.00000   0.00000
 141       54F+3        0.00000  -0.00000   0.00000   0.00000   0.00000
 142       54F-3        0.00000   0.00000  -0.00000   0.00000   0.00000
 143       55F 0        0.00709   0.00000   0.00000  -0.01945   0.00050
 144       55F+1        0.00000  -0.00510   0.00000   0.00000   0.00000
 145       55F-1        0.00000   0.00000  -0.00510   0.00000   0.00000
 146       55F+2       -0.00000   0.00000   0.00000   0.00000  -0.00000
 147       55F-2        0.00000   0.00000   0.00000   0.00000   0.00000
 148       55F+3        0.00000  -0.00000   0.00000   0.00000   0.00000
 149       55F-3        0.00000   0.00000  -0.00000   0.00000   0.00000
 150       56F 0       -0.00073   0.00000   0.00000  -0.00725  -0.00313
 151       56F+1        0.00000  -0.00223   0.00000   0.00000   0.00000
 152       56F-1        0.00000   0.00000  -0.00223   0.00000   0.00000
 153       56F+2       -0.00000   0.00000   0.00000   0.00000   0.00000
 154       56F-2        0.00000   0.00000   0.00000   0.00000   0.00000
 155       56F+3        0.00000   0.00000   0.00000   0.00000   0.00000
 156       56F-3        0.00000   0.00000   0.00000   0.00000   0.00000
 157       57F 0        0.00001   0.00000   0.00000  -0.00233   0.00032
 158       57F+1        0.00000   0.00007   0.00000   0.00000   0.00000
 159       57F-1        0.00000   0.00000   0.00007   0.00000   0.00000
 160       57F+2        0.00000   0.00000   0.00000  -0.00000   0.00000
 161       57F-2        0.00000   0.00000   0.00000   0.00000   0.00000
 162       57F+3        0.00000  -0.00000   0.00000   0.00000   0.00000
 163       57F-3        0.00000   0.00000  -0.00000   0.00000   0.00000
 164       58G 0       -0.00182   0.00000   0.00000   0.00099   0.00039
 165       58G+1        0.00000  -0.00081   0.00000   0.00000   0.00000
 166       58G-1        0.00000   0.00000  -0.00081   0.00000   0.00000
 167       58G+2        0.00000   0.00000   0.00000  -0.00000   0.00000
 168       58G-2        0.00000   0.00000   0.00000   0.00000   0.00000
 169       58G+3        0.00000   0.00000   0.00000   0.00000   0.00000
 170       58G-3        0.00000   0.00000   0.00000   0.00000   0.00000
 171       58G+4       -0.00000   0.00000   0.00000   0.00000  -0.00000
 172       58G-4        0.00000   0.00000   0.00000   0.00000   0.00000
 173       59G 0       -0.00024   0.00000   0.00000   0.00161   0.00054
 174       59G+1        0.00000   0.00019   0.00000   0.00000   0.00000
 175       59G-1        0.00000   0.00000   0.00019   0.00000   0.00000
 176       59G+2        0.00000   0.00000   0.00000  -0.00000   0.00000
 177       59G-2        0.00000   0.00000   0.00000   0.00000   0.00000
 178       59G+3        0.00000   0.00000   0.00000   0.00000   0.00000
 179       59G-3        0.00000   0.00000   0.00000   0.00000   0.00000
 180       59G+4        0.00000   0.00000   0.00000  -0.00000   0.00000
 181       59G-4        0.00000   0.00000   0.00000   0.00000   0.00000
 182       60G 0        0.00061   0.00000   0.00000   0.00103  -0.00025
 183       60G+1        0.00000   0.00019   0.00000   0.00000   0.00000
 184       60G-1        0.00000   0.00000   0.00019   0.00000   0.00000
 185       60G+2       -0.00000   0.00000   0.00000   0.00000  -0.00000
 186       60G-2        0.00000   0.00000   0.00000   0.00000   0.00000
 187       60G+3        0.00000   0.00000   0.00000   0.00000   0.00000
 188       60G-3        0.00000   0.00000   0.00000   0.00000   0.00000
 189       60G+4       -0.00000   0.00000   0.00000   0.00000   0.00000
 190       60G-4        0.00000   0.00000   0.00000   0.00000   0.00000
 191 2   H  1S         -0.00323   0.00000   0.00000   0.00584  -0.00024
 192        2S         -0.02226   0.00000   0.00000   0.04194  -0.00154
 193        3S         -0.09112   0.00000   0.00000   0.19126  -0.00914
 194        4S         -0.14010   0.00000   0.00000   0.42348  -0.00362
 195        5S         -0.05664   0.00000   0.00000   0.41829  -0.01923
 196        6S          0.04280   0.00000   0.00000  -0.03926   0.11954
 197        7PX         0.00000   0.00543   0.00000   0.00000   0.00000
 198        7PY         0.00000   0.00000   0.00543   0.00000   0.00000
 199        7PZ        -0.02209   0.00000   0.00000   0.01525  -0.01090
 200        8PX         0.00000   0.00170   0.00000   0.00000   0.00000
 201        8PY         0.00000   0.00000   0.00170   0.00000   0.00000
 202        8PZ        -0.03415   0.00000   0.00000   0.04414  -0.01714
 203        9PX         0.00000   0.00059   0.00000   0.00000   0.00000
 204        9PY         0.00000   0.00000   0.00059   0.00000   0.00000
 205        9PZ        -0.00940   0.00000   0.00000   0.06986  -0.02025
 206       10D 0       -0.00671   0.00000   0.00000   0.00395  -0.00376
 207       10D+1        0.00000   0.00218   0.00000   0.00000   0.00000
 208       10D-1        0.00000   0.00000   0.00218   0.00000   0.00000
 209       10D+2        0.00000   0.00000   0.00000  -0.00000  -0.00000
 210       10D-2        0.00000   0.00000   0.00000   0.00000   0.00000
 211       11D 0       -0.00346   0.00000   0.00000   0.00639  -0.00250
 212       11D+1        0.00000  -0.00068   0.00000   0.00000   0.00000
 213       11D-1        0.00000   0.00000  -0.00068   0.00000   0.00000
 214       11D+2        0.00000   0.00000   0.00000  -0.00000  -0.00000
 215       11D-2        0.00000   0.00000   0.00000   0.00000   0.00000
                          12        13        14        15        16
                           V         V         V         V         V
     Eigenvalues --     0.01284   0.01417   0.01417   0.02345   0.03459
   1 1   Sc 1S         -0.00000   0.00000   0.00000  -0.00000   0.00000
   2        2S         -0.00000   0.00000   0.00000  -0.00000   0.00000
   3        3S         -0.00000   0.00000   0.00000  -0.00001   0.00000
   4        4S         -0.00000   0.00000   0.00000  -0.00001   0.00000
   5        5S         -0.00001   0.00000   0.00000  -0.00004   0.00000
   6        6S         -0.00003   0.00000   0.00000  -0.00011   0.00001
   7        7S         -0.00007   0.00000   0.00000  -0.00032   0.00003
   8        8S         -0.00017   0.00000   0.00000  -0.00073   0.00005
   9        9S         -0.00042   0.00000   0.00000  -0.00182   0.00017
  10       10S         -0.00068   0.00000   0.00000  -0.00282   0.00013
  11       11S         -0.00096   0.00000   0.00000  -0.00429   0.00055
  12       12S          0.00069   0.00000   0.00000   0.00357  -0.00090
  13       13S          0.00221   0.00000   0.00000   0.00746   0.00141
  14       14S          0.01152   0.00000   0.00000   0.05915  -0.01377
  15       15S          0.02930   0.00000   0.00000   0.18360  -0.06100
  16       16S         -0.05061   0.00000   0.00000  -0.30766   0.06979
  17       17S          0.01092   0.00000   0.00000  -0.18523   0.08214
  18       18S          1.10906   0.00000   0.00000   0.62326   2.05635
  19       19S         -0.23032   0.00000   0.00000  -1.82081  -0.09197
  20       20S          3.94979   0.00000   0.00000  -1.88514 -27.92302
  21       21S         -0.02422   0.00000   0.00000  -0.14964   0.05019
  22       22S          0.02114   0.00000   0.00000   0.33638  -0.09024
  23       23S         -0.75501   0.00000   0.00000  -2.61571   0.18769
  24       24PX         0.00000   0.00000   0.00000   0.00000   0.00000
  25       24PY         0.00000   0.00000   0.00000   0.00000   0.00000
  26       24PZ        -0.00000   0.00000   0.00000   0.00000  -0.00000
  27       25PX         0.00000   0.00000   0.00001   0.00000   0.00000
  28       25PY         0.00000   0.00001   0.00000   0.00000   0.00000
  29       25PZ        -0.00001   0.00000   0.00000   0.00000  -0.00000
  30       26PX         0.00000   0.00000   0.00007   0.00000   0.00000
  31       26PY         0.00000   0.00007   0.00000   0.00000   0.00000
  32       26PZ        -0.00006   0.00000   0.00000   0.00001  -0.00003
  33       27PX         0.00000   0.00000   0.00030   0.00000   0.00000
  34       27PY         0.00000   0.00030   0.00000   0.00000   0.00000
  35       27PZ        -0.00025   0.00000   0.00000   0.00001  -0.00001
  36       28PX         0.00000   0.00000   0.00093   0.00000   0.00000
  37       28PY         0.00000   0.00093   0.00000   0.00000   0.00000
  38       28PZ        -0.00088   0.00000   0.00000   0.00015  -0.00044
  39       29PX         0.00000   0.00000   0.00293   0.00000   0.00000
  40       29PY         0.00000   0.00293   0.00000   0.00000   0.00000
  41       29PZ        -0.00247   0.00000   0.00000   0.00011   0.00000
  42       30PX         0.00000   0.00000   0.00563   0.00000   0.00000
  43       30PY         0.00000   0.00563   0.00000   0.00000   0.00000
  44       30PZ        -0.00556   0.00000   0.00000   0.00111  -0.00350
  45       31PX         0.00000   0.00000   0.01140   0.00000   0.00000
  46       31PY         0.00000   0.01140   0.00000   0.00000   0.00000
  47       31PZ        -0.00884   0.00000   0.00000  -0.00037   0.00359
  48       32PX         0.00000   0.00000   0.00619   0.00000   0.00000
  49       32PY         0.00000   0.00619   0.00000   0.00000   0.00000
  50       32PZ        -0.01002   0.00000   0.00000   0.00532  -0.02354
  51       33PX         0.00000   0.00000   0.08427   0.00000   0.00000
  52       33PY         0.00000   0.08427   0.00000   0.00000   0.00000
  53       33PZ         0.01287   0.00000   0.00000  -0.07326   0.53068
  54       34PX         0.00000   0.00000  -0.02600   0.00000   0.00000
  55       34PY         0.00000  -0.02600   0.00000   0.00000   0.00000
  56       34PZ         0.02620   0.00000   0.00000   0.00031   0.07607
  57       35PX         0.00000   0.00000   0.13119   0.00000   0.00000
  58       35PY         0.00000   0.13119   0.00000   0.00000   0.00000
  59       35PZ         0.07424   0.00000   0.00000  -0.23625  -0.15279
  60       36PX         0.00000   0.00000   0.00033   0.00000   0.00000
  61       36PY         0.00000   0.00033   0.00000   0.00000   0.00000
  62       36PZ        -0.00008   0.00000   0.00000  -0.10940   0.06690
  63       37PX         0.00000   0.00000   0.01538   0.00000   0.00000
  64       37PY         0.00000   0.01538   0.00000   0.00000   0.00000
  65       37PZ        -0.28382   0.00000   0.00000   0.07802  -0.29470
  66       38PX         0.00000   0.00000   0.38343   0.00000   0.00000
  67       38PY         0.00000   0.38343   0.00000   0.00000   0.00000
  68       38PZ        -0.57569   0.00000   0.00000   0.35737  -0.62628
  69       39PX         0.00000   0.00000  -0.18085   0.00000   0.00000
  70       39PY         0.00000  -0.18085   0.00000   0.00000   0.00000
  71       39PZ        -0.68851   0.00000   0.00000   1.21235   7.99989
  72       40PX         0.00000   0.00000  -0.08715   0.00000   0.00000
  73       40PY         0.00000  -0.08715   0.00000   0.00000   0.00000
  74       40PZ        -0.01145   0.00000   0.00000   0.07205  -0.55233
  75       41PX         0.00000   0.00000  -0.19483   0.00000   0.00000
  76       41PY         0.00000  -0.19483   0.00000   0.00000   0.00000
  77       41PZ        -0.03599   0.00000   0.00000   0.25311   0.10662
  78       42PX         0.00000   0.00000   0.99685   0.00000   0.00000
  79       42PY         0.00000   0.99685   0.00000   0.00000   0.00000
  80       42PZ        -1.03996   0.00000   0.00000   0.54384   0.74524
  81       43D 0       -0.00041   0.00000   0.00000  -0.00012   0.00001
  82       43D+1        0.00000   0.00000   0.00003   0.00000   0.00000
  83       43D-1        0.00000   0.00003   0.00000   0.00000   0.00000
  84       43D+2        0.00000   0.00000   0.00000  -0.00000  -0.00000
  85       43D-2        0.00000   0.00000   0.00000   0.00000   0.00000
  86       44D 0       -0.00276   0.00000   0.00000  -0.00072   0.00049
  87       44D+1        0.00000   0.00000   0.00026   0.00000   0.00000
  88       44D-1        0.00000   0.00026   0.00000   0.00000   0.00000
  89       44D+2        0.00000   0.00000   0.00000  -0.00000  -0.00000
  90       44D-2        0.00000   0.00000   0.00000   0.00000   0.00000
  91       45D 0       -0.00930   0.00000   0.00000  -0.00290  -0.00071
  92       45D+1        0.00000   0.00000   0.00070   0.00000   0.00000
  93       45D-1        0.00000   0.00070   0.00000   0.00000   0.00000
  94       45D+2        0.00000   0.00000   0.00000  -0.00000  -0.00000
  95       45D-2        0.00000   0.00000   0.00000   0.00000   0.00000
  96       46D 0       -0.03625   0.00000   0.00000   0.00653   0.07300
  97       46D+1        0.00000   0.00000   0.01023   0.00000   0.00000
  98       46D-1        0.00000   0.01023   0.00000   0.00000   0.00000
  99       46D+2        0.00000   0.00000   0.00000  -0.00000   0.00000
 100       46D-2        0.00000   0.00000   0.00000   0.00000   0.00000
 101       47D 0       -0.14109   0.00000   0.00000   0.09805   0.78358
 102       47D+1        0.00000   0.00000   0.15746   0.00000   0.00000
 103       47D-1        0.00000   0.15746   0.00000   0.00000   0.00000
 104       47D+2       -0.00000   0.00000   0.00000  -0.00000   0.00000
 105       47D-2        0.00000   0.00000   0.00000   0.00000   0.00000
 106       48D 0        0.01238   0.00000   0.00000   0.00928  -0.00553
 107       48D+1        0.00000   0.00000  -0.00028   0.00000   0.00000
 108       48D-1        0.00000  -0.00028   0.00000   0.00000   0.00000
 109       48D+2        0.00000   0.00000   0.00000  -0.00000  -0.00000
 110       48D-2        0.00000   0.00000   0.00000   0.00000   0.00000
 111       49D 0        0.09854   0.00000   0.00000  -0.12848   0.05593
 112       49D+1        0.00000   0.00000  -0.04936   0.00000   0.00000
 113       49D-1        0.00000  -0.04936   0.00000   0.00000   0.00000
 114       49D+2        0.00000   0.00000   0.00000  -0.00000  -0.00000
 115       49D-2        0.00000   0.00000   0.00000   0.00000   0.00000
 116       50D 0        0.10955   0.00000   0.00000  -0.21803  -0.81831
 117       50D+1        0.00000   0.00000  -0.00598   0.00000   0.00000
 118       50D-1        0.00000  -0.00598   0.00000   0.00000   0.00000
 119       50D+2        0.00000   0.00000   0.00000  -0.00000   0.00000
 120       50D-2        0.00000   0.00000   0.00000   0.00000   0.00000
 121       51D 0        0.01505   0.00000   0.00000  -0.01566  -0.08399
 122       51D+1        0.00000   0.00000  -0.00981   0.00000   0.00000
 123       51D-1        0.00000  -0.00981   0.00000   0.00000   0.00000
 124       51D+2        0.00000   0.00000   0.00000   0.00000  -0.00000
 125       51D-2        0.00000   0.00000   0.00000   0.00000   0.00000
 126       52D 0        0.10865   0.00000   0.00000  -0.09721  -0.76735
 127       52D+1        0.00000   0.00000  -0.15453   0.00000   0.00000
 128       52D-1        0.00000  -0.15453   0.00000   0.00000   0.00000
 129       52D+2        0.00000   0.00000   0.00000   0.00000  -0.00000
 130       52D-2        0.00000   0.00000   0.00000   0.00000   0.00000
 131       53D 0       -0.00053   0.00000   0.00000  -0.12542  -1.62743
 132       53D+1        0.00000   0.00000   0.07414   0.00000   0.00000
 133       53D-1        0.00000   0.07414   0.00000   0.00000   0.00000
 134       53D+2       -0.00000   0.00000   0.00000  -0.00000  -0.00000
 135       53D-2        0.00000   0.00000   0.00000   0.00000   0.00000
 136       54F 0        0.00076   0.00000   0.00000  -0.00001  -0.00067
 137       54F+1        0.00000   0.00000   0.00001   0.00000   0.00000
 138       54F-1        0.00000   0.00001   0.00000   0.00000   0.00000
 139       54F+2       -0.00000   0.00000   0.00000   0.00000   0.00000
 140       54F-2        0.00000   0.00000   0.00000   0.00000   0.00000
 141       54F+3        0.00000   0.00000   0.00000   0.00000   0.00000
 142       54F-3        0.00000   0.00000   0.00000   0.00000   0.00000
 143       55F 0       -0.00601   0.00000   0.00000  -0.00560  -0.00000
 144       55F+1        0.00000   0.00000   0.00029   0.00000   0.00000
 145       55F-1        0.00000   0.00029   0.00000   0.00000   0.00000
 146       55F+2       -0.00000   0.00000   0.00000  -0.00000   0.00000
 147       55F-2        0.00000   0.00000   0.00000   0.00000   0.00000
 148       55F+3        0.00000   0.00000   0.00000   0.00000   0.00000
 149       55F-3        0.00000   0.00000   0.00000   0.00000   0.00000
 150       56F 0       -0.03139   0.00000   0.00000   0.02501   0.02476
 151       56F+1        0.00000   0.00000   0.01324   0.00000   0.00000
 152       56F-1        0.00000   0.01324   0.00000   0.00000   0.00000
 153       56F+2        0.00000   0.00000   0.00000  -0.00000   0.00000
 154       56F-2        0.00000   0.00000   0.00000   0.00000   0.00000
 155       56F+3        0.00000   0.00000  -0.00000   0.00000   0.00000
 156       56F-3        0.00000  -0.00000   0.00000   0.00000   0.00000
 157       57F 0       -0.03308   0.00000   0.00000   0.05710   0.17046
 158       57F+1        0.00000   0.00000   0.01503   0.00000   0.00000
 159       57F-1        0.00000   0.01503   0.00000   0.00000   0.00000
 160       57F+2        0.00000   0.00000   0.00000  -0.00000  -0.00000
 161       57F-2        0.00000   0.00000   0.00000   0.00000   0.00000
 162       57F+3        0.00000   0.00000   0.00000   0.00000   0.00000
 163       57F-3        0.00000   0.00000   0.00000   0.00000   0.00000
 164       58G 0        0.00040   0.00000   0.00000   0.00076   0.00025
 165       58G+1        0.00000   0.00000   0.00006   0.00000   0.00000
 166       58G-1        0.00000   0.00006   0.00000   0.00000   0.00000
 167       58G+2       -0.00000   0.00000   0.00000   0.00000   0.00000
 168       58G-2        0.00000   0.00000   0.00000   0.00000   0.00000
 169       58G+3        0.00000   0.00000  -0.00000   0.00000   0.00000
 170       58G-3        0.00000  -0.00000   0.00000   0.00000   0.00000
 171       58G+4       -0.00000   0.00000   0.00000   0.00000   0.00000
 172       58G-4        0.00000   0.00000   0.00000   0.00000   0.00000
 173       59G 0        0.00316   0.00000   0.00000  -0.00198  -0.00120
 174       59G+1        0.00000   0.00000  -0.00222   0.00000   0.00000
 175       59G-1        0.00000  -0.00222   0.00000   0.00000   0.00000
 176       59G+2       -0.00000   0.00000   0.00000   0.00000  -0.00000
 177       59G-2        0.00000   0.00000   0.00000   0.00000   0.00000
 178       59G+3        0.00000   0.00000   0.00000   0.00000   0.00000
 179       59G-3        0.00000   0.00000   0.00000   0.00000   0.00000
 180       59G+4        0.00000   0.00000   0.00000  -0.00000  -0.00000
 181       59G-4        0.00000   0.00000   0.00000   0.00000   0.00000
 182       60G 0        0.00626   0.00000   0.00000  -0.01272  -0.03012
 183       60G+1        0.00000   0.00000  -0.00636   0.00000   0.00000
 184       60G-1        0.00000  -0.00636   0.00000   0.00000   0.00000
 185       60G+2       -0.00000   0.00000   0.00000   0.00000  -0.00000
 186       60G-2        0.00000   0.00000   0.00000   0.00000   0.00000
 187       60G+3        0.00000   0.00000  -0.00000   0.00000   0.00000
 188       60G-3        0.00000  -0.00000   0.00000   0.00000   0.00000
 189       60G+4       -0.00000   0.00000   0.00000   0.00000  -0.00000
 190       60G-4        0.00000   0.00000   0.00000   0.00000   0.00000
 191 2   H  1S         -0.00007   0.00000   0.00000   0.00009   0.00010
 192        2S         -0.00022   0.00000   0.00000   0.00082   0.00061
 193        3S         -0.00407   0.00000   0.00000   0.00321   0.00562
 194        4S         -0.17221   0.00000   0.00000  -0.07938   0.03260
 195        5S         -1.05053   0.00000   0.00000   0.50240  -1.76202
 196        6S         -3.38229   0.00000   0.00000   5.18374  28.84594
 197        7PX         0.00000   0.00000   0.00073   0.00000   0.00000
 198        7PY         0.00000   0.00073   0.00000   0.00000   0.00000
 199        7PZ        -0.00785   0.00000   0.00000  -0.00413  -0.00194
 200        8PX         0.00000   0.00000  -0.01039   0.00000   0.00000
 201        8PY         0.00000  -0.01039   0.00000   0.00000   0.00000
 202        8PZ        -0.04832   0.00000   0.00000  -0.05932  -0.01034
 203        9PX         0.00000   0.00000  -0.12129   0.00000   0.00000
 204        9PY         0.00000  -0.12129   0.00000   0.00000   0.00000
 205        9PZ        -0.09568   0.00000   0.00000  -0.15571  -0.76171
 206       10D 0       -0.00365   0.00000   0.00000  -0.00479  -0.00343
 207       10D+1        0.00000   0.00000  -0.00095   0.00000   0.00000
 208       10D-1        0.00000  -0.00095   0.00000   0.00000   0.00000
 209       10D+2        0.00000   0.00000   0.00000  -0.00000  -0.00000
 210       10D-2        0.00000   0.00000   0.00000   0.00000   0.00000
 211       11D 0        0.00402   0.00000   0.00000  -0.01856  -0.01214
 212       11D+1        0.00000   0.00000  -0.00424   0.00000   0.00000
 213       11D-1        0.00000  -0.00424   0.00000   0.00000   0.00000
 214       11D+2        0.00000   0.00000   0.00000   0.00000   0.00000
 215       11D-2        0.00000   0.00000   0.00000   0.00000   0.00000
     Alpha Density Matrix:
                           1         2         3         4         5
   1 1   Sc 1S          0.00000
   2        2S          0.00000   0.00000
   3        3S          0.00000   0.00000   0.00000
   4        4S          0.00000   0.00000   0.00000   0.00001
   5        5S          0.00000   0.00000   0.00001   0.00002   0.00006
   6        6S          0.00000   0.00001   0.00002   0.00006   0.00017
   7        7S          0.00001   0.00002   0.00006   0.00016   0.00045
   8        8S          0.00002   0.00005   0.00014   0.00040   0.00109
   9        9S          0.00003   0.00010   0.00029   0.00079   0.00216
  10       10S          0.00005   0.00014   0.00041   0.00113   0.00310
  11       11S          0.00004   0.00011   0.00033   0.00089   0.00244
  12       12S          0.00000   0.00001   0.00004   0.00011   0.00030
  13       13S         -0.00002  -0.00006  -0.00018  -0.00050  -0.00139
  14       14S         -0.00002  -0.00007  -0.00019  -0.00052  -0.00145
  15       15S         -0.00000  -0.00001  -0.00002  -0.00004  -0.00012
  16       16S          0.00001   0.00003   0.00008   0.00023   0.00063
  17       17S          0.00001   0.00002   0.00005   0.00014   0.00039
  18       18S         -0.00000  -0.00000  -0.00000  -0.00001  -0.00003
  19       19S         -0.00000  -0.00001  -0.00001  -0.00004  -0.00011
  20       20S         -0.00000  -0.00000  -0.00000  -0.00000  -0.00001
  21       21S         -0.00000  -0.00000  -0.00000  -0.00001  -0.00003
  22       22S         -0.00000  -0.00000  -0.00000  -0.00000  -0.00001
  23       23S         -0.00000  -0.00000  -0.00000  -0.00000  -0.00000
  24       24PX         0.00000   0.00000   0.00000   0.00000   0.00000
  25       24PY         0.00000   0.00000   0.00000   0.00000   0.00000
  26       24PZ         0.00000   0.00000   0.00000   0.00000   0.00000
  27       25PX         0.00000   0.00000   0.00000   0.00000   0.00000
  28       25PY         0.00000   0.00000   0.00000   0.00000   0.00000
  29       25PZ         0.00000   0.00000   0.00000   0.00000   0.00000
  30       26PX         0.00000   0.00000   0.00000   0.00000   0.00000
  31       26PY         0.00000   0.00000   0.00000   0.00000   0.00000
  32       26PZ         0.00000   0.00000   0.00000   0.00000   0.00000
  33       27PX         0.00000   0.00000   0.00000   0.00000   0.00000
  34       27PY         0.00000   0.00000   0.00000   0.00000   0.00000
  35       27PZ         0.00000   0.00000   0.00000   0.00000   0.00000
  36       28PX         0.00000   0.00000   0.00000   0.00000   0.00000
  37       28PY         0.00000   0.00000   0.00000   0.00000   0.00000
  38       28PZ         0.00000   0.00000   0.00000   0.00000   0.00000
  39       29PX         0.00000   0.00000   0.00000   0.00000   0.00000
  40       29PY         0.00000   0.00000   0.00000   0.00000   0.00000
  41       29PZ         0.00000   0.00000   0.00000   0.00000   0.00000
  42       30PX         0.00000   0.00000   0.00000   0.00000   0.00000
  43       30PY         0.00000   0.00000   0.00000   0.00000   0.00000
  44       30PZ         0.00000   0.00000   0.00000   0.00000   0.00000
  45       31PX         0.00000   0.00000   0.00000   0.00000   0.00000
  46       31PY         0.00000   0.00000   0.00000   0.00000   0.00000
  47       31PZ        -0.00000  -0.00000  -0.00000  -0.00000  -0.00000
  48       32PX         0.00000   0.00000   0.00000   0.00000   0.00000
  49       32PY         0.00000   0.00000   0.00000   0.00000   0.00000
  50       32PZ         0.00000   0.00000   0.00000   0.00000   0.00000
  51       33PX         0.00000   0.00000   0.00000   0.00000   0.00000
  52       33PY         0.00000   0.00000   0.00000   0.00000   0.00000
  53       33PZ        -0.00000  -0.00000  -0.00001  -0.00002  -0.00005
  54       34PX         0.00000   0.00000   0.00000   0.00000   0.00000
  55       34PY         0.00000   0.00000   0.00000   0.00000   0.00000
  56       34PZ        -0.00000  -0.00000  -0.00000  -0.00000  -0.00001
  57       35PX         0.00000   0.00000   0.00000   0.00000   0.00000
  58       35PY         0.00000   0.00000   0.00000   0.00000   0.00000
  59       35PZ        -0.00000  -0.00000  -0.00000  -0.00001  -0.00003
  60       36PX         0.00000   0.00000   0.00000   0.00000   0.00000
  61       36PY         0.00000   0.00000   0.00000   0.00000   0.00000
  62       36PZ         0.00000   0.00000   0.00000   0.00000   0.00001
  63       37PX         0.00000   0.00000   0.00000   0.00000   0.00000
  64       37PY         0.00000   0.00000   0.00000   0.00000   0.00000
  65       37PZ         0.00000   0.00000   0.00000   0.00000   0.00000
  66       38PX         0.00000   0.00000   0.00000   0.00000   0.00000
  67       38PY         0.00000   0.00000   0.00000   0.00000   0.00000
  68       38PZ         0.00000   0.00000   0.00000   0.00000   0.00000
  69       39PX         0.00000   0.00000   0.00000   0.00000   0.00000
  70       39PY         0.00000   0.00000   0.00000   0.00000   0.00000
  71       39PZ        -0.00000  -0.00000  -0.00000  -0.00000  -0.00001
  72       40PX         0.00000   0.00000   0.00000   0.00000   0.00000
  73       40PY         0.00000   0.00000   0.00000   0.00000   0.00000
  74       40PZ         0.00000   0.00000   0.00001   0.00002   0.00005
  75       41PX         0.00000   0.00000   0.00000   0.00000   0.00000
  76       41PY         0.00000   0.00000   0.00000   0.00000   0.00000
  77       41PZ         0.00000   0.00000   0.00000   0.00001   0.00002
  78       42PX         0.00000   0.00000   0.00000   0.00000   0.00000
  79       42PY         0.00000   0.00000   0.00000   0.00000   0.00000
  80       42PZ        -0.00000  -0.00000  -0.00000  -0.00000  -0.00000
  81       43D 0       -0.00000  -0.00000  -0.00000  -0.00000  -0.00000
  82       43D+1        0.00000   0.00000   0.00000   0.00000   0.00000
  83       43D-1        0.00000   0.00000   0.00000   0.00000   0.00000
  84       43D+2        0.00000   0.00000   0.00000   0.00000   0.00000
  85       43D-2        0.00000   0.00000   0.00000   0.00000   0.00000
[...]
     Gross orbital populations:
                         Total     Alpha     Beta      Spin
   1 1   Sc 1S          0.00000   0.00000   0.00000   0.00000
   2        2S          0.00001   0.00001   0.00001   0.00000
   3        3S          0.00009   0.00004   0.00004   0.00000
   4        4S          0.00057   0.00028   0.00028   0.00000
   5        5S          0.00317   0.00159   0.00159   0.00000
   6        6S          0.01577   0.00788   0.00788   0.00000
   7        7S          0.06641   0.03321   0.03321   0.00000
   8        8S          0.21952   0.10976   0.10976   0.00000
   9        9S          0.51402   0.25701   0.25701   0.00000
  10       10S          0.71025   0.35513   0.35513   0.00000
  11       11S          0.37551   0.18775   0.18775   0.00000
  12       12S          0.16126   0.08063   0.08063   0.00000
  13       13S          0.93989   0.46995   0.46995   0.00000
  14       14S          0.88307   0.44153   0.44153   0.00000
  15       15S          0.30337   0.15169   0.15169   0.00000
  16       16S          1.05713   0.52856   0.52856   0.00000
  17       17S          0.52453   0.26227   0.26227   0.00000
  18       18S          0.33722   0.16861   0.16861   0.00000
  19       19S          0.94945   0.47472   0.47472   0.00000
  20       20S          0.27976   0.13988   0.13988   0.00000
  21       21S         -0.07024  -0.03512  -0.03512   0.00000
  22       22S          0.16536   0.08268   0.08268   0.00000
  23       23S         -0.00028  -0.00014  -0.00014   0.00000
  24       24PX         0.00000   0.00000   0.00000   0.00000
  25       24PY         0.00000   0.00000   0.00000   0.00000
  26       24PZ         0.00000   0.00000   0.00000   0.00000
  27       25PX         0.00003   0.00001   0.00001   0.00000
  28       25PY         0.00003   0.00001   0.00001   0.00000
  29       25PZ         0.00003   0.00001   0.00001   0.00000
  30       26PX         0.00045   0.00022   0.00022   0.00000
  31       26PY         0.00045   0.00022   0.00022   0.00000
  32       26PZ         0.00045   0.00022   0.00022   0.00000
  33       27PX         0.00447   0.00223   0.00223   0.00000
  34       27PY         0.00447   0.00223   0.00223   0.00000
  35       27PZ         0.00446   0.00223   0.00223   0.00000
  36       28PX         0.02997   0.01499   0.01499   0.00000
  37       28PY         0.02997   0.01499   0.01499   0.00000
  38       28PZ         0.02992   0.01496   0.01496   0.00000
  39       29PX         0.13421   0.06710   0.06710   0.00000
  40       29PY         0.13421   0.06710   0.06710   0.00000
  41       29PZ         0.13402   0.06701   0.06701   0.00000
  42       30PX         0.38627   0.19314   0.19314   0.00000
  43       30PY         0.38627   0.19314   0.19314   0.00000
  44       30PZ         0.38569   0.19284   0.19284   0.00000
  45       31PX         0.66322   0.33161   0.33161   0.00000
  46       31PY         0.66322   0.33161   0.33161   0.00000
  47       31PZ         0.66298   0.33149   0.33149   0.00000
  48       32PX         0.58683   0.29342   0.29342   0.00000
  49       32PY         0.58683   0.29342   0.29342   0.00000
  50       32PZ         0.58615   0.29307   0.29307   0.00000
  51       33PX         0.24289   0.12145   0.12145   0.00000
  52       33PY         0.24289   0.12145   0.12145   0.00000
  53       33PZ         0.26938   0.13469   0.13469   0.00000
  54       34PX         0.50267   0.25133   0.25133   0.00000
  55       34PY         0.50267   0.25133   0.25133   0.00000
  56       34PZ         0.49565   0.24783   0.24783   0.00000
  57       35PX         0.84632   0.42316   0.42316   0.00000
  58       35PY         0.84632   0.42316   0.42316   0.00000
  59       35PZ         0.81625   0.40813   0.40813   0.00000
  60       36PX         0.51453   0.25726   0.25726   0.00000
  61       36PY         0.51453   0.25726   0.25726   0.00000
  62       36PZ         0.40626   0.20313   0.20313   0.00000
  63       37PX         0.04966   0.02483   0.02483   0.00000
  64       37PY         0.04966   0.02483   0.02483   0.00000
  65       37PZ        -0.03362  -0.01681  -0.01681   0.00000
  66       38PX        -0.00253  -0.00126  -0.00126   0.00000
  67       38PY        -0.00253  -0.00126  -0.00126   0.00000
  68       38PZ        -0.01527  -0.00764  -0.00764   0.00000
  69       39PX         0.00061   0.00030   0.00030   0.00000
  70       39PY         0.00061   0.00030   0.00030   0.00000
  71       39PZ         0.00674   0.00337   0.00337   0.00000
  72       40PX        -0.00354  -0.00177  -0.00177   0.00000
  73       40PY        -0.00354  -0.00177  -0.00177   0.00000
  74       40PZ        -0.03131  -0.01565  -0.01565   0.00000
  75       41PX         0.03876   0.01938   0.01938   0.00000
  76       41PY         0.03876   0.01938   0.01938   0.00000
  77       41PZ         0.04353   0.02177   0.02177   0.00000
  78       42PX        -0.00006  -0.00003  -0.00003   0.00000
  79       42PY        -0.00006  -0.00003  -0.00003   0.00000
  80       42PZ        -0.00026  -0.00013  -0.00013   0.00000
  81       43D 0        0.00029   0.00014   0.00014   0.00000
  82       43D+1        0.00000   0.00000   0.00000   0.00000
  83       43D-1        0.00000   0.00000   0.00000   0.00000
  84       43D+2       -0.00000  -0.00000  -0.00000   0.00000
  85       43D-2        0.00000   0.00000   0.00000   0.00000
  86       44D 0        0.00691   0.00345   0.00345   0.00000
  87       44D+1        0.00001   0.00000   0.00000   0.00000
  88       44D-1        0.00001   0.00000   0.00000   0.00000
  89       44D+2       -0.00000  -0.00000  -0.00000   0.00000
  90       44D-2       -0.00000  -0.00000  -0.00000   0.00000
  91       45D 0        0.05946   0.02973   0.02973   0.00000
  92       45D+1        0.00009   0.00004   0.00004   0.00000
  93       45D-1        0.00009   0.00004   0.00004   0.00000
  94       45D+2        0.00000   0.00000   0.00000   0.00000
  95       45D-2       -0.00000  -0.00000  -0.00000   0.00000
  96       46D 0        0.20431   0.10216   0.10216   0.00000
  97       46D+1        0.00038   0.00019   0.00019   0.00000
  98       46D-1        0.00038   0.00019   0.00019   0.00000
  99       46D+2        0.00000   0.00000   0.00000   0.00000
 100       46D-2       -0.00000  -0.00000  -0.00000   0.00000
 101       47D 0        0.19639   0.09820   0.09820   0.00000
 102       47D+1        0.00464   0.00232   0.00232   0.00000
 103       47D-1        0.00464   0.00232   0.00232   0.00000
 104       47D+2       -0.00000  -0.00000  -0.00000   0.00000
 105       47D-2        0.00000   0.00000   0.00000   0.00000
 106       48D 0        0.39975   0.19988   0.19988   0.00000
 107       48D+1        0.00011   0.00006   0.00006   0.00000
 108       48D-1        0.00011   0.00006   0.00006   0.00000
 109       48D+2        0.00000   0.00000   0.00000   0.00000
 110       48D-2       -0.00000  -0.00000  -0.00000   0.00000
 111       49D 0        0.09560   0.04780   0.04780   0.00000
 112       49D+1       -0.00002  -0.00001  -0.00001   0.00000
 113       49D-1       -0.00002  -0.00001  -0.00001   0.00000
 114       49D+2       -0.00000  -0.00000  -0.00000   0.00000
 115       49D-2       -0.00000  -0.00000  -0.00000   0.00000
 116       50D 0        0.00613   0.00306   0.00306   0.00000
 117       50D+1        0.00000   0.00000   0.00000   0.00000
 118       50D-1        0.00000   0.00000   0.00000   0.00000
 119       50D+2        0.00000   0.00000   0.00000   0.00000
 120       50D-2       -0.00000  -0.00000  -0.00000   0.00000
 121       51D 0        0.04061   0.02031   0.02031   0.00000
 122       51D+1        0.00001   0.00001   0.00001   0.00000
 123       51D-1        0.00001   0.00001   0.00001   0.00000
 124       51D+2       -0.00000  -0.00000  -0.00000   0.00000
 125       51D-2       -0.00000  -0.00000  -0.00000   0.00000
 126       52D 0        0.27806   0.13903   0.13903   0.00000
 127       52D+1       -0.00402  -0.00201  -0.00201   0.00000
 128       52D-1       -0.00402  -0.00201  -0.00201   0.00000
 129       52D+2        0.00000   0.00000   0.00000   0.00000
 130       52D-2        0.00000   0.00000   0.00000   0.00000
 131       53D 0        0.00014   0.00007   0.00007   0.00000
 132       53D+1       -0.00000  -0.00000  -0.00000   0.00000
 133       53D-1       -0.00000  -0.00000  -0.00000   0.00000
 134       53D+2       -0.00000  -0.00000  -0.00000   0.00000
 135       53D-2       -0.00000  -0.00000  -0.00000   0.00000
 136       54F 0        0.00142   0.00071   0.00071   0.00000
 137       54F+1        0.00002   0.00001   0.00001   0.00000
 138       54F-1        0.00002   0.00001   0.00001   0.00000
 139       54F+2       -0.00000  -0.00000  -0.00000   0.00000
 140       54F-2       -0.00000  -0.00000  -0.00000   0.00000
 141       54F+3        0.00000   0.00000   0.00000   0.00000
 142       54F-3       -0.00000  -0.00000  -0.00000   0.00000
 143       55F 0        0.00714   0.00357   0.00357   0.00000
 144       55F+1        0.00004   0.00002   0.00002   0.00000
 145       55F-1        0.00004   0.00002   0.00002   0.00000
 146       55F+2        0.00000   0.00000   0.00000   0.00000
 147       55F-2        0.00000   0.00000   0.00000   0.00000
 148       55F+3        0.00000   0.00000   0.00000   0.00000
 149       55F-3       -0.00000  -0.00000  -0.00000   0.00000
 150       56F 0        0.00172   0.00086   0.00086   0.00000
 151       56F+1        0.00001   0.00001   0.00001   0.00000
 152       56F-1        0.00001   0.00001   0.00001   0.00000
 153       56F+2       -0.00000  -0.00000  -0.00000   0.00000
 154       56F-2       -0.00000  -0.00000  -0.00000   0.00000
 155       56F+3       -0.00000  -0.00000  -0.00000   0.00000
 156       56F-3       -0.00000  -0.00000  -0.00000   0.00000
 157       57F 0        0.00011   0.00006   0.00006   0.00000
 158       57F+1       -0.00000  -0.00000  -0.00000   0.00000
 159       57F-1       -0.00000  -0.00000  -0.00000   0.00000
 160       57F+2        0.00000   0.00000   0.00000   0.00000
 161       57F-2        0.00000   0.00000   0.00000   0.00000
 162       57F+3        0.00000   0.00000   0.00000   0.00000
 163       57F-3       -0.00000  -0.00000  -0.00000   0.00000
 164       58G 0        0.00016   0.00008   0.00008   0.00000
 165       58G+1        0.00000   0.00000   0.00000   0.00000
 166       58G-1        0.00000   0.00000   0.00000   0.00000
 167       58G+2       -0.00000  -0.00000  -0.00000   0.00000
 168       58G-2       -0.00000  -0.00000  -0.00000   0.00000
 169       58G+3       -0.00000  -0.00000  -0.00000   0.00000
 170       58G-3       -0.00000  -0.00000  -0.00000   0.00000
 171       58G+4        0.00000   0.00000   0.00000   0.00000
 172       58G-4       -0.00000  -0.00000  -0.00000   0.00000
 173       59G 0        0.00032   0.00016   0.00016   0.00000
 174       59G+1       -0.00000  -0.00000  -0.00000   0.00000
 175       59G-1       -0.00000  -0.00000  -0.00000   0.00000
 176       59G+2       -0.00000  -0.00000  -0.00000   0.00000
 177       59G-2       -0.00000  -0.00000  -0.00000   0.00000
 178       59G+3        0.00000   0.00000   0.00000   0.00000
 179       59G-3        0.00000   0.00000   0.00000   0.00000
 180       59G+4       -0.00000  -0.00000  -0.00000   0.00000
 181       59G-4       -0.00000  -0.00000  -0.00000   0.00000
 182       60G 0        0.00004   0.00002   0.00002   0.00000
 183       60G+1       -0.00000  -0.00000  -0.00000   0.00000
 184       60G-1       -0.00000  -0.00000  -0.00000   0.00000
 185       60G+2        0.00000   0.00000   0.00000   0.00000
 186       60G-2        0.00000   0.00000   0.00000   0.00000
 187       60G+3        0.00000   0.00000   0.00000   0.00000
 188       60G-3        0.00000   0.00000   0.00000   0.00000
 189       60G+4        0.00000   0.00000   0.00000   0.00000
 190       60G-4       -0.00000  -0.00000  -0.00000   0.00000
 191 2   H  1S          0.00202   0.00101   0.00101   0.00000
 192        2S          0.04450   0.02225   0.02225   0.00000
 193        3S          0.34327   0.17164   0.17164   0.00000
 194        4S          0.61522   0.30761   0.30761   0.00000
 195        5S          0.33325   0.16662   0.16662   0.00000
 196        6S          0.16726   0.08363   0.08363   0.00000
 197        7PX         0.00174   0.00087   0.00087   0.00000
 198        7PY         0.00174   0.00087   0.00087   0.00000
 199        7PZ         0.02222   0.01111   0.01111   0.00000
 200        8PX         0.00125   0.00063   0.00063   0.00000
 201        8PY         0.00125   0.00063   0.00063   0.00000
 202        8PZ         0.00412   0.00206   0.00206   0.00000
 203        9PX         0.00034   0.00017   0.00017   0.00000
 204        9PY         0.00034   0.00017   0.00017   0.00000
 205        9PZ        -0.03285  -0.01643  -0.01643   0.00000
 206       10D 0        0.00468   0.00234   0.00234   0.00000
 207       10D+1        0.00133   0.00067   0.00067   0.00000
 208       10D-1        0.00133   0.00067   0.00067   0.00000
 209       10D+2        0.00000   0.00000   0.00000   0.00000
 210       10D-2        0.00000   0.00000   0.00000   0.00000
 211       11D 0        0.00087   0.00043   0.00043   0.00000
 212       11D+1       -0.00070  -0.00035  -0.00035   0.00000
 213       11D-1       -0.00070  -0.00035  -0.00035   0.00000
 214       11D+2        0.00000   0.00000   0.00000   0.00000
 215       11D-2        0.00000   0.00000   0.00000   0.00000
          Condensed to atoms (all electrons):
               1          2
     1  Sc  20.895308  -0.407794
     2  H   -0.407794   1.920280
          Atomic-Atomic Spin Densities.
               1          2
     1  Sc   0.000000   0.000000
     2  H    0.000000   0.000000
 Mulliken charges and spin densities:
               1          2
     1  Sc   0.512486   0.000000
     2  H   -0.512486   0.000000
 Sum of Mulliken charges =   0.00000   0.00000
 Mulliken charges and spin densities with hydrogens summed into heavy atoms:
               1          2
     1  Sc   0.000000   0.000000
 Electronic spatial extent (au):  <R**2>=             55.7599
 Charge=             -0.0000 electrons
 Dipole moment (field-independent basis, Debye):
    X=              0.0000    Y=              0.0000    Z=              1.2201  Tot=              1.2201
 Quadrupole moment (field-independent basis, Debye-Ang):
   XX=            -23.9504   YY=            -23.9504   ZZ=            -22.5132
   XY=              0.0000   XZ=              0.0000   YZ=              0.0000
 Traceless Quadrupole moment (field-independent basis, Debye-Ang):
   XX=             -0.4791   YY=             -0.4791   ZZ=              0.9581
   XY=              0.0000   XZ=              0.0000   YZ=              0.0000
 Octapole moment (field-independent basis, Debye-Ang**2):
  XXX=              0.0000  YYY=              0.0000  ZZZ=              4.2623  XYY=              0.0000
  XXY=              0.0000  XXZ=              0.5673  XZZ=              0.0000  YZZ=              0.0000
  YYZ=              0.5673  XYZ=              0.0000
 Hexadecapole moment (field-independent basis, Debye-Ang**3):
 XXXX=            -85.7612 YYYY=            -85.7612 ZZZZ=            -73.7362 XXXY=              0.0000
 XXXZ=              0.0000 YYYX=              0.0000 YYYZ=              0.0000 ZZZX=              0.0000
 ZZZY=              0.0000 XXYY=            -28.5871 XXZZ=            -25.6587 YYZZ=            -25.6587
 XXYZ=              0.0000 YYXZ=              0.0000 ZZXY=              0.0000
 N-N= 1.111272142932D+01 E-N=-1.853519307675D+03  KE= 7.862902790611D+02
 Symmetry A1   KE= 6.204469468375D+02
 Symmetry A2   KE=-2.333569113064D-49
 Symmetry B1   KE= 8.292166611189D+01
 Symmetry B2   KE= 8.292166611208D+01
 Symmetry A1   SP= 0.000000000000D+00
 Symmetry A2   SP= 0.000000000000D+00
 Symmetry B1   SP= 0.000000000000D+00
 Symmetry B2   SP= 0.000000000000D+00
 Orbital energies and kinetic energies (alpha):
                                 1                 2
   7         O                -1.660245          5.386055
   8         O                -1.560023          5.847674
   9         O                -1.560023          5.847674
  10         O                -0.475620          2.794437
  11         O                -0.212965          0.746109
  12         V                 0.012842          0.091667
  13         V                 0.014174          0.074732
  14         V                 0.014174          0.074732
  15         V                 0.023446          0.051676
  16         V                 0.034595          0.038653
 Total kinetic energy from orbitals= 7.862902790611D+02
 FoFCou: FMM=F IPFlag=           8 FMFlag=           0 FMFlg1=           0
         NFxFlg=           0 DoJE=F BraDBF=T KetDBF=F FulRan=T
         wScrn=  0.000000 ICntrl=   2000500 IOpCl=  0 I1Cent=           5 NGrid=           0
         NMat0=    1 NMatS0=      1 NMatT0=    0 NMatD0=    1 NMtDS0=    0 NMtDT0=    0
 Symmetry not used in FoFCou.
                          Isotropic Fermi Contact Couplings
        Atom                 a.u.       MegaHertz       Gauss      10(-4) cm-1
     1  Sc(45)             0.00000       0.00000       0.00000       0.00000
     2  H(1)               0.00000       0.00000       0.00000       0.00000
 --------------------------------------------------------
       Center         ----  Spin Dipole Couplings  ----
                      3XX-RR        3YY-RR        3ZZ-RR
 --------------------------------------------------------
     1   Atom        0.000000      0.000000      0.000000
     2   Atom        0.000000      0.000000      0.000000
 --------------------------------------------------------
                        XY            XZ            YZ
 --------------------------------------------------------
     1   Atom        0.000000      0.000000      0.000000
     2   Atom        0.000000      0.000000      0.000000
 --------------------------------------------------------


 ---------------------------------------------------------------------------------
              Anisotropic Spin Dipole Couplings in Principal Axis System
 ---------------------------------------------------------------------------------

       Atom             a.u.   MegaHertz   Gauss  10(-4) cm-1        Axes

              Baa     0.0000     0.000     0.000     0.000  1.0000  0.0000  0.0000
     1 Sc(45) Bbb     0.0000     0.000     0.000     0.000 -0.0000  1.0000  0.0000
              Bcc     0.0000     0.000     0.000     0.000  0.0000  0.0000  1.0000
 
              Baa     0.0000     0.000     0.000     0.000  1.0000  0.0000  0.0000
     2 H(1)   Bbb     0.0000     0.000     0.000     0.000 -0.0000  1.0000  0.0000
              Bcc     0.0000     0.000     0.000     0.000  0.0000  0.0000  1.0000
 

 ---------------------------------------------------------------------------------

 No NMR shielding tensors so no spin-rotation constants.
 Leave Link  601 at Mon Feb 12 20:14:45 2018, MaxMem=  8589934592 cpu:              66.8 elap:               2.2
 (Enter /home1/apps/gaussian/16rA.03/g16/l9999.exe)

 Test job not archived.
 1\1\GINC-C403-084\SP\ROCCSD(T)-Full\Gen\H1Sc1\AANNABE\12-Feb-2018\0\\#
 P ROCCSD(T)=(maxcyc=150, Full)/Gen 5d 7f SCF=(maxcycles=300) Integral(
 NoXCTest, DKHSO) MaxDisk=500GB Pop=Regular IOp(5/15=2) Guess=Read\\ScH
 \\0,1\Sc,0,0.,0.,0.\H,0,0.,0.,1.\\Version=ES64L-G16RevA.03\State=1-SG\
 HF=-763.5531829\MP2=-764.3206098\MP3=-764.3341973\PUHF=-763.5531829\PM
 P2-0=-764.3206098\MP4SDQ=-764.334383\CCSD=-764.3342063\CCSD(T)=-764.35
 17583\RMSD=2.155e-09\PG=C*V [C*(H1Sc1)]\\@


 WORK FAITHFULLY FOR EIGHT HOURS A DAY AND DON'T WORRY.
 IN TIME YOU MAY BECOME BOSS AND WORK TWELVE HOURS A DAY
 AND HAVE ALL THE WORRY.
 Job cpu time:       0 days  6 hours  8 minutes  3.2 seconds.
 Elapsed time:       0 days  0 hours 11 minutes 32.2 seconds.
 File lengths (MBytes):  RWF=   3451 Int=      0 D2E=      0 Chk=      6 Scr=      1
 Normal termination of Gaussian 16 at Mon Feb 12 20:14:47 2018.
