 Entering Gaussian System, Link 0=g16
 Initial command:
 /home1/apps/gaussian/16rA.03/g16/l1.exe "/tmp/Gau-247723.inp" -scrdir="/tmp/"
 Entering Link 1 = /home1/apps/gaussian/16rA.03/g16/l1.exe PID=    247724.
  
 Copyright (c) 1988,1990,1992,1993,1995,1998,2003,2009,2016,
            Gaussian, Inc.  All Rights Reserved.
  
 This is part of the Gaussian(R) 16 program.  It is based on
 the Gaussian(R) 09 system (copyright 2009, Gaussian, Inc.),
 the Gaussian(R) 03 system (copyright 2003, Gaussian, Inc.),
 the Gaussian(R) 98 system (copyright 1998, Gaussian, Inc.),
 the Gaussian(R) 94 system (copyright 1995, Gaussian, Inc.),
 the Gaussian 92(TM) system (copyright 1992, Gaussian, Inc.),
 the Gaussian 90(TM) system (copyright 1990, Gaussian, Inc.),
 the Gaussian 88(TM) system (copyright 1988, Gaussian, Inc.),
 the Gaussian 86(TM) system (copyright 1986, Carnegie Mellon
 University), and the Gaussian 82(TM) system (copyright 1983,
 Carnegie Mellon University). Gaussian is a federally registered
 trademark of Gaussian, Inc.
  
 This software contains proprietary and confidential information,
 including trade secrets, belonging to Gaussian, Inc.
  
 This software is provided under written license and may be
 used, copied, transmitted, or stored only in accord with that
 written license.
  
 The following legend is applicable only to US Government
 contracts under FAR:
  
                    RESTRICTED RIGHTS LEGEND
  
 Use, reproduction and disclosure by the US Government is
 subject to restrictions as set forth in subparagraphs (a)
 and (c) of the Commercial Computer Software - Restricted
 Rights clause in FAR 52.227-19.
  
 Gaussian, Inc.
 340 Quinnipiac St., Bldg. 40, Wallingford CT 06492
  
  
 ---------------------------------------------------------------
 Warning -- This program may not be used in any manner that
 competes with the business of Gaussian, Inc. or will provide
 assistance to any competitor of Gaussian, Inc.  The licensee
 of this program is prohibited from giving any competitor of
 Gaussian, Inc. access to this program.  By using this program,
 the user acknowledges that Gaussian, Inc. is engaged in the
 business of creating and licensing software in the field of
 computational chemistry and represents and warrants to the
 licensee that it is not a competitor of Gaussian, Inc. and that
 it will not use this program in any manner prohibited above.
 ---------------------------------------------------------------
  

 Cite this work as:
 Gaussian 16, Revision A.03,
 M. J. Frisch, G. W. Trucks, H. B. Schlegel, G. E. Scuseria, 
 M. A. Robb, J. R. Cheeseman, G. Scalmani, V. Barone, 
 G. A. Petersson, H. Nakatsuji, X. Li, M. Caricato, A. V. Marenich, 
 J. Bloino, B. G. Janesko, R. Gomperts, B. Mennucci, H. P. Hratchian, 
 J. V. Ortiz, A. F. Izmaylov, J. L. Sonnenberg, D. Williams-Young, 
 F. Ding, F. Lipparini, F. Egidi, J. Goings, B. Peng, A. Petrone, 
 T. Henderson, D. Ranasinghe, V. G. Zakrzewski, J. Gao, N. Rega, 
 G. Zheng, W. Liang, M. Hada, M. Ehara, K. Toyota, R. Fukuda, 
 J. Hasegawa, M. Ishida, T. Nakajima, Y. Honda, O. Kitao, H. Nakai, 
 T. Vreven, K. Throssell, J. A. Montgomery, Jr., J. E. Peralta, 
 F. Ogliaro, M. J. Bearpark, J. J. Heyd, E. N. Brothers, K. N. Kudin, 
 V. N. Staroverov, T. A. Keith, R. Kobayashi, J. Normand, 
 K. Raghavachari, A. P. Rendell, J. C. Burant, S. S. Iyengar, 
 J. Tomasi, M. Cossi, J. M. Millam, M. Klene, C. Adamo, R. Cammi, 
 J. W. Ochterski, R. L. Martin, K. Morokuma, O. Farkas, 
 J. B. Foresman, and D. J. Fox, Gaussian, Inc., Wallingford CT, 2016.
 
 ******************************************
 Gaussian 16:  ES64L-G16RevA.03 25-Dec-2016
                14-Feb-2018 
 ******************************************
 %mem=64GB
 %cpu=0-31
 SetSPE:  set environment variable "MP_BIND" = "yes"
 SetSPE:  set environment variable "MP_BLIST" = "0,1,2,3,4,5,6,7,8,9,10,11,12,13,14,15,16,17,18,19,20,21,22,23,24,25,26,27,28,29,30,31"
 Will use up to   32 processors via shared memory.
 %chk=ScH
 ----------------------------------------------------------------------
 #P ROCCSD(T)=(maxcyc=150, Full)/Gen 5d 7f SCF=(maxcycles=300) Integral
 (NoXCTest) MaxDisk=500GB Pop=Regular Pseudo=Read IOp(5/15=2) Guess=Rea
 d
 ----------------------------------------------------------------------
 1/38=1,172=1/1;
 2/12=2,17=6,18=5,40=1/2;
 3/5=7,8=11,11=2,16=1,17=8,25=1,30=1,47=8,116=101/1,2,3;
 4/5=1/1;
 5/5=2,7=300,15=2,38=6/2;
 8/5=-1,6=4,9=120000,10=90/1,4;
 9/5=7,6=150,14=2/13;
 6//1;
 99/5=1,9=1/99;
 Leave Link    1 at Wed Feb 14 10:39:53 2018, MaxMem=  8589934592 cpu:               6.2 elap:               0.2
 (Enter /home1/apps/gaussian/16rA.03/g16/l101.exe)
 ---
 ScH
 ---
 Symbolic Z-matrix:
 Charge =  0 Multiplicity = 1
 Sc                    0.        0.        0. 
 H                     0.        0.        2.1 
 
 ITRead=  0  0
 MicOpt= -1 -1
 NAtoms=      2 NQM=        2 NQMF=       0 NMMI=      0 NMMIF=      0
                NMic=       0 NMicF=      0.
                    Isotopes and Nuclear Properties:
 (Nuclear quadrupole moments (NQMom) in fm**2, nuclear magnetic moments (NMagM)
  in nuclear magnetons)

  Atom         1           2
 IAtWgt=          45           1
 AtmWgt=  44.9559136   1.0078250
 NucSpn=           7           1
 AtZEff=  -0.0000000  -0.0000000
 NQMom=  -22.0000000   0.0000000
 NMagM=    4.7564830   2.7928460
 AtZNuc=  21.0000000   1.0000000
 Leave Link  101 at Wed Feb 14 10:39:53 2018, MaxMem=  8589934592 cpu:               2.8 elap:               0.1
 (Enter /home1/apps/gaussian/16rA.03/g16/l202.exe)
                          Input orientation:                          
 ---------------------------------------------------------------------
 Center     Atomic      Atomic             Coordinates (Angstroms)
 Number     Number       Type             X           Y           Z
 ---------------------------------------------------------------------
      1         21           0        0.000000    0.000000    0.000000
      2          1           0        0.000000    0.000000    2.100000
 ---------------------------------------------------------------------
 Stoichiometry    HSc
 Framework group  C*V[C*(HSc)]
 Deg. of freedom     1
 Full point group                 C*V     NOp   4
 Largest Abelian subgroup         C2V     NOp   4
 Largest concise Abelian subgroup C1      NOp   1
                         Standard orientation:                         
 ---------------------------------------------------------------------
 Center     Atomic      Atomic             Coordinates (Angstroms)
 Number     Number       Type             X           Y           Z
 ---------------------------------------------------------------------
      1         21           0        0.000000    0.000000    0.095455
      2          1           0        0.000000    0.000000   -2.004545
 ---------------------------------------------------------------------
 Rotational constants (GHZ):           0.0000000         116.2577693         116.2577693
 Leave Link  202 at Wed Feb 14 10:39:53 2018, MaxMem=  8589934592 cpu:               0.6 elap:               0.0
 (Enter /home1/apps/gaussian/16rA.03/g16/l301.exe)
 General basis read from cards:  (5D, 7F)
 Centers:       1
 S 1 1.00
     Exponent=  1.1949500000D+08 Coefficients=  1.0000000000D+00
 S 1 1.00
     Exponent=  2.1499200000D+07 Coefficients=  1.0000000000D+00
 S 1 1.00
     Exponent=  4.8070300000D+06 Coefficients=  1.0000000000D+00
 S 1 1.00
     Exponent=  1.2844000000D+06 Coefficients=  1.0000000000D+00
 S 1 1.00
     Exponent=  3.9659500000D+05 Coefficients=  1.0000000000D+00
 S 1 1.00
     Exponent=  1.3757500000D+05 Coefficients=  1.0000000000D+00
 S 1 1.00
     Exponent=  5.2366800000D+04 Coefficients=  1.0000000000D+00
 S 1 1.00
     Exponent=  2.1454900000D+04 Coefficients=  1.0000000000D+00
 S 1 1.00
     Exponent=  9.3160600000D+03 Coefficients=  1.0000000000D+00
 S 1 1.00
     Exponent=  4.2354000000D+03 Coefficients=  1.0000000000D+00
 S 1 1.00
     Exponent=  1.9974400000D+03 Coefficients=  1.0000000000D+00
 S 1 1.00
     Exponent=  9.7043000000D+02 Coefficients=  1.0000000000D+00
 S 1 1.00
     Exponent=  4.8327100000D+02 Coefficients=  1.0000000000D+00
 S 1 1.00
     Exponent=  2.4580600000D+02 Coefficients=  1.0000000000D+00
 S 1 1.00
     Exponent=  1.2736000000D+02 Coefficients=  1.0000000000D+00
 S 1 1.00
     Exponent=  6.7078800000D+01 Coefficients=  1.0000000000D+00
 S 1 1.00
     Exponent=  3.5837100000D+01 Coefficients=  1.0000000000D+00
 S 1 1.00
     Exponent=  1.9371300000D+01 Coefficients=  1.0000000000D+00
 S 1 1.00
     Exponent=  1.0557100000D+01 Coefficients=  1.0000000000D+00
 S 1 1.00
     Exponent=  5.7724900000D+00 Coefficients=  1.0000000000D+00
 S 1 1.00
     Exponent=  3.1454000000D+00 Coefficients=  1.0000000000D+00
 S 1 1.00
     Exponent=  1.6924900000D+00 Coefficients=  1.0000000000D+00
 S 1 1.00
     Exponent=  8.8864900000D-01 Coefficients=  1.0000000000D+00
 S 1 1.00
     Exponent=  4.7109300000D-01 Coefficients=  1.0000000000D+00
 S 1 1.00
     Exponent=  2.4928600000D-01 Coefficients=  1.0000000000D+00
 S 1 1.00
     Exponent=  9.9988000000D-02 Coefficients=  1.0000000000D+00
 S 1 1.00
     Exponent=  4.6369000000D-02 Coefficients=  1.0000000000D+00
 S 1 1.00
     Exponent=  2.1606000000D-02 Coefficients=  1.0000000000D+00
 S 1 1.00
     Exponent=  4.3955000000D+00 Coefficients=  1.0000000000D+00
 S 1 1.00
     Exponent=  1.1564000000D+00 Coefficients=  1.0000000000D+00
 S 1 1.00
     Exponent=  1.0070000000D-02 Coefficients=  1.0000000000D+00
 P 1 1.00
     Exponent=  5.5070500000D+04 Coefficients=  1.0000000000D+00
 P 1 1.00
     Exponent=  1.3741700000D+04 Coefficients=  1.0000000000D+00
 P 1 1.00
     Exponent=  4.3654000000D+03 Coefficients=  1.0000000000D+00
 P 1 1.00
     Exponent=  1.6422600000D+03 Coefficients=  1.0000000000D+00
 P 1 1.00
     Exponent=  6.9406600000D+02 Coefficients=  1.0000000000D+00
 P 1 1.00
     Exponent=  3.1774200000D+02 Coefficients=  1.0000000000D+00
 P 1 1.00
     Exponent=  1.5389900000D+02 Coefficients=  1.0000000000D+00
 P 1 1.00
     Exponent=  7.7766500000D+01 Coefficients=  1.0000000000D+00
 P 1 1.00
     Exponent=  4.0673600000D+01 Coefficients=  1.0000000000D+00
 P 1 1.00
     Exponent=  2.1906100000D+01 Coefficients=  1.0000000000D+00
 P 1 1.00
     Exponent=  1.2079500000D+01 Coefficients=  1.0000000000D+00
 P 1 1.00
     Exponent=  6.7534900000D+00 Coefficients=  1.0000000000D+00
 P 1 1.00
     Exponent=  3.7632100000D+00 Coefficients=  1.0000000000D+00
 P 1 1.00
     Exponent=  2.0497300000D+00 Coefficients=  1.0000000000D+00
 P 1 1.00
     Exponent=  1.0864500000D+00 Coefficients=  1.0000000000D+00
 P 1 1.00
     Exponent=  5.6408700000D-01 Coefficients=  1.0000000000D+00
 P 1 1.00
     Exponent=  2.8102000000D-01 Coefficients=  1.0000000000D+00
 P 1 1.00
     Exponent=  1.2143200000D-01 Coefficients=  1.0000000000D+00
 P 1 1.00
     Exponent=  5.3345000000D-02 Coefficients=  1.0000000000D+00
 P 1 1.00
     Exponent=  2.3143000000D-02 Coefficients=  1.0000000000D+00
 P 1 1.00
     Exponent=  5.1300000000D+00 Coefficients=  1.0000000000D+00
 P 1 1.00
     Exponent=  1.2315000000D+00 Coefficients=  1.0000000000D+00
 P 1 1.00
     Exponent=  1.0040000000D-02 Coefficients=  1.0000000000D+00
 D 1 1.00
     Exponent=  2.0684900000D+02 Coefficients=  1.0000000000D+00
 D 1 1.00
     Exponent=  6.0997700000D+01 Coefficients=  1.0000000000D+00
 D 1 1.00
     Exponent=  2.3308500000D+01 Coefficients=  1.0000000000D+00
 D 1 1.00
     Exponent=  9.9288100000D+00 Coefficients=  1.0000000000D+00
 D 1 1.00
     Exponent=  4.4867000000D+00 Coefficients=  1.0000000000D+00
 D 1 1.00
     Exponent=  2.1263200000D+00 Coefficients=  1.0000000000D+00
 D 1 1.00
     Exponent=  1.0200800000D+00 Coefficients=  1.0000000000D+00
 D 1 1.00
     Exponent=  4.8537300000D-01 Coefficients=  1.0000000000D+00
 D 1 1.00
     Exponent=  2.2719800000D-01 Coefficients=  1.0000000000D+00
 D 1 1.00
     Exponent=  1.0420400000D-01 Coefficients=  1.0000000000D+00
 D 1 1.00
     Exponent=  4.6835000000D-02 Coefficients=  1.0000000000D+00
 D 1 1.00
     Exponent=  2.0259000000D-02 Coefficients=  1.0000000000D+00
 D 1 1.00
     Exponent=  2.6491000000D+00 Coefficients=  1.0000000000D+00
 D 1 1.00
     Exponent=  1.4102000000D+00 Coefficients=  1.0000000000D+00
 D 1 1.00
     Exponent=  8.7600000000D-03 Coefficients=  1.0000000000D+00
 F 1 1.00
     Exponent=  3.5989000000D+00 Coefficients=  1.0000000000D+00
 F 1 1.00
     Exponent=  1.5145000000D+00 Coefficients=  1.0000000000D+00
 F 1 1.00
     Exponent=  6.3730000000D-01 Coefficients=  1.0000000000D+00
 F 1 1.00
     Exponent=  2.6820000000D-01 Coefficients=  1.0000000000D+00
 F 1 1.00
     Exponent=  8.0900000000D-02 Coefficients=  1.0000000000D+00
 F 1 1.00
     Exponent=  2.4400000000D-02 Coefficients=  1.0000000000D+00
 G 1 1.00
     Exponent=  3.1618000000D+00 Coefficients=  1.0000000000D+00
 G 1 1.00
     Exponent=  1.3736000000D+00 Coefficients=  1.0000000000D+00
 G 1 1.00
     Exponent=  5.9680000000D-01 Coefficients=  1.0000000000D+00
 G 1 1.00
     Exponent=  1.7110000000D-01 Coefficients=  1.0000000000D+00
 G 1 1.00
     Exponent=  4.9050000000D-02 Coefficients=  1.0000000000D+00
 H 1 1.00
     Exponent=  2.9441000000D+00 Coefficients=  1.0000000000D+00
 H 1 1.00
     Exponent=  1.1635000000D+00 Coefficients=  1.0000000000D+00
 H 1 1.00
     Exponent=  3.2900000000D-01 Coefficients=  1.0000000000D+00
 H 1 1.00
     Exponent=  9.3030000000D-02 Coefficients=  1.0000000000D+00
 I 1 1.00
     Exponent=  3.1150000000D+00 Coefficients=  1.0000000000D+00
 I 1 1.00
     Exponent=  1.1682000000D+00 Coefficients=  1.0000000000D+00
 I 1 1.00
     Exponent=  4.3810000000D-01 Coefficients=  1.0000000000D+00
 ****
 Centers:       2
 S 1 1.00
     Exponent=  4.0200000000D+02 Coefficients=  1.0000000000D+00
 S 1 1.00
     Exponent=  6.0240000000D+01 Coefficients=  1.0000000000D+00
 S 1 1.00
     Exponent=  1.3730000000D+01 Coefficients=  1.0000000000D+00
 S 1 1.00
     Exponent=  3.9050000000D+00 Coefficients=  1.0000000000D+00
 S 1 1.00
     Exponent=  1.2830000000D+00 Coefficients=  1.0000000000D+00
 S 1 1.00
     Exponent=  4.6550000000D-01 Coefficients=  1.0000000000D+00
 S 1 1.00
     Exponent=  1.8110000000D-01 Coefficients=  1.0000000000D+00
 S 1 1.00
     Exponent=  7.2790000000D-02 Coefficients=  1.0000000000D+00
 S 1 1.00
     Exponent=  2.0700000000D-02 Coefficients=  1.0000000000D+00
 P 1 1.00
     Exponent=  4.5160000000D+00 Coefficients=  1.0000000000D+00
 P 1 1.00
     Exponent=  1.7120000000D+00 Coefficients=  1.0000000000D+00
 P 1 1.00
     Exponent=  6.4900000000D-01 Coefficients=  1.0000000000D+00
 P 1 1.00
     Exponent=  2.4600000000D-01 Coefficients=  1.0000000000D+00
 P 1 1.00
     Exponent=  7.4400000000D-02 Coefficients=  1.0000000000D+00
 D 1 1.00
     Exponent=  2.9500000000D+00 Coefficients=  1.0000000000D+00
 D 1 1.00
     Exponent=  1.2060000000D+00 Coefficients=  1.0000000000D+00
 D 1 1.00
     Exponent=  4.9300000000D-01 Coefficients=  1.0000000000D+00
 D 1 1.00
     Exponent=  1.5600000000D-01 Coefficients=  1.0000000000D+00
 F 1 1.00
     Exponent=  2.5060000000D+00 Coefficients=  1.0000000000D+00
 F 1 1.00
     Exponent=  8.7500000000D-01 Coefficients=  1.0000000000D+00
 F 1 1.00
     Exponent=  2.7400000000D-01 Coefficients=  1.0000000000D+00
 G 1 1.00
     Exponent=  2.3580000000D+00 Coefficients=  1.0000000000D+00
 G 1 1.00
     Exponent=  5.4300000000D-01 Coefficients=  1.0000000000D+00
 ****
 ======================================================================================================
                                       Pseudopotential Parameters
 ======================================================================================================
  Center     Atomic      Valence      Angular      Power
  Number     Number     Electrons     Momentum     of R      Exponent        Coefficient   SO-Coeffient
 ======================================================================================================
    1         21           11
                                      F and up 
                                                     2        1.0000000        0.00000000    0.00000000
                                      S - F
                                                     2       11.5000000      138.53815200    0.00000000
                                                     2        5.1840000       14.83404200    0.00000000
                                      P - F
                                                     2       10.9300000       82.45861400    0.00000000
                                                     2        4.5810000        8.56520600    0.00000000
                                      D - F
                                                     2       13.4700000      -16.12986200    0.00000000
                                                     2        4.3750000       -0.53469000    0.00000000
    2          1            1
                                      P and up 
                                                     2       21.7769666      -10.85192405    0.00000000
                                                     1       21.2435951        1.00000000    0.00000000
                                                     3       21.2435951       21.24359508    0.00000000
                                      S - P
                                                     2        1.0000000        0.00000000    0.00000000
 ======================================================================================================
 Ernie: Thresh=  0.10000D-02 Tol=  0.10000D-05 Strict=F.
 There are   248 symmetry adapted cartesian basis functions of A1  symmetry.
 There are    79 symmetry adapted cartesian basis functions of A2  symmetry.
 There are   137 symmetry adapted cartesian basis functions of B1  symmetry.
 There are   137 symmetry adapted cartesian basis functions of B2  symmetry.
 There are   169 symmetry adapted basis functions of A1  symmetry.
 There are    59 symmetry adapted basis functions of A2  symmetry.
 There are   100 symmetry adapted basis functions of B1  symmetry.
 There are   100 symmetry adapted basis functions of B2  symmetry.
   428 basis functions,   601 primitive gaussians,   601 cartesian basis functions
     6 alpha electrons        6 beta electrons
       nuclear repulsion energy         2.7718806286 Hartrees.
 IExCor=    0 DFT=F Ex=HF Corr=None ExCW=0 ScaHFX=  1.000000
 ScaDFX=  1.000000  1.000000  1.000000  1.000000 ScalE2=  1.000000  1.000000
 IRadAn=      5 IRanWt=     -1 IRanGd=            0 ICorTp=0 IEmpDi=  4
 NAtoms=    2 NActive=    2 NUniq=    2 SFac= 1.00D+00 NAtFMM=   60 NAOKFM=F Big=F
 Integral buffers will be    131072 words long.
 Raffenetti 2 integral format.
 Two-electron integral symmetry is turned on.
 Leave Link  301 at Wed Feb 14 10:39:53 2018, MaxMem=  8589934592 cpu:               8.9 elap:               0.3
 (Enter /home1/apps/gaussian/16rA.03/g16/l302.exe)
 NPDir=0 NMtPBC=     1 NCelOv=     1 NCel=       1 NClECP=     1 NCelD=      1
         NCelK=      1 NCelE2=     1 NClLst=     1 CellRange=     0.0.
 One-electron integrals computed using PRISM.
 One-electron integral symmetry used in STVInt
   4 Symmetry operations used in ECPInt.
 ECPInt:  NShTT=    6105 NPrTT=    6105 LenC2=    5964 LenP2D=    5963.
 LDataN:  DoStor=T MaxTD1=12 Len= 1566
 NBasis=   428 RedAO= T EigKep=  1.08D-06  NBF=   169    59   100   100
 NBsUse=   426 1.00D-06 EigRej=  9.63D-07 NBFU=   167    59   100   100
 Leave Link  302 at Wed Feb 14 10:40:05 2018, MaxMem=  8589934592 cpu:             361.0 elap:              11.3
 (Enter /home1/apps/gaussian/16rA.03/g16/l303.exe)
 DipDrv:  MaxL=1.
 Leave Link  303 at Wed Feb 14 10:40:05 2018, MaxMem=  8589934592 cpu:               4.6 elap:               0.2
 (Enter /home1/apps/gaussian/16rA.03/g16/l401.exe)
 Initial guess from the checkpoint file:  "ScH.chk"
 B after Tr=     0.000000    0.000000    0.000000
         Rot=    1.000000    0.000000    0.000000    0.000000 Ang=   0.00 deg.
 Guess basis will be translated and rotated to current coordinates.
 JPrj=2 DoOrth=T DoCkMO=T.
 Initial guess orbital symmetries:
       Occupied  (SG) (PI) (PI) (SG) (SG) (SG)
       Virtual   (PI) (PI) (SG) (SG) (DLTA) (DLTA) (PI) (PI) (SG)
                 (SG) (PI) (PI) (DLTA) (DLTA) (PI) (PI) (SG) (SG)
                 (DLTA) (DLTA) (SG) (PI) (PI) (SG) (PI) (PI) (PHI)
                 (PHI) (DLTA) (DLTA) (PI) (PI) (SG) (SG) (DLTA)
                 (DLTA) (PI) (PI) (SG) (SG) (PI) (PI) (SG) (DLTA)
                 (DLTA) (PI) (PI) (?A) (?A) (PHI) (PHI) (SG) (PI)
                 (PI) (PHI) (PHI) (DLTA) (DLTA) (SG) (PI) (PI)
                 (SG) (DLTA) (DLTA) (PI) (PI) (SG) (SG) (DLTA)
                 (DLTA) (?B) (?B) (PHI) (PHI) (?A) (?A) (PI) (PI)
                 (SG) (DLTA) (DLTA) (SG) (PI) (PI) (PI) (PI) (SG)
                 (PI) (PI) (SG) (PHI) (PHI) (?A) (?A) (DLTA) (DLTA)
                 (SG) (PI) (PI) (DLTA) (DLTA) (SG) (PHI) (PHI)
                 (PI) (PI) (DLTA) (DLTA) (PI) (PI) (SG) (SG) (PHI)
                 (PHI) (DLTA) (DLTA) (SG) (PI) (PI) (SG) (PI) (PI)
                 (DLTA) (DLTA) (SG) (PI) (PI) (SG) (?B) (?B) (?A)
                 (?A) (PHI) (PHI) (SG) (DLTA) (DLTA) (PI) (PI)
                 (PI) (PI) (DLTA) (DLTA) (SG) (PI) (PI) (SG) (PHI)
                 (PHI) (DLTA) (DLTA) (?A) (?A) (PHI) (PHI) (DLTA)
                 (DLTA) (PI) (PI) (PI) (PI) (SG) (SG) (SG) (DLTA)
                 (DLTA) (PI) (PI) (SG) (PI) (PI) (SG) (SG) (PHI)
                 (PHI) (DLTA) (DLTA) (PI) (PI) (SG) (PI) (PI) (DLTA)
                 (DLTA) (SG) (PI) (PI) (SG) (PHI) (PHI) (DLTA)
                 (DLTA) (PI) (PI) (DLTA) (DLTA) (PI) (PI) (SG)
                 (SG) (PI) (PI) (SG) (?B) (?B) (?A) (?A) (PHI)
                 (PHI) (DLTA) (DLTA) (PI) (PI) (SG) (?A) (?A) (PHI)
                 (PHI) (DLTA) (DLTA) (PI) (PI) (SG) (SG) (DLTA)
                 (DLTA) (PI) (PI) (SG) (PI) (PI) (SG) (SG) (SG)
                 (DLTA) (DLTA) (PI) (PI) (SG) (PI) (PI) (SG) (SG)
                 (PI) (PI) (SG) (DLTA) (DLTA) (PI) (PI) (SG) (SG)
                 (PI) (PI) (SG) (SG) (DLTA) (DLTA) (PI) (PI) (SG)
                 (SG) (PI) (PI) (SG) (SG) (PI) (PI) (SG) (DLTA)
                 (DLTA) (PI) (PI) (SG) (SG) (PI) (PI) (SG) (SG)
                 (PI) (PI) (SG) (SG) (PI) (PI) (SG) (SG) (PI) (PI)
                 (SG) (SG) (PI) (PI) (SG) (SG) (PI) (PI) (SG) (SG)
                 (SG) (SG) (SG) (SG) (SG) (SG) (DLTA) (SG) (SG)
                 (SG) (SG) (SG) (DLTA) (SG) (DLTA) (SG) (SG) (?A)
                 (SG) (DLTA) (SG) (SG) (SG) (DLTA) (DLTA) (?A)
                 (SG) (SG) (DLTA) (?A) (SG) (SG) (DLTA) (DLTA)
                 (?A) (?A) (DLTA) (SG) (DLTA) (?A) (SG) (SG) (?A)
                 (SG) (SG) (SG) (DLTA) (DLTA) (DLTA) (?A) (DLTA)
                 (DLTA) (DLTA) (?A) (DLTA) (?A) (SG) (DLTA) (DLTA)
                 (?A) (?A) (DLTA) (DLTA) (?A) (SG) (?A) (SG) (PI)
                 (PI) (PI) (PI) (PHI) (PI) (PHI) (PI) (PI) (PHI)
                 (PI) (PI) (PI) (PHI) (PI) (PHI) (?B) (PHI) (PI)
                 (PHI) (PHI) (PI) (?B) (PHI) (?B) (PI) (?B) (PI)
                 (PI) (PI) (PI) (PHI) (PI) (PHI) (PI) (PI) (PHI)
                 (PI) (PI) (PI) (PHI) (PI) (PHI) (?B) (PHI) (PI)
                 (PHI) (PHI) (PI) (?B) (PHI) (?B) (PI) (?B)
 The electronic state of the initial guess is 1-SG.
 Leave Link  401 at Wed Feb 14 10:40:06 2018, MaxMem=  8589934592 cpu:              39.1 elap:               1.4
 (Enter /home1/apps/gaussian/16rA.03/g16/l502.exe)
 Keep R1 and R2 ints in memory in symmetry-blocked form, NReq=5277864979.
 FoFCou: FMM=F IPFlag=           8 FMFlag=           0 FMFlg1=           0
         NFxFlg=           0 DoJE=F BraDBF=F KetDBF=F FulRan=T
         wScrn=  0.000000 ICntrl=       600 IOpCl=  0 I1Cent=           0 NGrid=           0
         NMat0=    1 NMatS0=  91806 NMatT0=    0 NMatD0=    1 NMtDS0=    0 NMtDT0=    0
 Petite list used in FoFCou.
 Restricted open shell SCF:
 Using DIIS extrapolation, IDIIS=  1040.
 NGot=  8589934592 LenX=  6462098699 LenY=  6461736897
 Requested convergence on RMS density matrix=1.00D-08 within 300 cycles.
 Requested convergence on MAX density matrix=1.00D-06.
 Requested convergence on             energy=1.00D-06.
 No special actions if energy rises.

 Cycle   1  Pass 1  IDiag  1:
 E= -46.7835422361232    
 DIIS: error= 6.64D-01 at cycle   1 NSaved=   1.
 NSaved= 1 IEnMin= 1 EnMin= -46.7835422361232     IErMin= 1 ErrMin= 6.64D-01
 ErrMax= 6.64D-01  0.00D+00 EMaxC= 1.00D-01 BMatC= 6.30D+01 BMatP= 6.30D+01
 IDIUse=3 WtCom= 0.00D+00 WtEn= 1.00D+00
 Coeff-Com:  0.100D+01
 Coeff-En:   0.100D+01
 Coeff:      0.100D+01
 Gap=     0.253 Goal=   None    Shift=    0.000
 GapD=    0.253 DampG=1.000 DampE=0.125 DampFc=0.1250 IDamp=-1.
 Damping current iteration by 1.25D-01
 RMSDP=1.88D-03 MaxDP=3.23D-01              OVMax= 1.99D-03

 Cycle   2  Pass 1  IDiag  1:
 E= -46.7835562207863     Delta-E=       -0.000013984663 Rises=F Damp=T
 DIIS: error= 5.81D-01 at cycle   2 NSaved=   2.
 NSaved= 2 IEnMin= 2 EnMin= -46.7835562207863     IErMin= 2 ErrMin= 5.81D-01
 ErrMax= 5.81D-01  0.00D+00 EMaxC= 1.00D-01 BMatC= 4.82D+01 BMatP= 6.30D+01
 IDIUse=3 WtCom= 0.00D+00 WtEn= 1.00D+00
 Coeff-Com: -0.700D+01 0.800D+01
 Coeff-En:   0.000D+00 0.100D+01
 Coeff:      0.000D+00 0.100D+01
 Gap=     0.253 Goal=   None    Shift=    0.000
 RMSDP=1.65D-03 MaxDP=2.83D-01 DE=-1.40D-05 OVMax= 3.29D-05

 Cycle   3  Pass 1  IDiag  1:
 E= -46.7836569042736     Delta-E=       -0.000100683487 Rises=F Damp=F
 DIIS: error= 1.20D-04 at cycle   3 NSaved=   3.
 NSaved= 3 IEnMin= 3 EnMin= -46.7836569042736     IErMin= 3 ErrMin= 1.20D-04
 ErrMax= 1.20D-04  0.00D+00 EMaxC= 1.00D-01 BMatC= 4.25D-07 BMatP= 4.82D+01
 IDIUse=3 WtCom= 9.99D-01 WtEn= 1.20D-03
 Large coefficients: NSaved=  3 BigCof=   59.04 CofMax=   10.00 Det=-1.21D-10
 Inversion failed.  Reducing to  2 matrices.
 Coeff-Com: -0.515D-06 0.100D+01
 Coeff-En:   0.000D+00 0.100D+01
 Coeff:     -0.514D-06 0.100D+01
 Gap=     0.253 Goal=   None    Shift=    0.000
 RMSDP=6.71D-05 MaxDP=6.41D-03 DE=-1.01D-04 OVMax= 2.36D-04

 Cycle   4  Pass 1  IDiag  1:
 E= -46.7836571321949     Delta-E=       -0.000000227921 Rises=F Damp=F
 DIIS: error= 3.53D-06 at cycle   4 NSaved=   3.
 NSaved= 3 IEnMin= 3 EnMin= -46.7836571321949     IErMin= 3 ErrMin= 3.53D-06
 ErrMax= 3.53D-06  0.00D+00 EMaxC= 1.00D-01 BMatC= 2.79D-09 BMatP= 4.25D-07
 IDIUse=1 WtCom= 1.00D+00 WtEn= 0.00D+00
 Coeff-Com:  0.214D-07-0.509D-01 0.105D+01
 Coeff:      0.214D-07-0.509D-01 0.105D+01
 Gap=     0.253 Goal=   None    Shift=    0.000
 RMSDP=6.25D-06 MaxDP=5.69D-04 DE=-2.28D-07 OVMax= 4.84D-05

 Cycle   5  Pass 1  IDiag  1:
 E= -46.7836571377292     Delta-E=       -0.000000005534 Rises=F Damp=F
 DIIS: error= 1.79D-06 at cycle   5 NSaved=   4.
 NSaved= 4 IEnMin= 4 EnMin= -46.7836571377292     IErMin= 4 ErrMin= 1.79D-06
 ErrMax= 1.79D-06  0.00D+00 EMaxC= 1.00D-01 BMatC= 1.16D-10 BMatP= 2.79D-09
 IDIUse=1 WtCom= 1.00D+00 WtEn= 0.00D+00
 Coeff-Com: -0.194D-08 0.613D-02-0.184D+00 0.118D+01
 Coeff:     -0.194D-08 0.613D-02-0.184D+00 0.118D+01
 Gap=     0.253 Goal=   None    Shift=    0.000
 RMSDP=6.12D-07 MaxDP=5.96D-05 DE=-5.53D-09 OVMax= 2.75D-05

 Cycle   6  Pass 1  IDiag  1:
 E= -46.7836571385101     Delta-E=       -0.000000000781 Rises=F Damp=F
 DIIS: error= 9.71D-07 at cycle   6 NSaved=   5.
 NSaved= 5 IEnMin= 5 EnMin= -46.7836571385101     IErMin= 5 ErrMin= 9.71D-07
 ErrMax= 9.71D-07  0.00D+00 EMaxC= 1.00D-01 BMatC= 6.39D-11 BMatP= 1.16D-10
 IDIUse=1 WtCom= 1.00D+00 WtEn= 0.00D+00
 Coeff-Com: -0.149D-08 0.441D-02-0.994D-01 0.293D+00 0.802D+00
 Coeff:     -0.149D-08 0.441D-02-0.994D-01 0.293D+00 0.802D+00
 Gap=     0.253 Goal=   None    Shift=    0.000
 RMSDP=4.44D-08 MaxDP=3.52D-06 DE=-7.81D-10 OVMax= 1.36D-05

 Cycle   7  Pass 1  IDiag  1:
 E= -46.7836571387951     Delta-E=       -0.000000000285 Rises=F Damp=F
 DIIS: error= 8.22D-07 at cycle   7 NSaved=   6.
 NSaved= 6 IEnMin= 6 EnMin= -46.7836571387951     IErMin= 6 ErrMin= 8.22D-07
 ErrMax= 8.22D-07  0.00D+00 EMaxC= 1.00D-01 BMatC= 3.18D-11 BMatP= 6.39D-11
 IDIUse=1 WtCom= 1.00D+00 WtEn= 0.00D+00
 Coeff-Com: -0.208D-08-0.280D-02 0.834D-01-0.431D+00-0.194D+01 0.329D+01
 Coeff:     -0.208D-08-0.280D-02 0.834D-01-0.431D+00-0.194D+01 0.329D+01
 Gap=     0.253 Goal=   None    Shift=    0.000
 RMSDP=1.01D-07 MaxDP=2.02D-05 DE=-2.85D-10 OVMax= 4.23D-05

 Cycle   8  Pass 1  IDiag  1:
 E= -46.7836571392625     Delta-E=       -0.000000000467 Rises=F Damp=F
 DIIS: error= 1.57D-07 at cycle   8 NSaved=   7.
 NSaved= 7 IEnMin= 7 EnMin= -46.7836571392625     IErMin= 7 ErrMin= 1.57D-07
 ErrMax= 1.57D-07  0.00D+00 EMaxC= 1.00D-01 BMatC= 2.21D-12 BMatP= 3.18D-11
 IDIUse=1 WtCom= 1.00D+00 WtEn= 0.00D+00
 Coeff-Com:  0.251D-08 0.593D-03-0.218D-01 0.159D+00 0.141D+00-0.723D+00
 Coeff-Com:  0.144D+01
 Coeff:      0.251D-08 0.593D-03-0.218D-01 0.159D+00 0.141D+00-0.723D+00
 Coeff:      0.144D+01
 Gap=     0.253 Goal=   None    Shift=    0.000
 RMSDP=3.43D-08 MaxDP=5.44D-06 DE=-4.67D-10 OVMax= 1.21D-05

 Cycle   9  Pass 1  IDiag  1:
 E= -46.7836571392897     Delta-E=       -0.000000000027 Rises=F Damp=F
 DIIS: error= 3.28D-08 at cycle   9 NSaved=   8.
 NSaved= 8 IEnMin= 8 EnMin= -46.7836571392897     IErMin= 8 ErrMin= 3.28D-08
 ErrMax= 3.28D-08  0.00D+00 EMaxC= 1.00D-01 BMatC= 3.75D-14 BMatP= 2.21D-12
 IDIUse=1 WtCom= 1.00D+00 WtEn= 0.00D+00
 Coeff-Com: -0.113D-08-0.122D-03 0.512D-02-0.417D-01 0.556D-02 0.167D+00
 Coeff-Com: -0.542D+00 0.141D+01
 Coeff:     -0.113D-08-0.122D-03 0.512D-02-0.417D-01 0.556D-02 0.167D+00
 Coeff:     -0.542D+00 0.141D+01
 Gap=     0.253 Goal=   None    Shift=    0.000
 RMSDP=4.35D-09 MaxDP=8.92D-07 DE=-2.72D-11 OVMax= 6.49D-07

 SCF Done:  E(ROHF) =  -46.7836571393     A.U. after    9 cycles
            NFock=  9  Conv=0.44D-08     -V/T= 3.5725
 <Sx>= 0.0000 <Sy>= 0.0000 <Sz>= 0.0000 <S**2>=-0.0000 S=-0.0000
 <L.S>=  0.00000000000    
 KE= 1.818591665649D+01 PE=-1.004185311493D+02 EE= 3.267707672492D+01
 Annihilation of the first spin contaminant:
 S**2 before annihilation    -0.0000,   after    -0.0000
 Leave Link  502 at Wed Feb 14 10:42:26 2018, MaxMem=  8589934592 cpu:            4285.0 elap:             139.9
 (Enter /home1/apps/gaussian/16rA.03/g16/l801.exe)
 Windowed orbitals will be sorted by symmetry type.
 GenMOA:  NOpAll=  4 NOp2=4 NOpUse=  4 JSym2X=1
 FoFJK:  IHMeth= 1 ICntrl=       0 DoSepK=F KAlg= 0 I1Cent=           0 FoldK=F
 IRaf=         0 NMat=       1 IRICut=       1 DoRegI=T DoRafI=F ISym2E= 1 IDoP0=0 IntGTp=1.
 FoFCou: FMM=F IPFlag=           8 FMFlag=      100000 FMFlg1=           0
         NFxFlg=           0 DoJE=F BraDBF=F KetDBF=F FulRan=T
         wScrn=  0.000000 ICntrl=         0 IOpCl=  1 I1Cent=           0 NGrid=           0
         NMat0=    1 NMatS0=      1 NMatT0=    0 NMatD0=    1 NMtDS0=    0 NMtDT0=    0
 Petite list used in FoFCou.
 <Sx>= 0.0000 <Sy>= 0.0000 <Sz>= 0.0000 <S**2>=-0.0000 S=-0.0000
 Range of M.O.s used for correlation:     1   426
 NBasis=   428 NAE=     6 NBE=     6 NFC=     0 NFV=     0
 NROrb=    426 NOA=     6 NOB=     6 NVA=   420 NVB=   420

 **** Warning!!: The largest alpha MO coefficient is  0.26321923D+03


 **** Warning!!: The largest beta MO coefficient is  0.26321923D+03

 Singles contribution to E2=   -0.1428356873D-13
 Leave Link  801 at Wed Feb 14 10:43:21 2018, MaxMem=  8589934592 cpu:            1739.3 elap:              54.4
 (Enter /home1/apps/gaussian/16rA.03/g16/l804.exe)
 Open-shell transformation, MDV=  8589934592 ITran=4 ISComp=2.
 Unit  1 TFree=       5549467 TCopy=       4077858.
 Semi-Direct transformation.
 ModeAB=           2 MOrb=             6 LenV=    8584412951
 LASXX=     58543982 LTotXX=    58543982 LenRXX=    58543982
 LTotAB=    59074531 MaxLAS=   462382956 LenRXY=   462382956
 NonZer=   469805580 LenScr=   707472384 LnRSAI=           0
 LnScr1=           0 LExtra=    13078979 Total=   1241478301
 MaxDsk= 67108864000 SrtSym=           F ITran=            4
 DoSDTr:  NPSUse= 32
 JobTyp=1 Pass  1:  I=   1 to   6.
 (rs|ai) integrals will be sorted in core.
 Complete sort for first half transformation.
 First half transformation complete.
 Complete sort for second half transformation.
 Second half transformation complete.
 ModeAB=           2 MOrb=             6 LenV=    8584412951
 LASXX=     58543982 LTotXX=    58543982 LenRXX=   462382956
 LTotAB=    57368494 MaxLAS=   462382956 LenRXY=    57368494
 NonZer=   469805580 LenScr=   707472384 LnRSAI=           0
 LnScr1=           0 LExtra=   534005917 Total=   1761229751
 MaxDsk= 67108864000 SrtSym=           F ITran=            4
 DoSDTr:  NPSUse= 32
 JobTyp=2 Pass  1:  I=   1 to   6.
 (rs|ai) integrals will be sorted in core.
 Complete sort for first half transformation.
 First half transformation complete.
 Complete sort for second half transformation.
 Second half transformation complete.
 Spin components of T(2) and E(2):
     alpha-alpha T2 =       0.1218094469D-01 E2=     -0.4823463061D-01
     alpha-beta  T2 =       0.1004558782D+00 E2=     -0.3291367961D+00
     beta-beta   T2 =       0.1218094469D-01 E2=     -0.4823463061D-01
 ANorm=    0.1060574263D+01
 E2 =    -0.4256060573D+00 EUMP2 =    -0.47209263196609D+02
 (S**2,0)=  0.00000D+00           (S**2,1)=  0.00000D+00
 E(PUHF)=      -0.46783657139D+02        E(PMP2)=      -0.47209263197D+02
 Leave Link  804 at Wed Feb 14 11:09:37 2018, MaxMem=  8589934592 cpu:           50431.0 elap:            1576.1
 (Enter /home1/apps/gaussian/16rA.03/g16/l913.exe)
 CIDS:  MDV=  8589934592.
 IFCWin=0 IBDFC=1 NFBD=     0     0 NFCmp=     0     0 NFFFC=     0     0
 Using original routines for 1st iteration.
 Using DD4UQ or CC4UQ for 2nd and later iterations.
 Keep R2 and R3 ints in memory in symmetry-blocked form, NReq=5277880381.
 FoFCou: FMM=F IPFlag=           8 FMFlag=           0 FMFlg1=           0
         NFxFlg=           0 DoJE=F BraDBF=F KetDBF=F FulRan=T
         wScrn=  0.000000 ICntrl=       600 IOpCl=  0 I1Cent=           0 NGrid=           0
         NMat0=    1 NMatS0=  91806 NMatT0=    0 NMatD0=    1 NMtDS0=    0 NMtDT0=    0
 Petite list used in FoFCou.
 CIDS: In Core Option IDoMem=           1.
 CCSD(T)
 =======
 Iterations= 150 Convergence= 0.100D-06
 Produce multiple copies of IABC intergrals
 Iteration Nr.   1
 **********************
 DD1Dir will call FoFMem   1 times, MxPair=       102
 NAB=    36 NAA=    15 NBB=    15.
 DD1Dir will call FoFMem   1 times, MxPair=       102
 NAB=    36 NAA=    15 NBB=    15.
 MP4(R+Q)=  0.33997334D-01
 Maximum subspace dimension=  5
 A-vector RMS=  1.9344889D-05 Max=  6.1671071D-03 conv= 1.00D-05.
 RLE energy=       -0.4133135836
 E3=       -0.21339266D-01        EROMP3=      -0.47230602463D+02
 E4(SDQ)=  -0.22982265D-02        ROMP4(SDQ)=  -0.47232900689D+02
 VARIATIONAL ENERGIES WITH THE FIRST-ORDER WAVEFUNCTION:
 DE(Corr)= -0.41294799     E(Corr)=     -47.196605129    
 NORM(A)=   0.10539307D+01
 Iteration Nr.   2
 **********************
 DD1Dir will call FoFMem   1 times, MxPair=       102
 NAB=    36 NAA=    15 NBB=    15.
 A-vector RMS=  2.7831659D-03 Max=  3.2241813D-02 conv= 1.00D-05.
 RLE energy=       -0.4200282054
 DE(Corr)= -0.43338579     E(CORR)=     -47.217042925     Delta=-2.04D-02
 NORM(A)=   0.10582914D+01
 Iteration Nr.   3
 **********************
 DD1Dir will call FoFMem   1 times, MxPair=       102
 NAB=    36 NAA=    15 NBB=    15.
 A-vector RMS=  1.9948493D-03 Max=  2.3589314D-02 conv= 1.00D-05.
 RLE energy=       -0.4298520058
 DE(Corr)= -0.43726738     E(CORR)=     -47.220924524     Delta=-3.88D-03
 NORM(A)=   0.10658402D+01
 Iteration Nr.   4
 **********************
 DD1Dir will call FoFMem   1 times, MxPair=       102
 NAB=    36 NAA=    15 NBB=    15.
 A-vector RMS=  1.8834446D-03 Max=  2.1908482D-02 conv= 1.00D-05.
 RLE energy=       -0.4536573131
 DE(Corr)= -0.43993366     E(CORR)=     -47.223590798     Delta=-2.67D-03
 NORM(A)=   0.11060466D+01
 Iteration Nr.   5
 **********************
 DD1Dir will call FoFMem   1 times, MxPair=       102
 NAB=    36 NAA=    15 NBB=    15.
 A-vector RMS=  4.3639781D-04 Max=  4.5785783D-03 conv= 1.00D-05.
 RLE energy=       -0.4569607010
 DE(Corr)= -0.45154508     E(CORR)=     -47.235202215     Delta=-1.16D-02
 NORM(A)=   0.11211697D+01
 Iteration Nr.   6
 **********************
 DD1Dir will call FoFMem   1 times, MxPair=       102
 NAB=    36 NAA=    15 NBB=    15.
 A-vector RMS=  4.8374476D-04 Max=  5.0634594D-03 conv= 1.00D-05.
 RLE energy=       -0.4498177906
 DE(Corr)= -0.45306712     E(CORR)=     -47.236724258     Delta=-1.52D-03
 NORM(A)=   0.11076921D+01
 Iteration Nr.   7
 **********************
 DD1Dir will call FoFMem   1 times, MxPair=       102
 NAB=    36 NAA=    15 NBB=    15.
 A-vector RMS=  2.1102650D-04 Max=  3.4185596D-03 conv= 1.00D-05.
 RLE energy=       -0.4500674931
 DE(Corr)= -0.44977060     E(CORR)=     -47.233427741     Delta= 3.30D-03
 NORM(A)=   0.11134092D+01
 Iteration Nr.   8
 **********************
 DD1Dir will call FoFMem   1 times, MxPair=       102
 NAB=    36 NAA=    15 NBB=    15.
 A-vector RMS=  6.1887473D-05 Max=  8.1383665D-04 conv= 1.00D-05.
 RLE energy=       -0.4500564647
 DE(Corr)= -0.45013962     E(CORR)=     -47.233796758     Delta=-3.69D-04
 NORM(A)=   0.11139388D+01
 Iteration Nr.   9
 **********************
 DD1Dir will call FoFMem   1 times, MxPair=       102
 NAB=    36 NAA=    15 NBB=    15.
 A-vector RMS=  6.4266600D-05 Max=  8.6781698D-04 conv= 1.00D-05.
 RLE energy=       -0.4500508220
 DE(Corr)= -0.45001045     E(CORR)=     -47.233667588     Delta= 1.29D-04
 NORM(A)=   0.11147810D+01
 Iteration Nr.  10
 **********************
 DD1Dir will call FoFMem   1 times, MxPair=       102
 NAB=    36 NAA=    15 NBB=    15.
 A-vector RMS=  1.4178260D-05 Max=  1.7262636D-04 conv= 1.00D-05.
 RLE energy=       -0.4500020538
 DE(Corr)= -0.45001917     E(CORR)=     -47.233676313     Delta=-8.73D-06
 NORM(A)=   0.11147329D+01
 Iteration Nr.  11
 **********************
 DD1Dir will call FoFMem   1 times, MxPair=       102
 NAB=    36 NAA=    15 NBB=    15.
 A-vector RMS=  1.2167618D-05 Max=  1.7270726D-04 conv= 1.00D-05.
 RLE energy=       -0.4500273902
 DE(Corr)= -0.45001299     E(CORR)=     -47.233670133     Delta= 6.18D-06
 NORM(A)=   0.11148713D+01
 Iteration Nr.  12
 **********************
 DD1Dir will call FoFMem   1 times, MxPair=       102
 NAB=    36 NAA=    15 NBB=    15.
 A-vector RMS=  5.3913599D-06 Max=  7.1119153D-05 conv= 1.00D-05.
 RLE energy=       -0.4500058630
 DE(Corr)= -0.45000365     E(CORR)=     -47.233660790     Delta= 9.34D-06
 NORM(A)=   0.11148848D+01
 Iteration Nr.  13
 **********************
 DD1Dir will call FoFMem   1 times, MxPair=       102
 NAB=    36 NAA=    15 NBB=    15.
 A-vector RMS=  2.0871372D-06 Max=  2.6580374D-05 conv= 1.00D-05.
 RLE energy=       -0.4500128357
 DE(Corr)= -0.45001258     E(CORR)=     -47.233669718     Delta=-8.93D-06
 NORM(A)=   0.11149171D+01
 Iteration Nr.  14
 **********************
 DD1Dir will call FoFMem   1 times, MxPair=       102
 NAB=    36 NAA=    15 NBB=    15.
 A-vector RMS=  1.4113145D-06 Max=  1.5272408D-05 conv= 1.00D-05.
 RLE energy=       -0.4500117190
 DE(Corr)= -0.45001176     E(CORR)=     -47.233668900     Delta= 8.18D-07
 NORM(A)=   0.11149375D+01
 Iteration Nr.  15
 **********************
 DD1Dir will call FoFMem   1 times, MxPair=       102
 NAB=    36 NAA=    15 NBB=    15.
 A-vector RMS=  5.4802468D-07 Max=  7.0987155D-06 conv= 1.00D-05.
 RLE energy=       -0.4500130325
 DE(Corr)= -0.45001324     E(CORR)=     -47.233670375     Delta=-1.48D-06
 NORM(A)=   0.11149444D+01
 Iteration Nr.  16
 **********************
 DD1Dir will call FoFMem   1 times, MxPair=       102
 NAB=    36 NAA=    15 NBB=    15.
 A-vector RMS=  5.5325485D-07 Max=  7.2238542D-06 conv= 1.00D-05.
 RLE energy=       -0.4500129890
 DE(Corr)= -0.45001290     E(CORR)=     -47.233670040     Delta= 3.35D-07
 NORM(A)=   0.11149495D+01
 Iteration Nr.  17
 **********************
 DD1Dir will call FoFMem   1 times, MxPair=       102
 NAB=    36 NAA=    15 NBB=    15.
 A-vector RMS=  2.9708492D-07 Max=  4.7968344D-06 conv= 1.00D-05.
 RLE energy=       -0.4500123858
 DE(Corr)= -0.45001278     E(CORR)=     -47.233669916     Delta= 1.24D-07
 NORM(A)=   0.11149532D+01
 Iteration Nr.  18
 **********************
 DD1Dir will call FoFMem   1 times, MxPair=       102
 NAB=    36 NAA=    15 NBB=    15.
 A-vector RMS=  2.3306557D-07 Max=  2.7782744D-06 conv= 1.00D-05.
 RLE energy=       -0.4500128833
 DE(Corr)= -0.45001289     E(CORR)=     -47.233670028     Delta=-1.12D-07
 NORM(A)=   0.11149566D+01
 Iteration Nr.  19
 **********************
 DD1Dir will call FoFMem   1 times, MxPair=       102
 NAB=    36 NAA=    15 NBB=    15.
 A-vector RMS=  1.5462598D-07 Max=  2.4085123D-06 conv= 1.00D-05.
 RLE energy=       -0.4500125595
 DE(Corr)= -0.45001259     E(CORR)=     -47.233669730     Delta= 2.98D-07
 NORM(A)=   0.11149590D+01
 Iteration Nr.  20
 **********************
 DD1Dir will call FoFMem   1 times, MxPair=       102
 NAB=    36 NAA=    15 NBB=    15.
 A-vector RMS=  5.8045484D-08 Max=  6.2986411D-07 conv= 1.00D-05.
 RLE energy=       -0.4500127322
 DE(Corr)= -0.45001274     E(CORR)=     -47.233669876     Delta=-1.46D-07
 NORM(A)=   0.11149601D+01
 Iteration Nr.  21
 **********************
 DD1Dir will call FoFMem   1 times, MxPair=       102
 NAB=    36 NAA=    15 NBB=    15.
 A-vector RMS=  2.9414901D-08 Max=  3.7230955D-07 conv= 1.00D-05.
 RLE energy=       -0.4500127124
 DE(Corr)= -0.45001272     E(CORR)=     -47.233669858     Delta= 1.81D-08
 NORM(A)=   0.11149606D+01
 CI/CC converged in   21 iterations to DelEn= 1.81D-08 Conv= 1.00D-07 ErrA1= 2.94D-08 Conv= 1.00D-05
 Wavefunction amplitudes converged. E(Corr)=     -47.233669858    
 Dominant configurations:
 ***********************
 Spin Case        I    J    A    B          Value
    AA            6        16            0.102038D+00
    BB            6        16            0.102038D+00
 Largest amplitude= 1.02D-01
 Time for triples=    61467.70 seconds.
 T4(CCSD)= -0.23255041D-01
 T5(CCSD)=  0.26021385D-02
 CCSD(T)= -0.47254322760D+02
 Discarding MO integrals.
 Leave Link  913 at Wed Feb 14 11:54:32 2018, MaxMem=  8589934592 cpu:           85676.8 elap:            2694.8
 (Enter /home1/apps/gaussian/16rA.03/g16/l601.exe)
 Copying SCF densities to generalized density rwf, IOpCl= 0 IROHF=1.

 **********************************************************************

            Population analysis using the SCF density.

 **********************************************************************

 Orbital symmetries:
       Occupied  (SG) (PI) (PI) (SG) (SG) (SG)
       Virtual   (PI) (PI) (SG) (SG) (DLTA) (DLTA) (PI) (PI) (SG)
                 (SG) (PI) (PI) (DLTA) (DLTA) (PI) (PI) (SG) (SG)
                 (DLTA) (DLTA) (PI) (PI) (SG) (PHI) (PHI) (DLTA)
                 (DLTA) (PI) (PI) (SG) (PI) (PI) (SG) (SG) (PI)
                 (PI) (DLTA) (DLTA) (SG) (PI) (PI) (SG) (DLTA)
                 (DLTA) (?A) (?A) (PHI) (PHI) (PI) (PI) (SG) (SG)
                 (DLTA) (DLTA) (PHI) (PHI) (PI) (PI) (SG) (PI)
                 (PI) (SG) (DLTA) (DLTA) (PI) (PI) (SG) (DLTA)
                 (DLTA) (?B) (?B) (PHI) (PHI) (?A) (?A) (SG) (PI)
                 (PI) (SG) (DLTA) (DLTA) (PI) (PI) (SG) (PI) (PI)
                 (?A) (?A) (PHI) (PHI) (SG) (DLTA) (DLTA) (SG)
                 (PHI) (PHI) (PI) (PI) (DLTA) (DLTA) (PI) (PI)
                 (SG) (DLTA) (DLTA) (PI) (PI) (SG) (SG) (PI) (PI)
                 (PHI) (PHI) (SG) (SG) (DLTA) (DLTA) (PI) (PI)
                 (SG) (DLTA) (DLTA) (?A) (?A) (?B) (?B) (PI) (PI)
                 (PHI) (PHI) (SG) (DLTA) (DLTA) (SG) (PI) (PI)
                 (PI) (PI) (DLTA) (DLTA) (SG) (PI) (PI) (PHI) (PHI)
                 (SG) (DLTA) (DLTA) (PI) (PI) (SG) (PI) (PI) (DLTA)
                 (DLTA) (PHI) (PHI) (?A) (?A) (SG) (?A) (?A) (PHI)
                 (PHI) (SG) (SG) (?B) (?B) (SG) (PI) (PI) (?A)
                 (?A) (DLTA) (DLTA) (SG) (PI) (PI) (SG) (PHI) (PHI)
                 (PI) (PI) (DLTA) (DLTA) (SG) (SG) (PHI) (PHI)
                 (DLTA) (DLTA) (SG) (PI) (PI) (DLTA) (DLTA) (PI)
                 (PI) (SG) (DLTA) (DLTA) (PI) (PI) (SG) (PI) (PI)
                 (PHI) (PHI) (DLTA) (DLTA) (SG) (PI) (PI) (PI)
                 (PI) (SG) (SG) (?B) (?B) (?A) (?A) (PHI) (PHI)
                 (DLTA) (DLTA) (PI) (PI) (?A) (?A) (PHI) (PHI)
                 (SG) (DLTA) (DLTA) (SG) (PI) (PI) (SG) (?B) (?B)
                 (SG) (SG) (?A) (?A) (PHI) (PHI) (DLTA) (DLTA)
                 (PI) (PI) (SG) (DLTA) (DLTA) (PI) (PI) (SG) (SG)
                 (PI) (PI) (SG) (PHI) (PHI) (DLTA) (DLTA) (SG)
                 (?A) (?A) (PI) (PI) (PHI) (PHI) (DLTA) (DLTA)
                 (PI) (PI) (SG) (SG) (PHI) (PHI) (DLTA) (DLTA)
                 (DLTA) (DLTA) (PI) (PI) (PI) (PI) (SG) (SG) (DLTA)
                 (DLTA) (PI) (PI) (SG) (?A) (?A) (PHI) (PHI) (DLTA)
                 (DLTA) (PI) (PI) (SG) (PI) (PI) (SG) (?B) (?B)
                 (?A) (?A) (PHI) (PHI) (DLTA) (DLTA) (PI) (PI)
                 (SG) (PI) (PI) (SG) (SG) (?B) (?B) (?A) (?A) (PHI)
                 (PHI) (DLTA) (DLTA) (PI) (PI) (SG) (SG) (SG) (DLTA)
                 (DLTA) (PI) (PI) (SG) (PI) (PI) (SG) (SG) (SG)
                 (DLTA) (DLTA) (PI) (PI) (SG) (PI) (PI) (SG) (SG)
                 (PI) (PI) (DLTA) (DLTA) (PI) (PI) (SG) (SG) (SG)
                 (PI) (PI) (SG) (SG) (SG) (PI) (PI) (DLTA) (DLTA)
                 (PI) (PI) (SG) (SG) (SG) (PI) (PI) (SG) (SG) (PI)
                 (PI) (DLTA) (DLTA) (PI) (PI) (SG) (SG) (SG) (SG)
                 (PI) (PI) (SG) (SG) (PI) (PI) (SG) (SG) (PI) (PI)
                 (SG) (SG) (SG) (PI) (PI) (SG) (SG) (PI) (PI) (SG)
                 (SG) (SG) (PI) (PI) (SG) (SG) (SG) (SG) (SG) (SG)
 The electronic state is 1-SG.
 Alpha  occ. eigenvalues --   -2.75770  -1.69031  -1.69031  -1.68816  -0.36865
 Alpha  occ. eigenvalues --   -0.24411
 Alpha virt. eigenvalues --    0.00925   0.00925   0.01131   0.01833   0.02562
 Alpha virt. eigenvalues --    0.02562   0.02684   0.02684   0.02754   0.03510
 Alpha virt. eigenvalues --    0.03791   0.03791   0.06213   0.06213   0.06971
 Alpha virt. eigenvalues --    0.06971   0.07166   0.08269   0.09569   0.09569
 Alpha virt. eigenvalues --    0.09699   0.09699   0.09760   0.10263   0.10263
 Alpha virt. eigenvalues --    0.10469   0.10469   0.10471   0.10471   0.10744
 Alpha virt. eigenvalues --    0.13858   0.13858   0.16025   0.19097   0.21709
 Alpha virt. eigenvalues --    0.21709   0.21780   0.21780   0.22591   0.23399
 Alpha virt. eigenvalues --    0.23399   0.25154   0.25452   0.25452   0.25634
 Alpha virt. eigenvalues --    0.25634   0.25862   0.25862   0.28636   0.28636
 Alpha virt. eigenvalues --    0.31325   0.32912   0.34735   0.34735   0.34785
 Alpha virt. eigenvalues --    0.34785   0.40077   0.40077   0.42787   0.43842
 Alpha virt. eigenvalues --    0.43842   0.44356   0.49323   0.49323   0.49665
 Alpha virt. eigenvalues --    0.49665   0.51474   0.56462   0.56462   0.57750
 Alpha virt. eigenvalues --    0.57750   0.57759   0.57759   0.58021   0.58021
 Alpha virt. eigenvalues --    0.58046   0.59095   0.59095   0.63649   0.72232
 Alpha virt. eigenvalues --    0.72232   0.72294   0.72294   0.77521   0.87293
 Alpha virt. eigenvalues --    0.87293   0.88406   0.88406   0.88536   0.88536
 Alpha virt. eigenvalues --    0.90170   0.94128   0.94128   0.95459   0.99543
 Alpha virt. eigenvalues --    0.99543   1.00691   1.00691   1.05965   1.05965
 Alpha virt. eigenvalues --    1.08039   1.08039   1.08491   1.10362   1.10362
 Alpha virt. eigenvalues --    1.11419   1.11419   1.12706   1.25329   1.38143
 Alpha virt. eigenvalues --    1.38143   1.40280   1.40280   1.41210   1.52135
 Alpha virt. eigenvalues --    1.61016   1.61016   1.61651   1.61651   1.72445
 Alpha virt. eigenvalues --    1.94390   1.94390   1.99855   1.99855   1.99929
 Alpha virt. eigenvalues --    1.99929   2.01284   2.01284   2.02986   2.02986
 Alpha virt. eigenvalues --    2.14944   2.23535   2.23535   2.25212   2.25637
 Alpha virt. eigenvalues --    2.25637   2.37214   2.37214   2.37951   2.37951
 Alpha virt. eigenvalues --    2.44632   2.45015   2.45015   2.45049   2.45049
 Alpha virt. eigenvalues --    2.54101   2.57734   2.57734   2.60578   2.60578
 Alpha virt. eigenvalues --    2.68335   2.68451   2.68451   2.69635   2.69635
 Alpha virt. eigenvalues --    2.74763   2.74763   2.75890   2.75890   2.85007
 Alpha virt. eigenvalues --    2.85054   2.85054   2.92691   2.92691   2.97831
 Alpha virt. eigenvalues --    2.97831   2.97865   2.97865   3.04202   3.13630
 Alpha virt. eigenvalues --    3.13630   3.18894   3.18894   3.23196   3.23196
 Alpha virt. eigenvalues --    3.30503   3.44368   3.44368   3.54791   3.62453
 Alpha virt. eigenvalues --    3.62453   3.89930   3.89930   3.92068   3.92068
 Alpha virt. eigenvalues --    3.98015   4.18192   4.32867   4.32867   4.54910
 Alpha virt. eigenvalues --    4.54910   4.61357   4.70498   4.70498   4.77480
 Alpha virt. eigenvalues --    4.77480   4.98633   4.98633   5.05662   5.43312
 Alpha virt. eigenvalues --    5.43312   5.55159   5.55159   5.66134   5.72148
 Alpha virt. eigenvalues --    5.72148   5.82078   5.82078   5.92684   5.92684
 Alpha virt. eigenvalues --    6.01190   6.07216   6.07216   6.39860   6.39860
 Alpha virt. eigenvalues --    6.42418   6.60515   6.60626   6.60626   6.60820
 Alpha virt. eigenvalues --    6.60820   6.63909   6.63909   6.71417   6.71417
 Alpha virt. eigenvalues --    6.87235   6.87235   6.91729   6.91729   6.92708
 Alpha virt. eigenvalues --    6.92708   6.94808   7.10649   7.10649   7.47852
 Alpha virt. eigenvalues --    7.58227   7.58227   7.89226   8.29744   8.29744
 Alpha virt. eigenvalues --    8.29882   8.29882   8.30955   8.30955   8.37886
 Alpha virt. eigenvalues --    8.37886   8.44221   8.44221   8.49511   8.49511
 Alpha virt. eigenvalues --    8.51973   8.82842   8.82842   8.88132   8.88132
 Alpha virt. eigenvalues --    9.05920  10.34580  10.53444  10.53444  11.65304
 Alpha virt. eigenvalues --   13.03986  13.03986  13.12982  13.12982  13.23593
 Alpha virt. eigenvalues --   13.26310  13.26310  13.30132  13.30132  13.33346
 Alpha virt. eigenvalues --   13.33346  13.42882  13.42882  13.51480  13.51480
 Alpha virt. eigenvalues --   13.51566  13.91442  14.08616  14.08616  14.10967
 Alpha virt. eigenvalues --   14.10967  14.19619  14.19619  14.33375  14.33375
 Alpha virt. eigenvalues --   14.42521  14.42521  14.62674  15.19601  15.37816
 Alpha virt. eigenvalues --   15.37816  15.42889  15.42889  15.58784  16.38900
 Alpha virt. eigenvalues --   16.38900  16.40079  16.40079  16.50225  16.50225
 Alpha virt. eigenvalues --   16.80576  16.80576  16.81456  17.16739  17.16739
 Alpha virt. eigenvalues --   17.71088  17.72732  17.72732  17.73353  17.73353
 Alpha virt. eigenvalues --   17.75454  17.75454  17.79950  17.79950  17.86032
 Alpha virt. eigenvalues --   17.86032  18.09067  18.76533  18.76533  22.11972
 Alpha virt. eigenvalues --   22.11972  22.12317  22.12317  22.13346  22.13346
 Alpha virt. eigenvalues --   22.16584  22.16584  22.19662  22.19662  22.21825
 Alpha virt. eigenvalues --   22.21825  22.23637  22.51349  25.52400  25.94046
 Alpha virt. eigenvalues --   25.94046  25.98648  25.98648  26.13150  31.93241
 Alpha virt. eigenvalues --   31.93241  33.81957  41.59497  44.39250  45.41768
 Alpha virt. eigenvalues --   45.41768  45.46156  45.46156  45.59269  52.13254
 Alpha virt. eigenvalues --   52.13254  67.64933  74.86150  83.60697  83.60697
 Alpha virt. eigenvalues --   92.70380  92.70380  92.73983  92.73983  92.84508
 Alpha virt. eigenvalues --  102.31839 126.96595 136.33690 136.33690 139.39584
 Alpha virt. eigenvalues --  174.48918 221.08031 230.70476 230.70476 235.20279
 Alpha virt. eigenvalues --  235.20279 235.22739 235.22739 235.30570 306.94783
 Alpha virt. eigenvalues --  397.53441 406.98536 406.98536 550.85974 743.89071
 Alpha virt. eigenvalues --  752.84652 752.84652 776.80888 776.80888 776.82300
 Alpha virt. eigenvalues --  776.82300 776.87269 817.068201016.263171463.70229
 Alpha virt. eigenvalues -- 1471.968421471.968421935.240303058.715663066.19281
 Alpha virt. eigenvalues -- 3066.192813800.892636884.049316890.671536890.67153
 Alpha virt. eigenvalues -- 7683.08409****************************************
 Alpha virt. eigenvalues -- **************************************************
 Alpha virt. eigenvalues -- **************************************************
 Alpha virt. eigenvalues -- **************************************************
     Molecular Orbital Coefficients:
                           2         3         4         5         6
                           O         O         O         O         O
     Eigenvalues --    -1.69031  -1.69031  -1.68816  -0.36865  -0.24411
   1 1   Sc 1S          0.00000   0.00000  -0.00000  -0.00000  -0.00000
   2        2S          0.00000   0.00000   0.00000  -0.00000  -0.00000
   3        3S          0.00000   0.00000  -0.00000  -0.00000  -0.00000
   4        4S          0.00000   0.00000   0.00000  -0.00000  -0.00000
   5        5S          0.00000   0.00000  -0.00000  -0.00000  -0.00000
   6        6S          0.00000   0.00000   0.00000  -0.00000  -0.00000
   7        7S          0.00000   0.00000  -0.00000   0.00000   0.00000
   8        8S          0.00000   0.00000   0.00000  -0.00000  -0.00000
   9        9S          0.00000   0.00000  -0.00000   0.00000   0.00000
  10       10S          0.00000   0.00000   0.00000  -0.00000  -0.00001
  11       11S          0.00000   0.00000  -0.00000   0.00001   0.00001
  12       12S          0.00000   0.00000   0.00000  -0.00003  -0.00005
  13       13S          0.00000   0.00000  -0.00001   0.00004   0.00007
  14       14S          0.00000   0.00000   0.00002  -0.00017  -0.00030
  15       15S          0.00000   0.00000  -0.00006   0.00028   0.00049
  16       16S          0.00000   0.00000   0.00012  -0.00095  -0.00166
  17       17S          0.00000   0.00000  -0.00026   0.00233   0.00410
  18       18S          0.00000   0.00000   0.00059  -0.00547  -0.00966
  19       19S          0.00000   0.00000  -0.00243  -0.00892  -0.01503
  20       20S          0.00000   0.00000   0.01028   0.04593   0.07845
  21       21S          0.00000   0.00000   0.00718   0.01568   0.02497
  22       22S          0.00000   0.00000   0.00289  -0.00877  -0.01453
  23       23S          0.00000   0.00000   0.01392  -0.05200  -0.09984
  24       24S          0.00000   0.00000  -0.00554  -0.15939  -0.27789
  25       25S          0.00000   0.00000   0.00866   0.01890  -0.00729
  26       26S          0.00000   0.00000   0.00104   0.18280   0.43884
  27       27S          0.00000   0.00000  -0.00345   0.12237   0.47698
  28       28S          0.00000   0.00000  -0.00219   0.01741   0.09716
  29       29S          0.00000   0.00000  -0.01196   0.00781   0.01630
  30       30S          0.00000   0.00000  -0.02222  -0.06699  -0.11679
  31       31S          0.00000   0.00000  -0.00052  -0.00102   0.00007
  32       32PX        -0.00000   0.00000   0.00000   0.00000   0.00000
  33       32PY         0.00000  -0.00000   0.00000   0.00000   0.00000
  34       32PZ         0.00000   0.00000  -0.00000  -0.00000   0.00000
  35       33PX         0.00000   0.00000   0.00000   0.00000   0.00000
  36       33PY         0.00000   0.00000   0.00000   0.00000   0.00000
  37       33PZ         0.00000   0.00000   0.00000   0.00000  -0.00000
  38       34PX        -0.00000   0.00000   0.00000   0.00000   0.00000
  39       34PY         0.00000  -0.00000   0.00000   0.00000   0.00000
  40       34PZ         0.00000   0.00000  -0.00000  -0.00000   0.00000
  41       35PX         0.00001   0.00000   0.00000   0.00000   0.00000
  42       35PY         0.00000   0.00001   0.00000   0.00000   0.00000
  43       35PZ         0.00000   0.00000   0.00001   0.00000  -0.00000
  44       36PX        -0.00000   0.00000   0.00000   0.00000   0.00000
  45       36PY         0.00000  -0.00000   0.00000   0.00000   0.00000
  46       36PZ         0.00000   0.00000  -0.00001  -0.00000   0.00000
  47       37PX         0.00008   0.00000   0.00000   0.00000   0.00000
  48       37PY         0.00000   0.00008   0.00000   0.00000   0.00000
  49       37PZ         0.00000   0.00000   0.00012   0.00001  -0.00001
  50       38PX        -0.00003   0.00000   0.00000   0.00000   0.00000
  51       38PY         0.00000  -0.00003   0.00000   0.00000   0.00000
  52       38PZ         0.00000   0.00000  -0.00015  -0.00001   0.00001
  53       39PX         0.00072   0.00000   0.00000   0.00000   0.00000
  54       39PY         0.00000   0.00072   0.00000   0.00000   0.00000
  55       39PZ         0.00000   0.00000   0.00105   0.00012  -0.00009
  56       40PX        -0.00096   0.00000   0.00000   0.00000   0.00000
  57       40PY         0.00000  -0.00096   0.00000   0.00000   0.00000
  58       40PZ         0.00000   0.00000  -0.00189  -0.00020   0.00017
  59       41PX         0.00756   0.00000   0.00000   0.00000   0.00000
  60       41PY         0.00000   0.00756   0.00000   0.00000   0.00000
  61       41PZ         0.00000   0.00000   0.01023   0.00121  -0.00090
  62       42PX        -0.00394   0.00000   0.00000   0.00000   0.00000
  63       42PY         0.00000  -0.00394   0.00000   0.00000   0.00000
  64       42PZ         0.00000   0.00000  -0.01239  -0.00140   0.00123
  65       43PX        -0.11189   0.00000   0.00000   0.00000   0.00000
  66       43PY         0.00000  -0.11189   0.00000   0.00000   0.00000
  67       43PZ         0.00000   0.00000  -0.06535  -0.00980   0.00519
  68       44PX        -0.02915   0.00000   0.00000   0.00000   0.00000
  69       44PY         0.00000  -0.02915   0.00000   0.00000   0.00000
  70       44PZ         0.00000   0.00000   0.05035   0.00467  -0.00571
  71       45PX         0.24314   0.00000   0.00000   0.00000   0.00000
  72       45PY         0.00000   0.24314   0.00000   0.00000   0.00000
  73       45PZ         0.00000   0.00000   0.17405   0.02600  -0.01539
  74       46PX         0.43754   0.00000   0.00000   0.00000   0.00000
  75       46PY         0.00000   0.43754   0.00000   0.00000   0.00000
  76       46PZ         0.00000   0.00000   0.23332   0.03417  -0.01513
  77       47PX         0.35691   0.00000   0.00000   0.00000   0.00000
  78       47PY         0.00000   0.35691   0.00000   0.00000   0.00000
  79       47PZ         0.00000   0.00000   0.38657   0.06672  -0.05283
  80       48PX         0.12644   0.00000   0.00000   0.00000   0.00000
  81       48PY         0.00000   0.12644   0.00000   0.00000   0.00000
  82       48PZ         0.00000   0.00000   0.10910  -0.01311  -0.00258
  83       49PX         0.01050   0.00000   0.00000   0.00000   0.00000
  84       49PY         0.00000   0.01050   0.00000   0.00000   0.00000
  85       49PZ         0.00000   0.00000   0.00683  -0.07794   0.12946
  86       50PX         0.00081   0.00000   0.00000   0.00000   0.00000
  87       50PY         0.00000   0.00081   0.00000   0.00000   0.00000
  88       50PZ         0.00000   0.00000   0.00116  -0.05360   0.15804
  89       51PX        -0.00009   0.00000   0.00000   0.00000   0.00000
  90       51PY         0.00000  -0.00009   0.00000   0.00000   0.00000
  91       51PZ         0.00000   0.00000   0.00185  -0.00912   0.03018
  92       52PX         0.05411   0.00000   0.00000   0.00000   0.00000
  93       52PY         0.00000   0.05411   0.00000   0.00000   0.00000
  94       52PZ         0.00000   0.00000  -0.03885  -0.00199   0.00416
  95       53PX        -0.03492   0.00000   0.00000   0.00000   0.00000
  96       53PY         0.00000  -0.03492   0.00000   0.00000   0.00000
  97       53PZ         0.00000   0.00000   0.19558   0.02282  -0.02359
  98       54PX         0.00004   0.00000   0.00000   0.00000   0.00000
  99       54PY         0.00000   0.00004   0.00000   0.00000   0.00000
 100       54PZ         0.00000   0.00000   0.00011   0.00058  -0.00123
 101       55D 0        0.00000   0.00000   0.00000   0.00002  -0.00005
 102       55D+1       -0.00000   0.00000   0.00000   0.00000   0.00000
 103       55D-1        0.00000  -0.00000   0.00000   0.00000   0.00000
 104       55D+2        0.00000   0.00000  -0.00000   0.00000  -0.00000
 105       55D-2        0.00000   0.00000   0.00000   0.00000   0.00000
 106       56D 0        0.00000   0.00000   0.00002   0.00023  -0.00043
 107       56D+1       -0.00001   0.00000   0.00000   0.00000   0.00000
 108       56D-1        0.00000  -0.00001   0.00000   0.00000   0.00000
 109       56D+2        0.00000   0.00000   0.00000   0.00000  -0.00000
 110       56D-2        0.00000   0.00000   0.00000   0.00000   0.00000
 111       57D 0        0.00000   0.00000   0.00016   0.00211  -0.00408
 112       57D+1       -0.00005   0.00000   0.00000   0.00000   0.00000
 113       57D-1        0.00000  -0.00005   0.00000   0.00000   0.00000
 114       57D+2        0.00000   0.00000  -0.00000   0.00000  -0.00000
 115       57D-2        0.00000   0.00000   0.00000   0.00000   0.00000
 116       58D 0        0.00000   0.00000   0.00069   0.00903  -0.01739
 117       58D+1       -0.00021   0.00000   0.00000   0.00000   0.00000
 118       58D-1        0.00000  -0.00021   0.00000   0.00000   0.00000
 119       58D+2        0.00000   0.00000   0.00000   0.00000  -0.00000
 120       58D-2        0.00000   0.00000   0.00000   0.00000   0.00000
 121       59D 0        0.00000   0.00000   0.00183   0.02040  -0.04036
 122       59D+1       -0.00053   0.00000   0.00000   0.00000   0.00000
 123       59D-1        0.00000  -0.00053   0.00000   0.00000   0.00000
 124       59D+2        0.00000   0.00000  -0.00000   0.00000  -0.00000
 125       59D-2        0.00000   0.00000   0.00000   0.00000   0.00000
 126       60D 0        0.00000   0.00000   0.00511   0.02989  -0.06976
 127       60D+1       -0.00122   0.00000   0.00000   0.00000   0.00000
 128       60D-1        0.00000  -0.00122   0.00000   0.00000   0.00000
 129       60D+2        0.00000   0.00000  -0.00000   0.00000  -0.00000
 130       60D-2        0.00000   0.00000   0.00000   0.00000   0.00000
 131       61D 0        0.00000   0.00000   0.00797   0.05080  -0.11028
 132       61D+1       -0.00081   0.00000   0.00000   0.00000   0.00000
 133       61D-1        0.00000  -0.00081   0.00000   0.00000   0.00000
 134       61D+2        0.00000   0.00000  -0.00000   0.00000  -0.00000
 135       61D-2        0.00000   0.00000   0.00000   0.00000   0.00000
 136       62D 0        0.00000   0.00000   0.00539   0.07420  -0.13402
 137       62D+1        0.00199   0.00000   0.00000   0.00000   0.00000
 138       62D-1        0.00000   0.00199   0.00000   0.00000   0.00000
 139       62D+2        0.00000   0.00000   0.00000  -0.00000   0.00000
 140       62D-2        0.00000   0.00000   0.00000   0.00000   0.00000
 141       63D 0        0.00000   0.00000   0.00344   0.07051  -0.12583
 142       63D+1        0.00214   0.00000   0.00000   0.00000   0.00000
 143       63D-1        0.00000   0.00214   0.00000   0.00000   0.00000
 144       63D+2        0.00000   0.00000   0.00000   0.00000  -0.00000
 145       63D-2        0.00000   0.00000   0.00000   0.00000   0.00000
 146       64D 0        0.00000   0.00000  -0.00144   0.04594  -0.08812
 147       64D+1        0.00094   0.00000   0.00000   0.00000   0.00000
 148       64D-1        0.00000   0.00094   0.00000   0.00000   0.00000
 149       64D+2        0.00000   0.00000  -0.00000  -0.00000   0.00000
 150       64D-2        0.00000   0.00000   0.00000   0.00000   0.00000
 151       65D 0        0.00000   0.00000  -0.00097   0.01800  -0.03103
 152       65D+1        0.00035   0.00000   0.00000   0.00000   0.00000
 153       65D-1        0.00000   0.00035   0.00000   0.00000   0.00000
 154       65D+2        0.00000   0.00000  -0.00000   0.00000  -0.00000
 155       65D-2        0.00000   0.00000   0.00000   0.00000   0.00000
 156       66D 0        0.00000   0.00000  -0.00042   0.00191  -0.00184
 157       66D+1       -0.00003   0.00000   0.00000   0.00000   0.00000
 158       66D-1        0.00000  -0.00003   0.00000   0.00000   0.00000
 159       66D+2        0.00000   0.00000   0.00000  -0.00000   0.00000
 160       66D-2        0.00000   0.00000   0.00000   0.00000   0.00000
 161       67D 0        0.00000   0.00000  -0.00127   0.00737  -0.00727
 162       67D+1       -0.00021   0.00000   0.00000   0.00000   0.00000
 163       67D-1        0.00000  -0.00021   0.00000   0.00000   0.00000
 164       67D+2        0.00000   0.00000   0.00000  -0.00000   0.00000
 165       67D-2        0.00000   0.00000   0.00000   0.00000   0.00000
 166       68D 0        0.00000   0.00000  -0.00366   0.01101  -0.00643
 167       68D+1       -0.00046   0.00000   0.00000   0.00000   0.00000
 168       68D-1        0.00000  -0.00046   0.00000   0.00000   0.00000
 169       68D+2        0.00000   0.00000   0.00000  -0.00000   0.00000
 170       68D-2        0.00000   0.00000   0.00000   0.00000   0.00000
 171       69D 0        0.00000   0.00000  -0.00003  -0.00019   0.00013
 172       69D+1        0.00001   0.00000   0.00000   0.00000   0.00000
 173       69D-1        0.00000   0.00001   0.00000   0.00000   0.00000
 174       69D+2        0.00000   0.00000  -0.00000   0.00000  -0.00000
 175       69D-2        0.00000   0.00000   0.00000   0.00000   0.00000
 176       70F 0        0.00000   0.00000   0.00012  -0.00052   0.00008
 177       70F+1       -0.00068   0.00000   0.00000   0.00000   0.00000
 178       70F-1        0.00000  -0.00068   0.00000   0.00000   0.00000
 179       70F+2        0.00000   0.00000   0.00000   0.00000  -0.00000
 180       70F-2        0.00000   0.00000   0.00000   0.00000   0.00000
 181       70F+3       -0.00000   0.00000   0.00000   0.00000   0.00000
 182       70F-3        0.00000  -0.00000   0.00000   0.00000   0.00000
 183       71F 0        0.00000   0.00000  -0.00035  -0.00138   0.00014
 184       71F+1       -0.00184   0.00000   0.00000   0.00000   0.00000
 185       71F-1        0.00000  -0.00184   0.00000   0.00000   0.00000
 186       71F+2        0.00000   0.00000   0.00000  -0.00000   0.00000
 187       71F-2        0.00000   0.00000   0.00000   0.00000   0.00000
 188       71F+3        0.00000   0.00000   0.00000   0.00000   0.00000
 189       71F-3        0.00000   0.00000   0.00000   0.00000   0.00000
 190       72F 0        0.00000   0.00000   0.00137  -0.00536  -0.00209
 191       72F+1       -0.00229   0.00000   0.00000   0.00000   0.00000
 192       72F-1        0.00000  -0.00229   0.00000   0.00000   0.00000
 193       72F+2        0.00000   0.00000   0.00000   0.00000  -0.00000
 194       72F-2        0.00000   0.00000   0.00000   0.00000   0.00000
 195       72F+3        0.00000   0.00000   0.00000   0.00000   0.00000
 196       72F-3        0.00000   0.00000   0.00000   0.00000   0.00000
 197       73F 0        0.00000   0.00000   0.00003  -0.01119  -0.00203
 198       73F+1       -0.00183   0.00000   0.00000   0.00000   0.00000
 199       73F-1        0.00000  -0.00183   0.00000   0.00000   0.00000
 200       73F+2        0.00000   0.00000   0.00000   0.00000  -0.00000
 201       73F-2        0.00000   0.00000   0.00000   0.00000   0.00000
 202       73F+3       -0.00000   0.00000   0.00000   0.00000   0.00000
 203       73F-3        0.00000  -0.00000   0.00000   0.00000   0.00000
 204       74F 0        0.00000   0.00000   0.00064  -0.00980  -0.00026
 205       74F+1       -0.00043   0.00000   0.00000   0.00000   0.00000
 206       74F-1        0.00000  -0.00043   0.00000   0.00000   0.00000
 207       74F+2        0.00000   0.00000   0.00000   0.00000  -0.00000
 208       74F-2        0.00000   0.00000   0.00000   0.00000   0.00000
 209       74F+3       -0.00000   0.00000   0.00000   0.00000   0.00000
 210       74F-3        0.00000  -0.00000   0.00000   0.00000   0.00000
 211       75F 0        0.00000   0.00000   0.00022  -0.00192   0.00012
 212       75F+1       -0.00001   0.00000   0.00000   0.00000   0.00000
 213       75F-1        0.00000  -0.00001   0.00000   0.00000   0.00000
 214       75F+2        0.00000   0.00000  -0.00000  -0.00000   0.00000
 215       75F-2        0.00000   0.00000   0.00000   0.00000   0.00000
 216       75F+3        0.00000   0.00000   0.00000   0.00000   0.00000
 217       75F-3        0.00000   0.00000   0.00000   0.00000   0.00000
 218       76G 0        0.00000   0.00000  -0.00011  -0.00003   0.00020
 219       76G+1       -0.00008   0.00000   0.00000   0.00000   0.00000
 220       76G-1        0.00000  -0.00008   0.00000   0.00000   0.00000
 221       76G+2        0.00000   0.00000  -0.00000   0.00000  -0.00000
 222       76G-2        0.00000   0.00000   0.00000   0.00000   0.00000
 223       76G+3       -0.00000   0.00000   0.00000   0.00000   0.00000
 224       76G-3        0.00000  -0.00000   0.00000   0.00000   0.00000
 225       76G+4        0.00000   0.00000  -0.00000   0.00000   0.00000
 226       76G-4        0.00000   0.00000   0.00000   0.00000   0.00000
 227       77G 0        0.00000   0.00000   0.00002  -0.00011   0.00051
 228       77G+1        0.00007   0.00000   0.00000   0.00000   0.00000
 229       77G-1        0.00000   0.00007   0.00000   0.00000   0.00000
 230       77G+2        0.00000   0.00000   0.00000  -0.00000   0.00000
 231       77G-2        0.00000   0.00000   0.00000   0.00000   0.00000
 232       77G+3       -0.00000   0.00000   0.00000   0.00000   0.00000
 233       77G-3        0.00000  -0.00000   0.00000   0.00000   0.00000
 234       77G+4        0.00000   0.00000   0.00000  -0.00000  -0.00000
 235       77G-4        0.00000   0.00000   0.00000   0.00000   0.00000
 236       78G 0        0.00000   0.00000   0.00059   0.00191   0.00020
 237       78G+1        0.00052   0.00000   0.00000   0.00000   0.00000
 238       78G-1        0.00000   0.00052   0.00000   0.00000   0.00000
 239       78G+2        0.00000   0.00000  -0.00000   0.00000  -0.00000
 240       78G-2        0.00000   0.00000   0.00000   0.00000   0.00000
 241       78G+3        0.00000   0.00000   0.00000   0.00000   0.00000
 242       78G-3        0.00000   0.00000   0.00000   0.00000   0.00000
 243       78G+4        0.00000   0.00000  -0.00000   0.00000   0.00000
 244       78G-4        0.00000   0.00000   0.00000   0.00000   0.00000
 245       79G 0        0.00000   0.00000   0.00015   0.00079   0.00083
 246       79G+1        0.00000   0.00000   0.00000   0.00000   0.00000
 247       79G-1        0.00000   0.00000   0.00000   0.00000   0.00000
 248       79G+2        0.00000   0.00000  -0.00000  -0.00000   0.00000
 249       79G-2        0.00000   0.00000   0.00000   0.00000   0.00000
 250       79G+3       -0.00000   0.00000   0.00000   0.00000   0.00000
 251       79G-3        0.00000  -0.00000   0.00000   0.00000   0.00000
 252       79G+4        0.00000   0.00000   0.00000  -0.00000   0.00000
 253       79G-4        0.00000   0.00000   0.00000   0.00000   0.00000
 254       80G 0        0.00000   0.00000  -0.00010   0.00122   0.00014
 255       80G+1        0.00005   0.00000   0.00000   0.00000   0.00000
 256       80G-1        0.00000   0.00005   0.00000   0.00000   0.00000
 257       80G+2        0.00000   0.00000  -0.00000  -0.00000   0.00000
 258       80G-2        0.00000   0.00000   0.00000   0.00000   0.00000
 259       80G+3        0.00000   0.00000   0.00000   0.00000   0.00000
 260       80G-3        0.00000   0.00000   0.00000   0.00000   0.00000
 261       80G+4        0.00000   0.00000  -0.00000   0.00000  -0.00000
 262       80G-4        0.00000   0.00000   0.00000   0.00000   0.00000
 263       81H 0        0.00000   0.00000  -0.00009  -0.00002   0.00007
 264       81H+1       -0.00006   0.00000   0.00000   0.00000   0.00000
 265       81H-1        0.00000  -0.00006   0.00000   0.00000   0.00000
 266       81H+2        0.00000   0.00000   0.00000   0.00000  -0.00000
 267       81H-2        0.00000   0.00000   0.00000   0.00000   0.00000
 268       81H+3       -0.00000   0.00000   0.00000   0.00000   0.00000
 269       81H-3        0.00000  -0.00000   0.00000   0.00000   0.00000
 270       81H+4        0.00000   0.00000  -0.00000   0.00000   0.00000
 271       81H-4        0.00000   0.00000   0.00000   0.00000   0.00000
 272       81H+5       -0.00000   0.00000   0.00000   0.00000   0.00000
 273       81H-5        0.00000   0.00000   0.00000   0.00000   0.00000
 274       82H 0        0.00000   0.00000  -0.00014  -0.00019  -0.00004
 275       82H+1       -0.00014   0.00000   0.00000   0.00000   0.00000
 276       82H-1        0.00000  -0.00014   0.00000   0.00000   0.00000
 277       82H+2        0.00000   0.00000  -0.00000  -0.00000   0.00000
 278       82H-2        0.00000   0.00000   0.00000   0.00000   0.00000
 279       82H+3       -0.00000   0.00000   0.00000   0.00000   0.00000
 280       82H-3        0.00000  -0.00000   0.00000   0.00000   0.00000
 281       82H+4        0.00000   0.00000   0.00000   0.00000  -0.00000
 282       82H-4        0.00000   0.00000   0.00000   0.00000   0.00000
 283       82H+5        0.00000   0.00000   0.00000   0.00000   0.00000
 284       82H-5        0.00000  -0.00000   0.00000   0.00000   0.00000
 285       83H 0        0.00000   0.00000  -0.00003   0.00037  -0.00083
 286       83H+1        0.00005   0.00000   0.00000   0.00000   0.00000
 287       83H-1        0.00000   0.00005   0.00000   0.00000   0.00000
 288       83H+2        0.00000   0.00000   0.00000   0.00000  -0.00000
 289       83H-2        0.00000   0.00000   0.00000   0.00000   0.00000
 290       83H+3        0.00000   0.00000   0.00000   0.00000   0.00000
 291       83H-3        0.00000   0.00000   0.00000   0.00000   0.00000
 292       83H+4        0.00000   0.00000  -0.00000   0.00000  -0.00000
 293       83H-4        0.00000   0.00000   0.00000   0.00000   0.00000
 294       83H+5        0.00000   0.00000   0.00000   0.00000   0.00000
 295       83H-5        0.00000  -0.00000   0.00000   0.00000   0.00000
 296       84H 0        0.00000   0.00000  -0.00008   0.00030  -0.00030
 297       84H+1       -0.00001   0.00000   0.00000   0.00000   0.00000
 298       84H-1        0.00000  -0.00001   0.00000   0.00000   0.00000
 299       84H+2        0.00000   0.00000   0.00000   0.00000  -0.00000
 300       84H-2        0.00000   0.00000   0.00000   0.00000   0.00000
 301       84H+3        0.00000   0.00000   0.00000   0.00000   0.00000
 302       84H-3        0.00000   0.00000   0.00000   0.00000   0.00000
 303       84H+4        0.00000   0.00000   0.00000  -0.00000   0.00000
 304       84H-4        0.00000   0.00000   0.00000   0.00000   0.00000
 305       84H+5       -0.00000   0.00000   0.00000   0.00000   0.00000
 306       84H-5        0.00000   0.00000   0.00000   0.00000   0.00000
 307       85I 0        0.00000   0.00000   0.00000  -0.00002   0.00004
 308       85I+1        0.00000   0.00000   0.00000   0.00000   0.00000
 309       85I-1        0.00000   0.00000   0.00000   0.00000   0.00000
 310       85I+2        0.00000   0.00000  -0.00000   0.00000   0.00000
 311       85I-2        0.00000   0.00000   0.00000   0.00000   0.00000
 312       85I+3       -0.00000   0.00000   0.00000   0.00000   0.00000
 313       85I-3        0.00000   0.00000   0.00000   0.00000   0.00000
 314       85I+4        0.00000   0.00000  -0.00000   0.00000   0.00000
 315       85I-4        0.00000   0.00000   0.00000   0.00000   0.00000
 316       85I+5        0.00000   0.00000   0.00000   0.00000   0.00000
 317       85I-5        0.00000  -0.00000   0.00000   0.00000   0.00000
 318       85I+6        0.00000   0.00000   0.00000  -0.00000  -0.00000
 319       85I-6        0.00000   0.00000   0.00000   0.00000   0.00000
 320       86I 0        0.00000   0.00000  -0.00001  -0.00001   0.00011
 321       86I+1        0.00000   0.00000   0.00000   0.00000   0.00000
 322       86I-1        0.00000   0.00000   0.00000   0.00000   0.00000
 323       86I+2        0.00000   0.00000   0.00000  -0.00000   0.00000
 324       86I-2        0.00000   0.00000   0.00000   0.00000   0.00000
 325       86I+3       -0.00000   0.00000   0.00000   0.00000   0.00000
 326       86I-3        0.00000  -0.00000   0.00000   0.00000   0.00000
 327       86I+4        0.00000   0.00000   0.00000  -0.00000   0.00000
 328       86I-4        0.00000   0.00000   0.00000   0.00000   0.00000
 329       86I+5       -0.00000   0.00000   0.00000   0.00000   0.00000
 330       86I-5        0.00000   0.00000   0.00000   0.00000   0.00000
 331       86I+6        0.00000   0.00000  -0.00000  -0.00000   0.00000
 332       86I-6        0.00000   0.00000   0.00000   0.00000   0.00000
 333       87I 0        0.00000   0.00000   0.00003  -0.00027   0.00017
 334       87I+1       -0.00002   0.00000   0.00000   0.00000   0.00000
 335       87I-1        0.00000  -0.00002   0.00000   0.00000   0.00000
 336       87I+2        0.00000   0.00000  -0.00000  -0.00000   0.00000
 337       87I-2        0.00000   0.00000   0.00000   0.00000   0.00000
 338       87I+3       -0.00000   0.00000   0.00000   0.00000   0.00000
 339       87I-3        0.00000  -0.00000   0.00000   0.00000   0.00000
 340       87I+4        0.00000   0.00000  -0.00000   0.00000  -0.00000
 341       87I-4        0.00000   0.00000   0.00000   0.00000   0.00000
 342       87I+5        0.00000   0.00000   0.00000   0.00000   0.00000
 343       87I-5        0.00000   0.00000   0.00000   0.00000   0.00000
 344       87I+6        0.00000   0.00000   0.00000   0.00000  -0.00000
 345       87I-6        0.00000   0.00000   0.00000   0.00000   0.00000
 346 2   H  1S          0.00000   0.00000   0.00000  -0.00002   0.00000
 347        2S          0.00000   0.00000  -0.00001   0.00046  -0.00009
 348        3S          0.00000   0.00000  -0.00026   0.00899  -0.00186
 349        4S          0.00000   0.00000  -0.00097   0.03200  -0.00656
 350        5S          0.00000   0.00000  -0.00218   0.09386  -0.01974
 351        6S          0.00000   0.00000  -0.00583   0.19852  -0.04236
 352        7S          0.00000   0.00000  -0.00929   0.31309  -0.05905
 353        8S          0.00000   0.00000   0.00310   0.16664  -0.04050
 354        9S          0.00000   0.00000   0.00274   0.00191  -0.00508
 355       10PX         0.00001   0.00000   0.00000   0.00000   0.00000
 356       10PY         0.00000   0.00001   0.00000   0.00000   0.00000
 357       10PZ         0.00000   0.00000  -0.00009   0.00050  -0.00008
 358       11PX         0.00001   0.00000   0.00000   0.00000   0.00000
 359       11PY         0.00000   0.00001   0.00000   0.00000   0.00000
 360       11PZ         0.00000   0.00000  -0.00007   0.00081  -0.00021
 361       12PX         0.00014   0.00000   0.00000   0.00000   0.00000
 362       12PY         0.00000   0.00014   0.00000   0.00000   0.00000
 363       12PZ         0.00000   0.00000  -0.00166   0.00856  -0.00190
 364       13PX         0.00023   0.00000   0.00000   0.00000   0.00000
 365       13PY         0.00000   0.00023   0.00000   0.00000   0.00000
 366       13PZ         0.00000   0.00000  -0.00432   0.03201  -0.00227
 367       14PX         0.00041   0.00000   0.00000   0.00000   0.00000
 368       14PY         0.00000   0.00041   0.00000   0.00000   0.00000
 369       14PZ         0.00000   0.00000  -0.00021   0.01213  -0.00001
 370       15D 0        0.00000   0.00000  -0.00001   0.00008  -0.00000
 371       15D+1        0.00000   0.00000   0.00000   0.00000   0.00000
 372       15D-1        0.00000   0.00000   0.00000   0.00000   0.00000
 373       15D+2        0.00000   0.00000   0.00000  -0.00000   0.00000
 374       15D-2        0.00000   0.00000   0.00000   0.00000   0.00000
 375       16D 0        0.00000   0.00000  -0.00017   0.00015  -0.00030
 376       16D+1        0.00002   0.00000   0.00000   0.00000   0.00000
 377       16D-1        0.00000   0.00002   0.00000   0.00000   0.00000
[...]
 206       74F-1        0.00000   0.00000   0.00000   0.00000
 207       74F+2        0.00000   0.00000   0.00000   0.00000
 208       74F-2        0.00000   0.00000   0.00000   0.00000
 209       74F+3        0.00000   0.00000   0.00000   0.00000
 210       74F-3        0.00000   0.00000   0.00000   0.00000
 211       75F 0        0.00032   0.00016   0.00016   0.00000
 212       75F+1        0.00000   0.00000   0.00000   0.00000
 213       75F-1        0.00000   0.00000   0.00000   0.00000
 214       75F+2        0.00000   0.00000   0.00000   0.00000
 215       75F-2        0.00000   0.00000   0.00000   0.00000
 216       75F+3       -0.00000  -0.00000  -0.00000   0.00000
 217       75F-3       -0.00000  -0.00000  -0.00000   0.00000
 218       76G 0        0.00000   0.00000   0.00000   0.00000
 219       76G+1       -0.00000  -0.00000  -0.00000   0.00000
 220       76G-1       -0.00000  -0.00000  -0.00000   0.00000
 221       76G+2        0.00000   0.00000   0.00000   0.00000
 222       76G-2        0.00000   0.00000   0.00000   0.00000
 223       76G+3       -0.00000  -0.00000  -0.00000   0.00000
 224       76G-3        0.00000   0.00000   0.00000   0.00000
 225       76G+4        0.00000   0.00000   0.00000   0.00000
 226       76G-4        0.00000   0.00000   0.00000   0.00000
 227       77G 0       -0.00000  -0.00000  -0.00000   0.00000
 228       77G+1        0.00000   0.00000   0.00000   0.00000
 229       77G-1        0.00000   0.00000   0.00000   0.00000
 230       77G+2        0.00000   0.00000   0.00000   0.00000
 231       77G-2        0.00000   0.00000   0.00000   0.00000
 232       77G+3       -0.00000  -0.00000  -0.00000   0.00000
 233       77G-3       -0.00000  -0.00000  -0.00000   0.00000
 234       77G+4       -0.00000  -0.00000  -0.00000   0.00000
 235       77G-4       -0.00000  -0.00000  -0.00000   0.00000
 236       78G 0        0.00014   0.00007   0.00007   0.00000
 237       78G+1        0.00000   0.00000   0.00000   0.00000
 238       78G-1        0.00000   0.00000   0.00000   0.00000
 239       78G+2       -0.00000  -0.00000  -0.00000   0.00000
 240       78G-2        0.00000   0.00000   0.00000   0.00000
 241       78G+3        0.00000   0.00000   0.00000   0.00000
 242       78G-3        0.00000   0.00000   0.00000   0.00000
 243       78G+4       -0.00000  -0.00000  -0.00000   0.00000
 244       78G-4        0.00000   0.00000   0.00000   0.00000
 245       79G 0        0.00022   0.00011   0.00011   0.00000
 246       79G+1        0.00000   0.00000   0.00000   0.00000
 247       79G-1        0.00000   0.00000   0.00000   0.00000
 248       79G+2        0.00000   0.00000   0.00000   0.00000
 249       79G-2        0.00000   0.00000   0.00000   0.00000
 250       79G+3        0.00000   0.00000   0.00000   0.00000
 251       79G-3        0.00000   0.00000   0.00000   0.00000
 252       79G+4        0.00000   0.00000   0.00000   0.00000
 253       79G-4       -0.00000  -0.00000  -0.00000   0.00000
 254       80G 0        0.00021   0.00010   0.00010   0.00000
 255       80G+1       -0.00000  -0.00000  -0.00000   0.00000
 256       80G-1       -0.00000  -0.00000  -0.00000   0.00000
 257       80G+2       -0.00000  -0.00000  -0.00000   0.00000
 258       80G-2       -0.00000  -0.00000  -0.00000   0.00000
 259       80G+3        0.00000   0.00000   0.00000   0.00000
 260       80G-3       -0.00000  -0.00000  -0.00000   0.00000
 261       80G+4        0.00000   0.00000   0.00000   0.00000
 262       80G-4       -0.00000  -0.00000  -0.00000   0.00000
 263       81H 0        0.00000   0.00000   0.00000   0.00000
 264       81H+1        0.00000   0.00000   0.00000   0.00000
 265       81H-1        0.00000   0.00000   0.00000   0.00000
 266       81H+2        0.00000   0.00000   0.00000   0.00000
 267       81H-2        0.00000   0.00000   0.00000   0.00000
 268       81H+3        0.00000   0.00000   0.00000   0.00000
 269       81H-3        0.00000   0.00000   0.00000   0.00000
 270       81H+4        0.00000   0.00000   0.00000   0.00000
 271       81H-4        0.00000   0.00000   0.00000   0.00000
 272       81H+5        0.00000   0.00000   0.00000   0.00000
 273       81H-5        0.00000   0.00000   0.00000   0.00000
 274       82H 0        0.00000   0.00000   0.00000   0.00000
 275       82H+1        0.00000   0.00000   0.00000   0.00000
 276       82H-1        0.00000   0.00000   0.00000   0.00000
 277       82H+2        0.00000   0.00000   0.00000   0.00000
 278       82H-2        0.00000   0.00000   0.00000   0.00000
 279       82H+3        0.00000   0.00000   0.00000   0.00000
 280       82H-3        0.00000   0.00000   0.00000   0.00000
 281       82H+4        0.00000   0.00000   0.00000   0.00000
 282       82H-4        0.00000   0.00000   0.00000   0.00000
 283       82H+5       -0.00000  -0.00000  -0.00000   0.00000
 284       82H-5        0.00000   0.00000   0.00000   0.00000
 285       83H 0       -0.00009  -0.00005  -0.00005   0.00000
 286       83H+1        0.00000   0.00000   0.00000   0.00000
 287       83H-1        0.00000   0.00000   0.00000   0.00000
 288       83H+2       -0.00000  -0.00000  -0.00000   0.00000
 289       83H-2       -0.00000  -0.00000  -0.00000   0.00000
 290       83H+3        0.00000   0.00000   0.00000   0.00000
 291       83H-3       -0.00000  -0.00000  -0.00000   0.00000
 292       83H+4        0.00000   0.00000   0.00000   0.00000
 293       83H-4        0.00000   0.00000   0.00000   0.00000
 294       83H+5       -0.00000  -0.00000  -0.00000   0.00000
 295       83H-5        0.00000   0.00000   0.00000   0.00000
 296       84H 0       -0.00007  -0.00003  -0.00003   0.00000
 297       84H+1       -0.00000  -0.00000  -0.00000   0.00000
 298       84H-1       -0.00000  -0.00000  -0.00000   0.00000
 299       84H+2       -0.00000  -0.00000  -0.00000   0.00000
 300       84H-2       -0.00000  -0.00000  -0.00000   0.00000
 301       84H+3        0.00000   0.00000   0.00000   0.00000
 302       84H-3        0.00000   0.00000   0.00000   0.00000
 303       84H+4       -0.00000  -0.00000  -0.00000   0.00000
 304       84H-4       -0.00000  -0.00000  -0.00000   0.00000
 305       84H+5        0.00000   0.00000   0.00000   0.00000
 306       84H-5        0.00000   0.00000   0.00000   0.00000
 307       85I 0        0.00000   0.00000   0.00000   0.00000
 308       85I+1        0.00000   0.00000   0.00000   0.00000
 309       85I-1        0.00000   0.00000   0.00000   0.00000
 310       85I+2        0.00000   0.00000   0.00000   0.00000
 311       85I-2        0.00000   0.00000   0.00000   0.00000
 312       85I+3        0.00000   0.00000   0.00000   0.00000
 313       85I-3        0.00000   0.00000   0.00000   0.00000
 314       85I+4        0.00000   0.00000   0.00000   0.00000
 315       85I-4        0.00000   0.00000   0.00000   0.00000
 316       85I+5        0.00000   0.00000   0.00000   0.00000
 317       85I-5        0.00000   0.00000   0.00000   0.00000
 318       85I+6        0.00000   0.00000   0.00000   0.00000
 319       85I-6        0.00000   0.00000   0.00000   0.00000
 320       86I 0       -0.00000  -0.00000  -0.00000   0.00000
 321       86I+1       -0.00000  -0.00000  -0.00000   0.00000
 322       86I-1       -0.00000  -0.00000  -0.00000   0.00000
 323       86I+2        0.00000   0.00000   0.00000   0.00000
 324       86I-2        0.00000   0.00000   0.00000   0.00000
 325       86I+3        0.00000   0.00000   0.00000   0.00000
 326       86I-3        0.00000   0.00000   0.00000   0.00000
 327       86I+4        0.00000   0.00000   0.00000   0.00000
 328       86I-4        0.00000   0.00000   0.00000   0.00000
 329       86I+5        0.00000   0.00000   0.00000   0.00000
 330       86I-5       -0.00000  -0.00000  -0.00000   0.00000
 331       86I+6        0.00000   0.00000   0.00000   0.00000
 332       86I-6        0.00000   0.00000   0.00000   0.00000
 333       87I 0       -0.00003  -0.00001  -0.00001   0.00000
 334       87I+1        0.00000   0.00000   0.00000   0.00000
 335       87I-1        0.00000   0.00000   0.00000   0.00000
 336       87I+2       -0.00000  -0.00000  -0.00000   0.00000
 337       87I-2       -0.00000  -0.00000  -0.00000   0.00000
 338       87I+3        0.00000   0.00000   0.00000   0.00000
 339       87I-3        0.00000   0.00000   0.00000   0.00000
 340       87I+4       -0.00000  -0.00000  -0.00000   0.00000
 341       87I-4       -0.00000  -0.00000  -0.00000   0.00000
 342       87I+5       -0.00000  -0.00000  -0.00000   0.00000
 343       87I-5        0.00000   0.00000   0.00000   0.00000
 344       87I+6       -0.00000  -0.00000  -0.00000   0.00000
 345       87I-6       -0.00000  -0.00000  -0.00000   0.00000
 346 2   H  1S         -0.00000  -0.00000  -0.00000   0.00000
 347        2S          0.00006   0.00003   0.00003   0.00000
 348        3S          0.00327   0.00164   0.00164   0.00000
 349        4S          0.02387   0.01194   0.01194   0.00000
 350        5S          0.11713   0.05856   0.05856   0.00000
 351        6S          0.34208   0.17104   0.17104   0.00000
 352        7S          0.59174   0.29587   0.29587   0.00000
 353        8S          0.26522   0.13261   0.13261   0.00000
 354        9S         -0.00328  -0.00164  -0.00164   0.00000
 355       10PX         0.00000   0.00000   0.00000   0.00000
 356       10PY         0.00000   0.00000   0.00000   0.00000
 357       10PZ         0.00002   0.00001   0.00001   0.00000
 358       11PX         0.00000   0.00000   0.00000   0.00000
 359       11PY         0.00000   0.00000   0.00000   0.00000
 360       11PZ         0.00009   0.00005   0.00005   0.00000
 361       12PX         0.00000   0.00000   0.00000   0.00000
 362       12PY         0.00000   0.00000   0.00000   0.00000
 363       12PZ         0.00231   0.00115   0.00115   0.00000
 364       13PX         0.00002   0.00001   0.00001   0.00000
 365       13PY         0.00002   0.00001   0.00001   0.00000
 366       13PZ         0.01206   0.00603   0.00603   0.00000
 367       14PX         0.00008   0.00004   0.00004   0.00000
 368       14PY         0.00008   0.00004   0.00004   0.00000
 369       14PZ         0.00329   0.00165   0.00165   0.00000
 370       15D 0        0.00000   0.00000   0.00000   0.00000
 371       15D+1        0.00000   0.00000   0.00000   0.00000
 372       15D-1        0.00000   0.00000   0.00000   0.00000
 373       15D+2        0.00000   0.00000   0.00000   0.00000
 374       15D-2        0.00000   0.00000   0.00000   0.00000
 375       16D 0        0.00002   0.00001   0.00001   0.00000
 376       16D+1        0.00000   0.00000   0.00000   0.00000
 377       16D-1        0.00000   0.00000   0.00000   0.00000
 378       16D+2       -0.00000  -0.00000  -0.00000   0.00000
 379       16D-2       -0.00000  -0.00000  -0.00000   0.00000
 380       17D 0        0.00079   0.00039   0.00039   0.00000
 381       17D+1        0.00001   0.00001   0.00001   0.00000
 382       17D-1        0.00001   0.00001   0.00001   0.00000
 383       17D+2       -0.00000  -0.00000  -0.00000   0.00000
 384       17D-2       -0.00000  -0.00000  -0.00000   0.00000
 385       18D 0        0.00114   0.00057   0.00057   0.00000
 386       18D+1        0.00005   0.00002   0.00002   0.00000
 387       18D-1        0.00005   0.00002   0.00002   0.00000
 388       18D+2       -0.00000  -0.00000  -0.00000   0.00000
 389       18D-2       -0.00000  -0.00000  -0.00000   0.00000
 390       19F 0        0.00000   0.00000   0.00000   0.00000
 391       19F+1       -0.00000  -0.00000  -0.00000   0.00000
 392       19F-1       -0.00000  -0.00000  -0.00000   0.00000
 393       19F+2        0.00000   0.00000   0.00000   0.00000
 394       19F-2        0.00000   0.00000   0.00000   0.00000
 395       19F+3       -0.00000  -0.00000  -0.00000   0.00000
 396       19F-3       -0.00000  -0.00000  -0.00000   0.00000
 397       20F 0        0.00004   0.00002   0.00002   0.00000
 398       20F+1        0.00000   0.00000   0.00000   0.00000
 399       20F-1        0.00000   0.00000   0.00000   0.00000
 400       20F+2       -0.00000  -0.00000  -0.00000   0.00000
 401       20F-2       -0.00000  -0.00000  -0.00000   0.00000
 402       20F+3       -0.00000  -0.00000  -0.00000   0.00000
 403       20F-3       -0.00000  -0.00000  -0.00000   0.00000
 404       21F 0        0.00030   0.00015   0.00015   0.00000
 405       21F+1        0.00002   0.00001   0.00001   0.00000
 406       21F-1        0.00002   0.00001   0.00001   0.00000
 407       21F+2       -0.00000  -0.00000  -0.00000   0.00000
 408       21F-2       -0.00000  -0.00000  -0.00000   0.00000
 409       21F+3       -0.00000  -0.00000  -0.00000   0.00000
 410       21F-3        0.00000   0.00000   0.00000   0.00000
 411       22G 0        0.00000   0.00000   0.00000   0.00000
 412       22G+1        0.00000   0.00000   0.00000   0.00000
 413       22G-1        0.00000   0.00000   0.00000   0.00000
 414       22G+2        0.00000   0.00000   0.00000   0.00000
 415       22G-2        0.00000   0.00000   0.00000   0.00000
 416       22G+3        0.00000   0.00000   0.00000   0.00000
 417       22G-3        0.00000   0.00000   0.00000   0.00000
 418       22G+4        0.00000   0.00000   0.00000   0.00000
 419       22G-4        0.00000   0.00000   0.00000   0.00000
 420       23G 0       -0.00004  -0.00002  -0.00002   0.00000
 421       23G+1        0.00000   0.00000   0.00000   0.00000
 422       23G-1        0.00000   0.00000   0.00000   0.00000
 423       23G+2        0.00000   0.00000   0.00000   0.00000
 424       23G-2        0.00000   0.00000   0.00000   0.00000
 425       23G+3        0.00000   0.00000   0.00000   0.00000
 426       23G-3        0.00000   0.00000   0.00000   0.00000
 427       23G+4       -0.00000  -0.00000  -0.00000   0.00000
 428       23G-4       -0.00000  -0.00000  -0.00000   0.00000
          Condensed to atoms (all electrons):
               1          2
     1  Sc  10.332456   0.307050
     2  H    0.307050   1.053444
          Atomic-Atomic Spin Densities.
               1          2
     1  Sc   0.000000   0.000000
     2  H    0.000000   0.000000
 Mulliken charges and spin densities:
               1          2
     1  Sc   0.360494   0.000000
     2  H   -0.360494   0.000000
 Sum of Mulliken charges =   0.00000   0.00000
 Mulliken charges and spin densities with hydrogens summed into heavy atoms:
               1          2
     1  Sc   0.000000   0.000000
 Electronic spatial extent (au):  <R**2>=             70.2028
 Charge=             -0.0000 electrons
 Dipole moment (field-independent basis, Debye):
    X=              0.0000    Y=              0.0000    Z=              2.5645  Tot=              2.5645
 Quadrupole moment (field-independent basis, Debye-Ang):
   XX=            -22.7417   YY=            -22.7417   ZZ=            -29.1601
   XY=              0.0000   XZ=              0.0000   YZ=              0.0000
 Traceless Quadrupole moment (field-independent basis, Debye-Ang):
   XX=              2.1394   YY=              2.1394   ZZ=             -4.2789
   XY=              0.0000   XZ=              0.0000   YZ=              0.0000
 Octapole moment (field-independent basis, Debye-Ang**2):
  XXX=              0.0000  YYY=              0.0000  ZZZ=             13.7705  XYY=              0.0000
  XXY=              0.0000  XXZ=             -1.8026  XZZ=              0.0000  YZZ=              0.0000
  YYZ=             -1.8026  XYZ=              0.0000
 Hexadecapole moment (field-independent basis, Debye-Ang**3):
 XXXX=            -66.4526 YYYY=            -66.4526 ZZZZ=           -140.1850 XXXY=              0.0000
 XXXZ=              0.0000 YYYX=              0.0000 YYYZ=              0.0000 ZZZX=              0.0000
 ZZZY=              0.0000 XXYY=            -22.1509 XXZZ=            -31.1182 YYZZ=            -31.1182
 XXYZ=              0.0000 YYXZ=              0.0000 ZZXY=              0.0000
 N-N= 2.771880628629D+00 E-N=-1.004185300378D+02  KE= 1.818591665649D+01
 Symmetry A1   KE= 9.607740826378D+00
 Symmetry A2   KE= 8.274301112775D-48
 Symmetry B1   KE= 4.289087915637D+00
 Symmetry B2   KE= 4.289087914587D+00
 Symmetry A1   SP= 0.000000000000D+00
 Symmetry A2   SP= 0.000000000000D+00
 Symmetry B1   SP= 0.000000000000D+00
 Symmetry B2   SP= 0.000000000000D+00
 Orbital energies and kinetic energies (alpha):
                                 1                 2
   2         O                -1.690308          2.144544
   3         O                -1.690308          2.144544
   4         O                -1.688161          2.158313
   5         O                -0.368645          0.532360
   6         O                -0.244111          0.778304
   7         V                 0.009248          0.085174
   8         V                 0.009248          0.085174
   9         V                 0.011315          0.286414
  10         V                 0.018326          0.037853
  11         V                 0.025616          0.035246
 Total kinetic energy from orbitals= 1.818591665649D+01
                          Isotropic Fermi Contact Couplings
        Atom                 a.u.       MegaHertz       Gauss      10(-4) cm-1
     1  Sc(45)             0.00000       0.00000       0.00000       0.00000
     2  H(1)               0.00000       0.00000       0.00000       0.00000
 --------------------------------------------------------
       Center         ----  Spin Dipole Couplings  ----
                      3XX-RR        3YY-RR        3ZZ-RR
 --------------------------------------------------------
     1   Atom        0.000000      0.000000      0.000000
     2   Atom        0.000000      0.000000      0.000000
 --------------------------------------------------------
                        XY            XZ            YZ
 --------------------------------------------------------
     1   Atom        0.000000      0.000000      0.000000
     2   Atom        0.000000      0.000000      0.000000
 --------------------------------------------------------


 ---------------------------------------------------------------------------------
              Anisotropic Spin Dipole Couplings in Principal Axis System
 ---------------------------------------------------------------------------------

       Atom             a.u.   MegaHertz   Gauss  10(-4) cm-1        Axes

              Baa     0.0000     0.000     0.000     0.000  1.0000  0.0000  0.0000
     1 Sc(45) Bbb     0.0000     0.000     0.000     0.000 -0.0000  1.0000  0.0000
              Bcc     0.0000     0.000     0.000     0.000  0.0000  0.0000  1.0000
 
              Baa     0.0000     0.000     0.000     0.000  1.0000  0.0000  0.0000
     2 H(1)   Bbb     0.0000     0.000     0.000     0.000 -0.0000  1.0000  0.0000
              Bcc     0.0000     0.000     0.000     0.000  0.0000  0.0000  1.0000
 

 ---------------------------------------------------------------------------------

 No NMR shielding tensors so no spin-rotation constants.
 Leave Link  601 at Wed Feb 14 11:54:43 2018, MaxMem=  8589934592 cpu:             306.7 elap:              10.1
 (Enter /home1/apps/gaussian/16rA.03/g16/l9999.exe)

 Test job not archived.
 1\1\GINC-C437-122\SP\ROCCSD(T)-Full\Gen\H1Sc1\AANNABE\14-Feb-2018\0\\#
 P ROCCSD(T)=(maxcyc=150, Full)/Gen 5d 7f SCF=(maxcycles=300) Integral(
 NoXCTest) MaxDisk=500GB Pop=Regular Pseudo=Read IOp(5/15=2) Guess=Read
 \\ScH\\0,1\Sc,0,0.,0.,0.\H,0,0.,0.,2.1\\Version=ES64L-G16RevA.03\State
 =1-SG\HF=-46.7836571\MP2=-47.2092632\MP3=-47.2306025\PUHF=-46.7836571\
 PMP2-0=-47.2092632\MP4SDQ=-47.2329007\CCSD=-47.2336699\CCSD(T)=-47.254
 3228\RMSD=4.355e-09\PG=C*V [C*(H1Sc1)]\\@


 When cryptography is outlawed, bayl bhgynjf jvyy unir cevinpl.
 Job cpu time:       1 days 15 hours 41 minutes  7.5 seconds.
 Elapsed time:       0 days  1 hours 14 minutes 49.1 seconds.
 File lengths (MBytes):  RWF=  17035 Int=      0 D2E=      0 Chk=     23 Scr=      1
 Normal termination of Gaussian 16 at Wed Feb 14 11:54:50 2018.
