 Entering Gaussian System, Link 0=g16
 Initial command:
 /home1/apps/gaussian/16rA.03/g16/l1.exe "/tmp/Gau-210065.inp" -scrdir="/tmp/"
 Entering Link 1 = /home1/apps/gaussian/16rA.03/g16/l1.exe PID=    210066.
  
 Copyright (c) 1988,1990,1992,1993,1995,1998,2003,2009,2016,
            Gaussian, Inc.  All Rights Reserved.
  
 This is part of the Gaussian(R) 16 program.  It is based on
 the Gaussian(R) 09 system (copyright 2009, Gaussian, Inc.),
 the Gaussian(R) 03 system (copyright 2003, Gaussian, Inc.),
 the Gaussian(R) 98 system (copyright 1998, Gaussian, Inc.),
 the Gaussian(R) 94 system (copyright 1995, Gaussian, Inc.),
 the Gaussian 92(TM) system (copyright 1992, Gaussian, Inc.),
 the Gaussian 90(TM) system (copyright 1990, Gaussian, Inc.),
 the Gaussian 88(TM) system (copyright 1988, Gaussian, Inc.),
 the Gaussian 86(TM) system (copyright 1986, Carnegie Mellon
 University), and the Gaussian 82(TM) system (copyright 1983,
 Carnegie Mellon University). Gaussian is a federally registered
 trademark of Gaussian, Inc.
  
 This software contains proprietary and confidential information,
 including trade secrets, belonging to Gaussian, Inc.
  
 This software is provided under written license and may be
 used, copied, transmitted, or stored only in accord with that
 written license.
  
 The following legend is applicable only to US Government
 contracts under FAR:
  
                    RESTRICTED RIGHTS LEGEND
  
 Use, reproduction and disclosure by the US Government is
 subject to restrictions as set forth in subparagraphs (a)
 and (c) of the Commercial Computer Software - Restricted
 Rights clause in FAR 52.227-19.
  
 Gaussian, Inc.
 340 Quinnipiac St., Bldg. 40, Wallingford CT 06492
  
  
 ---------------------------------------------------------------
 Warning -- This program may not be used in any manner that
 competes with the business of Gaussian, Inc. or will provide
 assistance to any competitor of Gaussian, Inc.  The licensee
 of this program is prohibited from giving any competitor of
 Gaussian, Inc. access to this program.  By using this program,
 the user acknowledges that Gaussian, Inc. is engaged in the
 business of creating and licensing software in the field of
 computational chemistry and represents and warrants to the
 licensee that it is not a competitor of Gaussian, Inc. and that
 it will not use this program in any manner prohibited above.
 ---------------------------------------------------------------
  

 Cite this work as:
 Gaussian 16, Revision A.03,
 M. J. Frisch, G. W. Trucks, H. B. Schlegel, G. E. Scuseria, 
 M. A. Robb, J. R. Cheeseman, G. Scalmani, V. Barone, 
 G. A. Petersson, H. Nakatsuji, X. Li, M. Caricato, A. V. Marenich, 
 J. Bloino, B. G. Janesko, R. Gomperts, B. Mennucci, H. P. Hratchian, 
 J. V. Ortiz, A. F. Izmaylov, J. L. Sonnenberg, D. Williams-Young, 
 F. Ding, F. Lipparini, F. Egidi, J. Goings, B. Peng, A. Petrone, 
 T. Henderson, D. Ranasinghe, V. G. Zakrzewski, J. Gao, N. Rega, 
 G. Zheng, W. Liang, M. Hada, M. Ehara, K. Toyota, R. Fukuda, 
 J. Hasegawa, M. Ishida, T. Nakajima, Y. Honda, O. Kitao, H. Nakai, 
 T. Vreven, K. Throssell, J. A. Montgomery, Jr., J. E. Peralta, 
 F. Ogliaro, M. J. Bearpark, J. J. Heyd, E. N. Brothers, K. N. Kudin, 
 V. N. Staroverov, T. A. Keith, R. Kobayashi, J. Normand, 
 K. Raghavachari, A. P. Rendell, J. C. Burant, S. S. Iyengar, 
 J. Tomasi, M. Cossi, J. M. Millam, M. Klene, C. Adamo, R. Cammi, 
 J. W. Ochterski, R. L. Martin, K. Morokuma, O. Farkas, 
 J. B. Foresman, and D. J. Fox, Gaussian, Inc., Wallingford CT, 2016.
 
 ******************************************
 Gaussian 16:  ES64L-G16RevA.03 25-Dec-2016
                30-Apr-2018 
 ******************************************
 %mem=80GB
 %cpu=0-31
 SetSPE:  set environment variable "MP_BIND" = "yes"
 SetSPE:  set environment variable "MP_BLIST" = "0,1,2,3,4,5,6,7,8,9,10,11,12,13,14,15,16,17,18,19,20,21,22,23,24,25,26,27,28,29,30,31"
 Will use up to   32 processors via shared memory.
 %chk=5z.chk
 %rwf=/scratch/04843/gwang18/znh/
 ----------------------------------------------------------------------
 #P ROCCSD(T)=(MaxCyc=150, Full)/Gen SCF=(maxcycle=400, vshift=200) Pse
 udo=Read Integral(NoXCTest) Pop=Regular MaxDisk=500GB Guess=Read IOp(5
 /15=2)
 ----------------------------------------------------------------------
 1/38=1,172=1/1;
 2/12=2,17=6,18=5,40=1/2;
 3/5=7,11=2,16=1,17=8,25=1,30=1,47=8,116=101/1,2,3;
 4/5=1/1;
 5/5=2,7=400,10=200,15=2,38=6/2;
 8/5=-1,6=4,9=120000,10=90/1,4;
 9/5=7,6=150,14=2/13;
 6//1;
 99/5=1,9=1/99;
 Leave Link    1 at Mon Apr 30 05:46:07 2018, MaxMem= 10737418240 cpu:               8.7 elap:               0.3
 (Enter /home1/apps/gaussian/16rA.03/g16/l101.exe)
 ---
 ZnH
 ---
 Symbolic Z-matrix:
 Charge =  0 Multiplicity = 2
 Zn                    0.        0.        0. 
 H                     0.        0.        1.3 
 
 ITRead=  0  0
 MicOpt= -1 -1
 NAtoms=      2 NQM=        2 NQMF=       0 NMMI=      0 NMMIF=      0
                NMic=       0 NMicF=      0.
                    Isotopes and Nuclear Properties:
 (Nuclear quadrupole moments (NQMom) in fm**2, nuclear magnetic moments (NMagM)
  in nuclear magnetons)

  Atom         1           2
 IAtWgt=          64           1
 AtmWgt=  63.9291454   1.0078250
 NucSpn=           0           1
 AtZEff=  -0.0000000  -0.0000000
 NQMom=    0.0000000   0.0000000
 NMagM=    0.0000000   2.7928460
 AtZNuc=  30.0000000   1.0000000
 Leave Link  101 at Mon Apr 30 05:46:08 2018, MaxMem= 10737418240 cpu:               3.2 elap:               0.1
 (Enter /home1/apps/gaussian/16rA.03/g16/l202.exe)
                          Input orientation:                          
 ---------------------------------------------------------------------
 Center     Atomic      Atomic             Coordinates (Angstroms)
 Number     Number       Type             X           Y           Z
 ---------------------------------------------------------------------
      1         30           0        0.000000    0.000000    0.000000
      2          1           0        0.000000    0.000000    1.300000
 ---------------------------------------------------------------------
 Stoichiometry    HZn(2)
 Framework group  C*V[C*(HZn)]
 Deg. of freedom     1
 Full point group                 C*V     NOp   4
 Largest Abelian subgroup         C2V     NOp   4
 Largest concise Abelian subgroup C1      NOp   1
                         Standard orientation:                         
 ---------------------------------------------------------------------
 Center     Atomic      Atomic             Coordinates (Angstroms)
 Number     Number       Type             X           Y           Z
 ---------------------------------------------------------------------
      1         30           0        0.000000    0.000000    0.041935
      2          1           0        0.000000    0.000000   -1.258065
 ---------------------------------------------------------------------
 Rotational constants (GHZ):           0.0000000         301.3966884         301.3966884
 Leave Link  202 at Mon Apr 30 05:46:08 2018, MaxMem= 10737418240 cpu:               0.8 elap:               0.1
 (Enter /home1/apps/gaussian/16rA.03/g16/l301.exe)
 General basis read from cards:  (5D, 7F)
 Centers:       1
 S 1 1.00
     Exponent=  1.8741300000D+08 Coefficients=  1.0000000000D+00
 S 1 1.00
     Exponent=  3.3512700000D+07 Coefficients=  1.0000000000D+00
 S 1 1.00
     Exponent=  7.5047500000D+06 Coefficients=  1.0000000000D+00
 S 1 1.00
     Exponent=  2.0178700000D+06 Coefficients=  1.0000000000D+00
 S 1 1.00
     Exponent=  6.2857800000D+05 Coefficients=  1.0000000000D+00
 S 1 1.00
     Exponent=  2.2016300000D+05 Coefficients=  1.0000000000D+00
 S 1 1.00
     Exponent=  8.4595200000D+04 Coefficients=  1.0000000000D+00
 S 1 1.00
     Exponent=  3.4955500000D+04 Coefficients=  1.0000000000D+00
 S 1 1.00
     Exponent=  1.5290300000D+04 Coefficients=  1.0000000000D+00
 S 1 1.00
     Exponent=  6.9949300000D+03 Coefficients=  1.0000000000D+00
 S 1 1.00
     Exponent=  3.3165900000D+03 Coefficients=  1.0000000000D+00
 S 1 1.00
     Exponent=  1.6192400000D+03 Coefficients=  1.0000000000D+00
 S 1 1.00
     Exponent=  8.1034300000D+02 Coefficients=  1.0000000000D+00
 S 1 1.00
     Exponent=  4.1439300000D+02 Coefficients=  1.0000000000D+00
 S 1 1.00
     Exponent=  2.1605800000D+02 Coefficients=  1.0000000000D+00
 S 1 1.00
     Exponent=  1.1463500000D+02 Coefficients=  1.0000000000D+00
 S 1 1.00
     Exponent=  6.1762300000D+01 Coefficients=  1.0000000000D+00
 S 1 1.00
     Exponent=  3.3692400000D+01 Coefficients=  1.0000000000D+00
 S 1 1.00
     Exponent=  1.8531500000D+01 Coefficients=  1.0000000000D+00
 S 1 1.00
     Exponent=  1.0214400000D+01 Coefficients=  1.0000000000D+00
 S 1 1.00
     Exponent=  5.5942800000D+00 Coefficients=  1.0000000000D+00
 S 1 1.00
     Exponent=  3.0096800000D+00 Coefficients=  1.0000000000D+00
 S 1 1.00
     Exponent=  1.5668400000D+00 Coefficients=  1.0000000000D+00
 S 1 1.00
     Exponent=  7.8143700000D-01 Coefficients=  1.0000000000D+00
 S 1 1.00
     Exponent=  2.5811800000D-01 Coefficients=  1.0000000000D+00
 S 1 1.00
     Exponent=  1.3855600000D-01 Coefficients=  1.0000000000D+00
 S 1 1.00
     Exponent=  6.6171000000D-02 Coefficients=  1.0000000000D+00
 S 1 1.00
     Exponent=  3.0986000000D-02 Coefficients=  1.0000000000D+00
 S 1 1.00
     Exponent=  1.0450800000D+01 Coefficients=  1.0000000000D+00
 S 1 1.00
     Exponent=  3.9198000000D+00 Coefficients=  1.0000000000D+00
 S 1 1.00
     Exponent=  1.4510000000D-02 Coefficients=  1.0000000000D+00
 P 1 1.00
     Exponent=  1.1034900000D+05 Coefficients=  1.0000000000D+00
 P 1 1.00
     Exponent=  2.6971300000D+04 Coefficients=  1.0000000000D+00
 P 1 1.00
     Exponent=  8.5600700000D+03 Coefficients=  1.0000000000D+00
 P 1 1.00
     Exponent=  3.2488000000D+03 Coefficients=  1.0000000000D+00
 P 1 1.00
     Exponent=  1.3894100000D+03 Coefficients=  1.0000000000D+00
 P 1 1.00
     Exponent=  6.4304300000D+02 Coefficients=  1.0000000000D+00
 P 1 1.00
     Exponent=  3.1400500000D+02 Coefficients=  1.0000000000D+00
 P 1 1.00
     Exponent=  1.5948900000D+02 Coefficients=  1.0000000000D+00
 P 1 1.00
     Exponent=  8.3666200000D+01 Coefficients=  1.0000000000D+00
 P 1 1.00
     Exponent=  4.5157400000D+01 Coefficients=  1.0000000000D+00
 P 1 1.00
     Exponent=  2.4963000000D+01 Coefficients=  1.0000000000D+00
 P 1 1.00
     Exponent=  1.4004300000D+01 Coefficients=  1.0000000000D+00
 P 1 1.00
     Exponent=  7.8326700000D+00 Coefficients=  1.0000000000D+00
 P 1 1.00
     Exponent=  4.2841000000D+00 Coefficients=  1.0000000000D+00
 P 1 1.00
     Exponent=  2.2890100000D+00 Coefficients=  1.0000000000D+00
 P 1 1.00
     Exponent=  1.1943600000D+00 Coefficients=  1.0000000000D+00
 P 1 1.00
     Exponent=  5.9425800000D-01 Coefficients=  1.0000000000D+00
 P 1 1.00
     Exponent=  2.2691400000D-01 Coefficients=  1.0000000000D+00
 P 1 1.00
     Exponent=  9.0179000000D-02 Coefficients=  1.0000000000D+00
 P 1 1.00
     Exponent=  3.5718000000D-02 Coefficients=  1.0000000000D+00
 P 1 1.00
     Exponent=  1.4897100000D+01 Coefficients=  1.0000000000D+00
 P 1 1.00
     Exponent=  4.7100000000D+00 Coefficients=  1.0000000000D+00
 P 1 1.00
     Exponent=  1.4150000000D-02 Coefficients=  1.0000000000D+00
 D 1 1.00
     Exponent=  8.5412230000D+02 Coefficients=  1.0000000000D+00
 D 1 1.00
     Exponent=  2.5794960000D+02 Coefficients=  1.0000000000D+00
 D 1 1.00
     Exponent=  1.0023190000D+02 Coefficients=  1.0000000000D+00
 D 1 1.00
     Exponent=  4.4176210000D+01 Coefficients=  1.0000000000D+00
 D 1 1.00
     Exponent=  2.0784760000D+01 Coefficients=  1.0000000000D+00
 D 1 1.00
     Exponent=  1.0227560000D+01 Coefficients=  1.0000000000D+00
 D 1 1.00
     Exponent=  5.1512410000D+00 Coefficients=  1.0000000000D+00
 D 1 1.00
     Exponent=  2.5908470000D+00 Coefficients=  1.0000000000D+00
 D 1 1.00
     Exponent=  1.2858010000D+00 Coefficients=  1.0000000000D+00
 D 1 1.00
     Exponent=  6.2534400000D-01 Coefficients=  1.0000000000D+00
 D 1 1.00
     Exponent=  2.9394300000D-01 Coefficients=  1.0000000000D+00
 D 1 1.00
     Exponent=  1.2899700000D-01 Coefficients=  1.0000000000D+00
 D 1 1.00
     Exponent=  1.1593600000D+01 Coefficients=  1.0000000000D+00
 D 1 1.00
     Exponent=  7.2491000000D+00 Coefficients=  1.0000000000D+00
 D 1 1.00
     Exponent=  5.6610000000D-02 Coefficients=  1.0000000000D+00
 F 1 1.00
     Exponent=  1.7862800000D+01 Coefficients=  1.0000000000D+00
 F 1 1.00
     Exponent=  8.0392000000D+00 Coefficients=  1.0000000000D+00
 F 1 1.00
     Exponent=  3.6180000000D+00 Coefficients=  1.0000000000D+00
 F 1 1.00
     Exponent=  1.6283000000D+00 Coefficients=  1.0000000000D+00
 F 1 1.00
     Exponent=  5.7210000000D-01 Coefficients=  1.0000000000D+00
 F 1 1.00
     Exponent=  2.0101000000D-01 Coefficients=  1.0000000000D+00
 G 1 1.00
     Exponent=  1.2540600000D+01 Coefficients=  1.0000000000D+00
 G 1 1.00
     Exponent=  6.2306000000D+00 Coefficients=  1.0000000000D+00
 G 1 1.00
     Exponent=  3.0956000000D+00 Coefficients=  1.0000000000D+00
 G 1 1.00
     Exponent=  1.1951000000D+00 Coefficients=  1.0000000000D+00
 G 1 1.00
     Exponent=  4.6139000000D-01 Coefficients=  1.0000000000D+00
 H 1 1.00
     Exponent=  1.1226100000D+01 Coefficients=  1.0000000000D+00
 H 1 1.00
     Exponent=  5.5189000000D+00 Coefficients=  1.0000000000D+00
 H 1 1.00
     Exponent=  2.4250000000D+00 Coefficients=  1.0000000000D+00
 H 1 1.00
     Exponent=  1.0655400000D+00 Coefficients=  1.0000000000D+00
 I 1 1.00
     Exponent=  1.1018800000D+01 Coefficients=  1.0000000000D+00
 I 1 1.00
     Exponent=  5.5487000000D+00 Coefficients=  1.0000000000D+00
 I 1 1.00
     Exponent=  2.7941400000D+00 Coefficients=  1.0000000000D+00
 ****
 Centers:       2
 S 1 1.00
     Exponent=  4.0200000000D+02 Coefficients=  1.0000000000D+00
 S 1 1.00
     Exponent=  6.0240000000D+01 Coefficients=  1.0000000000D+00
 S 1 1.00
     Exponent=  1.3730000000D+01 Coefficients=  1.0000000000D+00
 S 1 1.00
     Exponent=  3.9050000000D+00 Coefficients=  1.0000000000D+00
 S 1 1.00
     Exponent=  1.2830000000D+00 Coefficients=  1.0000000000D+00
 S 1 1.00
     Exponent=  4.6550000000D-01 Coefficients=  1.0000000000D+00
 S 1 1.00
     Exponent=  1.8110000000D-01 Coefficients=  1.0000000000D+00
 S 1 1.00
     Exponent=  7.2790000000D-02 Coefficients=  1.0000000000D+00
 S 1 1.00
     Exponent=  2.0700000000D-02 Coefficients=  1.0000000000D+00
 P 1 1.00
     Exponent=  4.5160000000D+00 Coefficients=  1.0000000000D+00
 P 1 1.00
     Exponent=  1.7120000000D+00 Coefficients=  1.0000000000D+00
 P 1 1.00
     Exponent=  6.4900000000D-01 Coefficients=  1.0000000000D+00
 P 1 1.00
     Exponent=  2.4600000000D-01 Coefficients=  1.0000000000D+00
 P 1 1.00
     Exponent=  7.4400000000D-02 Coefficients=  1.0000000000D+00
 D 1 1.00
     Exponent=  2.9500000000D+00 Coefficients=  1.0000000000D+00
 D 1 1.00
     Exponent=  1.2060000000D+00 Coefficients=  1.0000000000D+00
 D 1 1.00
     Exponent=  4.9300000000D-01 Coefficients=  1.0000000000D+00
 D 1 1.00
     Exponent=  1.5600000000D-01 Coefficients=  1.0000000000D+00
 F 1 1.00
     Exponent=  2.5060000000D+00 Coefficients=  1.0000000000D+00
 F 1 1.00
     Exponent=  8.7500000000D-01 Coefficients=  1.0000000000D+00
 F 1 1.00
     Exponent=  2.7400000000D-01 Coefficients=  1.0000000000D+00
 G 1 1.00
     Exponent=  2.3580000000D+00 Coefficients=  1.0000000000D+00
 G 1 1.00
     Exponent=  5.4300000000D-01 Coefficients=  1.0000000000D+00
 ****
 ======================================================================================================
                                       Pseudopotential Parameters
 ======================================================================================================
  Center     Atomic      Valence      Angular      Power
  Number     Number     Electrons     Momentum     of R      Exponent        Coefficient   SO-Coeffient
 ======================================================================================================
    1         30           20
                                      G and up 
                                                     2        1.0000000        0.00000000    0.00000000
                                      S - G
                                                     2       34.1740010      399.98639900    0.00000000
                                                     2       14.4563710       85.48975000    0.00000000
                                      P - G
                                                     2       39.8886830       92.38107700    0.00000000
                                                     2       39.6550170      184.77117600    0.00000000
                                                     2       15.2905460       23.00254100    0.00000000
                                                     2       14.9035240       46.05742700    0.00000000
                                      D - G
                                                     2       43.7082960      -13.69073400    0.00000000
                                                     2       43.6985360      -20.54398000    0.00000000
                                                     2       15.1507180       -1.31615400    0.00000000
                                                     2       15.2824410       -1.83871500    0.00000000
                                      F - G
                                                     2        8.1600140       -0.37036000    0.00000000
                                                     2       12.2284220       -1.06294300    0.00000000
    2          1            1
                                      P and up 
                                                     2       21.7769666      -10.85192405    0.00000000
                                                     1       21.2435951        1.00000000    0.00000000
                                                     3       21.2435951       21.24359508    0.00000000
                                      S - P
                                                     2        1.0000000        0.00000000    0.00000000
 ======================================================================================================
 Ernie: Thresh=  0.10000D-02 Tol=  0.10000D-05 Strict=F.
 There are   248 symmetry adapted cartesian basis functions of A1  symmetry.
 There are    79 symmetry adapted cartesian basis functions of A2  symmetry.
 There are   137 symmetry adapted cartesian basis functions of B1  symmetry.
 There are   137 symmetry adapted cartesian basis functions of B2  symmetry.
 There are   169 symmetry adapted basis functions of A1  symmetry.
 There are    59 symmetry adapted basis functions of A2  symmetry.
 There are   100 symmetry adapted basis functions of B1  symmetry.
 There are   100 symmetry adapted basis functions of B2  symmetry.
   428 basis functions,   601 primitive gaussians,   601 cartesian basis functions
    11 alpha electrons       10 beta electrons
       nuclear repulsion energy         8.1411878603 Hartrees.
 IExCor=    0 DFT=F Ex=HF Corr=None ExCW=0 ScaHFX=  1.000000
 ScaDFX=  1.000000  1.000000  1.000000  1.000000 ScalE2=  1.000000  1.000000
 IRadAn=      5 IRanWt=     -1 IRanGd=            0 ICorTp=0 IEmpDi=  4
 NAtoms=    2 NActive=    2 NUniq=    2 SFac= 1.00D+00 NAtFMM=   60 NAOKFM=F Big=F
 Integral buffers will be    131072 words long.
 Raffenetti 2 integral format.
 Two-electron integral symmetry is turned on.
 Leave Link  301 at Mon Apr 30 05:46:09 2018, MaxMem= 10737418240 cpu:               9.8 elap:               0.3
 (Enter /home1/apps/gaussian/16rA.03/g16/l302.exe)
 NPDir=0 NMtPBC=     1 NCelOv=     1 NCel=       1 NClECP=     1 NCelD=      1
         NCelK=      1 NCelE2=     1 NClLst=     1 CellRange=     0.0.
 One-electron integrals computed using PRISM.
 One-electron integral symmetry used in STVInt
   4 Symmetry operations used in ECPInt.
 ECPInt:  NShTT=    6105 NPrTT=    6105 LenC2=    6009 LenP2D=    6008.
 LDataN:  DoStor=T MaxTD1=12 Len= 1566
 NBasis=   428 RedAO= T EigKep=  1.33D-06  NBF=   169    59   100   100
 NBsUse=   424 1.00D-06 EigRej=  1.04D-07 NBFU=   167    59    99    99
 Leave Link  302 at Mon Apr 30 05:46:25 2018, MaxMem= 10737418240 cpu:             496.5 elap:              15.6
 (Enter /home1/apps/gaussian/16rA.03/g16/l303.exe)
 DipDrv:  MaxL=1.
 Leave Link  303 at Mon Apr 30 05:46:26 2018, MaxMem= 10737418240 cpu:               4.9 elap:               0.3
 (Enter /home1/apps/gaussian/16rA.03/g16/l401.exe)
 Initial guess from the checkpoint file:  "5z.chk"
 B after Tr=     0.000000    0.000000    0.000000
         Rot=    1.000000    0.000000    0.000000    0.000000 Ang=   0.00 deg.
 Guess basis will be translated and rotated to current coordinates.
 JPrj=2 DoOrth=T DoCkMO=T.
 Initial guess orbital symmetries:
       Occupied  (SG) (SG) (PI) (PI) (SG) (DLTA) (DLTA) (PI) (PI)
                 (SG) (SG)
       Virtual   (PI) (PI) (SG) (SG) (PI) (PI) (SG) (SG) (PI) (PI)
                 (DLTA) (DLTA) (SG) (SG) (PI) (PI) (SG) (PI) (PI)
                 (SG) (SG) (PI) (PI) (DLTA) (DLTA) (SG) (DLTA)
                 (DLTA) (SG) (SG) (PI) (PI) (PI) (PI) (SG) (PI)
                 (PI) (PHI) (PHI) (DLTA) (DLTA) (SG) (PI) (PI)
                 (SG) (DLTA) (DLTA) (PHI) (PHI) (PI) (PI) (SG)
                 (PI) (PI) (DLTA) (DLTA) (SG) (SG) (DLTA) (DLTA)
                 (SG) (PI) (PI) (PI) (PI) (SG) (SG) (PHI) (PHI)
                 (PI) (PI) (DLTA) (DLTA) (PI) (PI) (DLTA) (DLTA)
                 (?A) (?A) (SG) (PHI) (PHI) (PI) (PI) (SG) (DLTA)
                 (DLTA) (SG) (PI) (PI) (SG) (PHI) (PHI) (SG) (DLTA)
                 (DLTA) (PI) (PI) (SG) (PI) (PI) (SG) (SG) (PHI)
                 (PHI) (PI) (PI) (DLTA) (DLTA) (PI) (PI) (DLTA)
                 (DLTA) (DLTA) (DLTA) (SG) (PI) (PI) (PI) (PI)
                 (SG) (SG) (?A) (?A) (SG) (PHI) (PHI) (DLTA) (DLTA)
                 (PI) (PI) (?B) (?B) (?A) (?A) (PHI) (PHI) (DLTA)
                 (DLTA) (SG) (PI) (PI) (SG) (DLTA) (DLTA) (PI)
                 (PI) (SG) (PI) (PI) (SG) (PHI) (PHI) (DLTA) (DLTA)
                 (PI) (PI) (SG) (SG) (?A) (?A) (PHI) (PHI) (DLTA)
                 (DLTA) (PI) (PI) (SG) (?B) (?B) (?A) (?A) (PHI)
                 (PHI) (DLTA) (DLTA) (SG) (PI) (PI) (SG) (DLTA)
                 (DLTA) (PI) (PI) (SG) (PI) (PI) (SG) (PHI) (PHI)
                 (DLTA) (DLTA) (PI) (PI) (SG) (SG) (DLTA) (DLTA)
                 (PI) (PI) (SG) (?A) (?A) (PHI) (PHI) (DLTA) (DLTA)
                 (PI) (PI) (SG) (?B) (?B) (?A) (?A) (PHI) (PHI)
                 (DLTA) (DLTA) (PI) (PI) (SG) (PI) (PI) (SG) (DLTA)
                 (DLTA) (PI) (PI) (SG) (SG) (PI) (PI) (SG) (DLTA)
                 (DLTA) (PI) (PI) (SG) (SG) (SG) (PI) (PI) (SG)
                 (DLTA) (DLTA) (PI) (PI) (SG) (SG) (PI) (PI) (SG)
                 (SG) (PI) (PI) (SG) (DLTA) (DLTA) (PI) (PI) (SG)
                 (SG) (PI) (PI) (SG) (SG) (DLTA) (DLTA) (PI) (PI)
                 (SG) (PI) (PI) (SG) (SG) (PI) (PI) (SG) (SG) (PI)
                 (PI) (SG) (SG) (PI) (PI) (SG) (SG) (PI) (PI) (SG)
                 (SG) (SG) (SG) (SG) (SG) (DLTA) (DLTA) (SG) (SG)
                 (SG) (SG) (DLTA) (SG) (SG) (SG) (DLTA) (SG) (DLTA)
                 (?A) (SG) (DLTA) (DLTA) (SG) (?A) (SG) (DLTA)
                 (?A) (SG) (DLTA) (SG) (SG) (DLTA) (SG) (SG) (SG)
                 (?A) (SG) (SG) (?A) (SG) (SG) (DLTA) (?A) (SG)
                 (SG) (?A) (SG) (SG) (DLTA) (DLTA) (DLTA) (DLTA)
                 (DLTA) (?A) (DLTA) (DLTA) (?A) (DLTA) (?A) (SG)
                 (DLTA) (DLTA) (?A) (?A) (DLTA) (?A) (SG) (SG)
                 (?A) (PI) (PI) (PI) (PHI) (PI) (PI) (PHI) (PI)
                 (PI) (PHI) (PI) (?B) (PI) (PHI) (PI) (?B) (PHI)
                 (PI) (PI) (PHI) (PHI) (PI) (PHI) (PI) (?B) (PHI)
                 (?B) (PI) (PI) (PI) (PHI) (PI) (PI) (PHI) (PI)
                 (PI) (PHI) (PI) (?B) (PI) (PHI) (PI) (?B) (PHI)
                 (PI) (PI) (PHI) (PHI) (PI) (PHI) (PI) (?B) (PHI)
                 (?B)
 The electronic state of the initial guess is 2-SG.
 Leave Link  401 at Mon Apr 30 05:46:28 2018, MaxMem= 10737418240 cpu:              40.5 elap:               1.5
 (Enter /home1/apps/gaussian/16rA.03/g16/l502.exe)
 Keep R1 and R2 ints in memory in symmetry-blocked form, NReq=5277864979.
 FoFCou: FMM=F IPFlag=           8 FMFlag=           0 FMFlg1=           0
         NFxFlg=           0 DoJE=F BraDBF=F KetDBF=F FulRan=T
         wScrn=  0.000000 ICntrl=       600 IOpCl=  0 I1Cent=           0 NGrid=           0
         NMat0=    1 NMatS0=  91806 NMatT0=    0 NMatD0=    1 NMtDS0=    0 NMtDT0=    0
 Petite list used in FoFCou.
 Restricted open shell SCF:
 Using DIIS extrapolation, IDIIS=  1040.
 NGot= 10737418240 LenX=  8609582347 LenY=  8609220545
 Requested convergence on RMS density matrix=1.00D-08 within 400 cycles.
 Requested convergence on MAX density matrix=1.00D-06.
 Requested convergence on             energy=1.00D-06.
 Virtual orbitals will be shifted by   0.200 hartree.
 No special actions if energy rises.

 Cycle   1  Pass 1  IDiag  1:
 E= -226.462814967412    
 DIIS: error= 1.83D+00 at cycle   1 NSaved=   1.
 NSaved= 1 IEnMin= 1 EnMin= -226.462814967412     IErMin= 1 ErrMin= 1.83D+00
 ErrMax= 1.83D+00  0.00D+00 EMaxC= 1.00D-01 BMatC= 6.34D+02 BMatP= 6.34D+02
 IDIUse=3 WtCom= 0.00D+00 WtEn= 1.00D+00
 Coeff-Com:  0.100D+01
 Coeff-En:   0.100D+01
 Coeff:      0.100D+01
 Gap=     0.090 Goal=   None    Shift=    0.200
 GapD=    0.090 DampG=0.500 DampE=0.125 DampFc=0.1250 IDamp=-1.
 Damping current iteration by 1.25D-01
 RMSDP=1.01D-03 MaxDP=9.80D-02              OVMax= 1.09D-03

 Cycle   2  Pass 1  IDiag  1:
 E= -226.462836127405     Delta-E=       -0.000021159993 Rises=F Damp=T
 DIIS: error= 1.60D+00 at cycle   2 NSaved=   2.
 NSaved= 2 IEnMin= 2 EnMin= -226.462836127405     IErMin= 2 ErrMin= 1.60D+00
 ErrMax= 1.60D+00  0.00D+00 EMaxC= 1.00D-01 BMatC= 4.86D+02 BMatP= 6.34D+02
 IDIUse=3 WtCom= 0.00D+00 WtEn= 1.00D+00
 Coeff-Com: -0.700D+01 0.800D+01
 Coeff-En:   0.000D+00 0.100D+01
 Coeff:      0.000D+00 0.100D+01
 Gap=     0.089 Goal=   None    Shift=    0.200
 RMSDP=8.89D-04 MaxDP=8.62D-02 DE=-2.12D-05 OVMax= 1.45D-04

 Cycle   3  Pass 1  IDiag  1:
 E= -226.462986571635     Delta-E=       -0.000150444229 Rises=F Damp=F
 DIIS: error= 7.97D-05 at cycle   3 NSaved=   3.
 NSaved= 3 IEnMin= 3 EnMin= -226.462986571635     IErMin= 3 ErrMin= 7.97D-05
 ErrMax= 7.97D-05  0.00D+00 EMaxC= 1.00D-01 BMatC= 4.91D-07 BMatP= 4.86D+02
 IDIUse=1 WtCom= 1.00D+00 WtEn= 0.00D+00
 Coeff-Com: -0.746D-01 0.852D-01 0.989D+00
 Coeff:     -0.746D-01 0.852D-01 0.989D+00
 Gap=     0.089 Goal=   None    Shift=    0.200
 RMSDP=3.14D-05 MaxDP=7.38D-03 DE=-1.50D-04 OVMax= 1.38D-04

 Cycle   4  Pass 1  IDiag  1:
 E= -226.462986738435     Delta-E=       -0.000000166801 Rises=F Damp=F
 DIIS: error= 6.03D-06 at cycle   4 NSaved=   4.
 NSaved= 4 IEnMin= 4 EnMin= -226.462986738435     IErMin= 4 ErrMin= 6.03D-06
 ErrMax= 6.03D-06  0.00D+00 EMaxC= 1.00D-01 BMatC= 6.49D-09 BMatP= 4.91D-07
 IDIUse=1 WtCom= 1.00D+00 WtEn= 0.00D+00
 Coeff-Com: -0.940D-01 0.107D+00-0.943D-01 0.108D+01
 Coeff:     -0.940D-01 0.107D+00-0.943D-01 0.108D+01
 Gap=     0.089 Goal=   None    Shift=    0.200
 RMSDP=5.19D-06 MaxDP=9.56D-04 DE=-1.67D-07 OVMax= 3.43D-05

 Cycle   5  Pass 1  IDiag  1:
 E= -226.462986745528     Delta-E=       -0.000000007092 Rises=F Damp=F
 DIIS: error= 4.13D-06 at cycle   5 NSaved=   5.
 NSaved= 5 IEnMin= 5 EnMin= -226.462986745528     IErMin= 5 ErrMin= 4.13D-06
 ErrMax= 4.13D-06  0.00D+00 EMaxC= 1.00D-01 BMatC= 8.03D-10 BMatP= 6.49D-09
 IDIUse=1 WtCom= 1.00D+00 WtEn= 0.00D+00
 Coeff-Com: -0.971D-01 0.111D+00-0.980D-02-0.288D+00 0.128D+01
 Coeff:     -0.971D-01 0.111D+00-0.980D-02-0.288D+00 0.128D+01
 Gap=     0.089 Goal=   None    Shift=    0.200
 RMSDP=1.21D-06 MaxDP=2.01D-04 DE=-7.09D-09 OVMax= 1.27D-05

 Cycle   6  Pass 1  IDiag  1:
 E= -226.462986746138     Delta-E=       -0.000000000610 Rises=F Damp=F
 DIIS: error= 3.75D-06 at cycle   6 NSaved=   6.
 NSaved= 6 IEnMin= 6 EnMin= -226.462986746138     IErMin= 6 ErrMin= 3.75D-06
 ErrMax= 3.75D-06  0.00D+00 EMaxC= 1.00D-01 BMatC= 5.22D-10 BMatP= 8.03D-10
 IDIUse=1 WtCom= 1.00D+00 WtEn= 0.00D+00
 Coeff-Com: -0.955D-01 0.109D+00-0.170D-01-0.664D-01 0.387D-01 0.103D+01
 Coeff:     -0.955D-01 0.109D+00-0.170D-01-0.664D-01 0.387D-01 0.103D+01
 Gap=     0.089 Goal=   None    Shift=    0.200
 RMSDP=3.47D-07 MaxDP=9.29D-05 DE=-6.10D-10 OVMax= 5.88D-06

 Cycle   7  Pass 1  IDiag  1:
 E= -226.462986746246     Delta-E=       -0.000000000109 Rises=F Damp=F
 DIIS: error= 3.60D-06 at cycle   7 NSaved=   7.
 NSaved= 7 IEnMin= 7 EnMin= -226.462986746246     IErMin= 7 ErrMin= 3.60D-06
 ErrMax= 3.60D-06  0.00D+00 EMaxC= 1.00D-01 BMatC= 4.73D-10 BMatP= 5.22D-10
 IDIUse=1 WtCom= 1.00D+00 WtEn= 0.00D+00
 Coeff-Com: -0.930D-01 0.106D+00-0.200D-01 0.189D-01-0.261D+00 0.464D+00
 Coeff-Com:  0.786D+00
 Coeff:     -0.930D-01 0.106D+00-0.200D-01 0.189D-01-0.261D+00 0.464D+00
 Coeff:      0.786D+00
 Gap=     0.089 Goal=   None    Shift=    0.200
 RMSDP=2.16D-07 MaxDP=6.87D-05 DE=-1.09D-10 OVMax= 3.12D-06

 Cycle   8  Pass 1  IDiag  1:
 E= -226.462986746302     Delta-E=       -0.000000000055 Rises=F Damp=F
 DIIS: error= 3.48D-06 at cycle   8 NSaved=   8.
 NSaved= 8 IEnMin= 8 EnMin= -226.462986746302     IErMin= 8 ErrMin= 3.48D-06
 ErrMax= 3.48D-06  0.00D+00 EMaxC= 1.00D-01 BMatC= 4.37D-10 BMatP= 4.73D-10
 IDIUse=1 WtCom= 1.00D+00 WtEn= 0.00D+00
 Coeff-Com: -0.887D-01 0.101D+00-0.182D-01-0.181D-01 0.481D-01-0.177D+00
 Coeff-Com: -0.189D+00 0.134D+01
 Coeff:     -0.887D-01 0.101D+00-0.182D-01-0.181D-01 0.481D-01-0.177D+00
 Coeff:     -0.189D+00 0.134D+01
 Gap=     0.089 Goal=   None    Shift=    0.200
 RMSDP=2.61D-07 MaxDP=8.53D-05 DE=-5.52D-11 OVMax= 2.22D-06

 Cycle   9  Pass 1  IDiag  1:
 E= -226.462986746358     Delta-E=       -0.000000000056 Rises=F Damp=F
 DIIS: error= 3.34D-06 at cycle   9 NSaved=   9.
 NSaved= 9 IEnMin= 9 EnMin= -226.462986746358     IErMin= 9 ErrMin= 3.34D-06
 ErrMax= 3.34D-06  0.00D+00 EMaxC= 1.00D-01 BMatC= 4.00D-10 BMatP= 4.37D-10
 IDIUse=1 WtCom= 1.00D+00 WtEn= 0.00D+00
 Coeff-Com: -0.838D-01 0.957D-01-0.167D-01-0.298D-01 0.102D+00-0.101D+00
 Coeff-Com: -0.245D+00-0.176D+00 0.145D+01
 Coeff:     -0.838D-01 0.957D-01-0.167D-01-0.298D-01 0.102D+00-0.101D+00
 Coeff:     -0.245D+00-0.176D+00 0.145D+01
 Gap=     0.089 Goal=   None    Shift=    0.200
 RMSDP=3.05D-07 MaxDP=9.97D-05 DE=-5.60D-11 OVMax= 2.06D-06

 Cycle  10  Pass 1  IDiag  1:
 E= -226.462986746419     Delta-E=       -0.000000000061 Rises=F Damp=F
 DIIS: error= 3.16D-06 at cycle  10 NSaved=  10.
 NSaved=10 IEnMin=10 EnMin= -226.462986746419     IErMin=10 ErrMin= 3.16D-06
 ErrMax= 3.16D-06  0.00D+00 EMaxC= 1.00D-01 BMatC= 3.59D-10 BMatP= 4.00D-10
 IDIUse=1 WtCom= 1.00D+00 WtEn= 0.00D+00
 Coeff-Com: -0.734D-01 0.839D-01-0.150D-01-0.121D-01-0.153D-01 0.125D+00
 Coeff-Com:  0.576D-01 0.223D-01-0.228D+01 0.311D+01
 Coeff:     -0.734D-01 0.839D-01-0.150D-01-0.121D-01-0.153D-01 0.125D+00
 Coeff:      0.576D-01 0.223D-01-0.228D+01 0.311D+01
 Gap=     0.089 Goal=   None    Shift=    0.200
 RMSDP=5.53D-07 MaxDP=1.80D-04 DE=-6.12D-11 OVMax= 3.36D-06

 Cycle  11  Pass 1  IDiag  1:
 E= -226.462986746520     Delta-E=       -0.000000000101 Rises=F Damp=F
 DIIS: error= 2.83D-06 at cycle  11 NSaved=  11.
 NSaved=11 IEnMin=11 EnMin= -226.462986746520     IErMin=11 ErrMin= 2.83D-06
 ErrMax= 2.83D-06  0.00D+00 EMaxC= 1.00D-01 BMatC= 2.87D-10 BMatP= 3.59D-10
 IDIUse=1 WtCom= 1.00D+00 WtEn= 0.00D+00
 Coeff-Com: -0.634D-01 0.724D-01-0.129D-01-0.102D-01-0.139D-01 0.820D-01
 Coeff-Com:  0.471D-01 0.213D+00-0.153D+01 0.547D+00 0.167D+01
 Coeff:     -0.634D-01 0.724D-01-0.129D-01-0.102D-01-0.139D-01 0.820D-01
 Coeff:      0.471D-01 0.213D+00-0.153D+01 0.547D+00 0.167D+01
 Gap=     0.089 Goal=   None    Shift=    0.200
 RMSDP=6.27D-07 MaxDP=2.05D-04 DE=-1.01D-10 OVMax= 4.00D-06

 Cycle  12  Pass 1  IDiag  1:
 E= -226.462986746624     Delta-E=       -0.000000000105 Rises=F Damp=F
 DIIS: error= 2.47D-06 at cycle  12 NSaved=  12.
 NSaved=12 IEnMin=12 EnMin= -226.462986746624     IErMin=12 ErrMin= 2.47D-06
 ErrMax= 2.47D-06  0.00D+00 EMaxC= 1.00D-01 BMatC= 2.19D-10 BMatP= 2.87D-10
 IDIUse=1 WtCom= 1.00D+00 WtEn= 0.00D+00
 Large coefficients: NSaved= 12 BigCof=   10.74 CofMax=   10.00 Det=-7.92D-15
 Inversion failed.  Reducing to 11 matrices.
 Large coefficients: NSaved= 11 BigCof=   12.77 CofMax=   10.00 Det=-1.06D-14
 Inversion failed.  Reducing to 10 matrices.
 Large coefficients: NSaved= 10 BigCof=   12.77 CofMax=   10.00 Det=-1.07D-14
 Inversion failed.  Reducing to  9 matrices.
 Large coefficients: NSaved=  9 BigCof=   12.77 CofMax=   10.00 Det=-1.07D-14
 Inversion failed.  Reducing to  8 matrices.
 Large coefficients: NSaved=  8 BigCof=   12.86 CofMax=   10.00 Det=-1.11D-14
 Inversion failed.  Reducing to  7 matrices.
 Large coefficients: NSaved=  7 BigCof=   12.87 CofMax=   10.00 Det=-1.12D-14
 Inversion failed.  Reducing to  6 matrices.
 Large coefficients: NSaved=  6 BigCof=   12.86 CofMax=   10.00 Det=-1.12D-14
 Inversion failed.  Reducing to  5 matrices.
 Large coefficients: NSaved=  5 BigCof=   12.88 CofMax=   10.00 Det=-1.12D-14
 Inversion failed.  Reducing to  4 matrices.
 Large coefficients: NSaved=  4 BigCof=   12.94 CofMax=   10.00 Det=-1.13D-14
 Inversion failed.  Reducing to  3 matrices.
 Large coefficients: NSaved=  3 BigCof=   12.84 CofMax=   10.00 Det=-1.14D-14
 Inversion failed.  Reducing to  2 matrices.
 Coeff-Com: -0.680D+01 0.780D+01
 Coeff:     -0.680D+01 0.780D+01
 Gap=     0.089 Goal=   None    Shift=    0.200
 RMSDP=2.97D-06 MaxDP=9.70D-04 DE=-1.05D-10 OVMax= 1.71D-05

 Cycle  13  Pass 1  IDiag  1:
 E= -226.462986746919     Delta-E=       -0.000000000295 Rises=F Damp=F
 DIIS: error= 6.52D-07 at cycle  13 NSaved=   3.
 NSaved= 3 IEnMin= 3 EnMin= -226.462986746919     IErMin= 3 ErrMin= 6.52D-07
 ErrMax= 6.52D-07  0.00D+00 EMaxC= 1.00D-01 BMatC= 1.96D-11 BMatP= 2.19D-10
 IDIUse=1 WtCom= 1.00D+00 WtEn= 0.00D+00
 Large coefficients: NSaved=  3 BigCof=   10.72 CofMax=   10.00 Det=-7.73D-14
 Inversion failed.  Reducing to  2 matrices.
 Coeff-Com: -0.277D+00 0.128D+01
 Coeff:     -0.277D+00 0.128D+01
 Gap=     0.089 Goal=   None    Shift=    0.200
 RMSDP=1.06D-06 MaxDP=3.49D-04 DE=-2.95D-10 OVMax= 9.09D-06

 Cycle  14  Pass 1  IDiag  1:
 E= -226.462986746969     Delta-E=       -0.000000000050 Rises=F Damp=F
 DIIS: error= 1.60D-07 at cycle  14 NSaved=   3.
 NSaved= 3 IEnMin= 3 EnMin= -226.462986746969     IErMin= 3 ErrMin= 1.60D-07
 ErrMax= 1.60D-07  0.00D+00 EMaxC= 1.00D-01 BMatC= 1.75D-12 BMatP= 1.96D-11
 IDIUse=1 WtCom= 1.00D+00 WtEn= 0.00D+00
 Coeff-Com:  0.314D-01-0.486D+00 0.145D+01
 Coeff:      0.314D-01-0.486D+00 0.145D+01
 Gap=     0.089 Goal=   None    Shift=    0.200
 RMSDP=2.33D-07 MaxDP=7.61D-05 DE=-4.98D-11 OVMax= 2.14D-06

 Cycle  15  Pass 1  IDiag  1:
 E= -226.462986746973     Delta-E=       -0.000000000004 Rises=F Damp=F
 DIIS: error= 6.05D-08 at cycle  15 NSaved=   4.
 NSaved= 4 IEnMin= 4 EnMin= -226.462986746973     IErMin= 4 ErrMin= 6.05D-08
 ErrMax= 6.05D-08  0.00D+00 EMaxC= 1.00D-01 BMatC= 4.35D-13 BMatP= 1.75D-12
 IDIUse=1 WtCom= 1.00D+00 WtEn= 0.00D+00
 Coeff-Com:  0.208D-01-0.250D+00 0.278D+00 0.951D+00
 Coeff:      0.208D-01-0.250D+00 0.278D+00 0.951D+00
 Gap=     0.089 Goal=   None    Shift=    0.200
 RMSDP=8.59D-08 MaxDP=2.82D-05 DE=-4.09D-12 OVMax= 1.13D-06

 Cycle  16  Pass 1  IDiag  1:
 E= -226.462986746975     Delta-E=       -0.000000000001 Rises=F Damp=F
 DIIS: error= 2.84D-08 at cycle  16 NSaved=   5.
 NSaved= 5 IEnMin= 5 EnMin= -226.462986746975     IErMin= 5 ErrMin= 2.84D-08
 ErrMax= 2.84D-08  0.00D+00 EMaxC= 1.00D-01 BMatC= 1.46D-13 BMatP= 4.35D-13
 IDIUse=1 WtCom= 1.00D+00 WtEn= 0.00D+00
 Coeff-Com:  0.710D-02-0.541D-01-0.186D+00 0.301D+00 0.931D+00
 Coeff:      0.710D-02-0.541D-01-0.186D+00 0.301D+00 0.931D+00
 Gap=     0.089 Goal=   None    Shift=    0.200
 RMSDP=3.59D-08 MaxDP=1.17D-05 DE=-1.39D-12 OVMax= 6.02D-07

 Cycle  17  Pass 1  IDiag  1:
 E= -226.462986746974     Delta-E=        0.000000000000 Rises=F Damp=F
 DIIS: error= 2.08D-08 at cycle  17 NSaved=   6.
 NSaved= 6 IEnMin= 5 EnMin= -226.462986746975     IErMin= 6 ErrMin= 2.08D-08
 ErrMax= 2.08D-08  0.00D+00 EMaxC= 1.00D-01 BMatC= 6.37D-14 BMatP= 1.46D-13
 IDIUse=1 WtCom= 1.00D+00 WtEn= 0.00D+00
 Coeff-Com:  0.218D-03 0.199D-01-0.190D+00-0.876D-01 0.463D+00 0.794D+00
 Coeff:      0.218D-03 0.199D-01-0.190D+00-0.876D-01 0.463D+00 0.794D+00
 Gap=     0.089 Goal=   None    Shift=    0.200
 RMSDP=1.58D-08 MaxDP=4.97D-06 DE= 1.71D-13 OVMax= 2.86D-07

 Cycle  18  Pass 1  IDiag  1:
 E= -226.462986746974     Delta-E=        0.000000000000 Rises=F Damp=F
 DIIS: error= 1.31D-08 at cycle  18 NSaved=   7.
 NSaved= 7 IEnMin= 5 EnMin= -226.462986746975     IErMin= 7 ErrMin= 1.31D-08
 ErrMax= 1.31D-08  0.00D+00 EMaxC= 1.00D-01 BMatC= 3.08D-14 BMatP= 6.37D-14
 IDIUse=1 WtCom= 1.00D+00 WtEn= 0.00D+00
 Coeff-Com:  0.204D-02-0.612D-02-0.966D-01-0.301D-02 0.305D+00 0.179D+00
 Coeff-Com:  0.619D+00
 Coeff:      0.204D-02-0.612D-02-0.966D-01-0.301D-02 0.305D+00 0.179D+00
 Coeff:      0.619D+00
 Gap=     0.089 Goal=   None    Shift=    0.200
 RMSDP=6.39D-09 MaxDP=2.08D-06 DE= 3.69D-13 OVMax= 1.48D-07

 Cycle  19  Pass 1  IDiag  1:
 E= -226.462986746974     Delta-E=       -0.000000000000 Rises=F Damp=F
 DIIS: error= 9.78D-09 at cycle  19 NSaved=   8.
 NSaved= 8 IEnMin= 5 EnMin= -226.462986746975     IErMin= 8 ErrMin= 9.78D-09
 ErrMax= 9.78D-09  0.00D+00 EMaxC= 1.00D-01 BMatC= 1.58D-14 BMatP= 3.08D-14
 IDIUse=1 WtCom= 1.00D+00 WtEn= 0.00D+00
 Coeff-Com:  0.539D-03 0.770D-02-0.104D+00-0.984D-02 0.269D+00 0.594D-01
 Coeff-Com:  0.251D+00 0.527D+00
 Coeff:      0.539D-03 0.770D-02-0.104D+00-0.984D-02 0.269D+00 0.594D-01
 Coeff:      0.251D+00 0.527D+00
 Gap=     0.089 Goal=   None    Shift=    0.200
 RMSDP=3.20D-09 MaxDP=9.76D-07 DE=-3.13D-13 OVMax= 7.43D-08

 SCF Done:  E(ROHF) =  -226.462986747     A.U. after   19 cycles
            NFock= 19  Conv=0.32D-08     -V/T= 2.4703
 <Sx>= 0.0000 <Sy>= 0.0000 <Sz>= 0.5000 <S**2>= 0.7500 S= 0.5000
 <L.S>=  0.00000000000    
 KE= 1.540278033700D+02 PE=-5.783929403392D+02 EE= 1.897609623619D+02
 Annihilation of the first spin contaminant:
 S**2 before annihilation     0.7500,   after     0.7500
 Leave Link  502 at Mon Apr 30 05:49:47 2018, MaxMem= 10737418240 cpu:            5539.3 elap:             199.3
 (Enter /home1/apps/gaussian/16rA.03/g16/l801.exe)
 Windowed orbitals will be sorted by symmetry type.
 GenMOA:  NOpAll=  4 NOp2=4 NOpUse=  4 JSym2X=1
 FoFJK:  IHMeth= 1 ICntrl=       0 DoSepK=F KAlg= 0 I1Cent=           0 FoldK=F
 IRaf=         0 NMat=       1 IRICut=       1 DoRegI=T DoRafI=F ISym2E= 1 IDoP0=0 IntGTp=1.
 FoFCou: FMM=F IPFlag=           8 FMFlag=      100000 FMFlg1=           0
         NFxFlg=           0 DoJE=F BraDBF=F KetDBF=F FulRan=T
         wScrn=  0.000000 ICntrl=         0 IOpCl=  1 I1Cent=           0 NGrid=           0
         NMat0=    1 NMatS0=      1 NMatT0=    0 NMatD0=    1 NMtDS0=    0 NMtDT0=    0
 Petite list used in FoFCou.
 <Sx>= 0.0000 <Sy>= 0.0000 <Sz>= 0.5000 <S**2>= 0.7500 S= 0.5000
 Range of M.O.s used for correlation:     1   424
 NBasis=   428 NAE=    11 NBE=    10 NFC=     0 NFV=     0
 NROrb=    424 NOA=    11 NOB=    10 NVA=   413 NVB=   414

 **** Warning!!: The largest alpha MO coefficient is  0.32506461D+03


 **** Warning!!: The largest beta MO coefficient is  0.32506283D+03

 Singles contribution to E2=   -0.8179599445D-03
 Leave Link  801 at Mon Apr 30 05:50:47 2018, MaxMem= 10737418240 cpu:            1882.1 elap:              58.9
 (Enter /home1/apps/gaussian/16rA.03/g16/l804.exe)
 Open-shell transformation, MDV= 10737418240 ITran=4 ISComp=2.
 Unit  1 TFree=       5552152 TCopy=       4066026.
 Semi-Direct transformation.
 ModeAB=           2 MOrb=            11 LenV=   10731955357
 LASXX=    104488099 LTotXX=   104488099 LenRXX=   104488099
 LTotAB=   105441286 MaxLAS=   843722264 LenRXY=   843722264
 NonZer=   858134024 LenScr=  1292249088 LnRSAI=           0
 LnScr1=           0 LExtra=    31418729 Total=   2271878180
 MaxDsk= 67108864000 SrtSym=           F ITran=            4
 DoSDTr:  NPSUse= 32
 JobTyp=1 Pass  1:  I=   1 to  11.
 (rs|ai) integrals will be sorted in core.
 Complete sort for first half transformation.
 First half transformation complete.
 Begin second half transformation for I=  10.
 Begin second half transformation for I=  10.
 Complete sort for second half transformation.
 Second half transformation complete.
 ModeAB=           2 MOrb=            10 LenV=   10731955357
 LASXX=     94955716 LTotXX=    94955716 LenRXX=   767020240
 LTotAB=    90848451 MaxLAS=   767020240 LenRXY=    90848451
 NonZer=   780121840 LenScr=  1174772736 LnRSAI=           0
 LnScr1=           0 LExtra=   979629092 Total=   3012270519
 MaxDsk= 67108864000 SrtSym=           F ITran=            4
 DoSDTr:  NPSUse= 32
 JobTyp=2 Pass  1:  I=   1 to  10.
 (rs|ai) integrals will be sorted in core.
 Complete sort for first half transformation.
 First half transformation complete.
 Begin second half transformation for I=  10.
 Begin second half transformation for I=  10.
 Complete sort for second half transformation.
 Second half transformation complete.
 Spin components of T(2) and E(2):
     alpha-alpha T2 =       0.1899747310D-01 E2=     -0.1720438693D+00
     alpha-beta  T2 =       0.7928607952D-01 E2=     -0.7892243678D+00
     beta-beta   T2 =       0.1642187338D-01 E2=     -0.1635615024D+00
 ANorm=    0.1056157730D+01
 E2 =    -0.1125647700D+01 EUMP2 =    -0.22758863444653D+03
 (S**2,0)=  0.75000D+00           (S**2,1)=  0.75000D+00
 E(PUHF)=      -0.22646298675D+03        E(PMP2)=      -0.22758863445D+03
 Leave Link  804 at Mon Apr 30 06:27:46 2018, MaxMem= 10737418240 cpu:           70974.8 elap:            2218.5
 (Enter /home1/apps/gaussian/16rA.03/g16/l913.exe)
 CIDS:  MDV= 10737418240.
 IFCWin=0 IBDFC=1 NFBD=     0     0 NFCmp=     0     0 NFFFC=     0     0
 Using original routines for 1st iteration.
 Using DD4UQ or CC4UQ for 2nd and later iterations.
 Keep R2 and R3 ints in memory in symmetry-blocked form, NReq=5277888631.
 FoFCou: FMM=F IPFlag=           8 FMFlag=           0 FMFlg1=           0
         NFxFlg=           0 DoJE=F BraDBF=F KetDBF=F FulRan=T
         wScrn=  0.000000 ICntrl=       600 IOpCl=  0 I1Cent=           0 NGrid=           0
         NMat0=    1 NMatS0=  91806 NMatT0=    0 NMatD0=    1 NMtDS0=    0 NMtDT0=    0
 Petite list used in FoFCou.
 CIDS: In Core Option IDoMem=           1.
 CCSD(T)
 =======
 Iterations= 150 Convergence= 0.100D-06
 Produce multiple copies of IABC intergrals
 Iteration Nr.   1
 **********************
 DD1Dir will call FoFMem   1 times, MxPair=       320
 NAB=   110 NAA=    55 NBB=    45.
 DD1Dir will call FoFMem   1 times, MxPair=       320
 NAB=   110 NAA=    55 NBB=    45.
 MP4(R+Q)= -0.14356287D+00
 Maximum subspace dimension=  5
 A-vector RMS=  7.2000725D-05 Max=  1.1231397D-03 conv= 1.00D-05.
 RLE energy=       -1.1309542135
 E3=        0.13823188D+00        EROMP3=      -0.22745040256D+03
 E4(SDQ)=  -0.83600231D-01        ROMP4(SDQ)=  -0.22753400280D+03
 VARIATIONAL ENERGIES WITH THE FIRST-ORDER WAVEFUNCTION:
 DE(Corr)=  -1.1309295     E(Corr)=     -227.59391627    
 NORM(A)=   0.10562818D+01
 Iteration Nr.   2
 **********************
 DD1Dir will call FoFMem   1 times, MxPair=       320
 NAB=   110 NAA=    55 NBB=    45.
 A-vector RMS=  2.3331124D-03 Max=  2.4713854D-02 conv= 1.00D-05.
 RLE energy=       -1.1096394312
 DE(Corr)= -0.98688600     E(CORR)=     -227.44987275     Delta= 1.44D-01
 NORM(A)=   0.10536208D+01
 Iteration Nr.   3
 **********************
 DD1Dir will call FoFMem   1 times, MxPair=       320
 NAB=   110 NAA=    55 NBB=    45.
 A-vector RMS=  1.8807116D-03 Max=  2.2096647D-02 conv= 1.00D-05.
 RLE energy=       -1.0670137779
 DE(Corr)= -0.99608659     E(CORR)=     -227.45907334     Delta=-9.20D-03
 NORM(A)=   0.10520399D+01
 Iteration Nr.   4
 **********************
 DD1Dir will call FoFMem   1 times, MxPair=       320
 NAB=   110 NAA=    55 NBB=    45.
 A-vector RMS=  1.1149847D-03 Max=  1.4990426D-02 conv= 1.00D-05.
 RLE energy=       -0.9731022638
 DE(Corr)=  -1.0178682     E(CORR)=     -227.48085499     Delta=-2.18D-02
 NORM(A)=   0.10678663D+01
 Iteration Nr.   5
 **********************
 DD1Dir will call FoFMem   1 times, MxPair=       320
 NAB=   110 NAA=    55 NBB=    45.
 A-vector RMS=  1.6007062D-03 Max=  1.4929961D-02 conv= 1.00D-05.
 RLE energy=       -1.0362114817
 DE(Corr)=  -1.0764189     E(CORR)=     -227.53940563     Delta=-5.86D-02
 NORM(A)=   0.10606809D+01
 Iteration Nr.   6
 **********************
 DD1Dir will call FoFMem   1 times, MxPair=       320
 NAB=   110 NAA=    55 NBB=    45.
 A-vector RMS=  1.1189301D-04 Max=  1.4895097D-03 conv= 1.00D-05.
 RLE energy=       -1.0387205250
 DE(Corr)=  -1.0401712     E(CORR)=     -227.50315798     Delta= 3.62D-02
 NORM(A)=   0.10598909D+01
 Iteration Nr.   7
 **********************
 DD1Dir will call FoFMem   1 times, MxPair=       320
 NAB=   110 NAA=    55 NBB=    45.
 A-vector RMS=  5.0366751D-05 Max=  1.3516979D-03 conv= 1.00D-05.
 RLE energy=       -1.0382034907
 DE(Corr)=  -1.0382282     E(CORR)=     -227.50121492     Delta= 1.94D-03
 NORM(A)=   0.10603520D+01
 Iteration Nr.   8
 **********************
 DD1Dir will call FoFMem   1 times, MxPair=       320
 NAB=   110 NAA=    55 NBB=    45.
 A-vector RMS=  3.1686805D-05 Max=  5.2383541D-04 conv= 1.00D-05.
 RLE energy=       -1.0383656605
 DE(Corr)=  -1.0384913     E(CORR)=     -227.50147803     Delta=-2.63D-04
 NORM(A)=   0.10604924D+01
 Iteration Nr.   9
 **********************
 DD1Dir will call FoFMem   1 times, MxPair=       320
 NAB=   110 NAA=    55 NBB=    45.
 A-vector RMS=  1.4045228D-05 Max=  1.7461808D-04 conv= 1.00D-05.
 RLE energy=       -1.0384113601
 DE(Corr)=  -1.0383881     E(CORR)=     -227.50137485     Delta= 1.03D-04
 NORM(A)=   0.10605898D+01
 Iteration Nr.  10
 **********************
 DD1Dir will call FoFMem   1 times, MxPair=       320
 NAB=   110 NAA=    55 NBB=    45.
 A-vector RMS=  5.5247708D-06 Max=  9.9027970D-05 conv= 1.00D-05.
 RLE energy=       -1.0384090795
 DE(Corr)=  -1.0384119     E(CORR)=     -227.50139868     Delta=-2.38D-05
 NORM(A)=   0.10605782D+01
 Iteration Nr.  11
 **********************
 DD1Dir will call FoFMem   1 times, MxPair=       320
 NAB=   110 NAA=    55 NBB=    45.
 A-vector RMS=  2.8672372D-06 Max=  5.8375343D-05 conv= 1.00D-05.
 RLE energy=       -1.0383992577
 DE(Corr)=  -1.0384063     E(CORR)=     -227.50139309     Delta= 5.59D-06
 NORM(A)=   0.10605597D+01
 Iteration Nr.  12
 **********************
 DD1Dir will call FoFMem   1 times, MxPair=       320
 NAB=   110 NAA=    55 NBB=    45.
 A-vector RMS=  9.0056504D-07 Max=  2.2422271D-05 conv= 1.00D-05.
 RLE energy=       -1.0384043192
 DE(Corr)=  -1.0384049     E(CORR)=     -227.50139167     Delta= 1.42D-06
 NORM(A)=   0.10605560D+01
 Iteration Nr.  13
 **********************
 DD1Dir will call FoFMem   1 times, MxPair=       320
 NAB=   110 NAA=    55 NBB=    45.
 A-vector RMS=  4.5520651D-07 Max=  9.8654413D-06 conv= 1.00D-05.
 RLE energy=       -1.0384013360
 DE(Corr)=  -1.0384015     E(CORR)=     -227.50138821     Delta= 3.46D-06
 NORM(A)=   0.10605548D+01
 Iteration Nr.  14
 **********************
 DD1Dir will call FoFMem   1 times, MxPair=       320
 NAB=   110 NAA=    55 NBB=    45.
 A-vector RMS=  2.5520706D-07 Max=  5.7775953D-06 conv= 1.00D-05.
 RLE energy=       -1.0384011272
 DE(Corr)=  -1.0384018     E(CORR)=     -227.50138858     Delta=-3.68D-07
 NORM(A)=   0.10605548D+01
 Iteration Nr.  15
 **********************
 DD1Dir will call FoFMem   1 times, MxPair=       320
 NAB=   110 NAA=    55 NBB=    45.
 A-vector RMS=  8.9497878D-08 Max=  1.4494818D-06 conv= 1.00D-05.
 RLE energy=       -1.0384018370
 DE(Corr)=  -1.0384019     E(CORR)=     -227.50138864     Delta=-6.19D-08
 NORM(A)=   0.10605554D+01
 CI/CC converged in   15 iterations to DelEn=-6.19D-08 Conv= 1.00D-07 ErrA1= 8.95D-08 Conv= 1.00D-05
 Wavefunction amplitudes converged. E(Corr)=     -227.50138864    
 Largest amplitude= 6.21D-02
 Time for triples=   206568.82 seconds.
 T4(CCSD)= -0.32751493D-01
 T5(CCSD)=  0.31865433D-02
 CCSD(T)= -0.22753095359D+03
 Discarding MO integrals.
 Leave Link  913 at Mon Apr 30 08:35:51 2018, MaxMem= 10737418240 cpu:          244681.0 elap:            7684.5
 (Enter /home1/apps/gaussian/16rA.03/g16/l601.exe)
 Copying SCF densities to generalized density rwf, IOpCl= 0 IROHF=1.

 **********************************************************************

            Population analysis using the SCF density.

 **********************************************************************

 Orbital symmetries:
       Occupied  (SG) (SG) (PI) (PI) (SG) (DLTA) (DLTA) (PI) (PI)
                 (SG) (SG)
       Virtual   (PI) (PI) (SG) (SG) (SG) (PI) (PI) (SG) (SG) (DLTA)
                 (DLTA) (PI) (PI) (SG) (PI) (PI) (SG) (PI) (PI)
                 (SG) (SG) (SG) (PI) (PI) (DLTA) (DLTA) (DLTA)
                 (DLTA) (SG) (SG) (PI) (PI) (PI) (PI) (PHI) (PHI)
                 (PI) (PI) (SG) (DLTA) (DLTA) (SG) (PI) (PI) (SG)
                 (SG) (DLTA) (DLTA) (PHI) (PHI) (SG) (PI) (PI)
                 (PI) (PI) (DLTA) (DLTA) (SG) (SG) (DLTA) (DLTA)
                 (PI) (PI) (PI) (PI) (?A) (?A) (SG) (PHI) (PHI)
                 (DLTA) (DLTA) (PHI) (PHI) (PI) (PI) (SG) (SG)
                 (SG) (PI) (PI) (DLTA) (DLTA) (DLTA) (DLTA) (PI)
                 (PI) (?A) (?A) (SG) (PI) (PI) (PHI) (PHI) (SG)
                 (DLTA) (DLTA) (SG) (SG) (PI) (PI) (PHI) (PHI)
                 (SG) (DLTA) (DLTA) (SG) (PI) (PI) (DLTA) (DLTA)
                 (PI) (PI) (PHI) (PHI) (PI) (PI) (?B) (?B) (SG)
                 (DLTA) (DLTA) (?A) (?A) (SG) (?A) (?A) (PI) (PI)
                 (PHI) (PHI) (DLTA) (DLTA) (PI) (PI) (SG) (DLTA)
                 (DLTA) (SG) (PHI) (PHI) (PI) (PI) (PI) (PI) (SG)
                 (DLTA) (DLTA) (SG) (PI) (PI) (SG) (SG) (SG) (PI)
                 (PI) (PI) (PI) (PHI) (PHI) (SG) (DLTA) (DLTA)
                 (?A) (?A) (PHI) (PHI) (SG) (DLTA) (DLTA) (PI)
                 (PI) (PHI) (PHI) (DLTA) (DLTA) (DLTA) (DLTA) (SG)
                 (PI) (PI) (DLTA) (DLTA) (SG) (PI) (PI) (SG) (PI)
                 (PI) (?A) (?A) (PHI) (PHI) (?B) (?B) (?A) (?A)
                 (PHI) (PHI) (DLTA) (DLTA) (SG) (DLTA) (DLTA) (PI)
                 (PI) (SG) (PI) (PI) (PI) (PI) (SG) (SG) (SG) (?B)
                 (?B) (?A) (?A) (PHI) (PHI) (DLTA) (DLTA) (SG)
                 (SG) (PI) (PI) (SG) (DLTA) (DLTA) (PI) (PI) (SG)
                 (PI) (PI) (SG) (PHI) (PHI) (DLTA) (DLTA) (PI)
                 (PI) (?A) (?A) (PHI) (PHI) (SG) (DLTA) (DLTA)
                 (PI) (PI) (SG) (?B) (?B) (?A) (?A) (PHI) (PHI)
                 (DLTA) (DLTA) (PI) (PI) (SG) (SG) (SG) (SG) (SG)
                 (?B) (?B) (?A) (?A) (PHI) (PHI) (DLTA) (DLTA)
                 (PI) (PI) (SG) (DLTA) (DLTA) (PI) (PI) (SG) (PI)
                 (PI) (SG) (?A) (?A) (PHI) (PHI) (DLTA) (DLTA)
                 (PI) (PI) (SG) (SG) (PHI) (PHI) (DLTA) (DLTA)
                 (?B) (?B) (?A) (?A) (PI) (PI) (PHI) (PHI) (SG)
                 (DLTA) (DLTA) (PI) (PI) (SG) (DLTA) (DLTA) (PI)
                 (PI) (SG) (SG) (SG) (?B) (?B) (?A) (?A) (PHI)
                 (PHI) (DLTA) (DLTA) (PI) (PI) (SG) (PI) (PI) (SG)
                 (DLTA) (DLTA) (PI) (PI) (SG) (SG) (SG) (PI) (PI)
                 (SG) (SG) (DLTA) (DLTA) (PI) (PI) (SG) (PI) (PI)
                 (SG) (SG) (DLTA) (DLTA) (PI) (PI) (SG) (PI) (PI)
                 (SG) (SG) (SG) (PI) (PI) (SG) (SG) (DLTA) (DLTA)
                 (PI) (PI) (SG) (PI) (PI) (SG) (SG) (PI) (PI) (SG)
                 (SG) (DLTA) (DLTA) (PI) (PI) (SG) (PI) (PI) (SG)
                 (SG) (SG) (PI) (PI) (SG) (SG) (PI) (PI) (SG) (SG)
                 (PI) (PI) (SG) (SG) (SG) (PI) (PI) (SG) (SG) (SG)
                 (SG) (SG) (SG) (SG)
 The electronic state is 2-SG.
 Alpha  occ. eigenvalues --   -5.90402  -3.97688  -3.97339  -3.97339  -0.81731
 Alpha  occ. eigenvalues --   -0.80197  -0.80197  -0.79994  -0.79994  -0.48468
 Alpha  occ. eigenvalues --   -0.26898
 Alpha virt. eigenvalues --    0.01965   0.01965   0.02184   0.03369   0.06407
 Alpha virt. eigenvalues --    0.06407   0.06924   0.11849   0.14018   0.15324
 Alpha virt. eigenvalues --    0.15324   0.15524   0.15524   0.18973   0.20678
 Alpha virt. eigenvalues --    0.20678   0.24067   0.26531   0.26531   0.36515
 Alpha virt. eigenvalues --    0.39387   0.42855   0.44260   0.44260   0.47088
 Alpha virt. eigenvalues --    0.47088   0.55308   0.55308   0.56422   0.60349
 Alpha virt. eigenvalues --    0.63742   0.63742   0.65813   0.65813   0.75576
 Alpha virt. eigenvalues --    0.75576   0.86634   0.86634   0.87700   0.89108
 Alpha virt. eigenvalues --    0.89108   0.98524   1.05625   1.05625   1.07338
 Alpha virt. eigenvalues --    1.15288   1.20590   1.20590   1.25350   1.25350
 Alpha virt. eigenvalues --    1.28032   1.37347   1.37347   1.44964   1.44964
 Alpha virt. eigenvalues --    1.46987   1.46987   1.48512   1.77266   1.85556
 Alpha virt. eigenvalues --    1.85556   1.95452   1.95452   2.14889   2.14889
 Alpha virt. eigenvalues --    2.16801   2.16801   2.20153   2.26902   2.26902
 Alpha virt. eigenvalues --    2.35166   2.35166   2.37249   2.37249   2.38070
 Alpha virt. eigenvalues --    2.38070   2.42464   2.55919   2.70350   2.78946
 Alpha virt. eigenvalues --    2.78946   2.83854   2.83854   2.94836   2.94836
 Alpha virt. eigenvalues --    2.97642   2.97642   2.99746   2.99746   3.01023
 Alpha virt. eigenvalues --    3.24996   3.24996   3.43027   3.43027   3.49284
 Alpha virt. eigenvalues --    3.54164   3.54164   3.60210   3.73815   3.78155
 Alpha virt. eigenvalues --    3.78155   4.18979   4.18979   4.56973   4.72447
 Alpha virt. eigenvalues --    4.72447   5.02184   5.13125   5.13125   5.48028
 Alpha virt. eigenvalues --    5.48028   5.50113   5.50113   5.86028   5.86028
 Alpha virt. eigenvalues --    5.86384   5.86384   5.95732   5.95774   5.95774
 Alpha virt. eigenvalues --    6.04314   6.04314   6.04991   6.04991   6.06453
 Alpha virt. eigenvalues --    6.14113   6.14113   6.19974   6.19974   6.22001
 Alpha virt. eigenvalues --    6.22001   6.33408   6.33408   6.41879   6.41879
 Alpha virt. eigenvalues --    6.48611   6.52679   6.52679   6.55370   6.57363
 Alpha virt. eigenvalues --    6.57363   6.63405   6.63405   7.32261   7.32261
 Alpha virt. eigenvalues --    7.45919   7.54291   7.54291   7.86551   8.72996
 Alpha virt. eigenvalues --    8.72996   8.75617   9.71142  11.10868  12.77790
 Alpha virt. eigenvalues --   12.77790  12.89778  12.89778  12.94121  12.94121
 Alpha virt. eigenvalues --   12.97268  12.99364  12.99364  13.17326  13.17326
 Alpha virt. eigenvalues --   13.23069  13.23079  13.23079  13.27685  13.27685
 Alpha virt. eigenvalues --   13.59059  13.59059  13.61077  13.61077  13.72509
 Alpha virt. eigenvalues --   13.72509  13.76356  13.76356  13.83117  13.94877
 Alpha virt. eigenvalues --   13.94877  14.20481  14.20481  14.33321  14.40535
 Alpha virt. eigenvalues --   14.40535  14.92702  14.95588  14.95588  15.00143
 Alpha virt. eigenvalues --   15.00143  15.07980  15.07980  15.12734  15.12734
 Alpha virt. eigenvalues --   15.17174  15.17174  15.40494  15.40494  15.41075
 Alpha virt. eigenvalues --   15.41075  15.69150  15.72914  15.72914  16.05660
 Alpha virt. eigenvalues --   16.05660  16.38614  16.55976  16.55976  17.55487
 Alpha virt. eigenvalues --   17.55487  17.70445  17.79262  17.79262  17.79578
 Alpha virt. eigenvalues --   17.79578  17.80200  17.80200  17.87506  17.87506
 Alpha virt. eigenvalues --   18.46983  18.46983  19.20688  19.74898  19.94686
 Alpha virt. eigenvalues --   19.94686  20.69279  25.61277  25.61277  25.72784
 Alpha virt. eigenvalues --   25.72784  26.00544  26.54989  26.54989  27.89952
 Alpha virt. eigenvalues --   31.40400  31.40400  31.54512  31.54512  31.95200
 Alpha virt. eigenvalues --   31.95200  32.94468  32.94468  32.99120  32.99120
 Alpha virt. eigenvalues --   33.11858  33.17199  33.17199  33.77724  33.77724
 Alpha virt. eigenvalues --   33.82285  34.31094  34.31094  34.33711  34.33711
 Alpha virt. eigenvalues --   34.46989  34.46989  34.64967  34.64967  34.77442
 Alpha virt. eigenvalues --   34.77442  34.94896  35.32183  37.74332  40.89186
 Alpha virt. eigenvalues --   40.89186  40.89471  40.89471  40.89863  40.89863
 Alpha virt. eigenvalues --   40.92366  40.92366  41.09631  41.09631  41.53244
 Alpha virt. eigenvalues --   41.53244  41.67874  46.08895  46.08895  46.19807
 Alpha virt. eigenvalues --   46.19807  46.62690  49.97132  49.97132  51.34071
 Alpha virt. eigenvalues --   70.43308  70.43308  70.46851  70.46851  70.59709
 Alpha virt. eigenvalues --   70.59709  71.02689  71.02689  71.22225  72.42337
 Alpha virt. eigenvalues --   74.23096  74.23096  74.30779  74.30779  74.45751
 Alpha virt. eigenvalues --   74.45751  74.47650  74.47650  74.50312  74.50312
 Alpha virt. eigenvalues --   74.56501  74.56501  74.66329  74.71334  74.71334
 Alpha virt. eigenvalues --   74.87498  74.87498  75.68180  78.31618  78.31618
 Alpha virt. eigenvalues --   78.42261  78.42261  78.93814  86.56053  86.56053
 Alpha virt. eigenvalues --   86.56496  86.56496  86.56909  86.56909  86.58341
 Alpha virt. eigenvalues --   86.58341  86.67310  86.67310  86.90464  86.90464
 Alpha virt. eigenvalues --   86.94845  90.21941  90.21941  91.63763 129.25286
 Alpha virt. eigenvalues --  129.25286 129.34984 129.34984 129.75913 136.71086
 Alpha virt. eigenvalues --  140.12851 160.49911 160.49911 161.87748 218.16513
 Alpha virt. eigenvalues --  222.20755 222.20755 222.29600 222.29600 222.67397
 Alpha virt. eigenvalues --  279.08420 279.08420 280.38055 327.30040 440.25816
 Alpha virt. eigenvalues --  440.25816 440.33196 440.33196 440.65112 481.80091
 Alpha virt. eigenvalues --  481.80091 483.10033 560.23946 817.66077 852.90765
 Alpha virt. eigenvalues --  852.90765 854.21842 984.407171065.496951065.49695
 Alpha virt. eigenvalues -- 1065.553281065.553281065.809181566.565741566.56574
 Alpha virt. eigenvalues -- 1567.856891771.734093019.531413019.531413020.76019
 Alpha virt. eigenvalues -- 3295.932943337.668313337.668313337.705393337.70539
 Alpha virt. eigenvalues -- 3337.876646189.851966189.851966190.987426360.95185
 Alpha virt. eigenvalues -- **************************************************
 Alpha virt. eigenvalues -- **************************************************
 Alpha virt. eigenvalues -- **************************************************
 Alpha virt. eigenvalues -- **************************************************
 Alpha virt. eigenvalues -- ******************************
     Molecular Orbital Coefficients:
                           6         7         8         9        10
                           O         O         O         O         O
     Eigenvalues --    -0.80197  -0.80197  -0.79994  -0.79994  -0.48468
   1 1   Zn 1S          0.00000   0.00000   0.00000   0.00000  -0.00000
   2        2S         -0.00000   0.00000   0.00000   0.00000  -0.00000
   3        3S          0.00000   0.00000   0.00000   0.00000  -0.00000
   4        4S         -0.00000   0.00000   0.00000   0.00000  -0.00000
   5        5S         -0.00000   0.00000   0.00000   0.00000  -0.00000
   6        6S         -0.00000   0.00000   0.00000   0.00000  -0.00000
   7        7S         -0.00000   0.00000   0.00000   0.00000  -0.00000
   8        8S          0.00000   0.00000   0.00000   0.00000  -0.00000
   9        9S         -0.00000   0.00000   0.00000   0.00000  -0.00000
  10       10S          0.00000   0.00000   0.00000   0.00000  -0.00000
  11       11S         -0.00000   0.00000   0.00000   0.00000  -0.00001
  12       12S          0.00000   0.00000   0.00000   0.00000  -0.00000
  13       13S         -0.00000   0.00000   0.00000   0.00000  -0.00006
  14       14S          0.00000   0.00000   0.00000   0.00000   0.00003
  15       15S         -0.00000   0.00000   0.00000   0.00000  -0.00027
  16       16S          0.00000   0.00000   0.00000   0.00000   0.00042
  17       17S         -0.00000   0.00000   0.00000   0.00000   0.00058
  18       18S         -0.00000   0.00000   0.00000   0.00000  -0.01662
  19       19S          0.00000   0.00000   0.00000   0.00000   0.02454
  20       20S          0.00000   0.00000   0.00000   0.00000   0.03266
  21       21S         -0.00000   0.00000   0.00000   0.00000   0.00170
  22       22S         -0.00000   0.00000   0.00000   0.00000  -0.08626
  23       23S         -0.00000   0.00000   0.00000   0.00000  -0.17055
  24       24S         -0.00000   0.00000   0.00000   0.00000  -0.10377
  25       25S         -0.00000   0.00000   0.00000   0.00000   0.12178
  26       26S          0.00000   0.00000   0.00000   0.00000   0.23827
  27       27S          0.00000   0.00000   0.00000   0.00000   0.14724
  28       28S          0.00000   0.00000   0.00000   0.00000   0.00159
  29       29S          0.00000   0.00000   0.00000   0.00000   0.03494
  30       30S          0.00000   0.00000   0.00000   0.00000  -0.02112
  31       31S         -0.00000   0.00000   0.00000   0.00000  -0.00002
  32       32PX         0.00000   0.00000   0.00000  -0.00000   0.00000
  33       32PY         0.00000   0.00000  -0.00000   0.00000   0.00000
  34       32PZ         0.00000   0.00000   0.00000   0.00000   0.00000
  35       33PX         0.00000   0.00000   0.00000   0.00000   0.00000
  36       33PY         0.00000   0.00000   0.00000   0.00000   0.00000
  37       33PZ        -0.00000   0.00000   0.00000   0.00000  -0.00000
  38       34PX         0.00000   0.00000   0.00000  -0.00000   0.00000
  39       34PY         0.00000   0.00000  -0.00000   0.00000   0.00000
  40       34PZ         0.00000   0.00000   0.00000   0.00000   0.00000
  41       35PX         0.00000   0.00000   0.00000   0.00000   0.00000
  42       35PY         0.00000   0.00000   0.00000   0.00000   0.00000
  43       35PZ        -0.00000   0.00000   0.00000   0.00000  -0.00000
  44       36PX         0.00000   0.00000   0.00000  -0.00000   0.00000
  45       36PY         0.00000   0.00000  -0.00000   0.00000   0.00000
  46       36PZ         0.00000   0.00000   0.00000   0.00000   0.00000
  47       37PX         0.00000   0.00000   0.00000   0.00000   0.00000
  48       37PY         0.00000   0.00000   0.00000   0.00000   0.00000
  49       37PZ        -0.00000   0.00000   0.00000   0.00000  -0.00001
  50       38PX         0.00000   0.00000   0.00000  -0.00000   0.00000
  51       38PY         0.00000   0.00000  -0.00000   0.00000   0.00000
  52       38PZ         0.00000   0.00000   0.00000   0.00000   0.00005
  53       39PX         0.00000   0.00000   0.00000   0.00000   0.00000
  54       39PY         0.00000   0.00000   0.00000   0.00000   0.00000
  55       39PZ        -0.00000   0.00000   0.00000   0.00000  -0.00008
  56       40PX         0.00000   0.00000   0.00000  -0.00001   0.00000
  57       40PY         0.00000   0.00000  -0.00001   0.00000   0.00000
  58       40PZ         0.00000   0.00000   0.00000   0.00000   0.00041
  59       41PX         0.00000   0.00000   0.00000   0.00002   0.00000
  60       41PY         0.00000   0.00000   0.00002   0.00000   0.00000
  61       41PZ        -0.00000   0.00000   0.00000   0.00000   0.00003
  62       42PX         0.00000   0.00000   0.00000  -0.00007   0.00000
  63       42PY         0.00000   0.00000  -0.00007   0.00000   0.00000
  64       42PZ        -0.00000   0.00000   0.00000   0.00000  -0.00355
  65       43PX         0.00000   0.00000   0.00000  -0.00075   0.00000
  66       43PY         0.00000   0.00000  -0.00075   0.00000   0.00000
  67       43PZ         0.00000   0.00000   0.00000   0.00000   0.00308
  68       44PX         0.00000   0.00000   0.00000   0.00001   0.00000
  69       44PY         0.00000   0.00000   0.00001   0.00000   0.00000
  70       44PZ         0.00000   0.00000   0.00000   0.00000   0.00792
  71       45PX         0.00000   0.00000   0.00000  -0.00146   0.00000
  72       45PY         0.00000   0.00000  -0.00146   0.00000   0.00000
  73       45PZ         0.00000   0.00000   0.00000   0.00000   0.03483
  74       46PX         0.00000   0.00000   0.00000   0.00023   0.00000
  75       46PY         0.00000   0.00000   0.00023   0.00000   0.00000
  76       46PZ         0.00000   0.00000   0.00000   0.00000   0.04848
  77       47PX         0.00000   0.00000   0.00000  -0.00026   0.00000
  78       47PY         0.00000   0.00000  -0.00026   0.00000   0.00000
  79       47PZ         0.00000   0.00000   0.00000   0.00000   0.04057
  80       48PX         0.00000   0.00000   0.00000   0.00022   0.00000
  81       48PY         0.00000   0.00000   0.00022   0.00000   0.00000
  82       48PZ         0.00000   0.00000   0.00000   0.00000  -0.00977
  83       49PX         0.00000   0.00000   0.00000  -0.00078   0.00000
  84       49PY         0.00000   0.00000  -0.00078   0.00000   0.00000
  85       49PZ        -0.00000   0.00000   0.00000   0.00000  -0.08540
  86       50PX         0.00000   0.00000   0.00000   0.00014   0.00000
  87       50PY         0.00000   0.00000   0.00014   0.00000   0.00000
  88       50PZ        -0.00000   0.00000   0.00000   0.00000  -0.06822
  89       51PX         0.00000   0.00000   0.00000   0.00039   0.00000
  90       51PY         0.00000   0.00000   0.00039   0.00000   0.00000
  91       51PZ        -0.00000   0.00000   0.00000   0.00000  -0.00815
  92       52PX         0.00000   0.00000   0.00000   0.00079   0.00000
  93       52PY         0.00000   0.00000   0.00079   0.00000   0.00000
  94       52PZ        -0.00000   0.00000   0.00000   0.00000  -0.01072
  95       53PX         0.00000   0.00000   0.00000   0.00127   0.00000
  96       53PY         0.00000   0.00000   0.00127   0.00000   0.00000
  97       53PZ        -0.00000   0.00000   0.00000   0.00000   0.00425
  98       54PX         0.00000   0.00000   0.00000  -0.00007   0.00000
  99       54PY         0.00000   0.00000  -0.00007   0.00000   0.00000
 100       54PZ        -0.00000   0.00000   0.00000   0.00000   0.00018
 101       55D 0        0.00000   0.00000   0.00000   0.00000  -0.00002
 102       55D+1        0.00000   0.00000   0.00000   0.00006   0.00000
 103       55D-1        0.00000   0.00000   0.00006   0.00000   0.00000
 104       55D+2        0.00006   0.00000   0.00000   0.00000  -0.00000
 105       55D-2        0.00000   0.00006   0.00000   0.00000   0.00000
 106       56D 0        0.00000   0.00000   0.00000   0.00000  -0.00015
 107       56D+1        0.00000   0.00000   0.00000   0.00064   0.00000
 108       56D-1        0.00000   0.00000   0.00064   0.00000   0.00000
 109       56D+2        0.00064   0.00000   0.00000   0.00000  -0.00000
 110       56D-2        0.00000   0.00064   0.00000   0.00000   0.00000
 111       57D 0        0.00000   0.00000   0.00000   0.00000  -0.00115
 112       57D+1        0.00000   0.00000   0.00000   0.00477   0.00000
 113       57D-1        0.00000   0.00000   0.00477   0.00000   0.00000
 114       57D+2        0.00478   0.00000   0.00000   0.00000  -0.00000
 115       57D-2        0.00000   0.00478   0.00000   0.00000   0.00000
 116       58D 0        0.00000   0.00000   0.00000   0.00000  -0.00601
 117       58D+1        0.00000   0.00000   0.00000   0.02496   0.00000
 118       58D-1        0.00000   0.00000   0.02496   0.00000   0.00000
 119       58D+2        0.02502   0.00000   0.00000   0.00000  -0.00000
 120       58D-2        0.00000   0.02502   0.00000   0.00000   0.00000
 121       59D 0        0.00000   0.00000   0.00000   0.00000  -0.01715
 122       59D+1        0.00000   0.00000   0.00000   0.07149   0.00000
 123       59D-1        0.00000   0.00000   0.07149   0.00000   0.00000
 124       59D+2        0.07160   0.00000   0.00000   0.00000  -0.00000
 125       59D-2        0.00000   0.07160   0.00000   0.00000   0.00000
 126       60D 0        0.00000   0.00000   0.00000   0.00000  -0.03516
 127       60D+1        0.00000   0.00000   0.00000   0.15427   0.00000
 128       60D-1        0.00000   0.00000   0.15427   0.00000   0.00000
 129       60D+2        0.15324   0.00000   0.00000   0.00000   0.00000
 130       60D-2        0.00000   0.15324   0.00000   0.00000   0.00000
 131       61D 0        0.00000   0.00000   0.00000   0.00000  -0.05820
 132       61D+1        0.00000   0.00000   0.00000   0.24571   0.00000
 133       61D-1        0.00000   0.00000   0.24571   0.00000   0.00000
 134       61D+2        0.24565   0.00000   0.00000   0.00000   0.00000
 135       61D-2        0.00000   0.24565   0.00000   0.00000   0.00000
 136       62D 0        0.00000   0.00000   0.00000   0.00000  -0.06989
 137       62D+1        0.00000   0.00000   0.00000   0.28956   0.00000
 138       62D-1        0.00000   0.00000   0.28956   0.00000   0.00000
 139       62D+2        0.29035   0.00000   0.00000   0.00000  -0.00000
 140       62D-2        0.00000   0.29035   0.00000   0.00000   0.00000
 141       63D 0        0.00000   0.00000   0.00000   0.00000  -0.06247
 142       63D+1        0.00000   0.00000   0.00000   0.26917   0.00000
 143       63D-1        0.00000   0.00000   0.26917   0.00000   0.00000
 144       63D+2        0.26940   0.00000   0.00000   0.00000  -0.00000
 145       63D-2        0.00000   0.26940   0.00000   0.00000   0.00000
 146       64D 0        0.00000   0.00000   0.00000   0.00000  -0.04454
 147       64D+1        0.00000   0.00000   0.00000   0.19241   0.00000
 148       64D-1        0.00000   0.00000   0.19241   0.00000   0.00000
 149       64D+2        0.19371   0.00000   0.00000   0.00000  -0.00000
 150       64D-2        0.00000   0.19371   0.00000   0.00000   0.00000
 151       65D 0        0.00000   0.00000   0.00000   0.00000  -0.01632
 152       65D+1        0.00000   0.00000   0.00000   0.09200   0.00000
 153       65D-1        0.00000   0.00000   0.09200   0.00000   0.00000
 154       65D+2        0.09248   0.00000   0.00000   0.00000   0.00000
 155       65D-2        0.00000   0.09248   0.00000   0.00000   0.00000
 156       66D 0        0.00000   0.00000   0.00000   0.00000   0.00124
 157       66D+1        0.00000   0.00000   0.00000   0.01937   0.00000
 158       66D-1        0.00000   0.00000   0.01937   0.00000   0.00000
 159       66D+2        0.01796   0.00000   0.00000   0.00000  -0.00000
 160       66D-2        0.00000   0.01796   0.00000   0.00000   0.00000
 161       67D 0        0.00000   0.00000   0.00000   0.00000  -0.00167
 162       67D+1        0.00000   0.00000   0.00000   0.00140   0.00000
 163       67D-1        0.00000   0.00000   0.00140   0.00000   0.00000
 164       67D+2        0.00229   0.00000   0.00000   0.00000  -0.00000
 165       67D-2        0.00000   0.00229   0.00000   0.00000   0.00000
 166       68D 0        0.00000   0.00000   0.00000   0.00000  -0.00140
 167       68D+1        0.00000   0.00000   0.00000   0.00026   0.00000
 168       68D-1        0.00000   0.00000   0.00026   0.00000   0.00000
 169       68D+2        0.00117   0.00000   0.00000   0.00000  -0.00000
 170       68D-2        0.00000   0.00117   0.00000   0.00000   0.00000
 171       69D 0        0.00000   0.00000   0.00000   0.00000   0.00413
 172       69D+1        0.00000   0.00000   0.00000   0.00015   0.00000
 173       69D-1        0.00000   0.00000   0.00015   0.00000   0.00000
 174       69D+2       -0.00002   0.00000   0.00000   0.00000   0.00000
 175       69D-2        0.00000  -0.00002   0.00000   0.00000   0.00000
 176       70F 0        0.00000   0.00000   0.00000   0.00000  -0.00003
 177       70F+1        0.00000   0.00000   0.00000   0.00003   0.00000
 178       70F-1        0.00000   0.00000   0.00003   0.00000   0.00000
 179       70F+2        0.00003   0.00000   0.00000   0.00000  -0.00000
 180       70F-2        0.00000   0.00003   0.00000   0.00000   0.00000
 181       70F+3        0.00000   0.00000   0.00000   0.00000   0.00000
 182       70F-3        0.00000   0.00000   0.00000   0.00000   0.00000
 183       71F 0        0.00000   0.00000   0.00000   0.00000  -0.00023
 184       71F+1        0.00000   0.00000   0.00000   0.00010   0.00000
 185       71F-1        0.00000   0.00000   0.00010   0.00000   0.00000
 186       71F+2        0.00011   0.00000   0.00000   0.00000   0.00000
 187       71F-2        0.00000   0.00011   0.00000   0.00000   0.00000
 188       71F+3        0.00000   0.00000   0.00000   0.00000   0.00000
 189       71F-3        0.00000   0.00000   0.00000   0.00000   0.00000
 190       72F 0        0.00000   0.00000   0.00000   0.00000  -0.00043
 191       72F+1        0.00000   0.00000   0.00000   0.00028   0.00000
 192       72F-1        0.00000   0.00000   0.00028   0.00000   0.00000
 193       72F+2        0.00020   0.00000   0.00000   0.00000  -0.00000
 194       72F-2        0.00000   0.00020   0.00000   0.00000   0.00000
 195       72F+3        0.00000   0.00000   0.00000   0.00000   0.00000
 196       72F-3        0.00000   0.00000   0.00000   0.00000   0.00000
 197       73F 0       -0.00000   0.00000   0.00000   0.00000  -0.00209
 198       73F+1        0.00000   0.00000   0.00000   0.00033   0.00000
 199       73F-1        0.00000   0.00000   0.00033   0.00000   0.00000
 200       73F+2        0.00051   0.00000   0.00000   0.00000   0.00000
 201       73F-2        0.00000   0.00051   0.00000   0.00000   0.00000
 202       73F+3        0.00000   0.00000   0.00000   0.00000   0.00000
 203       73F-3        0.00000   0.00000   0.00000   0.00000   0.00000
 204       74F 0       -0.00000   0.00000   0.00000   0.00000  -0.00312
 205       74F+1        0.00000   0.00000   0.00000   0.00052   0.00000
 206       74F-1        0.00000   0.00000   0.00052   0.00000   0.00000
 207       74F+2        0.00078   0.00000   0.00000   0.00000  -0.00000
 208       74F-2        0.00000   0.00078   0.00000   0.00000   0.00000
 209       74F+3        0.00000   0.00000   0.00000  -0.00000   0.00000
 210       74F-3        0.00000   0.00000  -0.00000   0.00000   0.00000
 211       75F 0       -0.00000   0.00000   0.00000   0.00000  -0.00194
 212       75F+1        0.00000   0.00000   0.00000  -0.00011   0.00000
 213       75F-1        0.00000   0.00000  -0.00011   0.00000   0.00000
 214       75F+2        0.00008   0.00000   0.00000   0.00000  -0.00000
 215       75F-2        0.00000   0.00008   0.00000   0.00000   0.00000
 216       75F+3        0.00000   0.00000   0.00000  -0.00000   0.00000
 217       75F-3        0.00000   0.00000  -0.00000   0.00000   0.00000
 218       76G 0       -0.00000   0.00000   0.00000   0.00000   0.00002
 219       76G+1        0.00000   0.00000   0.00000  -0.00003   0.00000
 220       76G-1        0.00000   0.00000  -0.00003   0.00000   0.00000
 221       76G+2       -0.00002   0.00000   0.00000   0.00000   0.00000
 222       76G-2        0.00000  -0.00002   0.00000   0.00000   0.00000
 223       76G+3        0.00000   0.00000   0.00000  -0.00000   0.00000
 224       76G-3        0.00000   0.00000  -0.00000   0.00000   0.00000
 225       76G+4        0.00000   0.00000   0.00000   0.00000  -0.00000
 226       76G-4        0.00000  -0.00000   0.00000   0.00000   0.00000
 227       77G 0       -0.00000   0.00000   0.00000   0.00000  -0.00001
 228       77G+1        0.00000   0.00000   0.00000  -0.00006   0.00000
 229       77G-1        0.00000   0.00000  -0.00006   0.00000   0.00000
 230       77G+2       -0.00004   0.00000   0.00000   0.00000  -0.00000
 231       77G-2        0.00000  -0.00004   0.00000   0.00000   0.00000
 232       77G+3        0.00000   0.00000   0.00000  -0.00000   0.00000
 233       77G-3        0.00000   0.00000  -0.00000   0.00000   0.00000
 234       77G+4       -0.00000   0.00000   0.00000   0.00000   0.00000
 235       77G-4        0.00000  -0.00000   0.00000   0.00000   0.00000
 236       78G 0        0.00000   0.00000   0.00000   0.00000   0.00019
 237       78G+1        0.00000   0.00000   0.00000  -0.00006   0.00000
 238       78G-1        0.00000   0.00000  -0.00006   0.00000   0.00000
 239       78G+2       -0.00004   0.00000   0.00000   0.00000   0.00000
 240       78G-2        0.00000  -0.00004   0.00000   0.00000   0.00000
 241       78G+3        0.00000   0.00000   0.00000  -0.00000   0.00000
 242       78G-3        0.00000   0.00000  -0.00000   0.00000   0.00000
 243       78G+4        0.00000   0.00000   0.00000   0.00000  -0.00000
 244       78G-4        0.00000  -0.00000   0.00000   0.00000   0.00000
 245       79G 0       -0.00000   0.00000   0.00000   0.00000   0.00041
 246       79G+1        0.00000   0.00000   0.00000  -0.00014   0.00000
 247       79G-1        0.00000   0.00000  -0.00014   0.00000   0.00000
 248       79G+2       -0.00025   0.00000   0.00000   0.00000  -0.00000
 249       79G-2        0.00000  -0.00025   0.00000   0.00000   0.00000
 250       79G+3        0.00000   0.00000   0.00000   0.00000   0.00000
 251       79G-3        0.00000   0.00000   0.00000   0.00000   0.00000
 252       79G+4        0.00000   0.00000   0.00000   0.00000   0.00000
 253       79G-4        0.00000   0.00000   0.00000   0.00000   0.00000
 254       80G 0       -0.00000   0.00000   0.00000   0.00000   0.00042
 255       80G+1        0.00000   0.00000   0.00000  -0.00099   0.00000
 256       80G-1        0.00000   0.00000  -0.00099   0.00000   0.00000
 257       80G+2       -0.00078   0.00000   0.00000   0.00000   0.00000
 258       80G-2        0.00000  -0.00078   0.00000   0.00000   0.00000
 259       80G+3        0.00000   0.00000   0.00000   0.00000   0.00000
 260       80G-3        0.00000   0.00000   0.00000   0.00000   0.00000
 261       80G+4       -0.00000   0.00000   0.00000   0.00000  -0.00000
 262       80G-4        0.00000   0.00000   0.00000   0.00000   0.00000
 263       81H 0       -0.00000   0.00000   0.00000   0.00000  -0.00000
 264       81H+1        0.00000   0.00000   0.00000  -0.00000   0.00000
 265       81H-1        0.00000   0.00000  -0.00000   0.00000   0.00000
 266       81H+2        0.00000   0.00000   0.00000   0.00000   0.00000
 267       81H-2        0.00000   0.00000   0.00000   0.00000   0.00000
 268       81H+3        0.00000   0.00000   0.00000  -0.00000   0.00000
 269       81H-3        0.00000   0.00000  -0.00000   0.00000   0.00000
 270       81H+4       -0.00000   0.00000   0.00000   0.00000   0.00000
 271       81H-4        0.00000  -0.00000   0.00000   0.00000   0.00000
 272       81H+5        0.00000   0.00000   0.00000   0.00000   0.00000
 273       81H-5        0.00000   0.00000  -0.00000   0.00000   0.00000
 274       82H 0        0.00000   0.00000   0.00000   0.00000  -0.00001
 275       82H+1        0.00000   0.00000   0.00000   0.00002   0.00000
 276       82H-1        0.00000   0.00000   0.00002   0.00000   0.00000
 277       82H+2        0.00001   0.00000   0.00000   0.00000  -0.00000
 278       82H-2        0.00000   0.00001   0.00000   0.00000   0.00000
 279       82H+3        0.00000   0.00000   0.00000  -0.00000   0.00000
 280       82H-3        0.00000   0.00000  -0.00000   0.00000   0.00000
 281       82H+4        0.00000   0.00000   0.00000   0.00000  -0.00000
 282       82H-4        0.00000  -0.00000   0.00000   0.00000   0.00000
 283       82H+5        0.00000   0.00000   0.00000  -0.00000   0.00000
 284       82H-5        0.00000   0.00000   0.00000   0.00000   0.00000
 285       83H 0       -0.00000   0.00000   0.00000   0.00000  -0.00004
 286       83H+1        0.00000   0.00000   0.00000  -0.00007   0.00000
 287       83H-1        0.00000   0.00000  -0.00007   0.00000   0.00000
 288       83H+2       -0.00002   0.00000   0.00000   0.00000   0.00000
 289       83H-2        0.00000  -0.00002   0.00000   0.00000   0.00000
 290       83H+3        0.00000   0.00000   0.00000  -0.00000   0.00000
 291       83H-3        0.00000   0.00000  -0.00000   0.00000   0.00000
[...]
 207       74F+2        0.00000   0.00000   0.00000   0.00000
 208       74F-2        0.00000   0.00000   0.00000   0.00000
 209       74F+3        0.00000   0.00000   0.00000  -0.00000
 210       74F-3        0.00000   0.00000   0.00000   0.00000
 211       75F 0        0.00072   0.00035   0.00037  -0.00002
 212       75F+1        0.00000   0.00000   0.00000   0.00000
 213       75F-1        0.00000   0.00000   0.00000   0.00000
 214       75F+2        0.00000   0.00000   0.00000  -0.00000
 215       75F-2        0.00000   0.00000   0.00000   0.00000
 216       75F+3        0.00000   0.00000   0.00000   0.00000
 217       75F-3        0.00000   0.00000   0.00000   0.00000
 218       76G 0        0.00000   0.00000   0.00000   0.00000
 219       76G+1        0.00000   0.00000   0.00000   0.00000
 220       76G-1        0.00000   0.00000   0.00000   0.00000
 221       76G+2        0.00000   0.00000   0.00000   0.00000
 222       76G-2        0.00000   0.00000   0.00000   0.00000
 223       76G+3        0.00000   0.00000   0.00000   0.00000
 224       76G-3        0.00000   0.00000   0.00000   0.00000
 225       76G+4        0.00000   0.00000   0.00000   0.00000
 226       76G-4        0.00000   0.00000   0.00000   0.00000
 227       77G 0       -0.00000  -0.00000  -0.00000  -0.00000
 228       77G+1        0.00000   0.00000   0.00000   0.00000
 229       77G-1        0.00000   0.00000   0.00000   0.00000
 230       77G+2        0.00000   0.00000   0.00000  -0.00000
 231       77G-2        0.00000   0.00000   0.00000   0.00000
 232       77G+3        0.00000   0.00000   0.00000   0.00000
 233       77G-3        0.00000   0.00000   0.00000   0.00000
 234       77G+4        0.00000   0.00000   0.00000   0.00000
 235       77G-4        0.00000   0.00000   0.00000   0.00000
 236       78G 0        0.00000   0.00000   0.00000   0.00000
 237       78G+1       -0.00000  -0.00000  -0.00000   0.00000
 238       78G-1       -0.00000  -0.00000  -0.00000  -0.00000
 239       78G+2        0.00000   0.00000   0.00000   0.00000
 240       78G-2        0.00000   0.00000   0.00000   0.00000
 241       78G+3        0.00000   0.00000   0.00000  -0.00000
 242       78G-3       -0.00000  -0.00000  -0.00000  -0.00000
 243       78G+4        0.00000   0.00000   0.00000  -0.00000
 244       78G-4       -0.00000  -0.00000  -0.00000  -0.00000
 245       79G 0        0.00003   0.00002   0.00002   0.00000
 246       79G+1       -0.00000  -0.00000  -0.00000  -0.00000
 247       79G-1       -0.00000  -0.00000  -0.00000  -0.00000
 248       79G+2        0.00000   0.00000   0.00000   0.00000
 249       79G-2        0.00000   0.00000   0.00000   0.00000
 250       79G+3        0.00000   0.00000   0.00000   0.00000
 251       79G-3        0.00000   0.00000   0.00000   0.00000
 252       79G+4        0.00000   0.00000   0.00000   0.00000
 253       79G-4        0.00000   0.00000   0.00000   0.00000
 254       80G 0        0.00001  -0.00000   0.00001  -0.00002
 255       80G+1       -0.00001  -0.00000  -0.00000   0.00000
 256       80G-1       -0.00001  -0.00000  -0.00000  -0.00000
 257       80G+2        0.00000   0.00000   0.00000  -0.00000
 258       80G-2        0.00000   0.00000   0.00000   0.00000
 259       80G+3        0.00000   0.00000   0.00000   0.00000
 260       80G-3        0.00000   0.00000   0.00000   0.00000
 261       80G+4       -0.00000  -0.00000  -0.00000  -0.00000
 262       80G-4        0.00000   0.00000   0.00000   0.00000
 263       81H 0        0.00000   0.00000   0.00000   0.00000
 264       81H+1        0.00000   0.00000   0.00000   0.00000
 265       81H-1        0.00000   0.00000   0.00000   0.00000
 266       81H+2        0.00000   0.00000   0.00000  -0.00000
 267       81H-2        0.00000   0.00000   0.00000   0.00000
 268       81H+3        0.00000   0.00000   0.00000   0.00000
 269       81H-3        0.00000   0.00000   0.00000   0.00000
 270       81H+4       -0.00000  -0.00000  -0.00000  -0.00000
 271       81H-4        0.00000   0.00000   0.00000   0.00000
 272       81H+5       -0.00000  -0.00000  -0.00000   0.00000
 273       81H-5       -0.00000  -0.00000  -0.00000  -0.00000
 274       82H 0       -0.00000  -0.00000  -0.00000  -0.00000
 275       82H+1       -0.00000  -0.00000  -0.00000  -0.00000
 276       82H-1       -0.00000  -0.00000  -0.00000  -0.00000
 277       82H+2       -0.00000  -0.00000  -0.00000  -0.00000
 278       82H-2       -0.00000  -0.00000  -0.00000  -0.00000
 279       82H+3        0.00000   0.00000   0.00000   0.00000
 280       82H-3        0.00000   0.00000   0.00000   0.00000
 281       82H+4        0.00000   0.00000   0.00000   0.00000
 282       82H-4        0.00000   0.00000   0.00000   0.00000
 283       82H+5        0.00000   0.00000   0.00000   0.00000
 284       82H-5        0.00000   0.00000   0.00000   0.00000
 285       83H 0        0.00000   0.00000   0.00000   0.00000
 286       83H+1        0.00000   0.00000   0.00000   0.00000
 287       83H-1        0.00000   0.00000   0.00000   0.00000
 288       83H+2        0.00000   0.00000   0.00000   0.00000
 289       83H-2        0.00000   0.00000   0.00000   0.00000
 290       83H+3        0.00000   0.00000   0.00000   0.00000
 291       83H-3        0.00000   0.00000   0.00000   0.00000
 292       83H+4        0.00000   0.00000   0.00000   0.00000
 293       83H-4        0.00000   0.00000   0.00000   0.00000
 294       83H+5        0.00000   0.00000   0.00000   0.00000
 295       83H-5        0.00000   0.00000   0.00000   0.00000
 296       84H 0        0.00000   0.00000   0.00000  -0.00000
 297       84H+1        0.00000   0.00000   0.00000   0.00000
 298       84H-1        0.00000   0.00000   0.00000   0.00000
 299       84H+2        0.00000   0.00000   0.00000   0.00000
 300       84H-2        0.00000   0.00000   0.00000   0.00000
 301       84H+3       -0.00000  -0.00000  -0.00000  -0.00000
 302       84H-3        0.00000   0.00000   0.00000   0.00000
 303       84H+4        0.00000   0.00000   0.00000   0.00000
 304       84H-4        0.00000   0.00000   0.00000  -0.00000
 305       84H+5        0.00000   0.00000   0.00000   0.00000
 306       84H-5        0.00000   0.00000   0.00000   0.00000
 307       85I 0        0.00000   0.00000   0.00000  -0.00000
 308       85I+1        0.00000   0.00000   0.00000   0.00000
 309       85I-1        0.00000   0.00000   0.00000   0.00000
 310       85I+2        0.00000   0.00000   0.00000   0.00000
 311       85I-2        0.00000   0.00000   0.00000   0.00000
 312       85I+3        0.00000   0.00000   0.00000   0.00000
 313       85I-3        0.00000   0.00000   0.00000   0.00000
 314       85I+4        0.00000   0.00000   0.00000   0.00000
 315       85I-4        0.00000   0.00000   0.00000   0.00000
 316       85I+5        0.00000   0.00000   0.00000   0.00000
 317       85I-5        0.00000   0.00000   0.00000   0.00000
 318       85I+6        0.00000   0.00000   0.00000   0.00000
 319       85I-6        0.00000   0.00000   0.00000   0.00000
 320       86I 0       -0.00000  -0.00000  -0.00000   0.00000
 321       86I+1       -0.00000  -0.00000  -0.00000  -0.00000
 322       86I-1       -0.00000  -0.00000  -0.00000  -0.00000
 323       86I+2       -0.00000  -0.00000  -0.00000  -0.00000
 324       86I-2       -0.00000  -0.00000  -0.00000  -0.00000
 325       86I+3        0.00000   0.00000   0.00000   0.00000
 326       86I-3       -0.00000  -0.00000  -0.00000   0.00000
 327       86I+4       -0.00000  -0.00000  -0.00000  -0.00000
 328       86I-4       -0.00000  -0.00000  -0.00000  -0.00000
 329       86I+5        0.00000   0.00000   0.00000   0.00000
 330       86I-5        0.00000   0.00000   0.00000   0.00000
 331       86I+6       -0.00000  -0.00000  -0.00000  -0.00000
 332       86I-6        0.00000   0.00000   0.00000   0.00000
 333       87I 0        0.00000   0.00000   0.00000  -0.00000
 334       87I+1        0.00000   0.00000   0.00000   0.00000
 335       87I-1        0.00000   0.00000   0.00000   0.00000
 336       87I+2        0.00000   0.00000   0.00000   0.00000
 337       87I-2        0.00000   0.00000   0.00000   0.00000
 338       87I+3        0.00000   0.00000   0.00000   0.00000
 339       87I-3        0.00000   0.00000   0.00000   0.00000
 340       87I+4        0.00000   0.00000   0.00000   0.00000
 341       87I-4        0.00000   0.00000   0.00000   0.00000
 342       87I+5        0.00000   0.00000   0.00000   0.00000
 343       87I-5        0.00000   0.00000   0.00000   0.00000
 344       87I+6        0.00000   0.00000   0.00000   0.00000
 345       87I-6       -0.00000  -0.00000  -0.00000   0.00000
 346 2   H  1S         -0.00000  -0.00000  -0.00000  -0.00000
 347        2S          0.00008   0.00004   0.00004   0.00001
 348        3S          0.00423   0.00226   0.00197   0.00029
 349        4S          0.03016   0.01611   0.01405   0.00205
 350        5S          0.14766   0.07860   0.06906   0.00954
 351        6S          0.41926   0.22303   0.19623   0.02680
 352        7S          0.52488   0.27794   0.24694   0.03099
 353        8S          0.13299   0.06167   0.07132  -0.00965
 354        9S          0.00404   0.00255   0.00148   0.00107
 355       10PX         0.00002   0.00001   0.00001   0.00000
 356       10PY         0.00002   0.00001   0.00001   0.00000
 357       10PZ         0.00010   0.00005   0.00005   0.00000
 358       11PX         0.00022   0.00011   0.00011   0.00000
 359       11PY         0.00022   0.00011   0.00011   0.00000
 360       11PZ         0.00117   0.00059   0.00058   0.00001
 361       12PX         0.00178   0.00089   0.00089   0.00000
 362       12PY         0.00178   0.00089   0.00089   0.00000
 363       12PZ         0.00580   0.00269   0.00311  -0.00041
 364       13PX         0.00127   0.00064   0.00064   0.00000
 365       13PY         0.00127   0.00064   0.00064   0.00000
 366       13PZ         0.00259  -0.00015   0.00274  -0.00289
 367       14PX         0.00010   0.00005   0.00005   0.00000
 368       14PY         0.00010   0.00005   0.00005   0.00000
 369       14PZ         0.00005   0.00011  -0.00006   0.00018
 370       15D 0        0.00005   0.00003   0.00003   0.00000
 371       15D+1        0.00002   0.00001   0.00001   0.00000
 372       15D-1        0.00002   0.00001   0.00001   0.00000
 373       15D+2        0.00000   0.00000   0.00000   0.00000
 374       15D-2        0.00000   0.00000   0.00000   0.00000
 375       16D 0        0.00042   0.00020   0.00022  -0.00002
 376       16D+1        0.00038   0.00019   0.00019   0.00000
 377       16D-1        0.00038   0.00019   0.00019   0.00000
 378       16D+2        0.00002   0.00001   0.00001   0.00000
 379       16D-2        0.00002   0.00001   0.00001   0.00000
 380       17D 0       -0.00054  -0.00032  -0.00022  -0.00010
 381       17D+1        0.00070   0.00035   0.00035   0.00000
 382       17D-1        0.00070   0.00035   0.00035   0.00000
 383       17D+2        0.00011   0.00005   0.00005  -0.00000
 384       17D-2        0.00011   0.00005   0.00005   0.00000
 385       18D 0        0.00106   0.00109  -0.00003   0.00112
 386       18D+1        0.00004   0.00002   0.00002   0.00000
 387       18D-1        0.00004   0.00002   0.00002   0.00000
 388       18D+2       -0.00002  -0.00001  -0.00001  -0.00000
 389       18D-2       -0.00002  -0.00001  -0.00001  -0.00000
 390       19F 0        0.00003   0.00002   0.00002  -0.00000
 391       19F+1        0.00002   0.00001   0.00001   0.00000
 392       19F-1        0.00002   0.00001   0.00001   0.00000
 393       19F+2        0.00000   0.00000   0.00000   0.00000
 394       19F-2        0.00000   0.00000   0.00000   0.00000
 395       19F+3       -0.00000  -0.00000  -0.00000  -0.00000
 396       19F-3       -0.00000  -0.00000  -0.00000  -0.00000
 397       20F 0        0.00018   0.00009   0.00009  -0.00000
 398       20F+1        0.00022   0.00011   0.00011   0.00000
 399       20F-1        0.00022   0.00011   0.00011   0.00000
 400       20F+2        0.00006   0.00003   0.00003   0.00000
 401       20F-2        0.00006   0.00003   0.00003   0.00000
 402       20F+3       -0.00000  -0.00000  -0.00000  -0.00000
 403       20F-3        0.00000   0.00000   0.00000   0.00000
 404       21F 0       -0.00001   0.00002  -0.00003   0.00005
 405       21F+1       -0.00003  -0.00002  -0.00002  -0.00000
 406       21F-1       -0.00003  -0.00002  -0.00002  -0.00000
 407       21F+2        0.00001   0.00000   0.00000  -0.00000
 408       21F-2        0.00001   0.00000   0.00000   0.00000
 409       21F+3        0.00000   0.00000   0.00000   0.00000
 410       21F-3        0.00000   0.00000   0.00000   0.00000
 411       22G 0        0.00002   0.00001   0.00001  -0.00000
 412       22G+1        0.00001   0.00001   0.00001   0.00000
 413       22G-1        0.00001   0.00001   0.00001   0.00000
 414       22G+2        0.00000   0.00000   0.00000   0.00000
 415       22G-2        0.00000   0.00000   0.00000   0.00000
 416       22G+3        0.00000   0.00000   0.00000   0.00000
 417       22G-3        0.00000   0.00000   0.00000   0.00000
 418       22G+4        0.00000   0.00000   0.00000   0.00000
 419       22G-4       -0.00000  -0.00000  -0.00000  -0.00000
 420       23G 0        0.00005   0.00002   0.00003  -0.00001
 421       23G+1       -0.00000  -0.00000  -0.00000   0.00000
 422       23G-1       -0.00000  -0.00000  -0.00000   0.00000
 423       23G+2        0.00003   0.00002   0.00002   0.00000
 424       23G-2        0.00003   0.00002   0.00002   0.00000
 425       23G+3       -0.00000  -0.00000  -0.00000  -0.00000
 426       23G-3        0.00000   0.00000   0.00000   0.00000
 427       23G+4        0.00000   0.00000   0.00000   0.00000
 428       23G-4       -0.00000  -0.00000  -0.00000  -0.00000
          Condensed to atoms (all electrons):
               1          2
     1  Zn  19.425576   0.290241
     2  H    0.290241   0.993943
          Atomic-Atomic Spin Densities.
               1          2
     1  Zn   1.056375  -0.115390
     2  H   -0.115390   0.174406
 Mulliken charges and spin densities:
               1          2
     1  Zn   0.284184   0.940984
     2  H   -0.284184   0.059016
 Sum of Mulliken charges =  -0.00000   1.00000
 Mulliken charges and spin densities with hydrogens summed into heavy atoms:
               1          2
     1  Zn  -0.000000   1.000000
 Electronic spatial extent (au):  <R**2>=             42.4927
 Charge=             -0.0000 electrons
 Dipole moment (field-independent basis, Debye):
    X=              0.0000    Y=              0.0000    Z=             -0.0376  Tot=              0.0376
 Quadrupole moment (field-independent basis, Debye-Ang):
   XX=            -14.4092   YY=            -14.4092   ZZ=            -20.5647
   XY=              0.0000   XZ=              0.0000   YZ=              0.0000
 Traceless Quadrupole moment (field-independent basis, Debye-Ang):
   XX=              2.0518   YY=              2.0518   ZZ=             -4.1037
   XY=              0.0000   XZ=              0.0000   YZ=              0.0000
 Octapole moment (field-independent basis, Debye-Ang**2):
  XXX=              0.0000  YYY=              0.0000  ZZZ=             -1.2128  XYY=              0.0000
  XXY=              0.0000  XXZ=             -0.7769  XZZ=              0.0000  YZZ=              0.0000
  YYZ=             -0.7769  XYZ=              0.0000
 Hexadecapole moment (field-independent basis, Debye-Ang**3):
 XXXX=            -19.9596 YYYY=            -19.9596 ZZZZ=            -59.5424 XXXY=              0.0000
 XXXZ=              0.0000 YYYX=              0.0000 YYYZ=              0.0000 ZZZX=              0.0000
 ZZZY=              0.0000 XXYY=             -6.6532 XXZZ=            -12.9370 YYZZ=            -12.9370
 XXYZ=              0.0000 YYXZ=              0.0000 ZZXY=              0.0000
 N-N= 8.141187860308D+00 E-N=-5.783929402705D+02  KE= 1.540278033700D+02
 Symmetry A1   KE= 6.407434047696D+01
 Symmetry A2   KE= 2.247465485632D+01
 Symmetry B1   KE= 3.373940401341D+01
 Symmetry B2   KE= 3.373940401791D+01
 Symmetry A1   SP= 1.000000000000D+00
 Symmetry A2   SP= 4.088961901021D-16
 Symmetry B1   SP= 8.134633239819D-16
 Symmetry B2   SP= 8.134633239819D-16
 Orbital energies and kinetic energies (alpha):
                                 1                 2
   6         O                -0.801969         11.237327
   7         O                -0.801969         11.237327
   8         O                -0.799939         11.195904
   9         O                -0.799939         11.195904
  10         O                -0.484677          1.230768
  11         O                -0.268984          0.563291
  12         V                 0.019654          0.056664
  13         V                 0.019654          0.056664
  14         V                 0.021842          0.032845
  15         V                 0.033686          0.046856
  16         V                 0.064069          0.076666
 Total kinetic energy from orbitals= 1.545910945522D+02
                          Isotropic Fermi Contact Couplings
        Atom                 a.u.       MegaHertz       Gauss      10(-4) cm-1
     1  Zn(67)             0.00039       0.10849       0.03871       0.03619
     2  H(1)               0.02693     120.37669      42.95340      40.15334
 --------------------------------------------------------
       Center         ----  Spin Dipole Couplings  ----
                      3XX-RR        3YY-RR        3ZZ-RR
 --------------------------------------------------------
     1   Atom       -0.018647     -0.018647      0.037294
     2   Atom       -0.005178     -0.005178      0.010356
 --------------------------------------------------------
                        XY            XZ            YZ
 --------------------------------------------------------
     1   Atom        0.000000      0.000000      0.000000
     2   Atom        0.000000      0.000000      0.000000
 --------------------------------------------------------


 ---------------------------------------------------------------------------------
              Anisotropic Spin Dipole Couplings in Principal Axis System
 ---------------------------------------------------------------------------------

       Atom             a.u.   MegaHertz   Gauss  10(-4) cm-1        Axes

              Baa    -0.0186    -0.624    -0.223    -0.208  1.0000  0.0000  0.0000
     1 Zn(67) Bbb    -0.0186    -0.624    -0.223    -0.208 -0.0000  1.0000  0.0000
              Bcc     0.0373     1.248     0.445     0.416  0.0000  0.0000  1.0000
 
              Baa    -0.0052    -2.763    -0.986    -0.922  1.0000  0.0000  0.0000
     2 H(1)   Bbb    -0.0052    -2.763    -0.986    -0.922 -0.0000  1.0000  0.0000
              Bcc     0.0104     5.525     1.972     1.843  0.0000  0.0000  1.0000
 

 ---------------------------------------------------------------------------------

 No NMR shielding tensors so no spin-rotation constants.
 Leave Link  601 at Mon Apr 30 08:36:05 2018, MaxMem= 10737418240 cpu:             418.7 elap:              13.6
 (Enter /home1/apps/gaussian/16rA.03/g16/l9999.exe)

 Test job not archived.
 1\1\GINC-C423-091\SP\ROCCSD(T)-Full\Gen\H1Zn1(2)\GWANG18\30-Apr-2018\0
 \\#P ROCCSD(T)=(MaxCyc=150, Full)/Gen SCF=(maxcycle=400, vshift=200) P
 seudo=Read Integral(NoXCTest) Pop=Regular MaxDisk=500GB Guess=Read IOp
 (5/15=2)\\ZnH\\0,2\Zn,0,0.,0.,0.\H,0,0.,0.,1.3\\Version=ES64L-G16RevA.
 03\State=2-SG\HF=-226.4629867\MP2=-227.5886344\MP3=-227.4504026\PUHF=-
 226.4629867\PMP2-0=-227.5886344\MP4SDQ=-227.5340028\CCSD=-227.5013886\
 CCSD(T)=-227.5309536\RMSD=3.196e-09\PG=C*V [C*(H1Zn1)]\\@


 ON A TOMBSTONE, "HERE LIES LESTER MOORE,
 FOUR SLUGS FROM A 44, NO LES, NO MORE".
 Job cpu time:       3 days 18 hours  1 minutes  8.9 seconds.
 Elapsed time:       0 days  2 hours 49 minutes 53.3 seconds.
 File lengths (MBytes):  RWF=  29390 Int=      0 D2E=      0 Chk=     23 Scr=      1
 Normal termination of Gaussian 16 at Mon Apr 30 08:36:06 2018.
