 Entering Gaussian System, Link 0=g16
 Initial command:
 /home1/apps/gaussian/16rA.03/g16/l1.exe "/tmp/Gau-115861.inp" -scrdir="/tmp/"
 Entering Link 1 = /home1/apps/gaussian/16rA.03/g16/l1.exe PID=    115862.
  
 Copyright (c) 1988,1990,1992,1993,1995,1998,2003,2009,2016,
            Gaussian, Inc.  All Rights Reserved.
  
 This is part of the Gaussian(R) 16 program.  It is based on
 the Gaussian(R) 09 system (copyright 2009, Gaussian, Inc.),
 the Gaussian(R) 03 system (copyright 2003, Gaussian, Inc.),
 the Gaussian(R) 98 system (copyright 1998, Gaussian, Inc.),
 the Gaussian(R) 94 system (copyright 1995, Gaussian, Inc.),
 the Gaussian 92(TM) system (copyright 1992, Gaussian, Inc.),
 the Gaussian 90(TM) system (copyright 1990, Gaussian, Inc.),
 the Gaussian 88(TM) system (copyright 1988, Gaussian, Inc.),
 the Gaussian 86(TM) system (copyright 1986, Carnegie Mellon
 University), and the Gaussian 82(TM) system (copyright 1983,
 Carnegie Mellon University). Gaussian is a federally registered
 trademark of Gaussian, Inc.
  
 This software contains proprietary and confidential information,
 including trade secrets, belonging to Gaussian, Inc.
  
 This software is provided under written license and may be
 used, copied, transmitted, or stored only in accord with that
 written license.
  
 The following legend is applicable only to US Government
 contracts under FAR:
  
                    RESTRICTED RIGHTS LEGEND
  
 Use, reproduction and disclosure by the US Government is
 subject to restrictions as set forth in subparagraphs (a)
 and (c) of the Commercial Computer Software - Restricted
 Rights clause in FAR 52.227-19.
  
 Gaussian, Inc.
 340 Quinnipiac St., Bldg. 40, Wallingford CT 06492
  
  
 ---------------------------------------------------------------
 Warning -- This program may not be used in any manner that
 competes with the business of Gaussian, Inc. or will provide
 assistance to any competitor of Gaussian, Inc.  The licensee
 of this program is prohibited from giving any competitor of
 Gaussian, Inc. access to this program.  By using this program,
 the user acknowledges that Gaussian, Inc. is engaged in the
 business of creating and licensing software in the field of
 computational chemistry and represents and warrants to the
 licensee that it is not a competitor of Gaussian, Inc. and that
 it will not use this program in any manner prohibited above.
 ---------------------------------------------------------------
  

 Cite this work as:
 Gaussian 16, Revision A.03,
 M. J. Frisch, G. W. Trucks, H. B. Schlegel, G. E. Scuseria, 
 M. A. Robb, J. R. Cheeseman, G. Scalmani, V. Barone, 
 G. A. Petersson, H. Nakatsuji, X. Li, M. Caricato, A. V. Marenich, 
 J. Bloino, B. G. Janesko, R. Gomperts, B. Mennucci, H. P. Hratchian, 
 J. V. Ortiz, A. F. Izmaylov, J. L. Sonnenberg, D. Williams-Young, 
 F. Ding, F. Lipparini, F. Egidi, J. Goings, B. Peng, A. Petrone, 
 T. Henderson, D. Ranasinghe, V. G. Zakrzewski, J. Gao, N. Rega, 
 G. Zheng, W. Liang, M. Hada, M. Ehara, K. Toyota, R. Fukuda, 
 J. Hasegawa, M. Ishida, T. Nakajima, Y. Honda, O. Kitao, H. Nakai, 
 T. Vreven, K. Throssell, J. A. Montgomery, Jr., J. E. Peralta, 
 F. Ogliaro, M. J. Bearpark, J. J. Heyd, E. N. Brothers, K. N. Kudin, 
 V. N. Staroverov, T. A. Keith, R. Kobayashi, J. Normand, 
 K. Raghavachari, A. P. Rendell, J. C. Burant, S. S. Iyengar, 
 J. Tomasi, M. Cossi, J. M. Millam, M. Klene, C. Adamo, R. Cammi, 
 J. W. Ochterski, R. L. Martin, K. Morokuma, O. Farkas, 
 J. B. Foresman, and D. J. Fox, Gaussian, Inc., Wallingford CT, 2016.
 
 ******************************************
 Gaussian 16:  ES64L-G16RevA.03 25-Dec-2016
                17-Mar-2018 
 ******************************************
 %mem=160GB
 %cpu=0-31
 SetSPE:  set environment variable "MP_BIND" = "yes"
 SetSPE:  set environment variable "MP_BLIST" = "0,1,2,3,4,5,6,7,8,9,10,11,12,13,14,15,16,17,18,19,20,21,22,23,24,25,26,27,28,29,30,31"
 Will use up to   32 processors via shared memory.
 %chk=tz.chk
 %rwf=/scratch/04843/gwang18/zno/
 ----------------------------------------------------------------------
 #P ROCCSD(T)=(MaxCyc=150, Full)/Gen SCF=(maxcycle=400) Integral(DKHSO,
  NoXCTest) Pop=Regular MaxDisk=500GB Guess=Read IOp(5/15=2)
 ----------------------------------------------------------------------
 1/38=1,172=1/1;
 2/12=2,17=6,18=5,40=1/2;
 3/5=7,11=2,25=1,30=1,47=8,91=5,116=101/1,2,3;
 4/5=1/1;
 5/5=2,7=400,15=2,38=6/2;
 8/5=-1,6=4,9=120000,10=90/1,4;
 9/5=7,6=150,14=2/13;
 6//1;
 99/5=1,9=1/99;
 Leave Link    1 at Sat Mar 17 03:27:17 2018, MaxMem= 21474836480 cpu:               3.0 elap:               0.1
 (Enter /home1/apps/gaussian/16rA.03/g16/l101.exe)
 ---
 ZnO
 ---
 Symbolic Z-matrix:
 Charge =  0 Multiplicity = 1
 Zn                    0.        0.        0. 
 O                     0.        0.        1.6 
 
 ITRead=  0  0
 MicOpt= -1 -1
 NAtoms=      2 NQM=        2 NQMF=       0 NMMI=      0 NMMIF=      0
                NMic=       0 NMicF=      0.
                    Isotopes and Nuclear Properties:
 (Nuclear quadrupole moments (NQMom) in fm**2, nuclear magnetic moments (NMagM)
  in nuclear magnetons)

  Atom         1           2
 IAtWgt=          64          16
 AtmWgt=  63.9291454  15.9949146
 NucSpn=           0           0
 AtZEff=  -0.0000000  -0.0000000
 NQMom=    0.0000000   0.0000000
 NMagM=    0.0000000   0.0000000
 AtZNuc=  30.0000000   8.0000000
 Leave Link  101 at Sat Mar 17 03:27:18 2018, MaxMem= 21474836480 cpu:               2.8 elap:               0.1
 (Enter /home1/apps/gaussian/16rA.03/g16/l202.exe)
                          Input orientation:                          
 ---------------------------------------------------------------------
 Center     Atomic      Atomic             Coordinates (Angstroms)
 Number     Number       Type             X           Y           Z
 ---------------------------------------------------------------------
      1         30           0        0.000000    0.000000    0.000000
      2          8           0        0.000000    0.000000    1.600000
 ---------------------------------------------------------------------
 Stoichiometry    OZn
 Framework group  C*V[C*(OZn)]
 Deg. of freedom     1
 Full point group                 C*V     NOp   4
 Largest Abelian subgroup         C2V     NOp   4
 Largest concise Abelian subgroup C1      NOp   1
                         Standard orientation:                         
 ---------------------------------------------------------------------
 Center     Atomic      Atomic             Coordinates (Angstroms)
 Number     Number       Type             X           Y           Z
 ---------------------------------------------------------------------
      1         30           0        0.000000    0.000000    0.336842
      2          8           0        0.000000    0.000000   -1.263158
 ---------------------------------------------------------------------
 Rotational constants (GHZ):           0.0000000          15.4302849          15.4302849
 Leave Link  202 at Sat Mar 17 03:27:18 2018, MaxMem= 21474836480 cpu:               0.5 elap:               0.0
 (Enter /home1/apps/gaussian/16rA.03/g16/l301.exe)
 General basis read from cards:  (5D, 7F)
 Centers:       1
 S 1 1.00
     Exponent=  5.8200210000D+06 Coefficients=  1.0000000000D+00
 S 1 1.00
     Exponent=  8.7152340000D+05 Coefficients=  1.0000000000D+00
 S 1 1.00
     Exponent=  1.9833500000D+05 Coefficients=  1.0000000000D+00
 S 1 1.00
     Exponent=  5.6176310000D+04 Coefficients=  1.0000000000D+00
 S 1 1.00
     Exponent=  1.8325820000D+04 Coefficients=  1.0000000000D+00
 S 1 1.00
     Exponent=  6.6149550000D+03 Coefficients=  1.0000000000D+00
 S 1 1.00
     Exponent=  2.5791990000D+03 Coefficients=  1.0000000000D+00
 S 1 1.00
     Exponent=  1.0688490000D+03 Coefficients=  1.0000000000D+00
 S 1 1.00
     Exponent=  4.6510450000D+02 Coefficients=  1.0000000000D+00
 S 1 1.00
     Exponent=  2.1041300000D+02 Coefficients=  1.0000000000D+00
 S 1 1.00
     Exponent=  9.7616290000D+01 Coefficients=  1.0000000000D+00
 S 1 1.00
     Exponent=  4.4380200000D+01 Coefficients=  1.0000000000D+00
 S 1 1.00
     Exponent=  2.1423080000D+01 Coefficients=  1.0000000000D+00
 S 1 1.00
     Exponent=  1.0308910000D+01 Coefficients=  1.0000000000D+00
 S 1 1.00
     Exponent=  4.5536450000D+00 Coefficients=  1.0000000000D+00
 S 1 1.00
     Exponent=  2.1328210000D+00 Coefficients=  1.0000000000D+00
 S 1 1.00
     Exponent=  9.2969700000D-01 Coefficients=  1.0000000000D+00
 S 1 1.00
     Exponent=  1.9214700000D-01 Coefficients=  1.0000000000D+00
 S 1 1.00
     Exponent=  8.7595000000D-02 Coefficients=  1.0000000000D+00
 S 1 1.00
     Exponent=  3.7702000000D-02 Coefficients=  1.0000000000D+00
 S 1 1.00
     Exponent=  7.0381000000D+00 Coefficients=  1.0000000000D+00
 S 1 1.00
     Exponent=  1.8099000000D+00 Coefficients=  1.0000000000D+00
 S 1 1.00
     Exponent=  1.6230000000D-02 Coefficients=  1.0000000000D+00
 P 1 1.00
     Exponent=  2.4411980000D+04 Coefficients=  1.0000000000D+00
 P 1 1.00
     Exponent=  5.7785180000D+03 Coefficients=  1.0000000000D+00
 P 1 1.00
     Exponent=  1.8768620000D+03 Coefficients=  1.0000000000D+00
 P 1 1.00
     Exponent=  7.1823610000D+02 Coefficients=  1.0000000000D+00
 P 1 1.00
     Exponent=  3.0483270000D+02 Coefficients=  1.0000000000D+00
 P 1 1.00
     Exponent=  1.3904530000D+02 Coefficients=  1.0000000000D+00
 P 1 1.00
     Exponent=  6.6804170000D+01 Coefficients=  1.0000000000D+00
 P 1 1.00
     Exponent=  3.3206990000D+01 Coefficients=  1.0000000000D+00
 P 1 1.00
     Exponent=  1.6928160000D+01 Coefficients=  1.0000000000D+00
 P 1 1.00
     Exponent=  8.6962290000D+00 Coefficients=  1.0000000000D+00
 P 1 1.00
     Exponent=  4.3505100000D+00 Coefficients=  1.0000000000D+00
 P 1 1.00
     Exponent=  2.1165230000D+00 Coefficients=  1.0000000000D+00
 P 1 1.00
     Exponent=  9.9538700000D-01 Coefficients=  1.0000000000D+00
 P 1 1.00
     Exponent=  3.7811200000D-01 Coefficients=  1.0000000000D+00
 P 1 1.00
     Exponent=  1.3457900000D-01 Coefficients=  1.0000000000D+00
 P 1 1.00
     Exponent=  4.6282000000D-02 Coefficients=  1.0000000000D+00
 P 1 1.00
     Exponent=  1.0150100000D+01 Coefficients=  1.0000000000D+00
 P 1 1.00
     Exponent=  2.3451000000D+00 Coefficients=  1.0000000000D+00
 P 1 1.00
     Exponent=  1.5920000000D-02 Coefficients=  1.0000000000D+00
 D 1 1.00
     Exponent=  2.0561770000D+02 Coefficients=  1.0000000000D+00
 D 1 1.00
     Exponent=  6.1449810000D+01 Coefficients=  1.0000000000D+00
 D 1 1.00
     Exponent=  2.3056890000D+01 Coefficients=  1.0000000000D+00
 D 1 1.00
     Exponent=  9.5777390000D+00 Coefficients=  1.0000000000D+00
 D 1 1.00
     Exponent=  4.1337340000D+00 Coefficients=  1.0000000000D+00
 D 1 1.00
     Exponent=  1.7475180000D+00 Coefficients=  1.0000000000D+00
 D 1 1.00
     Exponent=  6.9956000000D-01 Coefficients=  1.0000000000D+00
 D 1 1.00
     Exponent=  2.5160800000D-01 Coefficients=  1.0000000000D+00
 D 1 1.00
     Exponent=  7.7440000000D+00 Coefficients=  1.0000000000D+00
 D 1 1.00
     Exponent=  3.9663000000D+00 Coefficients=  1.0000000000D+00
 D 1 1.00
     Exponent=  9.0490000000D-02 Coefficients=  1.0000000000D+00
 F 1 1.00
     Exponent=  1.0327000000D+01 Coefficients=  1.0000000000D+00
 F 1 1.00
     Exponent=  4.0202000000D+00 Coefficients=  1.0000000000D+00
 F 1 1.00
     Exponent=  1.4851000000D+00 Coefficients=  1.0000000000D+00
 F 1 1.00
     Exponent=  5.4861000000D-01 Coefficients=  1.0000000000D+00
 G 1 1.00
     Exponent=  9.2538000000D+00 Coefficients=  1.0000000000D+00
 G 1 1.00
     Exponent=  4.1144000000D+00 Coefficients=  1.0000000000D+00
 G 1 1.00
     Exponent=  1.8293300000D+00 Coefficients=  1.0000000000D+00
 ****
 Centers:       2
 S 1 1.00
     Exponent=  1.5330000000D+04 Coefficients=  1.0000000000D+00
 S 1 1.00
     Exponent=  2.2990000000D+03 Coefficients=  1.0000000000D+00
 S 1 1.00
     Exponent=  5.2240000000D+02 Coefficients=  1.0000000000D+00
 S 1 1.00
     Exponent=  1.4730000000D+02 Coefficients=  1.0000000000D+00
 S 1 1.00
     Exponent=  4.7550000000D+01 Coefficients=  1.0000000000D+00
 S 1 1.00
     Exponent=  1.6760000000D+01 Coefficients=  1.0000000000D+00
 S 1 1.00
     Exponent=  6.2070000000D+00 Coefficients=  1.0000000000D+00
 S 1 1.00
     Exponent=  6.8820000000D-01 Coefficients=  1.0000000000D+00
 S 1 1.00
     Exponent=  1.7520000000D+00 Coefficients=  1.0000000000D+00
 S 1 1.00
     Exponent=  2.3840000000D-01 Coefficients=  1.0000000000D+00
 S 1 1.00
     Exponent=  7.8450000000D+00 Coefficients=  1.0000000000D+00
 S 1 1.00
     Exponent=  2.1032000000D+01 Coefficients=  1.0000000000D+00
 S 1 1.00
     Exponent=  7.3760000000D-02 Coefficients=  1.0000000000D+00
 P 1 1.00
     Exponent=  3.4460000000D+01 Coefficients=  1.0000000000D+00
 P 1 1.00
     Exponent=  7.7490000000D+00 Coefficients=  1.0000000000D+00
 P 1 1.00
     Exponent=  2.2800000000D+00 Coefficients=  1.0000000000D+00
 P 1 1.00
     Exponent=  7.1560000000D-01 Coefficients=  1.0000000000D+00
 P 1 1.00
     Exponent=  2.1400000000D-01 Coefficients=  1.0000000000D+00
 P 1 1.00
     Exponent=  1.5159000000D+01 Coefficients=  1.0000000000D+00
 P 1 1.00
     Exponent=  5.7437000000D+01 Coefficients=  1.0000000000D+00
 P 1 1.00
     Exponent=  5.9740000000D-02 Coefficients=  1.0000000000D+00
 D 1 1.00
     Exponent=  2.3140000000D+00 Coefficients=  1.0000000000D+00
 D 1 1.00
     Exponent=  6.4500000000D-01 Coefficients=  1.0000000000D+00
 D 1 1.00
     Exponent=  1.5858000000D+01 Coefficients=  1.0000000000D+00
 D 1 1.00
     Exponent=  2.1400000000D-01 Coefficients=  1.0000000000D+00
 F 1 1.00
     Exponent=  1.4280000000D+00 Coefficients=  1.0000000000D+00
 F 1 1.00
     Exponent=  5.0000000000D-01 Coefficients=  1.0000000000D+00
 ****
 Ernie: Thresh=  0.10000D-02 Tol=  0.10000D-05 Strict=F.
 There are   144 symmetry adapted cartesian basis functions of A1  symmetry.
 There are    30 symmetry adapted cartesian basis functions of A2  symmetry.
 There are    69 symmetry adapted cartesian basis functions of B1  symmetry.
 There are    69 symmetry adapted cartesian basis functions of B2  symmetry.
 There are   114 symmetry adapted basis functions of A1  symmetry.
 There are    27 symmetry adapted basis functions of A2  symmetry.
 There are    60 symmetry adapted basis functions of B1  symmetry.
 There are    60 symmetry adapted basis functions of B2  symmetry.
   261 basis functions,   312 primitive gaussians,   312 cartesian basis functions
    19 alpha electrons       19 beta electrons
       nuclear repulsion energy        79.3765816380 Hartrees.
 IExCor=    0 DFT=F Ex=HF Corr=None ExCW=0 ScaHFX=  1.000000
 ScaDFX=  1.000000  1.000000  1.000000  1.000000 ScalE2=  1.000000  1.000000
 IRadAn=      5 IRanWt=     -1 IRanGd=            0 ICorTp=0 IEmpDi=  4
 NAtoms=    2 NActive=    2 NUniq=    2 SFac= 1.00D+00 NAtFMM=   60 NAOKFM=F Big=F
 Integral buffers will be    131072 words long.
 Raffenetti 2 integral format.
 Two-electron integral symmetry is turned on.
 FoFCou: FMM=F IPFlag=           8 FMFlag=           0 FMFlg1=           0
         NFxFlg=           0 DoJE=F BraDBF=T KetDBF=T FulRan=T
         wScrn=  0.000000 ICntrl=       600 IOpCl=  3 I1Cent=           6 NGrid=           0
         NMat0=    1 NMatS0=      2 NMatT0=    0 NMatD0=    1 NMtDS0=    0 NMtDT0=    0
 Symmetry not used in FoFCou.
 Finite nuclear repulsion energy        79.3765816380.
 Leave Link  301 at Sat Mar 17 03:27:18 2018, MaxMem= 21474836480 cpu:               4.8 elap:               0.2
 (Enter /home1/apps/gaussian/16rA.03/g16/l302.exe)
 Using DK4 one-electron Hamiltonian with SO, DoBoet=T.
 NPDir=0 NMtPBC=     1 NCelOv=     1 NCel=       1 NClECP=     1 NCelD=      1
         NCelK=      1 NCelE2=     1 NClLst=     1 CellRange=     0.0.
 One-electron integrals computed using PRISM.
 One-electron integral symmetry used in STVInt
 FoFCou: FMM=F IPFlag=           8 FMFlag=      100000 FMFlg1=           0
         NFxFlg=           0 DoJE=T BraDBF=F KetDBF=T FulRan=T
         wScrn=  0.000000 ICntrl=       500 IOpCl=  0 I1Cent=           4 NGrid=           0
         NMat0=    1 NMatS0=      1 NMatT0=    0 NMatD0=    1 NMtDS0=    0 NMtDT0=    0
 Symmetry not used in FoFCou.
 UnConB:  Uncontracting AO basis from    261 functions to    261 functions (excluding duplicates).
 RelInt: Using uncontracted basis, NUnBas=   261 NBsUse=   261 0.100E-13 EigKep=  3.30D-06 EigRej= -1.00D+00
 NBasis=   261 RedAO= T EigKep=  3.30D-06  NBF=   114    27    60    60
 NBsUse=   261 1.00D-06 EigRej= -1.00D+00 NBFU=   114    27    60    60
 Leave Link  302 at Sat Mar 17 03:27:20 2018, MaxMem= 21474836480 cpu:              48.6 elap:               1.9
 (Enter /home1/apps/gaussian/16rA.03/g16/l303.exe)
 DipDrv:  MaxL=1.
 Leave Link  303 at Sat Mar 17 03:27:20 2018, MaxMem= 21474836480 cpu:               1.1 elap:               0.1
 (Enter /home1/apps/gaussian/16rA.03/g16/l401.exe)
 Initial guess from the checkpoint file:  "tz.chk"
 B after Tr=     0.000000    0.000000    0.000000
         Rot=    1.000000    0.000000    0.000000    0.000000 Ang=   0.00 deg.
 Guess basis will be translated and rotated to current coordinates.
 JPrj=2 DoOrth=T DoCkMO=T.
 Initial guess orbital symmetries:
       Occupied  (SG) (SG) (PI) (PI) (SG) (SG) (SG) (SG) (PI) (PI)
                 (SG) (PI) (PI) (DLTA) (DLTA) (SG) (PI) (PI) (SG)
       Virtual   (SG) (PI) (PI) (SG) (SG) (PI) (PI) (SG) (SG) (SG)
                 (PI) (PI) (DLTA) (DLTA) (PI) (PI) (SG) (PI) (PI)
                 (SG) (SG) (SG) (DLTA) (DLTA) (SG) (PI) (PI) (DLTA)
                 (DLTA) (PI) (PI) (SG) (PI) (PI) (PI) (PI) (SG)
                 (SG) (SG) (DLTA) (DLTA) (PHI) (PHI) (PI) (PI)
                 (SG) (PHI) (PHI) (DLTA) (DLTA) (SG) (PI) (PI)
                 (DLTA) (DLTA) (SG) (PI) (PI) (DLTA) (DLTA) (SG)
                 (PI) (PI) (SG) (PI) (PI) (SG) (PI) (PI) (SG) (SG)
                 (PHI) (PHI) (DLTA) (DLTA) (PI) (PI) (SG) (PHI)
                 (PHI) (DLTA) (DLTA) (SG) (PI) (PI) (DLTA) (DLTA)
                 (PI) (PI) (DLTA) (DLTA) (PI) (PI) (SG) (SG) (?A)
                 (?A) (PHI) (PHI) (DLTA) (DLTA) (SG) (PI) (PI)
                 (PI) (PI) (SG) (SG) (PHI) (PHI) (DLTA) (DLTA)
                 (PI) (PI) (SG) (PI) (PI) (SG) (DLTA) (DLTA) (PI)
                 (PI) (SG) (SG) (PI) (PI) (SG) (SG) (?A) (?A) (PHI)
                 (PHI) (DLTA) (DLTA) (PI) (PI) (SG) (DLTA) (DLTA)
                 (PI) (PI) (SG) (PHI) (PHI) (DLTA) (DLTA) (PI)
                 (PI) (SG) (PI) (PI) (SG) (SG) (SG) (PI) (PI) (SG)
                 (DLTA) (DLTA) (PI) (PI) (SG) (?A) (?A) (PHI) (PHI)
                 (DLTA) (DLTA) (PI) (PI) (SG) (DLTA) (DLTA) (PI)
                 (PI) (SG) (PI) (PI) (SG) (SG) (SG) (DLTA) (DLTA)
                 (PI) (PI) (SG) (PI) (PI) (SG) (PI) (PI) (SG) (SG)
                 (SG) (DLTA) (DLTA) (PI) (PI) (SG) (PI) (PI) (SG)
                 (PI) (PI) (SG) (SG) (SG) (PI) (PI) (SG) (DLTA)
                 (DLTA) (PI) (PI) (SG) (PI) (PI) (SG) (SG) (SG)
                 (PI) (PI) (SG) (SG) (SG) (PI) (PI) (SG) (SG) (SG)
                 (PI) (PI) (SG) (SG) (SG) (PI) (PI) (SG) (SG) (SG)
                 (SG) (SG)
 The electronic state of the initial guess is 1-SG.
 Leave Link  401 at Sat Mar 17 03:27:20 2018, MaxMem= 21474836480 cpu:               5.6 elap:               0.2
 (Enter /home1/apps/gaussian/16rA.03/g16/l502.exe)
 Keep R1 and R2 ints in memory in symmetry-blocked form, NReq=734602573.
 FoFCou: FMM=F IPFlag=           8 FMFlag=           0 FMFlg1=           0
         NFxFlg=           0 DoJE=F BraDBF=F KetDBF=F FulRan=T
         wScrn=  0.000000 ICntrl=       600 IOpCl=  0 I1Cent=           0 NGrid=           0
         NMat0=    1 NMatS0=  34191 NMatT0=    0 NMatD0=    1 NMtDS0=    0 NMtDT0=    0
 Petite list used in FoFCou.
 Restricted open shell SCF:
 Using DIIS extrapolation, IDIIS=  1040.
 NGot= 21474836480 LenX= 21174565133 LenY= 21174467348
 Requested convergence on RMS density matrix=1.00D-08 within 400 cycles.
 Requested convergence on MAX density matrix=1.00D-06.
 Requested convergence on             energy=1.00D-06.
 No special actions if energy rises.

 Cycle   1  Pass 1  IDiag  1:
 E= -1869.06279820139    
 DIIS: error= 6.72D-03 at cycle   1 NSaved=   1.
 NSaved= 1 IEnMin= 1 EnMin= -1869.06279820139     IErMin= 1 ErrMin= 6.72D-03
 ErrMax= 6.72D-03  0.00D+00 EMaxC= 1.00D-01 BMatC= 4.44D-03 BMatP= 4.44D-03
 IDIUse=3 WtCom= 9.33D-01 WtEn= 6.72D-02
 Coeff-Com:  0.100D+01
 Coeff-En:   0.100D+01
 Coeff:      0.100D+01
 Gap=     0.408 Goal=   None    Shift=    0.000
 GapD=    0.408 DampG=2.000 DampE=1.000 DampFc=2.0000 IDamp=-1.
 RMSDP=3.77D-04 MaxDP=1.48D-02              OVMax= 3.23D-02

 Cycle   2  Pass 1  IDiag  1:
 E= -1869.06454104482     Delta-E=       -0.001742843421 Rises=F Damp=F
 DIIS: error= 3.73D-03 at cycle   2 NSaved=   2.
 NSaved= 2 IEnMin= 2 EnMin= -1869.06454104482     IErMin= 2 ErrMin= 3.73D-03
 ErrMax= 3.73D-03  0.00D+00 EMaxC= 1.00D-01 BMatC= 1.91D-03 BMatP= 4.44D-03
 IDIUse=3 WtCom= 9.63D-01 WtEn= 3.73D-02
 Coeff-Com:  0.340D+00 0.660D+00
 Coeff-En:   0.000D+00 0.100D+01
 Coeff:      0.327D+00 0.673D+00
 Gap=     0.333 Goal=   None    Shift=    0.000
 RMSDP=9.56D-05 MaxDP=5.11D-03 DE=-1.74D-03 OVMax= 1.40D-02

 Cycle   3  Pass 1  IDiag  1:
 E= -1869.06547402901     Delta-E=       -0.000932984193 Rises=F Damp=F
 DIIS: error= 1.99D-03 at cycle   3 NSaved=   3.
 NSaved= 3 IEnMin= 3 EnMin= -1869.06547402901     IErMin= 3 ErrMin= 1.99D-03
 ErrMax= 1.99D-03  0.00D+00 EMaxC= 1.00D-01 BMatC= 4.26D-04 BMatP= 1.91D-03
 IDIUse=3 WtCom= 9.80D-01 WtEn= 1.99D-02
 Coeff-Com: -0.282D-01 0.298D+00 0.730D+00
 Coeff-En:   0.000D+00 0.644D-01 0.936D+00
 Coeff:     -0.276D-01 0.293D+00 0.734D+00
 Gap=     0.337 Goal=   None    Shift=    0.000
 RMSDP=6.36D-05 MaxDP=5.03D-03 DE=-9.33D-04 OVMax= 1.37D-02

 Cycle   4  Pass 1  IDiag  1:
 E= -1869.06591652306     Delta-E=       -0.000442494056 Rises=F Damp=F
 DIIS: error= 6.87D-04 at cycle   4 NSaved=   4.
 NSaved= 4 IEnMin= 4 EnMin= -1869.06591652306     IErMin= 4 ErrMin= 6.87D-04
 ErrMax= 6.87D-04  0.00D+00 EMaxC= 1.00D-01 BMatC= 4.96D-05 BMatP= 4.26D-04
 IDIUse=3 WtCom= 9.93D-01 WtEn= 6.87D-03
 Coeff-Com: -0.108D-01-0.230D+00-0.147D+00 0.139D+01
 Coeff-En:   0.000D+00 0.000D+00 0.000D+00 0.100D+01
 Coeff:     -0.107D-01-0.229D+00-0.146D+00 0.139D+01
 Gap=     0.338 Goal=   None    Shift=    0.000
 RMSDP=5.20D-05 MaxDP=3.35D-03 DE=-4.42D-04 OVMax= 8.33D-03

 Cycle   5  Pass 1  IDiag  1:
 E= -1869.06608651533     Delta-E=       -0.000169992269 Rises=F Damp=F
 DIIS: error= 2.81D-04 at cycle   5 NSaved=   5.
 NSaved= 5 IEnMin= 5 EnMin= -1869.06608651533     IErMin= 5 ErrMin= 2.81D-04
 ErrMax= 2.81D-04  0.00D+00 EMaxC= 1.00D-01 BMatC= 1.05D-05 BMatP= 4.96D-05
 IDIUse=3 WtCom= 9.97D-01 WtEn= 2.81D-03
 Coeff-Com:  0.627D-02-0.601D-01-0.102D+00-0.176D+00 0.133D+01
 Coeff-En:   0.000D+00 0.000D+00 0.000D+00 0.000D+00 0.100D+01
 Coeff:      0.625D-02-0.599D-01-0.102D+00-0.175D+00 0.133D+01
 Gap=     0.338 Goal=   None    Shift=    0.000
 RMSDP=3.62D-05 MaxDP=2.51D-03 DE=-1.70D-04 OVMax= 7.14D-03

 Cycle   6  Pass 1  IDiag  1:
 E= -1869.06615199549     Delta-E=       -0.000065480155 Rises=F Damp=F
 DIIS: error= 1.73D-04 at cycle   6 NSaved=   6.
 NSaved= 6 IEnMin= 6 EnMin= -1869.06615199549     IErMin= 6 ErrMin= 1.73D-04
 ErrMax= 1.73D-04  0.00D+00 EMaxC= 1.00D-01 BMatC= 3.25D-06 BMatP= 1.05D-05
 IDIUse=3 WtCom= 9.98D-01 WtEn= 1.73D-03
 Coeff-Com:  0.137D-02 0.265D-01 0.448D-01-0.283D+00-0.416D-01 0.125D+01
 Coeff-En:   0.000D+00 0.000D+00 0.000D+00 0.000D+00 0.000D+00 0.100D+01
 Coeff:      0.136D-02 0.265D-01 0.447D-01-0.283D+00-0.415D-01 0.125D+01
 Gap=     0.338 Goal=   None    Shift=    0.000
 RMSDP=2.26D-05 MaxDP=1.59D-03 DE=-6.55D-05 OVMax= 4.94D-03

 Cycle   7  Pass 1  IDiag  1:
 E= -1869.06617373121     Delta-E=       -0.000021735719 Rises=F Damp=F
 DIIS: error= 1.45D-04 at cycle   7 NSaved=   7.
 NSaved= 7 IEnMin= 7 EnMin= -1869.06617373121     IErMin= 7 ErrMin= 1.45D-04
 ErrMax= 1.45D-04  0.00D+00 EMaxC= 1.00D-01 BMatC= 2.18D-06 BMatP= 3.25D-06
 IDIUse=3 WtCom= 9.99D-01 WtEn= 1.45D-03
 Coeff-Com: -0.172D-02 0.303D-01 0.747D-01-0.543D-01-0.625D+00 0.762D+00
 Coeff-Com:  0.814D+00
 Coeff-En:   0.000D+00 0.000D+00 0.000D+00 0.000D+00 0.000D+00 0.000D+00
 Coeff-En:   0.100D+01
 Coeff:     -0.172D-02 0.303D-01 0.746D-01-0.543D-01-0.624D+00 0.761D+00
 Coeff:      0.814D+00
 Gap=     0.338 Goal=   None    Shift=    0.000
 RMSDP=1.18D-05 MaxDP=7.52D-04 DE=-2.17D-05 OVMax= 2.59D-03

 Cycle   8  Pass 1  IDiag  1:
 E= -1869.06618100056     Delta-E=       -0.000007269357 Rises=F Damp=F
 DIIS: error= 6.28D-05 at cycle   8 NSaved=   8.
 NSaved= 8 IEnMin= 8 EnMin= -1869.06618100056     IErMin= 8 ErrMin= 6.28D-05
 ErrMax= 6.28D-05  0.00D+00 EMaxC= 1.00D-01 BMatC= 2.97D-07 BMatP= 2.18D-06
 IDIUse=1 WtCom= 1.00D+00 WtEn= 0.00D+00
 Coeff-Com: -0.144D-02-0.156D-01-0.106D-01 0.158D+00-0.142D+00-0.295D+00
 Coeff-Com: -0.203D+00 0.151D+01
 Coeff:     -0.144D-02-0.156D-01-0.106D-01 0.158D+00-0.142D+00-0.295D+00
 Coeff:     -0.203D+00 0.151D+01
 Gap=     0.339 Goal=   None    Shift=    0.000
 RMSDP=9.21D-06 MaxDP=6.21D-04 DE=-7.27D-06 OVMax= 2.21D-03

 Cycle   9  Pass 1  IDiag  1:
 E= -1869.06618310080     Delta-E=       -0.000002100234 Rises=F Damp=F
 DIIS: error= 1.87D-05 at cycle   9 NSaved=   9.
 NSaved= 9 IEnMin= 9 EnMin= -1869.06618310080     IErMin= 9 ErrMin= 1.87D-05
 ErrMax= 1.87D-05  0.00D+00 EMaxC= 1.00D-01 BMatC= 2.19D-08 BMatP= 2.97D-07
 IDIUse=1 WtCom= 1.00D+00 WtEn= 0.00D+00
 Coeff-Com:  0.331D-03-0.609D-02-0.906D-02 0.114D-01 0.546D-01-0.490D-02
 Coeff-Com: -0.106D+00-0.179D+00 0.124D+01
 Coeff:      0.331D-03-0.609D-02-0.906D-02 0.114D-01 0.546D-01-0.490D-02
 Coeff:     -0.106D+00-0.179D+00 0.124D+01
 Gap=     0.338 Goal=   None    Shift=    0.000
 RMSDP=1.24D-06 MaxDP=7.82D-05 DE=-2.10D-06 OVMax= 2.63D-04

 Cycle  10  Pass 1  IDiag  1:
 E= -1869.06618316623     Delta-E=       -0.000000065432 Rises=F Damp=F
 DIIS: error= 3.26D-06 at cycle  10 NSaved=  10.
 NSaved=10 IEnMin=10 EnMin= -1869.06618316623     IErMin=10 ErrMin= 3.26D-06
 ErrMax= 3.26D-06  0.00D+00 EMaxC= 1.00D-01 BMatC= 7.15D-10 BMatP= 2.19D-08
 IDIUse=1 WtCom= 1.00D+00 WtEn= 0.00D+00
 Coeff-Com: -0.632D-05 0.190D-02 0.284D-02-0.872D-02-0.123D-01 0.209D-01
 Coeff-Com:  0.355D-01-0.386D-01-0.302D+00 0.130D+01
 Coeff:     -0.632D-05 0.190D-02 0.284D-02-0.872D-02-0.123D-01 0.209D-01
 Coeff:      0.355D-01-0.386D-01-0.302D+00 0.130D+01
 Gap=     0.338 Goal=   None    Shift=    0.000
 RMSDP=3.01D-07 MaxDP=1.92D-05 DE=-6.54D-08 OVMax= 6.15D-05

 Cycle  11  Pass 1  IDiag  1:
 E= -1869.06618316885     Delta-E=       -0.000000002620 Rises=F Damp=F
 DIIS: error= 8.34D-07 at cycle  11 NSaved=  11.
 NSaved=11 IEnMin=11 EnMin= -1869.06618316885     IErMin=11 ErrMin= 8.34D-07
 ErrMax= 8.34D-07  0.00D+00 EMaxC= 1.00D-01 BMatC= 3.96D-11 BMatP= 7.15D-10
 IDIUse=1 WtCom= 1.00D+00 WtEn= 0.00D+00
 Coeff-Com: -0.645D-05 0.621D-04 0.225D-04 0.595D-03-0.164D-02 0.551D-03
 Coeff-Com: -0.299D-02 0.105D-01-0.188D-01-0.105D+00 0.112D+01
 Coeff:     -0.645D-05 0.621D-04 0.225D-04 0.595D-03-0.164D-02 0.551D-03
 Coeff:     -0.299D-02 0.105D-01-0.188D-01-0.105D+00 0.112D+01
 Gap=     0.338 Goal=   None    Shift=    0.000
 RMSDP=4.29D-08 MaxDP=1.80D-06 DE=-2.62D-09 OVMax= 7.81D-06

 Cycle  12  Pass 1  IDiag  1:
 E= -1869.06618316890     Delta-E=       -0.000000000052 Rises=F Damp=F
 DIIS: error= 9.97D-08 at cycle  12 NSaved=  12.
 NSaved=12 IEnMin=12 EnMin= -1869.06618316890     IErMin=12 ErrMin= 9.97D-08
 ErrMax= 9.97D-08  0.00D+00 EMaxC= 1.00D-01 BMatC= 6.05D-13 BMatP= 3.96D-11
 IDIUse=1 WtCom= 1.00D+00 WtEn= 0.00D+00
 Coeff-Com:  0.911D-06-0.829D-04-0.927D-04 0.286D-03 0.478D-03-0.905D-03
 Coeff-Com: -0.585D-03 0.385D-03 0.102D-01-0.298D-01-0.146D+00 0.117D+01
 Coeff:      0.911D-06-0.829D-04-0.927D-04 0.286D-03 0.478D-03-0.905D-03
 Coeff:     -0.585D-03 0.385D-03 0.102D-01-0.298D-01-0.146D+00 0.117D+01
 Gap=     0.338 Goal=   None    Shift=    0.000
 RMSDP=9.42D-09 MaxDP=3.65D-07 DE=-5.16D-11 OVMax= 1.42D-06

 SCF Done:  E(ROHF) =  -1869.06618317     A.U. after   12 cycles
            NFock= 12  Conv=0.94D-08     -V/T= 1.9495
 <Sx>= 0.0000 <Sy>= 0.0000 <Sz>= 0.0000 <S**2>=-0.0000 S=-0.0000
 <L.S>=  0.00000000000    
 KE= 1.968464230879D+03 PE=-4.734964363034D+03 EE= 8.180573673482D+02
 Annihilation of the first spin contaminant:
 S**2 before annihilation    -0.0000,   after    -0.0000
 Leave Link  502 at Sat Mar 17 03:27:25 2018, MaxMem= 21474836480 cpu:             126.0 elap:               4.9
 (Enter /home1/apps/gaussian/16rA.03/g16/l801.exe)
 Windowed orbitals will be sorted by symmetry type.
 GenMOA:  NOpAll=  4 NOp2=4 NOpUse=  4 JSym2X=1
 FoFJK:  IHMeth= 1 ICntrl=       0 DoSepK=F KAlg= 0 I1Cent=           0 FoldK=F
 IRaf=         0 NMat=       1 IRICut=       1 DoRegI=T DoRafI=F ISym2E= 1 IDoP0=0 IntGTp=1.
 FoFCou: FMM=F IPFlag=           8 FMFlag=      100000 FMFlg1=           0
         NFxFlg=           0 DoJE=F BraDBF=F KetDBF=F FulRan=T
         wScrn=  0.000000 ICntrl=         0 IOpCl=  1 I1Cent=           0 NGrid=           0
         NMat0=    1 NMatS0=      1 NMatT0=    0 NMatD0=    1 NMtDS0=    0 NMtDT0=    0
 Petite list used in FoFCou.
 <Sx>= 0.0000 <Sy>= 0.0000 <Sz>= 0.0000 <S**2>=-0.0000 S=-0.0000
 Range of M.O.s used for correlation:     1   261
 NBasis=   261 NAE=    19 NBE=    19 NFC=     0 NFV=     0
 NROrb=    261 NOA=    19 NOB=    19 NVA=   242 NVB=   242

 **** Warning!!: The largest alpha MO coefficient is  0.20363825D+03


 **** Warning!!: The largest beta MO coefficient is  0.20363825D+03

 Singles contribution to E2=   -0.3721461892D-13
 Leave Link  801 at Sat Mar 17 03:27:27 2018, MaxMem= 21474836480 cpu:              33.2 elap:               1.1
 (Enter /home1/apps/gaussian/16rA.03/g16/l804.exe)
 Open-shell transformation, MDV= 21474836480 ITran=4 ISComp=2.
 Unit  1 TFree=       2047363 TCopy=       1768294.
 Semi-Direct transformation.
 ModeAB=           4 MOrb=            19 LenV=   21472766077
 LASXX=     41582145 LTotXX=    41582145 LenRXX=    83986779
 LTotAB=    42404634 MaxLAS=   235274796 LenRXY=           0
 NonZer=   125568924 LenScr=   189112320 LnRSAI=   235274796
 LnScr1=   354296832 LExtra=    32902293 Total=    895573020
 MaxDsk= 67108864000 SrtSym=           T ITran=            4
 DoSDTr:  NPSUse= 32
 JobTyp=1 Pass  1:  I=   1 to  19.
 (rs|ai) integrals will be sorted in core.
 Complete sort for first half transformation.
 First half transformation complete.
 Begin second half transformation for I=  10.
 Complete sort for second half transformation.
 Second half transformation complete.
 ModeAB=           4 MOrb=            19 LenV=   21472766077
 LASXX=     41582145 LTotXX=    41582145 LenRXX=    77971635
 LTotAB=    36389490 MaxLAS=   235274796 LenRXY=           0
 NonZer=   119553780 LenScr=   180076544 LnRSAI=   235274796
 LnScr1=   354296832 LExtra=   116889072 Total=    964508879
 MaxDsk= 67108864000 SrtSym=           T ITran=            4
 DoSDTr:  NPSUse= 32
 JobTyp=2 Pass  1:  I=   1 to  19.
 (rs|ai) integrals will be sorted in core.
 Complete sort for first half transformation.
 First half transformation complete.
 Begin second half transformation for I=  10.
 Complete sort for second half transformation.
 Second half transformation complete.
 Spin components of T(2) and E(2):
     alpha-alpha T2 =       0.3523278341D-01 E2=     -0.2833227476D+00
     alpha-beta  T2 =       0.1619648206D+00 E2=     -0.1264291203D+01
     beta-beta   T2 =       0.3523278341D-01 E2=     -0.2833227476D+00
 ANorm=    0.1110148813D+01
 E2 =    -0.1830936698D+01 EUMP2 =    -0.18708971198673D+04
 (S**2,0)=  0.00000D+00           (S**2,1)=  0.00000D+00
 E(PUHF)=      -0.18690661832D+04        E(PMP2)=      -0.18708971199D+04
 Leave Link  804 at Sat Mar 17 03:28:18 2018, MaxMem= 21474836480 cpu:            1630.4 elap:              51.2
 (Enter /home1/apps/gaussian/16rA.03/g16/l913.exe)
 CIDS:  MDV= 21474836480.
 IFCWin=0 IBDFC=1 NFBD=     0     0 NFCmp=     0     0 NFFFC=     0     0
 Using original routines for 1st iteration.
 Using DD4UQ or CC4UQ for 2nd and later iterations.
 Keep R2 and R3 ints in memory in symmetry-blocked form, NReq=734627193.
 FoFCou: FMM=F IPFlag=           8 FMFlag=           0 FMFlg1=           0
         NFxFlg=           0 DoJE=F BraDBF=F KetDBF=F FulRan=T
         wScrn=  0.000000 ICntrl=       600 IOpCl=  0 I1Cent=           0 NGrid=           0
         NMat0=    1 NMatS0=  34191 NMatT0=    0 NMatD0=    1 NMtDS0=    0 NMtDT0=    0
 Petite list used in FoFCou.
 CIDS: In Core Option IDoMem=           1.
 CCSD(T)
 =======
 Iterations= 150 Convergence= 0.100D-06
 Produce multiple copies of IABC intergrals
 Iteration Nr.   1
 **********************
 DD1Dir will call FoFMem   1 times, MxPair=      1064
 NAB=   361 NAA=   171 NBB=   171.
 DD1Dir will call FoFMem   1 times, MxPair=      1064
 NAB=   361 NAA=   171 NBB=   171.
 MP4(R+Q)= -0.20949960D+00
 Maximum subspace dimension=  5
 A-vector RMS=  1.8883002D-05 Max=  2.6567474D-02 conv= 1.00D-05.
 RLE energy=       -1.8290383306
 E3=        0.21139994D+00        EROMP3=      -0.18706857199D+04
 E4(SDQ)=  -0.12623574D+00        ROMP4(SDQ)=  -0.18708119557D+04
 VARIATIONAL ENERGIES WITH THE FIRST-ORDER WAVEFUNCTION:
 DE(Corr)=  -1.8290364     E(Corr)=     -1870.8952195    
 NORM(A)=   0.11030205D+01
 Iteration Nr.   2
 **********************
 DD1Dir will call FoFMem   1 times, MxPair=      1064
 NAB=   361 NAA=   171 NBB=   171.
 A-vector RMS=  4.0639212D-03 Max=  6.7036485D-02 conv= 1.00D-05.
 RLE energy=       -1.7716723067
 DE(Corr)=  -1.6118080     E(CORR)=     -1870.6779912     Delta= 2.17D-01
 NORM(A)=   0.10934985D+01
 Iteration Nr.   3
 **********************
 DD1Dir will call FoFMem   1 times, MxPair=      1064
 NAB=   361 NAA=   171 NBB=   171.
 A-vector RMS=  2.4656402D-03 Max=  3.8966885D-02 conv= 1.00D-05.
 RLE energy=       -1.7438098959
 DE(Corr)=  -1.6392385     E(CORR)=     -1870.7054217     Delta=-2.74D-02
 NORM(A)=   0.10945341D+01
 Iteration Nr.   4
 **********************
 DD1Dir will call FoFMem   1 times, MxPair=      1064
 NAB=   361 NAA=   171 NBB=   171.
 A-vector RMS=  2.3299286D-03 Max=  4.3470435D-02 conv= 1.00D-05.
 RLE energy=       -1.6535180482
 DE(Corr)=  -1.6545889     E(CORR)=     -1870.7207720     Delta=-1.54D-02
 NORM(A)=   0.11092430D+01
 Iteration Nr.   5
 **********************
 DD1Dir will call FoFMem   1 times, MxPair=      1064
 NAB=   361 NAA=   171 NBB=   171.
 A-vector RMS=  1.3946630D-03 Max=  2.7001644D-02 conv= 1.00D-05.
 RLE energy=       -1.7033341920
 DE(Corr)=  -1.7139522     E(CORR)=     -1870.7801354     Delta=-5.94D-02
 NORM(A)=   0.11057175D+01
 Iteration Nr.   6
 **********************
 DD1Dir will call FoFMem   1 times, MxPair=      1064
 NAB=   361 NAA=   171 NBB=   171.
 A-vector RMS=  6.3246278D-04 Max=  1.4108971D-02 conv= 1.00D-05.
 RLE energy=       -1.6921123497
 DE(Corr)=  -1.6839620     E(CORR)=     -1870.7501452     Delta= 3.00D-02
 NORM(A)=   0.11097619D+01
 Iteration Nr.   7
 **********************
 DD1Dir will call FoFMem   1 times, MxPair=      1064
 NAB=   361 NAA=   171 NBB=   171.
 A-vector RMS=  7.8488144D-05 Max=  1.5844045D-03 conv= 1.00D-05.
 RLE energy=       -1.6915411838
 DE(Corr)=  -1.6914409     E(CORR)=     -1870.7576241     Delta=-7.48D-03
 NORM(A)=   0.11103293D+01
 Iteration Nr.   8
 **********************
 DD1Dir will call FoFMem   1 times, MxPair=      1064
 NAB=   361 NAA=   171 NBB=   171.
 A-vector RMS=  4.0353870D-05 Max=  1.0266970D-03 conv= 1.00D-05.
 RLE energy=       -1.6916037541
 DE(Corr)=  -1.6916823     E(CORR)=     -1870.7578655     Delta=-2.41D-04
 NORM(A)=   0.11105955D+01
 Iteration Nr.   9
 **********************
 DD1Dir will call FoFMem   1 times, MxPair=      1064
 NAB=   361 NAA=   171 NBB=   171.
 A-vector RMS=  2.7581491D-05 Max=  5.9642304D-04 conv= 1.00D-05.
 RLE energy=       -1.6916153340
 DE(Corr)=  -1.6915659     E(CORR)=     -1870.7577490     Delta= 1.16D-04
 NORM(A)=   0.11107277D+01
 Iteration Nr.  10
 **********************
 DD1Dir will call FoFMem   1 times, MxPair=      1064
 NAB=   361 NAA=   171 NBB=   171.
 A-vector RMS=  1.4345307D-05 Max=  2.4685770D-04 conv= 1.00D-05.
 RLE energy=       -1.6915542298
 DE(Corr)=  -1.6916003     E(CORR)=     -1870.7577835     Delta=-3.45D-05
 NORM(A)=   0.11107343D+01
 Iteration Nr.  11
 **********************
 DD1Dir will call FoFMem   1 times, MxPair=      1064
 NAB=   361 NAA=   171 NBB=   171.
 A-vector RMS=  6.9459059D-06 Max=  1.6480527D-04 conv= 1.00D-05.
 RLE energy=       -1.6915973897
 DE(Corr)=  -1.6915984     E(CORR)=     -1870.7577815     Delta= 1.95D-06
 NORM(A)=   0.11107048D+01
 Iteration Nr.  12
 **********************
 DD1Dir will call FoFMem   1 times, MxPair=      1064
 NAB=   361 NAA=   171 NBB=   171.
 A-vector RMS=  2.1276188D-06 Max=  3.1509632D-05 conv= 1.00D-05.
 RLE energy=       -1.6915826544
 DE(Corr)=  -1.6915819     E(CORR)=     -1870.7577651     Delta= 1.65D-05
 NORM(A)=   0.11107046D+01
 Iteration Nr.  13
 **********************
 DD1Dir will call FoFMem   1 times, MxPair=      1064
 NAB=   361 NAA=   171 NBB=   171.
 A-vector RMS=  1.8175109D-06 Max=  3.7123127D-05 conv= 1.00D-05.
 RLE energy=       -1.6915890197
 DE(Corr)=  -1.6915927     E(CORR)=     -1870.7577758     Delta=-1.08D-05
 NORM(A)=   0.11107042D+01
 Iteration Nr.  14
 **********************
 DD1Dir will call FoFMem   1 times, MxPair=      1064
 NAB=   361 NAA=   171 NBB=   171.
 A-vector RMS=  1.1549569D-06 Max=  2.1201198D-05 conv= 1.00D-05.
 RLE energy=       -1.6915895838
 DE(Corr)=  -1.6915870     E(CORR)=     -1870.7577701     Delta= 5.70D-06
 NORM(A)=   0.11107088D+01
 Iteration Nr.  15
 **********************
 DD1Dir will call FoFMem   1 times, MxPair=      1064
 NAB=   361 NAA=   171 NBB=   171.
 A-vector RMS=  4.4914571D-07 Max=  1.0586373D-05 conv= 1.00D-05.
 RLE energy=       -1.6915894928
 DE(Corr)=  -1.6915894     E(CORR)=     -1870.7577725     Delta=-2.38D-06
 NORM(A)=   0.11107107D+01
 Iteration Nr.  16
 **********************
 DD1Dir will call FoFMem   1 times, MxPair=      1064
 NAB=   361 NAA=   171 NBB=   171.
 A-vector RMS=  2.0768153D-07 Max=  4.8224966D-06 conv= 1.00D-05.
 RLE energy=       -1.6915899185
 DE(Corr)=  -1.6915899     E(CORR)=     -1870.7577731     Delta=-5.37D-07
 NORM(A)=   0.11107117D+01
 Iteration Nr.  17
 **********************
 DD1Dir will call FoFMem   1 times, MxPair=      1064
 NAB=   361 NAA=   171 NBB=   171.
 A-vector RMS=  1.7124950D-07 Max=  4.3599096D-06 conv= 1.00D-05.
 RLE energy=       -1.6915897658
 DE(Corr)=  -1.6915896     E(CORR)=     -1870.7577728     Delta= 3.07D-07
 NORM(A)=   0.11107123D+01
 Iteration Nr.  18
 **********************
 DD1Dir will call FoFMem   1 times, MxPair=      1064
 NAB=   361 NAA=   171 NBB=   171.
 A-vector RMS=  6.4834850D-08 Max=  1.6625199D-06 conv= 1.00D-05.
 RLE energy=       -1.6915899379
 DE(Corr)=  -1.6915900     E(CORR)=     -1870.7577732     Delta=-4.28D-07
 NORM(A)=   0.11107127D+01
 Iteration Nr.  19
 **********************
 DD1Dir will call FoFMem   1 times, MxPair=      1064
 NAB=   361 NAA=   171 NBB=   171.
 A-vector RMS=  3.8458352D-08 Max=  6.0539222D-07 conv= 1.00D-05.
 RLE energy=       -1.6915899085
 DE(Corr)=  -1.6915899     E(CORR)=     -1870.7577730     Delta= 1.60D-07
 NORM(A)=   0.11107127D+01
 Iteration Nr.  20
 **********************
 DD1Dir will call FoFMem   1 times, MxPair=      1064
 NAB=   361 NAA=   171 NBB=   171.
 A-vector RMS=  2.6910154D-08 Max=  5.2983337D-07 conv= 1.00D-05.
 RLE energy=       -1.6915898538
 DE(Corr)=  -1.6915898     E(CORR)=     -1870.7577730     Delta= 3.26D-08
 NORM(A)=   0.11107127D+01
 CI/CC converged in   20 iterations to DelEn= 3.26D-08 Conv= 1.00D-07 ErrA1= 2.69D-08 Conv= 1.00D-05
 Wavefunction amplitudes converged. E(Corr)=     -1870.7577730    
 Dominant configurations:
 ***********************
 Spin Case        I    J    A    B          Value
   ABAB          19   19   20   20      -0.107882D+00
 Largest amplitude= 1.08D-01
 Time for triples=    46572.42 seconds.
 T4(CCSD)= -0.59806928D-01
 T5(CCSD)=  0.89690414D-02
 CCSD(T)= -0.18708086109D+04
 Discarding MO integrals.
 Leave Link  913 at Sat Mar 17 03:59:09 2018, MaxMem= 21474836480 cpu:           58725.0 elap:            1850.9
 (Enter /home1/apps/gaussian/16rA.03/g16/l601.exe)
 Copying SCF densities to generalized density rwf, IOpCl= 0 IROHF=1.

 **********************************************************************

            Population analysis using the SCF density.

 **********************************************************************

 Orbital symmetries:
       Occupied  (SG) (SG) (PI) (PI) (SG) (SG) (SG) (SG) (PI) (PI)
                 (SG) (PI) (PI) (DLTA) (DLTA) (SG) (PI) (PI) (SG)
       Virtual   (SG) (SG) (PI) (PI) (SG) (PI) (PI) (SG) (SG) (SG)
                 (PI) (PI) (DLTA) (DLTA) (PI) (PI) (SG) (PI) (PI)
                 (SG) (SG) (SG) (DLTA) (DLTA) (SG) (PI) (PI) (DLTA)
                 (DLTA) (PI) (PI) (SG) (PI) (PI) (PI) (PI) (SG)
                 (SG) (SG) (PHI) (PHI) (DLTA) (DLTA) (PI) (PI)
                 (PHI) (PHI) (SG) (DLTA) (DLTA) (SG) (PI) (PI)
                 (DLTA) (DLTA) (SG) (PI) (PI) (DLTA) (DLTA) (SG)
                 (PI) (PI) (SG) (PI) (PI) (SG) (PI) (PI) (SG) (SG)
                 (PHI) (PHI) (DLTA) (DLTA) (PI) (PI) (SG) (PHI)
                 (PHI) (DLTA) (DLTA) (PI) (PI) (SG) (DLTA) (DLTA)
                 (DLTA) (DLTA) (PI) (PI) (PI) (PI) (SG) (?A) (?A)
                 (PHI) (PHI) (SG) (DLTA) (DLTA) (SG) (PI) (PI)
                 (PI) (PI) (SG) (SG) (PHI) (PHI) (DLTA) (DLTA)
                 (PI) (PI) (SG) (PI) (PI) (SG) (DLTA) (DLTA) (PI)
                 (PI) (SG) (SG) (PI) (PI) (SG) (SG) (?A) (?A) (PHI)
                 (PHI) (DLTA) (DLTA) (PI) (PI) (SG) (DLTA) (DLTA)
                 (PI) (PI) (SG) (PHI) (PHI) (DLTA) (DLTA) (PI)
                 (PI) (SG) (PI) (PI) (SG) (SG) (SG) (PI) (PI) (DLTA)
                 (DLTA) (SG) (PI) (PI) (SG) (?A) (?A) (PHI) (PHI)
                 (DLTA) (DLTA) (PI) (PI) (SG) (DLTA) (DLTA) (PI)
                 (PI) (SG) (PI) (PI) (SG) (SG) (SG) (DLTA) (DLTA)
                 (PI) (PI) (SG) (PI) (PI) (SG) (PI) (PI) (SG) (SG)
                 (SG) (DLTA) (DLTA) (PI) (PI) (SG) (PI) (PI) (SG)
                 (PI) (PI) (SG) (SG) (SG) (PI) (PI) (SG) (DLTA)
                 (DLTA) (PI) (PI) (SG) (PI) (PI) (SG) (SG) (SG)
                 (PI) (PI) (SG) (SG) (SG) (PI) (PI) (SG) (SG) (SG)
                 (PI) (PI) (SG) (SG) (SG) (PI) (PI) (SG) (SG) (SG)
                 (SG) (SG)
 The electronic state is 1-SG.
 Alpha  occ. eigenvalues -- -357.61785 -45.38783 -39.19118 -39.19118 -39.18837
 Alpha  occ. eigenvalues --  -20.49888  -5.85817  -3.93990  -3.93569  -3.93569
 Alpha  occ. eigenvalues --   -1.16798  -0.83158  -0.83158  -0.82122  -0.82122
 Alpha  occ. eigenvalues --   -0.79806  -0.39560  -0.39560  -0.38511
 Alpha virt. eigenvalues --   -0.04663   0.02691   0.02712   0.02712   0.04692
 Alpha virt. eigenvalues --    0.09134   0.09134   0.13401   0.17709   0.22081
 Alpha virt. eigenvalues --    0.23774   0.23774   0.24718   0.24718   0.30094
 Alpha virt. eigenvalues --    0.30094   0.30620   0.34348   0.34348   0.39380
 Alpha virt. eigenvalues --    0.61412   0.64214   0.76846   0.76846   0.83511
 Alpha virt. eigenvalues --    0.88807   0.88807   0.88991   0.88991   0.98251
 Alpha virt. eigenvalues --    0.98251   1.01896   1.09000   1.09000   1.18102
 Alpha virt. eigenvalues --    1.18102   1.24594   1.37461   1.81126   1.81837
 Alpha virt. eigenvalues --    1.81837   1.82580   1.82580   2.01969   2.01969
 Alpha virt. eigenvalues --    2.19916   2.19916   2.26867   2.31053   2.31053
 Alpha virt. eigenvalues --    2.39945   2.50870   2.50870   2.52314   2.52314
 Alpha virt. eigenvalues --    2.55367   2.65093   2.65093   2.73608   2.73608
 Alpha virt. eigenvalues --    2.92779   3.27792   3.27792   3.42008   3.50292
 Alpha virt. eigenvalues --    3.50292   3.97287   4.05679   4.05679   4.93184
 Alpha virt. eigenvalues --    5.19799   5.32737   5.32737   5.42703   5.42703
 Alpha virt. eigenvalues --    5.58697   5.58697   5.64101   6.61422   6.61422
 Alpha virt. eigenvalues --    6.66258   6.66258   6.71699   6.71699   6.75117
 Alpha virt. eigenvalues --    7.14242   7.14242   7.17917   7.17917   7.23207
 Alpha virt. eigenvalues --    7.23207   7.30389   7.30389   7.39764   7.73017
 Alpha virt. eigenvalues --    7.73017   7.73639   7.73639   7.76304   7.81073
 Alpha virt. eigenvalues --    7.81073   8.09757   8.27886   8.27886   8.80744
 Alpha virt. eigenvalues --    8.80744   8.98893   9.60076  13.73455  13.73455
 Alpha virt. eigenvalues --   13.80419  13.80419  13.94510  13.94510  14.02249
 Alpha virt. eigenvalues --   14.57829  14.57829  15.38091  15.80502  15.80502
 Alpha virt. eigenvalues --   15.93242  15.93242  16.16792  16.23337  18.59585
 Alpha virt. eigenvalues --   18.59585  18.66634  19.25917  20.16070  20.16070
 Alpha virt. eigenvalues --   20.16429  20.16429  20.19902  20.19902  20.35210
 Alpha virt. eigenvalues --   20.35210  20.86673  30.72929  30.72929  30.84303
 Alpha virt. eigenvalues --   30.84303  31.07488  35.91366  35.91366  35.96400
 Alpha virt. eigenvalues --   35.96400  36.02191  36.02191  36.06600  36.09676
 Alpha virt. eigenvalues --   36.09676  36.51026  39.72635  40.59228  43.70134
 Alpha virt. eigenvalues --   43.70134  43.93976  43.93976  43.96983  44.00983
 Alpha virt. eigenvalues --   44.00983  44.63845  47.16420  47.16420  47.16957
 Alpha virt. eigenvalues --   47.16957  47.19316  47.19316  47.29193  47.29193
 Alpha virt. eigenvalues --   47.60067  55.36906  55.36906  55.47762  55.47762
 Alpha virt. eigenvalues --   55.70312  66.74397  66.74397  67.11527  81.46187
 Alpha virt. eigenvalues --   88.14265  99.53448  99.53448  99.63354  99.63354
 Alpha virt. eigenvalues --   99.83553 113.46065 113.46065 114.10128 121.21787
 Alpha virt. eigenvalues --  121.21787 121.56916 178.67980 180.61848 212.93566
 Alpha virt. eigenvalues --  212.93566 213.01432 213.01432 213.18262 229.02458
 Alpha virt. eigenvalues --  229.02458 229.34620 261.67515 261.67515 262.24280
 Alpha virt. eigenvalues --  414.59883 429.35931 466.66213 466.66213 466.94600
 Alpha virt. eigenvalues --  640.27216 640.27216 640.32144 640.32144 640.43234
 Alpha virt. eigenvalues -- 1015.234901015.234901015.475861058.655711220.15502
 Alpha virt. eigenvalues -- 2313.147302313.147302313.343242546.629634466.71060
 Alpha virt. eigenvalues -- 5450.491395450.491395450.635035873.61936**********
 Alpha virt. eigenvalues -- **************************************************
 Alpha virt. eigenvalues -- **************************************************
 Alpha virt. eigenvalues -- ********************
     Molecular Orbital Coefficients:
                          15        16        17        18        19
                           O         O         O         O         O
     Eigenvalues --    -0.82122  -0.79806  -0.39560  -0.39560  -0.38511
   1 1   Zn 1S          0.00000   0.00000   0.00000   0.00000  -0.00000
   2        2S          0.00000   0.00000   0.00000   0.00000  -0.00001
   3        3S          0.00000   0.00000   0.00000   0.00000  -0.00003
   4        4S          0.00000   0.00001   0.00000   0.00000  -0.00007
   5        5S          0.00000   0.00002   0.00000   0.00000  -0.00019
   6        6S          0.00000   0.00006   0.00000   0.00000  -0.00049
   7        7S          0.00000   0.00015   0.00000   0.00000  -0.00124
   8        8S          0.00000   0.00038   0.00000   0.00000  -0.00306
   9        9S          0.00000   0.00083   0.00000   0.00000  -0.00669
  10       10S          0.00000   0.00155   0.00000   0.00000  -0.01246
  11       11S          0.00000   0.00168   0.00000   0.00000  -0.01371
  12       12S         -0.00000  -0.00050   0.00000   0.00000   0.00467
  13       13S         -0.00000  -0.00858   0.00000   0.00000   0.06597
  14       14S         -0.00000  -0.00770   0.00000   0.00000   0.07226
  15       15S          0.00000   0.01595   0.00000   0.00000  -0.09043
  16       16S         -0.00000  -0.01199   0.00000   0.00000  -0.01206
  17       17S         -0.00000   0.00902   0.00000   0.00000  -0.13261
  18       18S         -0.00000  -0.06714   0.00000   0.00000   0.31312
  19       19S          0.00000   0.01743   0.00000   0.00000   0.24658
  20       20S          0.00000  -0.00113   0.00000   0.00000   0.04596
  21       21S         -0.00000  -0.00777   0.00000   0.00000   0.03605
  22       22S          0.00000   0.04138   0.00000   0.00000  -0.19518
  23       23S         -0.00000   0.00105   0.00000   0.00000   0.00048
  24       24PX         0.00000   0.00000   0.00000   0.00000   0.00000
  25       24PY         0.00000   0.00000   0.00000   0.00000   0.00000
  26       24PZ         0.00000   0.00000   0.00000   0.00000  -0.00000
  27       25PX         0.00000   0.00000   0.00000   0.00002   0.00000
  28       25PY         0.00000   0.00000   0.00002   0.00000   0.00000
  29       25PZ        -0.00000   0.00000   0.00000   0.00000  -0.00001
  30       26PX         0.00000   0.00000   0.00000   0.00007   0.00000
  31       26PY         0.00000   0.00000   0.00007   0.00000   0.00000
  32       26PZ         0.00000   0.00002   0.00000   0.00000  -0.00006
  33       27PX         0.00000   0.00000   0.00000   0.00026   0.00000
  34       27PY         0.00000   0.00000   0.00026   0.00000   0.00000
  35       27PZ        -0.00000   0.00008   0.00000   0.00000  -0.00024
  36       28PX         0.00000   0.00000   0.00000   0.00088   0.00000
  37       28PY         0.00000   0.00000   0.00088   0.00000   0.00000
  38       28PZ         0.00000   0.00024   0.00000   0.00000  -0.00083
  39       29PX         0.00000   0.00000   0.00000   0.00255   0.00000
  40       29PY         0.00000   0.00000   0.00255   0.00000   0.00000
  41       29PZ         0.00000   0.00074   0.00000   0.00000  -0.00235
  42       30PX         0.00000   0.00000   0.00000   0.00574   0.00000
  43       30PY         0.00000   0.00000   0.00574   0.00000   0.00000
  44       30PZ         0.00000   0.00149   0.00000   0.00000  -0.00545
  45       31PX         0.00000   0.00000   0.00000   0.00979   0.00000
  46       31PY         0.00000   0.00000   0.00979   0.00000   0.00000
  47       31PZ         0.00000   0.00307   0.00000   0.00000  -0.00876
  48       32PX         0.00000   0.00000   0.00000   0.00880   0.00000
  49       32PY         0.00000   0.00000   0.00880   0.00000   0.00000
  50       32PZ         0.00000   0.00061   0.00000   0.00000  -0.01003
  51       33PX         0.00000   0.00000   0.00000  -0.00921   0.00000
  52       33PY         0.00000   0.00000  -0.00921   0.00000   0.00000
  53       33PZ        -0.00000  -0.01715   0.00000   0.00000  -0.00606
  54       34PX         0.00000   0.00000   0.00000  -0.02404   0.00000
  55       34PY         0.00000   0.00000  -0.02404   0.00000   0.00000
  56       34PZ         0.00000   0.00340   0.00000   0.00000   0.03185
  57       35PX         0.00000   0.00000   0.00000  -0.01855   0.00000
  58       35PY         0.00000   0.00000  -0.01855   0.00000   0.00000
  59       35PZ         0.00000   0.05767   0.00000   0.00000   0.07598
  60       36PX         0.00000   0.00000   0.00000  -0.02666   0.00000
  61       36PY         0.00000   0.00000  -0.02666   0.00000   0.00000
  62       36PZ        -0.00000  -0.01622   0.00000   0.00000   0.01294
  63       37PX         0.00000   0.00000   0.00000   0.04630   0.00000
  64       37PY         0.00000   0.00000   0.04630   0.00000   0.00000
  65       37PZ         0.00000   0.02012   0.00000   0.00000  -0.03937
  66       38PX         0.00000   0.00000   0.00000   0.08733   0.00000
  67       38PY         0.00000   0.00000   0.08733   0.00000   0.00000
  68       38PZ         0.00000  -0.00970   0.00000   0.00000   0.01928
  69       39PX         0.00000   0.00000   0.00000   0.02214   0.00000
  70       39PY         0.00000   0.00000   0.02214   0.00000   0.00000
  71       39PZ         0.00000  -0.00622   0.00000   0.00000   0.02859
  72       40PX         0.00000   0.00000   0.00000   0.00423   0.00000
  73       40PY         0.00000   0.00000   0.00423   0.00000   0.00000
  74       40PZ         0.00000   0.01404   0.00000   0.00000   0.00903
  75       41PX         0.00000   0.00000   0.00000  -0.01820   0.00000
  76       41PY         0.00000   0.00000  -0.01820   0.00000   0.00000
  77       41PZ        -0.00000  -0.06800   0.00000   0.00000  -0.04127
  78       42PX         0.00000   0.00000   0.00000  -0.00467   0.00000
  79       42PY         0.00000   0.00000  -0.00467   0.00000   0.00000
  80       42PZ        -0.00000   0.00100   0.00000   0.00000  -0.00492
  81       43D 0        0.00000   0.00234   0.00000   0.00000  -0.00033
  82       43D+1        0.00000   0.00000   0.00000   0.00044   0.00000
  83       43D-1        0.00000   0.00000   0.00044   0.00000   0.00000
  84       43D+2        0.00247  -0.00000   0.00000   0.00000  -0.00000
  85       43D-2        0.00000   0.00000   0.00000   0.00000   0.00000
  86       44D 0        0.00000   0.01779   0.00000   0.00000  -0.00252
  87       44D+1        0.00000   0.00000   0.00000   0.00339   0.00000
  88       44D-1        0.00000   0.00000   0.00339   0.00000   0.00000
  89       44D+2        0.01876  -0.00000   0.00000   0.00000  -0.00000
  90       44D-2        0.00000   0.00000   0.00000   0.00000   0.00000
  91       45D 0        0.00000   0.07302   0.00000   0.00000  -0.01016
  92       45D+1        0.00000   0.00000   0.00000   0.01372   0.00000
  93       45D-1        0.00000   0.00000   0.01372   0.00000   0.00000
  94       45D+2        0.07715  -0.00000   0.00000   0.00000  -0.00000
  95       45D-2        0.00000   0.00000   0.00000   0.00000   0.00000
  96       46D 0        0.00000   0.19017   0.00000   0.00000  -0.02947
  97       46D+1        0.00000   0.00000   0.00000   0.03883   0.00000
  98       46D-1        0.00000   0.00000   0.03883   0.00000   0.00000
  99       46D+2        0.19833  -0.00000   0.00000   0.00000  -0.00000
 100       46D-2        0.00000   0.00000   0.00000   0.00000   0.00000
 101       47D 0        0.00000   0.30991   0.00000   0.00000  -0.09286
 102       47D+1        0.00000   0.00000   0.00000   0.11029   0.00000
 103       47D-1        0.00000   0.00000   0.11029   0.00000   0.00000
 104       47D+2        0.28797  -0.00000   0.00000   0.00000  -0.00000
 105       47D-2        0.00000   0.00000   0.00000   0.00000   0.00000
 106       48D 0        0.00000   0.34370   0.00000   0.00000  -0.05066
 107       48D+1        0.00000   0.00000   0.00000   0.06802   0.00000
 108       48D-1        0.00000   0.00000   0.06802   0.00000   0.00000
 109       48D+2        0.35911  -0.00000   0.00000   0.00000  -0.00000
 110       48D-2        0.00000   0.00000   0.00000   0.00000   0.00000
 111       49D 0        0.00000   0.26257   0.00000   0.00000  -0.02522
 112       49D+1        0.00000   0.00000   0.00000   0.03740   0.00000
 113       49D-1        0.00000   0.00000   0.03740   0.00000   0.00000
 114       49D+2        0.27512  -0.00000   0.00000   0.00000   0.00000
 115       49D-2        0.00000   0.00000   0.00000   0.00000   0.00000
 116       50D 0        0.00000   0.10195   0.00000   0.00000  -0.02006
 117       50D+1        0.00000   0.00000   0.00000   0.01171   0.00000
 118       50D-1        0.00000   0.00000   0.01171   0.00000   0.00000
 119       50D+2        0.10161  -0.00000   0.00000   0.00000   0.00000
 120       50D-2        0.00000   0.00000   0.00000   0.00000   0.00000
 121       51D 0       -0.00000   0.00085   0.00000   0.00000   0.00483
 122       51D+1        0.00000   0.00000   0.00000  -0.00491   0.00000
 123       51D-1        0.00000   0.00000  -0.00491   0.00000   0.00000
 124       51D+2        0.00508  -0.00000   0.00000   0.00000   0.00000
 125       51D-2        0.00000   0.00000   0.00000   0.00000   0.00000
 126       52D 0       -0.00000   0.00130   0.00000   0.00000   0.04896
 127       52D+1        0.00000   0.00000   0.00000  -0.05133   0.00000
 128       52D-1        0.00000   0.00000  -0.05133   0.00000   0.00000
 129       52D+2        0.03965  -0.00000   0.00000   0.00000   0.00000
 130       52D-2        0.00000   0.00000   0.00000   0.00000   0.00000
 131       53D 0       -0.00000   0.00885   0.00000   0.00000  -0.02212
 132       53D+1        0.00000   0.00000   0.00000  -0.00193   0.00000
 133       53D-1        0.00000   0.00000  -0.00193   0.00000   0.00000
 134       53D+2        0.00380  -0.00000   0.00000   0.00000   0.00000
 135       53D-2        0.00000   0.00000   0.00000   0.00000   0.00000
 136       54F 0        0.00000   0.00040   0.00000   0.00000  -0.00023
 137       54F+1        0.00000   0.00000   0.00000   0.00023   0.00000
 138       54F-1        0.00000   0.00000   0.00023   0.00000   0.00000
 139       54F+2        0.00035  -0.00000   0.00000   0.00000  -0.00000
 140       54F-2        0.00000   0.00000   0.00000   0.00000   0.00000
 141       54F+3        0.00000   0.00000   0.00000  -0.00000   0.00000
 142       54F-3        0.00000   0.00000  -0.00000   0.00000   0.00000
 143       55F 0       -0.00000   0.00147   0.00000   0.00000  -0.00101
 144       55F+1        0.00000   0.00000   0.00000   0.00085   0.00000
 145       55F-1        0.00000   0.00000   0.00085   0.00000   0.00000
 146       55F+2        0.00114  -0.00000   0.00000   0.00000  -0.00000
 147       55F-2        0.00000   0.00000   0.00000   0.00000   0.00000
 148       55F+3        0.00000   0.00000   0.00000  -0.00000   0.00000
 149       55F-3        0.00000   0.00000  -0.00000   0.00000   0.00000
 150       56F 0        0.00000   0.00237   0.00000   0.00000  -0.00296
 151       56F+1        0.00000   0.00000   0.00000   0.00283   0.00000
 152       56F-1        0.00000   0.00000   0.00283   0.00000   0.00000
 153       56F+2        0.00247  -0.00000   0.00000   0.00000  -0.00000
 154       56F-2        0.00000   0.00000   0.00000   0.00000   0.00000
 155       56F+3        0.00000   0.00000   0.00000  -0.00000   0.00000
 156       56F-3        0.00000   0.00000  -0.00000   0.00000   0.00000
 157       57F 0        0.00000   0.00805   0.00000   0.00000  -0.00763
 158       57F+1        0.00000   0.00000   0.00000   0.01156   0.00000
 159       57F-1        0.00000   0.00000   0.01156   0.00000   0.00000
 160       57F+2        0.00677  -0.00000   0.00000   0.00000  -0.00000
 161       57F-2        0.00000   0.00000   0.00000   0.00000   0.00000
 162       57F+3        0.00000   0.00000   0.00000   0.00000   0.00000
 163       57F-3        0.00000   0.00000   0.00000   0.00000   0.00000
 164       58G 0        0.00000   0.00001   0.00000   0.00000   0.00003
 165       58G+1        0.00000   0.00000   0.00000  -0.00012   0.00000
 166       58G-1        0.00000   0.00000  -0.00012   0.00000   0.00000
 167       58G+2       -0.00001  -0.00000   0.00000   0.00000   0.00000
 168       58G-2        0.00000   0.00000   0.00000   0.00000   0.00000
 169       58G+3        0.00000   0.00000   0.00000  -0.00000   0.00000
 170       58G-3        0.00000   0.00000  -0.00000   0.00000   0.00000
 171       58G+4       -0.00000  -0.00000   0.00000   0.00000   0.00000
 172       58G-4        0.00000   0.00000   0.00000   0.00000   0.00000
 173       59G 0       -0.00000  -0.00022   0.00000   0.00000   0.00003
 174       59G+1        0.00000   0.00000   0.00000   0.00033   0.00000
 175       59G-1        0.00000   0.00000   0.00033   0.00000   0.00000
 176       59G+2       -0.00005  -0.00000   0.00000   0.00000   0.00000
 177       59G-2        0.00000   0.00000   0.00000   0.00000   0.00000
 178       59G+3        0.00000   0.00000   0.00000  -0.00000   0.00000
 179       59G-3        0.00000   0.00000  -0.00000   0.00000   0.00000
 180       59G+4       -0.00000   0.00000   0.00000   0.00000  -0.00000
 181       59G-4        0.00000   0.00000   0.00000   0.00000   0.00000
 182       60G 0        0.00000   0.00073   0.00000   0.00000   0.00035
 183       60G+1        0.00000   0.00000   0.00000  -0.00131   0.00000
 184       60G-1        0.00000   0.00000  -0.00131   0.00000   0.00000
 185       60G+2        0.00022   0.00000   0.00000   0.00000   0.00000
 186       60G-2        0.00000   0.00000   0.00000   0.00000   0.00000
 187       60G+3        0.00000   0.00000   0.00000   0.00000   0.00000
 188       60G-3        0.00000   0.00000   0.00000   0.00000   0.00000
 189       60G+4        0.00000  -0.00000   0.00000   0.00000   0.00000
 190       60G-4        0.00000   0.00000   0.00000   0.00000   0.00000
 191 2   O  1S          0.00000   0.00004   0.00000   0.00000   0.00003
 192        2S          0.00000   0.00023   0.00000   0.00000   0.00017
 193        3S         -0.00000   0.00116   0.00000   0.00000   0.00087
 194        4S         -0.00000   0.00457   0.00000   0.00000   0.00340
 195        5S          0.00000   0.01463   0.00000   0.00000   0.01095
 196        6S         -0.00000   0.03900   0.00000   0.00000   0.02981
 197        7S         -0.00000   0.05039   0.00000   0.00000   0.03915
 198        8S         -0.00000  -0.14080   0.00000   0.00000  -0.11855
 199        9S         -0.00000  -0.04409   0.00000   0.00000  -0.03718
 200       10S          0.00000  -0.15292   0.00000   0.00000  -0.11718
 201       11S          0.00000  -0.00827   0.00000   0.00000  -0.00716
 202       12S          0.00000  -0.00394   0.00000   0.00000  -0.00330
 203       13S          0.00000  -0.03960   0.00000   0.00000  -0.00991
 204       14PX         0.00000   0.00000   0.00000   0.00748   0.00000
 205       14PY         0.00000   0.00000   0.00748   0.00000   0.00000
 206       14PZ         0.00000   0.00127   0.00000   0.00000   0.00566
 207       15PX         0.00000   0.00000   0.00000   0.08099   0.00000
 208       15PY         0.00000   0.00000   0.08099   0.00000   0.00000
 209       15PZ         0.00000   0.01387   0.00000   0.00000   0.06130
 210       16PX         0.00000   0.00000   0.00000   0.26828   0.00000
 211       16PY         0.00000   0.00000   0.26828   0.00000   0.00000
 212       16PZ         0.00000   0.04600   0.00000   0.00000   0.20263
 213       17PX         0.00000   0.00000   0.00000   0.42286   0.00000
 214       17PY         0.00000   0.00000   0.42286   0.00000   0.00000
 215       17PZ         0.00000   0.07285   0.00000   0.00000   0.32556
 216       18PX         0.00000   0.00000   0.00000   0.36675   0.00000
 217       18PY         0.00000   0.00000   0.36675   0.00000   0.00000
 218       18PZ         0.00000   0.02089   0.00000   0.00000   0.27304
 219       19PX         0.00000   0.00000   0.00000   0.00755   0.00000
 220       19PY         0.00000   0.00000   0.00755   0.00000   0.00000
 221       19PZ         0.00000   0.00141   0.00000   0.00000   0.00585
 222       20PX         0.00000   0.00000   0.00000   0.00335   0.00000
 223       20PY         0.00000   0.00000   0.00335   0.00000   0.00000
 224       20PZ         0.00000   0.00060   0.00000   0.00000   0.00257
 225       21PX         0.00000   0.00000   0.00000   0.06786   0.00000
 226       21PY         0.00000   0.00000   0.06786   0.00000   0.00000
 227       21PZ         0.00000  -0.00508   0.00000   0.00000   0.05215
 228       22D 0       -0.00000   0.00380   0.00000   0.00000   0.00443
 229       22D+1        0.00000   0.00000   0.00000   0.00388   0.00000
 230       22D-1        0.00000   0.00000   0.00388   0.00000   0.00000
 231       22D+2        0.00042  -0.00000   0.00000   0.00000   0.00000
 232       22D-2        0.00000   0.00000   0.00000   0.00000   0.00000
 233       23D 0       -0.00000   0.01101   0.00000   0.00000   0.01636
 234       23D+1        0.00000   0.00000   0.00000   0.01966   0.00000
 235       23D-1        0.00000   0.00000   0.01966   0.00000   0.00000
 236       23D+2        0.00215  -0.00000   0.00000   0.00000   0.00000
 237       23D-2        0.00000   0.00000   0.00000   0.00000   0.00000
 238       24D 0       -0.00000   0.00020   0.00000   0.00000   0.00022
 239       24D+1        0.00000   0.00000   0.00000   0.00021   0.00000
 240       24D-1        0.00000   0.00000   0.00021   0.00000   0.00000
 241       24D+2        0.00002  -0.00000   0.00000   0.00000   0.00000
 242       24D-2        0.00000   0.00000   0.00000   0.00000   0.00000
 243       25D 0        0.00000   0.00110   0.00000   0.00000   0.01598
 244       25D+1        0.00000   0.00000   0.00000   0.02637   0.00000
 245       25D-1        0.00000   0.00000   0.02637   0.00000   0.00000
 246       25D+2       -0.00142   0.00000   0.00000   0.00000   0.00000
 247       25D-2        0.00000   0.00000   0.00000   0.00000   0.00000
 248       26F 0        0.00000   0.00237   0.00000   0.00000   0.00283
 249       26F+1        0.00000   0.00000   0.00000   0.00297   0.00000
 250       26F-1        0.00000   0.00000   0.00297   0.00000   0.00000
 251       26F+2        0.00065  -0.00000   0.00000   0.00000   0.00000
 252       26F-2        0.00000   0.00000   0.00000   0.00000   0.00000
 253       26F+3        0.00000   0.00000   0.00000  -0.00000   0.00000
 254       26F-3        0.00000   0.00000  -0.00000   0.00000   0.00000
 255       27F 0       -0.00000   0.00200   0.00000   0.00000   0.00398
 256       27F+1        0.00000   0.00000   0.00000   0.00775   0.00000
 257       27F-1        0.00000   0.00000   0.00775   0.00000   0.00000
 258       27F+2        0.00020   0.00000   0.00000   0.00000   0.00000
 259       27F-2        0.00000   0.00000   0.00000   0.00000   0.00000
 260       27F+3        0.00000   0.00000   0.00000  -0.00000   0.00000
 261       27F-3        0.00000   0.00000  -0.00000   0.00000   0.00000
                          20        21        22        23        24
                           V         V         V         V         V
     Eigenvalues --    -0.04663   0.02691   0.02712   0.02712   0.04692
   1 1   Zn 1S         -0.00000  -0.00000   0.00000   0.00000  -0.00000
   2        2S         -0.00000  -0.00000   0.00000   0.00000  -0.00000
   3        3S         -0.00001  -0.00001   0.00000   0.00000  -0.00000
   4        4S         -0.00002  -0.00002   0.00000   0.00000  -0.00000
   5        5S         -0.00006  -0.00005   0.00000   0.00000  -0.00001
   6        6S         -0.00016  -0.00013   0.00000   0.00000  -0.00002
   7        7S         -0.00040  -0.00035   0.00000   0.00000  -0.00006
   8        8S         -0.00099  -0.00079   0.00000   0.00000  -0.00014
   9        9S         -0.00219  -0.00194   0.00000   0.00000  -0.00035
  10       10S         -0.00398  -0.00304   0.00000   0.00000  -0.00055
  11       11S         -0.00460  -0.00464   0.00000   0.00000  -0.00084
  12       12S          0.00197   0.00404   0.00000   0.00000   0.00072
  13       13S          0.01977   0.00859   0.00000   0.00000   0.00160
  14       14S          0.03263   0.07446   0.00000   0.00000   0.01349
  15       15S         -0.00309   0.12851   0.00000   0.00000   0.02471
  16       16S         -0.10662  -0.58382   0.00000   0.00000  -0.12805
  17       17S         -0.07184  -0.19253   0.00000   0.00000  -0.06135
  18       18S          0.02222   0.36595   0.00000   0.00000   0.21253
  19       19S          0.32183  -0.64028   0.00000   0.00000   0.92842
  20       20S          0.22576   1.76227   0.00000   0.00000   2.89641
  21       21S         -0.00968  -0.11650   0.00000   0.00000  -0.02149
  22       22S          0.04880   0.56268   0.00000   0.00000   0.13336
  23       23S          0.30734  -1.62765   0.00000   0.00000  -2.01063
  24       24PX         0.00000   0.00000   0.00000   0.00000   0.00000
  25       24PY         0.00000   0.00000   0.00000   0.00000   0.00000
  26       24PZ         0.00001   0.00000   0.00000   0.00000   0.00000
  27       25PX         0.00000   0.00000   0.00001   0.00000   0.00000
  28       25PY         0.00000   0.00000   0.00000   0.00001   0.00000
  29       25PZ         0.00003   0.00001   0.00000   0.00000   0.00000
  30       26PX         0.00000   0.00000   0.00003   0.00000   0.00000
  31       26PY         0.00000   0.00000   0.00000   0.00003   0.00000
  32       26PZ         0.00012   0.00006   0.00000   0.00000   0.00001
  33       27PX         0.00000   0.00000   0.00011   0.00000   0.00000
  34       27PY         0.00000   0.00000   0.00000   0.00011   0.00000
  35       27PZ         0.00047   0.00024   0.00000   0.00000   0.00006
  36       28PX         0.00000   0.00000   0.00043   0.00000   0.00000
  37       28PY         0.00000   0.00000   0.00000   0.00043   0.00000
  38       28PZ         0.00160   0.00078   0.00000   0.00000   0.00018
  39       29PX         0.00000   0.00000   0.00105   0.00000   0.00000
  40       29PY         0.00000   0.00000   0.00000   0.00105   0.00000
  41       29PZ         0.00461   0.00232   0.00000   0.00000   0.00057
  42       30PX         0.00000   0.00000   0.00289   0.00000   0.00000
  43       30PY         0.00000   0.00000   0.00000   0.00289   0.00000
  44       30PZ         0.01040   0.00504   0.00000   0.00000   0.00116
  45       31PX         0.00000   0.00000   0.00331   0.00000   0.00000
  46       31PY         0.00000   0.00000   0.00000   0.00331   0.00000
  47       31PZ         0.01769   0.00912   0.00000   0.00000   0.00236
  48       32PX         0.00000   0.00000   0.00952   0.00000   0.00000
  49       32PY         0.00000   0.00000   0.00000   0.00952   0.00000
  50       32PZ         0.01605   0.00614   0.00000   0.00000   0.00060
  51       33PX         0.00000   0.00000   0.03988   0.00000   0.00000
  52       33PY         0.00000   0.00000   0.00000   0.03988   0.00000
  53       33PZ        -0.01582  -0.02188   0.00000   0.00000  -0.01169
  54       34PX         0.00000   0.00000  -0.03963   0.00000   0.00000
  55       34PY         0.00000   0.00000   0.00000  -0.03963   0.00000
  56       34PZ        -0.04390  -0.01316   0.00000   0.00000   0.00034
  57       35PX         0.00000   0.00000  -0.18772   0.00000   0.00000
  58       35PY         0.00000   0.00000   0.00000  -0.18772   0.00000
  59       35PZ        -0.03307   0.02803   0.00000   0.00000   0.01477
  60       36PX         0.00000   0.00000   0.01762   0.00000   0.00000
  61       36PY         0.00000   0.00000   0.00000   0.01762   0.00000
  62       36PZ        -0.04882  -0.02676   0.00000   0.00000   0.00233
  63       37PX         0.00000   0.00000  -0.01541   0.00000   0.00000
  64       37PY         0.00000   0.00000   0.00000  -0.01541   0.00000
  65       37PZ         0.07728   0.02331   0.00000   0.00000  -0.05393
  66       38PX         0.00000   0.00000   0.16091   0.00000   0.00000
  67       38PY         0.00000   0.00000   0.00000   0.16091   0.00000
  68       38PZ         0.20230   0.09187   0.00000   0.00000  -0.44446
  69       39PX         0.00000   0.00000   0.03673   0.00000   0.00000
  70       39PY         0.00000   0.00000   0.00000   0.03673   0.00000
  71       39PZ         0.29378   0.50306   0.00000   0.00000  -1.13545
  72       40PX         0.00000   0.00000  -0.03692   0.00000   0.00000
  73       40PY         0.00000   0.00000   0.00000  -0.03692   0.00000
  74       40PZ         0.00689   0.01587   0.00000   0.00000   0.00961
  75       41PX         0.00000   0.00000   0.17217   0.00000   0.00000
  76       41PY         0.00000   0.00000   0.00000   0.17217   0.00000
  77       41PZ        -0.03309  -0.06314   0.00000   0.00000  -0.02639
  78       42PX         0.00000   0.00000   1.04060   0.00000   0.00000
  79       42PY         0.00000   0.00000   0.00000   1.04060   0.00000
  80       42PZ         0.12138  -0.93320   0.00000   0.00000   1.17377
  81       43D 0        0.00027   0.00013   0.00000   0.00000  -0.00004
  82       43D+1        0.00000   0.00000  -0.00010   0.00000   0.00000
  83       43D-1        0.00000   0.00000   0.00000  -0.00010   0.00000
  84       43D+2       -0.00000  -0.00000   0.00000   0.00000  -0.00000
  85       43D-2        0.00000   0.00000   0.00000   0.00000   0.00000
  86       44D 0        0.00208   0.00095   0.00000   0.00000  -0.00041
  87       44D+1        0.00000   0.00000  -0.00076   0.00000   0.00000
  88       44D-1        0.00000   0.00000   0.00000  -0.00076   0.00000
  89       44D+2       -0.00000  -0.00000   0.00000   0.00000  -0.00000
  90       44D-2        0.00000   0.00000   0.00000   0.00000   0.00000
  91       45D 0        0.00840   0.00413   0.00000   0.00000  -0.00096
  92       45D+1        0.00000   0.00000  -0.00304   0.00000   0.00000
  93       45D-1        0.00000   0.00000   0.00000  -0.00304   0.00000
  94       45D+2       -0.00000  -0.00000   0.00000   0.00000  -0.00000
  95       45D-2        0.00000   0.00000   0.00000   0.00000   0.00000
  96       46D 0        0.02393   0.00749   0.00000   0.00000  -0.01400
  97       46D+1        0.00000   0.00000  -0.00942   0.00000   0.00000
  98       46D-1        0.00000   0.00000   0.00000  -0.00942   0.00000
  99       46D+2       -0.00000  -0.00000   0.00000   0.00000  -0.00000
 100       46D-2        0.00000   0.00000   0.00000   0.00000   0.00000
 101       47D 0        0.07006  -0.03716   0.00000   0.00000  -0.19618
 102       47D+1        0.00000   0.00000  -0.03750   0.00000   0.00000
 103       47D-1        0.00000   0.00000   0.00000  -0.03750   0.00000
 104       47D+2       -0.00000  -0.00000   0.00000   0.00000  -0.00000
 105       47D-2        0.00000   0.00000   0.00000   0.00000   0.00000
 106       48D 0        0.04172   0.01435   0.00000   0.00000  -0.02094
 107       48D+1        0.00000   0.00000  -0.01596   0.00000   0.00000
 108       48D-1        0.00000   0.00000   0.00000  -0.01596   0.00000
 109       48D+2       -0.00000  -0.00000   0.00000   0.00000  -0.00000
 110       48D-2        0.00000   0.00000   0.00000   0.00000   0.00000
 111       49D 0        0.02263   0.01785   0.00000   0.00000   0.01702
 112       49D+1        0.00000   0.00000  -0.00767   0.00000   0.00000
 113       49D-1        0.00000   0.00000   0.00000  -0.00767   0.00000
 114       49D+2       -0.00000  -0.00000   0.00000   0.00000  -0.00000
 115       49D-2        0.00000   0.00000   0.00000   0.00000   0.00000
 116       50D 0        0.02106   0.01903   0.00000   0.00000   0.05482
 117       50D+1        0.00000   0.00000  -0.00566   0.00000   0.00000
 118       50D-1        0.00000   0.00000   0.00000  -0.00566   0.00000
 119       50D+2       -0.00000  -0.00000   0.00000   0.00000  -0.00000
 120       50D-2        0.00000   0.00000   0.00000   0.00000   0.00000
 121       51D 0       -0.00328   0.00536   0.00000   0.00000   0.01876
 122       51D+1        0.00000   0.00000   0.00240   0.00000   0.00000
 123       51D-1        0.00000   0.00000   0.00000   0.00240   0.00000
 124       51D+2       -0.00000   0.00000   0.00000   0.00000   0.00000
 125       51D-2        0.00000   0.00000   0.00000   0.00000   0.00000
 126       52D 0       -0.03385   0.05374   0.00000   0.00000   0.18883
 127       52D+1        0.00000   0.00000   0.02415   0.00000   0.00000
 128       52D-1        0.00000   0.00000   0.00000   0.02415   0.00000
 129       52D+2        0.00000   0.00000   0.00000   0.00000   0.00000
 130       52D-2        0.00000   0.00000   0.00000   0.00000   0.00000
 131       53D 0        0.05527  -0.00630   0.00000   0.00000   0.29031
 132       53D+1        0.00000   0.00000   0.03203   0.00000   0.00000
 133       53D-1        0.00000   0.00000   0.00000   0.03203   0.00000
 134       53D+2       -0.00000   0.00000   0.00000   0.00000   0.00000
 135       53D-2        0.00000   0.00000   0.00000   0.00000   0.00000
 136       54F 0        0.00014   0.00005   0.00000   0.00000   0.00007
 137       54F+1        0.00000   0.00000  -0.00007   0.00000   0.00000
 138       54F-1        0.00000   0.00000   0.00000  -0.00007   0.00000
 139       54F+2        0.00000  -0.00000   0.00000   0.00000  -0.00000
 140       54F-2        0.00000   0.00000   0.00000   0.00000   0.00000
 141       54F+3        0.00000   0.00000   0.00000   0.00000   0.00000
 142       54F-3        0.00000   0.00000   0.00000  -0.00000   0.00000
 143       55F 0        0.00054   0.00027   0.00000   0.00000  -0.00042
 144       55F+1        0.00000   0.00000  -0.00011   0.00000   0.00000
 145       55F-1        0.00000   0.00000   0.00000  -0.00011   0.00000
 146       55F+2        0.00000  -0.00000   0.00000   0.00000  -0.00000
 147       55F-2        0.00000   0.00000   0.00000   0.00000   0.00000
 148       55F+3        0.00000   0.00000   0.00000   0.00000   0.00000
 149       55F-3        0.00000   0.00000   0.00000   0.00000   0.00000
 150       56F 0        0.00172   0.00080   0.00000   0.00000   0.00151
 151       56F+1        0.00000   0.00000  -0.00084   0.00000   0.00000
 152       56F-1        0.00000   0.00000   0.00000  -0.00084   0.00000
 153       56F+2        0.00000  -0.00000   0.00000   0.00000  -0.00000
 154       56F-2        0.00000   0.00000   0.00000   0.00000   0.00000
 155       56F+3        0.00000   0.00000  -0.00000   0.00000   0.00000
 156       56F-3        0.00000   0.00000   0.00000  -0.00000   0.00000
 157       57F 0        0.00587  -0.00016   0.00000   0.00000  -0.01356
 158       57F+1        0.00000   0.00000  -0.00052   0.00000   0.00000
 159       57F-1        0.00000   0.00000   0.00000  -0.00052   0.00000
 160       57F+2        0.00000  -0.00000   0.00000   0.00000  -0.00000
 161       57F-2        0.00000   0.00000   0.00000   0.00000   0.00000
 162       57F+3        0.00000   0.00000   0.00000   0.00000   0.00000
 163       57F-3        0.00000   0.00000   0.00000   0.00000   0.00000
 164       58G 0       -0.00003   0.00003   0.00000   0.00000   0.00006
 165       58G+1        0.00000   0.00000   0.00001   0.00000   0.00000
 166       58G-1        0.00000   0.00000   0.00000   0.00001   0.00000
 167       58G+2       -0.00000   0.00000   0.00000   0.00000   0.00000
 168       58G-2        0.00000   0.00000   0.00000   0.00000   0.00000
 169       58G+3        0.00000   0.00000   0.00000   0.00000   0.00000
 170       58G-3        0.00000   0.00000   0.00000   0.00000   0.00000
 171       58G+4        0.00000   0.00000   0.00000   0.00000   0.00000
 172       58G-4        0.00000   0.00000   0.00000   0.00000   0.00000
 173       59G 0        0.00003  -0.00016   0.00000   0.00000  -0.00022
 174       59G+1        0.00000   0.00000  -0.00002   0.00000   0.00000
 175       59G-1        0.00000   0.00000   0.00000  -0.00002   0.00000
 176       59G+2       -0.00000   0.00000   0.00000   0.00000   0.00000
 177       59G-2        0.00000   0.00000   0.00000   0.00000   0.00000
 178       59G+3        0.00000   0.00000   0.00000   0.00000   0.00000
 179       59G-3        0.00000   0.00000   0.00000   0.00000   0.00000
 180       59G+4       -0.00000  -0.00000   0.00000   0.00000  -0.00000
 181       59G-4        0.00000   0.00000   0.00000   0.00000   0.00000
 182       60G 0       -0.00040   0.00021   0.00000   0.00000   0.00057
 183       60G+1        0.00000   0.00000   0.00009   0.00000   0.00000
 184       60G-1        0.00000   0.00000   0.00000   0.00009   0.00000
 185       60G+2       -0.00000   0.00000   0.00000   0.00000  -0.00000
 186       60G-2        0.00000   0.00000   0.00000   0.00000   0.00000
 187       60G+3        0.00000   0.00000  -0.00000   0.00000   0.00000
 188       60G-3        0.00000   0.00000   0.00000  -0.00000   0.00000
 189       60G+4        0.00000   0.00000   0.00000   0.00000   0.00000
 190       60G-4        0.00000   0.00000   0.00000   0.00000   0.00000
 191 2   O  1S          0.00000   0.00000   0.00000   0.00000  -0.00001
 192        2S          0.00003   0.00003   0.00000   0.00000  -0.00004
 193        3S          0.00014   0.00014   0.00000   0.00000  -0.00018
 194        4S          0.00052   0.00057   0.00000   0.00000  -0.00079
[...]
  45       31PX         0.68360   0.34180   0.34180   0.00000
  46       31PY         0.68360   0.34180   0.34180   0.00000
  47       31PZ         0.68377   0.34189   0.34189   0.00000
  48       32PX         0.57507   0.28753   0.28753   0.00000
  49       32PY         0.57507   0.28753   0.28753   0.00000
  50       32PZ         0.57479   0.28740   0.28740   0.00000
  51       33PX         0.28659   0.14329   0.14329   0.00000
  52       33PY         0.28659   0.14329   0.14329   0.00000
  53       33PZ         0.28432   0.14216   0.14216   0.00000
  54       34PX         0.55424   0.27712   0.27712   0.00000
  55       34PY         0.55424   0.27712   0.27712   0.00000
  56       34PZ         0.55896   0.27948   0.27948   0.00000
  57       35PX         0.74116   0.37058   0.37058   0.00000
  58       35PY         0.74116   0.37058   0.37058   0.00000
  59       35PZ         0.75189   0.37594   0.37594   0.00000
  60       36PX         0.44942   0.22471   0.22471   0.00000
  61       36PY         0.44942   0.22471   0.22471   0.00000
  62       36PZ         0.44885   0.22443   0.22443   0.00000
  63       37PX         0.05938   0.02969   0.02969   0.00000
  64       37PY         0.05938   0.02969   0.02969   0.00000
  65       37PZ         0.05603   0.02801   0.02801   0.00000
  66       38PX         0.07178   0.03589   0.03589   0.00000
  67       38PY         0.07178   0.03589   0.03589   0.00000
  68       38PZ        -0.01455  -0.00728  -0.00728   0.00000
  69       39PX         0.01493   0.00746   0.00746   0.00000
  70       39PY         0.01493   0.00746   0.00746   0.00000
  71       39PZ         0.00190   0.00095   0.00095   0.00000
  72       40PX        -0.01656  -0.00828  -0.00828   0.00000
  73       40PY        -0.01656  -0.00828  -0.00828   0.00000
  74       40PZ        -0.01480  -0.00740  -0.00740   0.00000
  75       41PX         0.12360   0.06180   0.06180   0.00000
  76       41PY         0.12360   0.06180   0.06180   0.00000
  77       41PZ         0.11306   0.05653   0.05653   0.00000
  78       42PX        -0.00147  -0.00073  -0.00073   0.00000
  79       42PY        -0.00147  -0.00073  -0.00073   0.00000
  80       42PZ        -0.00072  -0.00036  -0.00036   0.00000
  81       43D 0        0.00019   0.00009   0.00009   0.00000
  82       43D+1        0.00020   0.00010   0.00010   0.00000
  83       43D-1        0.00020   0.00010   0.00010   0.00000
  84       43D+2        0.00020   0.00010   0.00010   0.00000
  85       43D-2        0.00020   0.00010   0.00010   0.00000
  86       44D 0        0.00574   0.00287   0.00287   0.00000
  87       44D+1        0.00602   0.00301   0.00301   0.00000
  88       44D-1        0.00602   0.00301   0.00301   0.00000
  89       44D+2        0.00598   0.00299   0.00299   0.00000
  90       44D-2        0.00598   0.00299   0.00299   0.00000
  91       45D 0        0.05605   0.02802   0.02802   0.00000
  92       45D+1        0.05884   0.02942   0.02942   0.00000
  93       45D-1        0.05884   0.02942   0.02942   0.00000
  94       45D+2        0.05854   0.02927   0.02927   0.00000
  95       45D-2        0.05854   0.02927   0.02927   0.00000
  96       46D 0        0.24988   0.12494   0.12494   0.00000
  97       46D+1        0.25959   0.12980   0.12980   0.00000
  98       46D-1        0.25959   0.12980   0.12980   0.00000
  99       46D+2        0.25690   0.12845   0.12845   0.00000
 100       46D-2        0.25690   0.12845   0.12845   0.00000
 101       47D 0        0.54697   0.27349   0.27349   0.00000
 102       47D+1        0.52120   0.26060   0.26060   0.00000
 103       47D-1        0.52120   0.26060   0.26060   0.00000
 104       47D+2        0.49190   0.24595   0.24595   0.00000
 105       47D-2        0.49190   0.24595   0.24595   0.00000
 106       48D 0        0.62433   0.31216   0.31216   0.00000
 107       48D+1        0.64182   0.32091   0.32091   0.00000
 108       48D-1        0.64182   0.32091   0.32091   0.00000
 109       48D+2        0.63913   0.31957   0.31957   0.00000
 110       48D-2        0.63913   0.31957   0.31957   0.00000
 111       49D 0        0.38873   0.19436   0.19436   0.00000
 112       49D+1        0.38718   0.19359   0.19359   0.00000
 113       49D-1        0.38718   0.19359   0.19359   0.00000
 114       49D+2        0.39072   0.19536   0.19536   0.00000
 115       49D-2        0.39072   0.19536   0.19536   0.00000
 116       50D 0        0.07340   0.03670   0.03670   0.00000
 117       50D+1        0.07974   0.03987   0.03987   0.00000
 118       50D-1        0.07974   0.03987   0.03987   0.00000
 119       50D+2        0.07993   0.03997   0.03997   0.00000
 120       50D-2        0.07993   0.03997   0.03997   0.00000
 121       51D 0        0.00037   0.00019   0.00019   0.00000
 122       51D+1        0.00475   0.00238   0.00238   0.00000
 123       51D-1        0.00475   0.00238   0.00238   0.00000
 124       51D+2        0.00721   0.00361   0.00361   0.00000
 125       51D-2        0.00721   0.00361   0.00361   0.00000
 126       52D 0       -0.00746  -0.00373  -0.00373   0.00000
 127       52D+1        0.04181   0.02091   0.02091   0.00000
 128       52D-1        0.04181   0.02091   0.02091   0.00000
 129       52D+2        0.06824   0.03412   0.03412   0.00000
 130       52D-2        0.06824   0.03412   0.03412   0.00000
 131       53D 0        0.00756   0.00378   0.00378   0.00000
 132       53D+1        0.00313   0.00156   0.00156   0.00000
 133       53D-1        0.00313   0.00156   0.00156   0.00000
 134       53D+2        0.00114   0.00057   0.00057   0.00000
 135       53D-2        0.00114   0.00057   0.00057   0.00000
 136       54F 0        0.00000   0.00000   0.00000   0.00000
 137       54F+1        0.00000   0.00000   0.00000   0.00000
 138       54F-1        0.00000   0.00000   0.00000   0.00000
 139       54F+2        0.00000   0.00000   0.00000   0.00000
 140       54F-2        0.00000   0.00000   0.00000   0.00000
 141       54F+3       -0.00000  -0.00000  -0.00000   0.00000
 142       54F-3       -0.00000  -0.00000  -0.00000   0.00000
 143       55F 0        0.00003   0.00001   0.00001   0.00000
 144       55F+1        0.00002   0.00001   0.00001   0.00000
 145       55F-1        0.00002   0.00001   0.00001   0.00000
 146       55F+2        0.00001   0.00000   0.00000   0.00000
 147       55F-2        0.00001   0.00000   0.00000   0.00000
 148       55F+3       -0.00000  -0.00000  -0.00000   0.00000
 149       55F-3        0.00000   0.00000   0.00000   0.00000
 150       56F 0        0.00046   0.00023   0.00023   0.00000
 151       56F+1        0.00027   0.00013   0.00013   0.00000
 152       56F-1        0.00027   0.00013   0.00013   0.00000
 153       56F+2        0.00004   0.00002   0.00002   0.00000
 154       56F-2        0.00004   0.00002   0.00002   0.00000
 155       56F+3        0.00000   0.00000   0.00000   0.00000
 156       56F-3       -0.00000  -0.00000  -0.00000   0.00000
 157       57F 0        0.00279   0.00140   0.00140   0.00000
 158       57F+1        0.00484   0.00242   0.00242   0.00000
 159       57F-1        0.00484   0.00242   0.00242   0.00000
 160       57F+2        0.00011   0.00006   0.00006   0.00000
 161       57F-2        0.00011   0.00006   0.00006   0.00000
 162       57F+3        0.00000   0.00000   0.00000   0.00000
 163       57F-3       -0.00000  -0.00000  -0.00000   0.00000
 164       58G 0        0.00000   0.00000   0.00000   0.00000
 165       58G+1        0.00000   0.00000   0.00000   0.00000
 166       58G-1        0.00000   0.00000   0.00000   0.00000
 167       58G+2       -0.00000  -0.00000  -0.00000   0.00000
 168       58G-2       -0.00000  -0.00000  -0.00000   0.00000
 169       58G+3       -0.00000  -0.00000  -0.00000   0.00000
 170       58G-3       -0.00000  -0.00000  -0.00000   0.00000
 171       58G+4       -0.00000  -0.00000  -0.00000   0.00000
 172       58G-4        0.00000   0.00000   0.00000   0.00000
 173       59G 0       -0.00000  -0.00000  -0.00000   0.00000
 174       59G+1       -0.00000  -0.00000  -0.00000   0.00000
 175       59G-1       -0.00000  -0.00000  -0.00000   0.00000
 176       59G+2       -0.00000  -0.00000  -0.00000   0.00000
 177       59G-2       -0.00000  -0.00000  -0.00000   0.00000
 178       59G+3        0.00000   0.00000   0.00000   0.00000
 179       59G-3       -0.00000  -0.00000  -0.00000   0.00000
 180       59G+4       -0.00000  -0.00000  -0.00000   0.00000
 181       59G-4       -0.00000  -0.00000  -0.00000   0.00000
 182       60G 0        0.00004   0.00002   0.00002   0.00000
 183       60G+1        0.00005   0.00003   0.00003   0.00000
 184       60G-1        0.00005   0.00003   0.00003   0.00000
 185       60G+2        0.00000   0.00000   0.00000   0.00000
 186       60G-2        0.00000   0.00000   0.00000   0.00000
 187       60G+3        0.00000   0.00000   0.00000   0.00000
 188       60G-3        0.00000   0.00000   0.00000   0.00000
 189       60G+4        0.00000   0.00000   0.00000   0.00000
 190       60G-4       -0.00000  -0.00000  -0.00000   0.00000
 191 2   O  1S          0.00005   0.00003   0.00003   0.00000
 192        2S          0.00109   0.00054   0.00054   0.00000
 193        3S          0.01319   0.00659   0.00659   0.00000
 194        4S          0.09644   0.04822   0.04822   0.00000
 195        5S          0.40553   0.20277   0.20277   0.00000
 196        6S          0.80964   0.40482   0.40482   0.00000
 197        7S          0.50897   0.25448   0.25448   0.00000
 198        8S          1.01460   0.50730   0.50730   0.00000
 199        9S          0.25785   0.12892   0.12892   0.00000
 200       10S          0.75133   0.37566   0.37566   0.00000
 201       11S          0.06597   0.03298   0.03298   0.00000
 202       12S          0.03978   0.01989   0.01989   0.00000
 203       13S          0.08963   0.04481   0.04481   0.00000
 204       14PX         0.00189   0.00095   0.00095   0.00000
 205       14PY         0.00189   0.00095   0.00095   0.00000
 206       14PZ         0.00115   0.00058   0.00058   0.00000
 207       15PX         0.06352   0.03176   0.03176   0.00000
 208       15PY         0.06352   0.03176   0.03176   0.00000
 209       15PZ         0.03915   0.01957   0.01957   0.00000
 210       16PX         0.38288   0.19144   0.19144   0.00000
 211       16PY         0.38288   0.19144   0.19144   0.00000
 212       16PZ         0.24229   0.12114   0.12114   0.00000
 213       17PX         0.76803   0.38402   0.38402   0.00000
 214       17PY         0.76803   0.38402   0.38402   0.00000
 215       17PZ         0.53003   0.26501   0.26501   0.00000
 216       18PX         0.58805   0.29402   0.29402   0.00000
 217       18PY         0.58805   0.29402   0.29402   0.00000
 218       18PZ         0.42930   0.21465   0.21465   0.00000
 219       19PX         0.00373   0.00186   0.00186   0.00000
 220       19PY         0.00373   0.00186   0.00186   0.00000
 221       19PZ         0.00234   0.00117   0.00117   0.00000
 222       20PX         0.00053   0.00026   0.00026   0.00000
 223       20PY         0.00053   0.00026   0.00026   0.00000
 224       20PZ         0.00033   0.00016   0.00016   0.00000
 225       21PX         0.06323   0.03162   0.03162   0.00000
 226       21PY         0.06323   0.03162   0.03162   0.00000
 227       21PZ         0.06478   0.03239   0.03239   0.00000
 228       22D 0        0.00053   0.00027   0.00027   0.00000
 229       22D+1        0.00026   0.00013   0.00013   0.00000
 230       22D-1        0.00026   0.00013   0.00013   0.00000
 231       22D+2        0.00000   0.00000   0.00000   0.00000
 232       22D-2        0.00000   0.00000   0.00000   0.00000
 233       23D 0        0.00609   0.00305   0.00305   0.00000
 234       23D+1        0.00418   0.00209   0.00209   0.00000
 235       23D-1        0.00418   0.00209   0.00209   0.00000
 236       23D+2        0.00013   0.00007   0.00007   0.00000
 237       23D-2        0.00013   0.00007   0.00007   0.00000
 238       24D 0        0.00000   0.00000   0.00000   0.00000
 239       24D+1        0.00000   0.00000   0.00000   0.00000
 240       24D-1        0.00000   0.00000   0.00000   0.00000
 241       24D+2        0.00000   0.00000   0.00000   0.00000
 242       24D-2        0.00000   0.00000   0.00000   0.00000
 243       25D 0        0.00283   0.00141   0.00141   0.00000
 244       25D+1        0.00301   0.00151   0.00151   0.00000
 245       25D-1        0.00301   0.00151   0.00151   0.00000
 246       25D+2       -0.00024  -0.00012  -0.00012   0.00000
 247       25D-2       -0.00024  -0.00012  -0.00012   0.00000
 248       26F 0        0.00038   0.00019   0.00019   0.00000
 249       26F+1        0.00023   0.00011   0.00011   0.00000
 250       26F-1        0.00023   0.00011   0.00011   0.00000
 251       26F+2        0.00002   0.00001   0.00001   0.00000
 252       26F-2        0.00002   0.00001   0.00001   0.00000
 253       26F+3        0.00000   0.00000   0.00000   0.00000
 254       26F-3       -0.00000  -0.00000  -0.00000   0.00000
 255       27F 0        0.00029   0.00014   0.00014   0.00000
 256       27F+1        0.00072   0.00036   0.00036   0.00000
 257       27F-1        0.00072   0.00036   0.00036   0.00000
 258       27F+2        0.00004   0.00002   0.00002   0.00000
 259       27F-2        0.00004   0.00002   0.00002   0.00000
 260       27F+3        0.00000   0.00000   0.00000   0.00000
 261       27F-3        0.00000   0.00000   0.00000   0.00000
          Condensed to atoms (all electrons):
               1          2
     1  Zn  28.624575   0.241455
     2  O    0.241455   8.892515
          Atomic-Atomic Spin Densities.
               1          2
     1  Zn   0.000000   0.000000
     2  O    0.000000   0.000000
 Mulliken charges and spin densities:
               1          2
     1  Zn   1.133970   0.000000
     2  O   -1.133970   0.000000
 Sum of Mulliken charges =  -0.00000   0.00000
 Mulliken charges and spin densities with hydrogens summed into heavy atoms:
               1          2
     1  Zn   1.133970   0.000000
     2  O   -1.133970   0.000000
 Electronic spatial extent (au):  <R**2>=            100.8643
 Charge=             -0.0000 electrons
 Dipole moment (field-independent basis, Debye):
    X=              0.0000    Y=              0.0000    Z=              7.2021  Tot=              7.2021
 Quadrupole moment (field-independent basis, Debye-Ang):
   XX=            -18.2475   YY=            -18.2475   ZZ=            -21.5107
   XY=              0.0000   XZ=              0.0000   YZ=              0.0000
 Traceless Quadrupole moment (field-independent basis, Debye-Ang):
   XX=              1.0878   YY=              1.0878   ZZ=             -2.1755
   XY=              0.0000   XZ=              0.0000   YZ=              0.0000
 Octapole moment (field-independent basis, Debye-Ang**2):
  XXX=              0.0000  YYY=              0.0000  ZZZ=             22.4296  XYY=              0.0000
  XXY=              0.0000  XXZ=              5.9918  XZZ=              0.0000  YZZ=              0.0000
  YYZ=              5.9918  XYZ=              0.0000
 Hexadecapole moment (field-independent basis, Debye-Ang**3):
 XXXX=            -19.1135 YYYY=            -19.1135 ZZZZ=            -89.2250 XXXY=              0.0000
 XXXZ=              0.0000 YYYX=              0.0000 YYYZ=              0.0000 ZZZX=              0.0000
 ZZZY=              0.0000 XXYY=             -6.3712 XXZZ=            -18.0585 YYZZ=            -18.0585
 XXYZ=              0.0000 YYXZ=              0.0000 ZZXY=              0.0000
 N-N= 7.937658163800D+01 E-N=-4.734964367579D+03  KE= 1.968464230879D+03
 Symmetry A1   KE= 1.490721597944D+03
 Symmetry A2   KE= 2.234342786327D+01
 Symmetry B1   KE= 2.276996025386D+02
 Symmetry B2   KE= 2.276996025386D+02
 Symmetry A1   SP= 0.000000000000D+00
 Symmetry A2   SP= 0.000000000000D+00
 Symmetry B1   SP= 0.000000000000D+00
 Symmetry B2   SP= 0.000000000000D+00
 Orbital energies and kinetic energies (alpha):
                                 1                 2
  15         O                -0.821220         11.171714
  16         O                -0.798061         10.340560
  17         O                -0.395603          2.423848
  18         O                -0.395603          2.423848
  19         O                -0.385106          2.356041
  20         V                -0.046630          0.944537
  21         V                 0.026906          0.288341
  22         V                 0.027116          0.111715
  23         V                 0.027116          0.111715
  24         V                 0.046918          0.052208
 Total kinetic energy from orbitals= 1.968464230879D+03
 FoFCou: FMM=F IPFlag=           8 FMFlag=           0 FMFlg1=           0
         NFxFlg=           0 DoJE=F BraDBF=T KetDBF=F FulRan=T
         wScrn=  0.000000 ICntrl=   2000500 IOpCl=  0 I1Cent=           5 NGrid=           0
         NMat0=    1 NMatS0=      1 NMatT0=    0 NMatD0=    1 NMtDS0=    0 NMtDT0=    0
 Symmetry not used in FoFCou.
                          Isotropic Fermi Contact Couplings
        Atom                 a.u.       MegaHertz       Gauss      10(-4) cm-1
     1  Zn(67)             0.00000       0.00000       0.00000       0.00000
     2  O(17)              0.00000      -0.00000      -0.00000      -0.00000
 --------------------------------------------------------
       Center         ----  Spin Dipole Couplings  ----
                      3XX-RR        3YY-RR        3ZZ-RR
 --------------------------------------------------------
     1   Atom        0.000000      0.000000      0.000000
     2   Atom        0.000000      0.000000      0.000000
 --------------------------------------------------------
                        XY            XZ            YZ
 --------------------------------------------------------
     1   Atom        0.000000      0.000000      0.000000
     2   Atom        0.000000      0.000000      0.000000
 --------------------------------------------------------


 ---------------------------------------------------------------------------------
              Anisotropic Spin Dipole Couplings in Principal Axis System
 ---------------------------------------------------------------------------------

       Atom             a.u.   MegaHertz   Gauss  10(-4) cm-1        Axes

              Baa     0.0000     0.000     0.000     0.000  1.0000  0.0000  0.0000
     1 Zn(67) Bbb     0.0000     0.000     0.000     0.000 -0.0000  1.0000  0.0000
              Bcc     0.0000     0.000     0.000     0.000  0.0000  0.0000  1.0000
 
              Baa     0.0000    -0.000    -0.000    -0.000  1.0000  0.0000  0.0000
     2 O(17)  Bbb     0.0000    -0.000    -0.000    -0.000 -0.0000  1.0000  0.0000
              Bcc     0.0000    -0.000    -0.000    -0.000  0.0000  0.0000  1.0000
 

 ---------------------------------------------------------------------------------

 No NMR shielding tensors so no spin-rotation constants.
 Leave Link  601 at Sat Mar 17 03:59:09 2018, MaxMem= 21474836480 cpu:              13.9 elap:               0.5
 (Enter /home1/apps/gaussian/16rA.03/g16/l9999.exe)

 Test job not archived.
 1\1\GINC-C497-132\SP\ROCCSD(T)-Full\Gen\O1Zn1\GWANG18\17-Mar-2018\0\\#
 P ROCCSD(T)=(MaxCyc=150, Full)/Gen SCF=(maxcycle=400) Integral(DKHSO, 
 NoXCTest) Pop=Regular MaxDisk=500GB Guess=Read IOp(5/15=2)\\ZnO\\0,1\Z
 n,0,0.,0.,0.\O,0,0.,0.,1.6\\Version=ES64L-G16RevA.03\State=1-SG\HF=-18
 69.0661832\MP2=-1870.8971199\MP3=-1870.6857199\PUHF=-1869.0661832\PMP2
 -0=-1870.8971199\MP4SDQ=-1870.8119557\CCSD=-1870.757773\CCSD(T)=-1870.
 8086109\RMSD=9.416e-09\PG=C*V [C*(O1Zn1)]\\@


 OLD AGE AND TREACHERY WILL ALWAYS PREVAIL OVER YOUTH AND SKILL.
 Job cpu time:       0 days 16 hours 49 minutes 56.5 seconds.
 Elapsed time:       0 days  0 hours 31 minutes 51.2 seconds.
 File lengths (MBytes):  RWF=   7968 Int=      0 D2E=      0 Chk=      8 Scr=      1
 Normal termination of Gaussian 16 at Sat Mar 17 03:59:10 2018.
