 Entering Gaussian System, Link 0=g16
 Initial command:
 /home1/apps/gaussian/16rA.03/g16/l1.exe "/tmp/Gau-45963.inp" -scrdir="/tmp/"
 Entering Link 1 = /home1/apps/gaussian/16rA.03/g16/l1.exe PID=     45964.
  
 Copyright (c) 1988,1990,1992,1993,1995,1998,2003,2009,2016,
            Gaussian, Inc.  All Rights Reserved.
  
 This is part of the Gaussian(R) 16 program.  It is based on
 the Gaussian(R) 09 system (copyright 2009, Gaussian, Inc.),
 the Gaussian(R) 03 system (copyright 2003, Gaussian, Inc.),
 the Gaussian(R) 98 system (copyright 1998, Gaussian, Inc.),
 the Gaussian(R) 94 system (copyright 1995, Gaussian, Inc.),
 the Gaussian 92(TM) system (copyright 1992, Gaussian, Inc.),
 the Gaussian 90(TM) system (copyright 1990, Gaussian, Inc.),
 the Gaussian 88(TM) system (copyright 1988, Gaussian, Inc.),
 the Gaussian 86(TM) system (copyright 1986, Carnegie Mellon
 University), and the Gaussian 82(TM) system (copyright 1983,
 Carnegie Mellon University). Gaussian is a federally registered
 trademark of Gaussian, Inc.
  
 This software contains proprietary and confidential information,
 including trade secrets, belonging to Gaussian, Inc.
  
 This software is provided under written license and may be
 used, copied, transmitted, or stored only in accord with that
 written license.
  
 The following legend is applicable only to US Government
 contracts under FAR:
  
                    RESTRICTED RIGHTS LEGEND
  
 Use, reproduction and disclosure by the US Government is
 subject to restrictions as set forth in subparagraphs (a)
 and (c) of the Commercial Computer Software - Restricted
 Rights clause in FAR 52.227-19.
  
 Gaussian, Inc.
 340 Quinnipiac St., Bldg. 40, Wallingford CT 06492
  
  
 ---------------------------------------------------------------
 Warning -- This program may not be used in any manner that
 competes with the business of Gaussian, Inc. or will provide
 assistance to any competitor of Gaussian, Inc.  The licensee
 of this program is prohibited from giving any competitor of
 Gaussian, Inc. access to this program.  By using this program,
 the user acknowledges that Gaussian, Inc. is engaged in the
 business of creating and licensing software in the field of
 computational chemistry and represents and warrants to the
 licensee that it is not a competitor of Gaussian, Inc. and that
 it will not use this program in any manner prohibited above.
 ---------------------------------------------------------------
  

 Cite this work as:
 Gaussian 16, Revision A.03,
 M. J. Frisch, G. W. Trucks, H. B. Schlegel, G. E. Scuseria, 
 M. A. Robb, J. R. Cheeseman, G. Scalmani, V. Barone, 
 G. A. Petersson, H. Nakatsuji, X. Li, M. Caricato, A. V. Marenich, 
 J. Bloino, B. G. Janesko, R. Gomperts, B. Mennucci, H. P. Hratchian, 
 J. V. Ortiz, A. F. Izmaylov, J. L. Sonnenberg, D. Williams-Young, 
 F. Ding, F. Lipparini, F. Egidi, J. Goings, B. Peng, A. Petrone, 
 T. Henderson, D. Ranasinghe, V. G. Zakrzewski, J. Gao, N. Rega, 
 G. Zheng, W. Liang, M. Hada, M. Ehara, K. Toyota, R. Fukuda, 
 J. Hasegawa, M. Ishida, T. Nakajima, Y. Honda, O. Kitao, H. Nakai, 
 T. Vreven, K. Throssell, J. A. Montgomery, Jr., J. E. Peralta, 
 F. Ogliaro, M. J. Bearpark, J. J. Heyd, E. N. Brothers, K. N. Kudin, 
 V. N. Staroverov, T. A. Keith, R. Kobayashi, J. Normand, 
 K. Raghavachari, A. P. Rendell, J. C. Burant, S. S. Iyengar, 
 J. Tomasi, M. Cossi, J. M. Millam, M. Klene, C. Adamo, R. Cammi, 
 J. W. Ochterski, R. L. Martin, K. Morokuma, O. Farkas, 
 J. B. Foresman, and D. J. Fox, Gaussian, Inc., Wallingford CT, 2016.
 
 ******************************************
 Gaussian 16:  ES64L-G16RevA.03 25-Dec-2016
                31-Mar-2018 
 ******************************************
 %mem=80GB
 %cpu=0-31
 SetSPE:  set environment variable "MP_BIND" = "yes"
 SetSPE:  set environment variable "MP_BLIST" = "0,1,2,3,4,5,6,7,8,9,10,11,12,13,14,15,16,17,18,19,20,21,22,23,24,25,26,27,28,29,30,31"
 Will use up to   32 processors via shared memory.
 %chk=qz.chk
 %rwf=/scratch/04843/gwang18/coo/
 ----------------------------------------------------------------------
 #P ROCCSD(T)=(MaxCyc=150, Full)/Gen SCF=(maxcycle=400) Pseudo=Read Int
 egral(NoXCTest) Pop=Regular MaxDisk=500GB Guess=Read IOp(5/15=2)
 ----------------------------------------------------------------------
 1/38=1,172=1/1;
 2/12=2,17=6,18=5,40=1/2;
 3/5=7,11=2,16=1,17=8,25=1,30=1,47=8,116=101/1,2,3;
 4/5=1/1;
 5/5=2,7=400,15=2,38=6/2;
 8/5=-1,6=4,9=120000,10=90/1,4;
 9/5=7,6=150,14=2/13;
 6//1;
 99/5=1,9=1/99;
 Leave Link    1 at Sat Mar 31 14:31:50 2018, MaxMem= 10737418240 cpu:               6.5 elap:               0.2
 (Enter /home1/apps/gaussian/16rA.03/g16/l101.exe)
 ---
 CoO
 ---
 Symbolic Z-matrix:
 Charge =  0 Multiplicity = 4
 Co                    0.        0.        0. 
 O                     0.        0.        1.3 
 
 ITRead=  0  0
 MicOpt= -1 -1
 NAtoms=      2 NQM=        2 NQMF=       0 NMMI=      0 NMMIF=      0
                NMic=       0 NMicF=      0.
                    Isotopes and Nuclear Properties:
 (Nuclear quadrupole moments (NQMom) in fm**2, nuclear magnetic moments (NMagM)
  in nuclear magnetons)

  Atom         1           2
 IAtWgt=          59          16
 AtmWgt=  58.9331978  15.9949146
 NucSpn=           7           0
 AtZEff=  -0.0000000  -0.0000000
 NQMom=   42.0000000   0.0000000
 NMagM=    4.6270000   0.0000000
 AtZNuc=  27.0000000   8.0000000
 Leave Link  101 at Sat Mar 31 14:31:50 2018, MaxMem= 10737418240 cpu:               3.0 elap:               0.1
 (Enter /home1/apps/gaussian/16rA.03/g16/l202.exe)
                          Input orientation:                          
 ---------------------------------------------------------------------
 Center     Atomic      Atomic             Coordinates (Angstroms)
 Number     Number       Type             X           Y           Z
 ---------------------------------------------------------------------
      1         27           0        0.000000    0.000000    0.000000
      2          8           0        0.000000    0.000000    1.300000
 ---------------------------------------------------------------------
 Stoichiometry    CoO(4)
 Framework group  C*V[C*(OCo)]
 Deg. of freedom     1
 Full point group                 C*V     NOp   4
 Largest Abelian subgroup         C2V     NOp   4
 Largest concise Abelian subgroup C1      NOp   1
                         Standard orientation:                         
 ---------------------------------------------------------------------
 Center     Atomic      Atomic             Coordinates (Angstroms)
 Number     Number       Type             X           Y           Z
 ---------------------------------------------------------------------
      1         27           0        0.000000    0.000000    0.297143
      2          8           0        0.000000    0.000000   -1.002857
 ---------------------------------------------------------------------
 Rotational constants (GHZ):           0.0000000          23.7702283          23.7702283
 Leave Link  202 at Sat Mar 31 14:31:50 2018, MaxMem= 10737418240 cpu:               0.7 elap:               0.1
 (Enter /home1/apps/gaussian/16rA.03/g16/l301.exe)
 General basis read from cards:  (5D, 7F)
 Centers:       1
 S 1 1.00
     Exponent=  1.4370220000D+07 Coefficients=  1.0000000000D+00
 S 1 1.00
     Exponent=  2.1515400000D+06 Coefficients=  1.0000000000D+00
 S 1 1.00
     Exponent=  4.8962570000D+05 Coefficients=  1.0000000000D+00
 S 1 1.00
     Exponent=  1.3869030000D+05 Coefficients=  1.0000000000D+00
 S 1 1.00
     Exponent=  4.5249890000D+04 Coefficients=  1.0000000000D+00
 S 1 1.00
     Exponent=  1.6337620000D+04 Coefficients=  1.0000000000D+00
 S 1 1.00
     Exponent=  6.3730730000D+03 Coefficients=  1.0000000000D+00
 S 1 1.00
     Exponent=  2.6439580000D+03 Coefficients=  1.0000000000D+00
 S 1 1.00
     Exponent=  1.1536140000D+03 Coefficients=  1.0000000000D+00
 S 1 1.00
     Exponent=  5.2486060000D+02 Coefficients=  1.0000000000D+00
 S 1 1.00
     Exponent=  2.4730690000D+02 Coefficients=  1.0000000000D+00
 S 1 1.00
     Exponent=  1.1990630000D+02 Coefficients=  1.0000000000D+00
 S 1 1.00
     Exponent=  5.8964290000D+01 Coefficients=  1.0000000000D+00
 S 1 1.00
     Exponent=  2.7136160000D+01 Coefficients=  1.0000000000D+00
 S 1 1.00
     Exponent=  1.3689120000D+01 Coefficients=  1.0000000000D+00
 S 1 1.00
     Exponent=  6.8827710000D+00 Coefficients=  1.0000000000D+00
 S 1 1.00
     Exponent=  3.1446470000D+00 Coefficients=  1.0000000000D+00
 S 1 1.00
     Exponent=  1.5062660000D+00 Coefficients=  1.0000000000D+00
 S 1 1.00
     Exponent=  6.8726800000D-01 Coefficients=  1.0000000000D+00
 S 1 1.00
     Exponent=  1.6097200000D-01 Coefficients=  1.0000000000D+00
 S 1 1.00
     Exponent=  7.3017000000D-02 Coefficients=  1.0000000000D+00
 S 1 1.00
     Exponent=  3.2071000000D-02 Coefficients=  1.0000000000D+00
 S 1 1.00
     Exponent=  6.2451000000D+00 Coefficients=  1.0000000000D+00
 S 1 1.00
     Exponent=  1.7752000000D+00 Coefficients=  1.0000000000D+00
 S 1 1.00
     Exponent=  1.4090000000D-02 Coefficients=  1.0000000000D+00
 P 1 1.00
     Exponent=  4.1961400000D+04 Coefficients=  1.0000000000D+00
 P 1 1.00
     Exponent=  9.9283060000D+03 Coefficients=  1.0000000000D+00
 P 1 1.00
     Exponent=  3.2249710000D+03 Coefficients=  1.0000000000D+00
 P 1 1.00
     Exponent=  1.2352930000D+03 Coefficients=  1.0000000000D+00
 P 1 1.00
     Exponent=  5.2584690000D+02 Coefficients=  1.0000000000D+00
 P 1 1.00
     Exponent=  2.4097620000D+02 Coefficients=  1.0000000000D+00
 P 1 1.00
     Exponent=  1.1664180000D+02 Coefficients=  1.0000000000D+00
 P 1 1.00
     Exponent=  5.8848340000D+01 Coefficients=  1.0000000000D+00
 P 1 1.00
     Exponent=  3.0529100000D+01 Coefficients=  1.0000000000D+00
 P 1 1.00
     Exponent=  1.6169430000D+01 Coefficients=  1.0000000000D+00
 P 1 1.00
     Exponent=  8.6642360000D+00 Coefficients=  1.0000000000D+00
 P 1 1.00
     Exponent=  4.5919430000D+00 Coefficients=  1.0000000000D+00
 P 1 1.00
     Exponent=  2.3810480000D+00 Coefficients=  1.0000000000D+00
 P 1 1.00
     Exponent=  1.2062460000D+00 Coefficients=  1.0000000000D+00
 P 1 1.00
     Exponent=  5.8882200000D-01 Coefficients=  1.0000000000D+00
 P 1 1.00
     Exponent=  2.2489300000D-01 Coefficients=  1.0000000000D+00
 P 1 1.00
     Exponent=  9.0448000000D-02 Coefficients=  1.0000000000D+00
 P 1 1.00
     Exponent=  3.5820000000D-02 Coefficients=  1.0000000000D+00
 P 1 1.00
     Exponent=  9.4150000000D+00 Coefficients=  1.0000000000D+00
 P 1 1.00
     Exponent=  2.5758000000D+00 Coefficients=  1.0000000000D+00
 P 1 1.00
     Exponent=  1.4190000000D-02 Coefficients=  1.0000000000D+00
 D 1 1.00
     Exponent=  3.7156600000D+02 Coefficients=  1.0000000000D+00
 D 1 1.00
     Exponent=  1.1011500000D+02 Coefficients=  1.0000000000D+00
 D 1 1.00
     Exponent=  4.2425500000D+01 Coefficients=  1.0000000000D+00
 D 1 1.00
     Exponent=  1.8336900000D+01 Coefficients=  1.0000000000D+00
 D 1 1.00
     Exponent=  8.4573000000D+00 Coefficients=  1.0000000000D+00
 D 1 1.00
     Exponent=  4.0417900000D+00 Coefficients=  1.0000000000D+00
 D 1 1.00
     Exponent=  1.9260300000D+00 Coefficients=  1.0000000000D+00
 D 1 1.00
     Exponent=  8.9428100000D-01 Coefficients=  1.0000000000D+00
 D 1 1.00
     Exponent=  3.9798800000D-01 Coefficients=  1.0000000000D+00
 D 1 1.00
     Exponent=  1.6650000000D-01 Coefficients=  1.0000000000D+00
 D 1 1.00
     Exponent=  6.3025000000D-02 Coefficients=  1.0000000000D+00
 D 1 1.00
     Exponent=  6.2748000000D+00 Coefficients=  1.0000000000D+00
 D 1 1.00
     Exponent=  3.3097000000D+00 Coefficients=  1.0000000000D+00
 D 1 1.00
     Exponent=  2.3860000000D-02 Coefficients=  1.0000000000D+00
 F 1 1.00
     Exponent=  8.9724000000D+00 Coefficients=  1.0000000000D+00
 F 1 1.00
     Exponent=  3.7773000000D+00 Coefficients=  1.0000000000D+00
 F 1 1.00
     Exponent=  1.5902000000D+00 Coefficients=  1.0000000000D+00
 F 1 1.00
     Exponent=  5.3630000000D-01 Coefficients=  1.0000000000D+00
 F 1 1.00
     Exponent=  1.8087000000D-01 Coefficients=  1.0000000000D+00
 G 1 1.00
     Exponent=  7.3377000000D+00 Coefficients=  1.0000000000D+00
 G 1 1.00
     Exponent=  3.2254000000D+00 Coefficients=  1.0000000000D+00
 G 1 1.00
     Exponent=  1.2510000000D+00 Coefficients=  1.0000000000D+00
 G 1 1.00
     Exponent=  4.8521000000D-01 Coefficients=  1.0000000000D+00
 H 1 1.00
     Exponent=  6.7172000000D+00 Coefficients=  1.0000000000D+00
 H 1 1.00
     Exponent=  2.7485000000D+00 Coefficients=  1.0000000000D+00
 H 1 1.00
     Exponent=  1.1246100000D+00 Coefficients=  1.0000000000D+00
 ****
 Centers:       2
 S 1 1.00
     Exponent=  6.1420000000D+04 Coefficients=  1.0000000000D+00
 S 1 1.00
     Exponent=  9.1990000000D+03 Coefficients=  1.0000000000D+00
 S 1 1.00
     Exponent=  2.0910000000D+03 Coefficients=  1.0000000000D+00
 S 1 1.00
     Exponent=  5.9090000000D+02 Coefficients=  1.0000000000D+00
 S 1 1.00
     Exponent=  1.9230000000D+02 Coefficients=  1.0000000000D+00
 S 1 1.00
     Exponent=  6.9320000000D+01 Coefficients=  1.0000000000D+00
 S 1 1.00
     Exponent=  2.6970000000D+01 Coefficients=  1.0000000000D+00
 S 1 1.00
     Exponent=  1.1100000000D+01 Coefficients=  1.0000000000D+00
 S 1 1.00
     Exponent=  4.6820000000D+00 Coefficients=  1.0000000000D+00
 S 1 1.00
     Exponent=  1.4280000000D+00 Coefficients=  1.0000000000D+00
 S 1 1.00
     Exponent=  5.5470000000D-01 Coefficients=  1.0000000000D+00
 S 1 1.00
     Exponent=  2.0670000000D-01 Coefficients=  1.0000000000D+00
 S 1 1.00
     Exponent=  1.2974000000D+01 Coefficients=  1.0000000000D+00
 S 1 1.00
     Exponent=  3.4900000000D+01 Coefficients=  1.0000000000D+00
 S 1 1.00
     Exponent=  9.3881000000D+01 Coefficients=  1.0000000000D+00
 S 1 1.00
     Exponent=  6.9590000000D-02 Coefficients=  1.0000000000D+00
 P 1 1.00
     Exponent=  6.3420000000D+01 Coefficients=  1.0000000000D+00
 P 1 1.00
     Exponent=  1.4660000000D+01 Coefficients=  1.0000000000D+00
 P 1 1.00
     Exponent=  4.4590000000D+00 Coefficients=  1.0000000000D+00
 P 1 1.00
     Exponent=  1.5310000000D+00 Coefficients=  1.0000000000D+00
 P 1 1.00
     Exponent=  5.3020000000D-01 Coefficients=  1.0000000000D+00
 P 1 1.00
     Exponent=  1.7500000000D-01 Coefficients=  1.0000000000D+00
 P 1 1.00
     Exponent=  1.4475000000D+01 Coefficients=  1.0000000000D+00
 P 1 1.00
     Exponent=  4.2730000000D+01 Coefficients=  1.0000000000D+00
 P 1 1.00
     Exponent=  1.2614000000D+02 Coefficients=  1.0000000000D+00
 P 1 1.00
     Exponent=  5.3480000000D-02 Coefficients=  1.0000000000D+00
 D 1 1.00
     Exponent=  3.7750000000D+00 Coefficients=  1.0000000000D+00
 D 1 1.00
     Exponent=  1.3000000000D+00 Coefficients=  1.0000000000D+00
 D 1 1.00
     Exponent=  4.4400000000D-01 Coefficients=  1.0000000000D+00
 D 1 1.00
     Exponent=  1.4927000000D+01 Coefficients=  1.0000000000D+00
 D 1 1.00
     Exponent=  5.7544000000D+01 Coefficients=  1.0000000000D+00
 D 1 1.00
     Exponent=  1.5400000000D-01 Coefficients=  1.0000000000D+00
 F 1 1.00
     Exponent=  2.6660000000D+00 Coefficients=  1.0000000000D+00
 F 1 1.00
     Exponent=  8.5900000000D-01 Coefficients=  1.0000000000D+00
 F 1 1.00
     Exponent=  2.6483000000D+01 Coefficients=  1.0000000000D+00
 F 1 1.00
     Exponent=  3.2400000000D-01 Coefficients=  1.0000000000D+00
 G 1 1.00
     Exponent=  1.8460000000D+00 Coefficients=  1.0000000000D+00
 G 1 1.00
     Exponent=  7.1400000000D-01 Coefficients=  1.0000000000D+00
 ****
 ======================================================================================================
                                       Pseudopotential Parameters
 ======================================================================================================
  Center     Atomic      Valence      Angular      Power
  Number     Number     Electrons     Momentum     of R      Exponent        Coefficient   SO-Coeffient
 ======================================================================================================
    1         27           17
                                      D and up 
                                                     1       27.4113256       17.00000000    0.00000000
                                                     3       26.7607581      465.99253542    0.00000000
                                                     2       20.4803202     -134.54809603    0.00000000
                                                     2        7.2132269        0.88774465    0.00000000
                                      S - D
                                                     2       10.6561396       54.09267691    0.00000000
                                                     2       23.8429374      306.74716360    0.00000000
                                      P - D
                                                     2       10.1997726       39.08918711    0.00000000
                                                     2       26.4265554      208.27588661    0.00000000
    2          8            6
                                      P and up 
                                                     1       12.3099744        6.00000000    0.00000000
                                                     3       14.7696229       73.85984616    0.00000000
                                                     2       13.7141954      -47.87600504    0.00000000
                                      S - P
                                                     2       13.6551200       85.86406526    0.00000000
 ======================================================================================================
 Ernie: Thresh=  0.10000D-02 Tol=  0.10000D-05 Strict=F.
 There are   213 symmetry adapted cartesian basis functions of A1  symmetry.
 There are    56 symmetry adapted cartesian basis functions of A2  symmetry.
 There are   114 symmetry adapted cartesian basis functions of B1  symmetry.
 There are   114 symmetry adapted cartesian basis functions of B2  symmetry.
 There are   157 symmetry adapted basis functions of A1  symmetry.
 There are    47 symmetry adapted basis functions of A2  symmetry.
 There are    90 symmetry adapted basis functions of B1  symmetry.
 There are    90 symmetry adapted basis functions of B2  symmetry.
   384 basis functions,   497 primitive gaussians,   497 cartesian basis functions
    13 alpha electrons       10 beta electrons
       nuclear repulsion energy        41.5200580876 Hartrees.
 IExCor=    0 DFT=F Ex=HF Corr=None ExCW=0 ScaHFX=  1.000000
 ScaDFX=  1.000000  1.000000  1.000000  1.000000 ScalE2=  1.000000  1.000000
 IRadAn=      5 IRanWt=     -1 IRanGd=            0 ICorTp=0 IEmpDi=  4
 NAtoms=    2 NActive=    2 NUniq=    2 SFac= 1.00D+00 NAtFMM=   60 NAOKFM=F Big=F
 Integral buffers will be    131072 words long.
 Raffenetti 2 integral format.
 Two-electron integral symmetry is turned on.
 Leave Link  301 at Sat Mar 31 14:31:51 2018, MaxMem= 10737418240 cpu:               9.3 elap:               0.3
 (Enter /home1/apps/gaussian/16rA.03/g16/l302.exe)
 NPDir=0 NMtPBC=     1 NCelOv=     1 NCel=       1 NClECP=     1 NCelD=      1
         NCelK=      1 NCelE2=     1 NClLst=     1 CellRange=     0.0.
 One-electron integrals computed using PRISM.
 One-electron integral symmetry used in STVInt
   4 Symmetry operations used in ECPInt.
 ECPInt:  NShTT=    6105 NPrTT=    6105 LenC2=    5633 LenP2D=    5632.
 LDataN:  DoStor=T MaxTD1=10 Len=  848
 NBasis=   384 RedAO= T EigKep=  2.06D-06  NBF=   157    47    90    90
 NBsUse=   380 1.00D-06 EigRej=  5.13D-07 NBFU=   155    47    89    89
 Leave Link  302 at Sat Mar 31 14:31:53 2018, MaxMem= 10737418240 cpu:              79.6 elap:               2.5
 (Enter /home1/apps/gaussian/16rA.03/g16/l303.exe)
 DipDrv:  MaxL=1.
 Leave Link  303 at Sat Mar 31 14:31:54 2018, MaxMem= 10737418240 cpu:               3.9 elap:               0.2
 (Enter /home1/apps/gaussian/16rA.03/g16/l401.exe)
 Initial guess from the checkpoint file:  "qz.chk"
 B after Tr=     0.000000    0.000000    0.000000
         Rot=    1.000000    0.000000    0.000000    0.000000 Ang=   0.00 deg.
 Guess basis will be translated and rotated to current coordinates.
 JPrj=2 DoOrth=T DoCkMO=T.
 Initial guess orbital symmetries:
       Occupied  (SG) (SG) (PI) (PI) (SG) (SG) (DLTA) (PI) (PI)
                 (SG) (DLTA) (PI) (PI)
       Virtual   (SG) (PI) (PI) (SG) (SG) (PI) (PI) (SG) (DLTA)
                 (DLTA) (PI) (PI) (SG) (SG) (SG) (PI) (PI) (PI)
                 (PI) (SG) (DLTA) (DLTA) (PI) (PI) (SG) (SG) (SG)
                 (DLTA) (DLTA) (PI) (PI) (SG) (PI) (PI) (SG) (PI)
                 (PI) (PHI) (PHI) (SG) (?A) (?A) (PI) (PI) (SG)
                 (?A) (?A) (SG) (PI) (PI) (SG) (PHI) (PHI) (DLTA)
                 (DLTA) (SG) (PI) (PI) (DLTA) (DLTA) (SG) (PI)
                 (PI) (PI) (PI) (SG) (SG) (PHI) (PHI) (DLTA) (DLTA)
                 (PI) (PI) (SG) (DLTA) (DLTA) (PI) (PI) (?B) (?B)
                 (?C) (?C) (?C) (?C) (SG) (DLTA) (DLTA) (SG) (SG)
                 (PI) (PI) (SG) (PHI) (PHI) (DLTA) (DLTA) (SG)
                 (PI) (PI) (DLTA) (DLTA) (SG) (PI) (PI) (SG) (PI)
                 (PI) (SG) (DLTA) (DLTA) (?C) (?C) (?C) (?C) (DLTA)
                 (DLTA) (SG) (PI) (PI) (SG) (?B) (?B) (PHI) (PHI)
                 (DLTA) (DLTA) (PI) (PI) (SG) (PI) (PI) (SG) (PI)
                 (PI) (SG) (SG) (SG) (DLTA) (DLTA) (PI) (PI) (SG)
                 (PHI) (PHI) (DLTA) (DLTA) (PI) (PI) (SG) (PI)
                 (PI) (SG) (?D) (?D) (?C) (?C) (DLTA) (DLTA) (?C)
                 (?C) (?D) (SG) (DLTA) (DLTA) (PI) (PI) (SG) (SG)
                 (DLTA) (DLTA) (PI) (PI) (SG) (PI) (PI) (SG) (PI)
                 (PI) (SG) (DLTA) (DLTA) (PI) (PI) (SG) (SG) (SG)
                 (PI) (PI) (SG) (PI) (PI) (SG) (SG) (SG) (DLTA)
                 (DLTA) (PI) (PI) (SG) (PI) (PI) (SG) (SG) (SG)
                 (PI) (PI) (SG) (PI) (PI) (SG) (SG) (DLTA) (DLTA)
                 (PI) (PI) (SG) (SG) (PI) (PI) (SG) (SG) (PI) (PI)
                 (SG) (SG) (SG) (PI) (PI) (SG) (SG) (SG) (PI) (PI)
                 (SG) (SG) (PI) (PI) (SG) (SG) (SG) (SG) (PI) (PI)
                 (SG) (SG) (SG) (SG) (SG) (DLTA) (SG) (SG) (DLTA)
                 (SG) (SG) (SG) (SG) (DLTA) (SG) (DLTA) (SG) (SG)
                 (DLTA) (SG) (SG) (SG) (DLTA) (?B) (SG) (DLTA)
                 (SG) (?B) (DLTA) (SG) (DLTA) (SG) (DLTA) (?B)
                 (SG) (DLTA) (DLTA) (SG) (DLTA) (SG) (SG) (DLTA)
                 (?B) (SG) (?B) (?B) (DLTA) (DLTA) (DLTA) (DLTA)
                 (DLTA) (DLTA) (?B) (DLTA) (?B) (DLTA) (DLTA) (DLTA)
                 (?B) (DLTA) (DLTA) (DLTA) (DLTA) (?B) (?B) (?B)
                 (PI) (PI) (PI) (PI) (PHI) (PI) (PI) (PI) (PHI)
                 (PI) (PI) (PI) (PHI) (PI) (PHI) (?E) (PI) (PI)
                 (PHI) (PI) (PI) (PHI) (PI) (PHI) (PI) (PHI) (?E)
                 (PHI) (?E) (PI) (PI) (PI) (PI) (PHI) (PI) (PI)
                 (PI) (PHI) (PI) (PI) (PI) (PHI) (PI) (PHI) (?E)
                 (PI) (PI) (PHI) (PI) (PI) (PHI) (PI) (PHI) (PI)
                 (PHI) (?E) (PHI) (?E)
 Leave Link  401 at Sat Mar 31 14:31:55 2018, MaxMem= 10737418240 cpu:              25.0 elap:               0.9
 (Enter /home1/apps/gaussian/16rA.03/g16/l502.exe)
 Keep R1 and R2 ints in memory in symmetry-blocked form, NReq=3425113631.
 FoFCou: FMM=F IPFlag=           8 FMFlag=           0 FMFlg1=           0
         NFxFlg=           0 DoJE=F BraDBF=F KetDBF=F FulRan=T
         wScrn=  0.000000 ICntrl=       600 IOpCl=  0 I1Cent=           0 NGrid=           0
         NMat0=    1 NMatS0=  73920 NMatT0=    0 NMatD0=    1 NMtDS0=    0 NMtDT0=    0
 Petite list used in FoFCou.
 Restricted open shell SCF:
 Using DIIS extrapolation, IDIIS=  1040.
 NGot= 10737418240 LenX=  9351085953 LenY=  9350838447
 Requested convergence on RMS density matrix=1.00D-08 within 400 cycles.
 Requested convergence on MAX density matrix=1.00D-06.
 Requested convergence on             energy=1.00D-06.
 No special actions if energy rises.

 Cycle   1  Pass 1  IDiag  1:
 E= -160.174784968676    
 DIIS: error= 5.44D-01 at cycle   1 NSaved=   1.
 NSaved= 1 IEnMin= 1 EnMin= -160.174784968676     IErMin= 1 ErrMin= 5.44D-01
 ErrMax= 5.44D-01  0.00D+00 EMaxC= 1.00D-01 BMatC= 4.21D+01 BMatP= 4.21D+01
 IDIUse=3 WtCom= 0.00D+00 WtEn= 1.00D+00
 Coeff-Com:  0.100D+01
 Coeff-En:   0.100D+01
 Coeff:      0.100D+01
 Gap=     0.128 Goal=   None    Shift=    0.000
 GapD=    0.128 DampG=1.000 DampE=0.125 DampFc=0.1250 IDamp=-1.
 Damping current iteration by 1.25D-01
 RMSDP=1.75D-03 MaxDP=9.34D-02              OVMax= 4.14D-03

 Cycle   2  Pass 1  IDiag  1:
 E= -160.174987704737     Delta-E=       -0.000202736061 Rises=F Damp=T
 DIIS: error= 4.76D-01 at cycle   2 NSaved=   2.
 NSaved= 2 IEnMin= 2 EnMin= -160.174987704737     IErMin= 2 ErrMin= 4.76D-01
 ErrMax= 4.76D-01  0.00D+00 EMaxC= 1.00D-01 BMatC= 3.23D+01 BMatP= 4.21D+01
 IDIUse=3 WtCom= 0.00D+00 WtEn= 1.00D+00
 Coeff-Com: -0.700D+01 0.800D+01
 Coeff-En:   0.000D+00 0.100D+01
 Coeff:      0.000D+00 0.100D+01
 Gap=     0.128 Goal=   None    Shift=    0.000
 RMSDP=1.53D-03 MaxDP=8.18D-02 DE=-2.03D-04 OVMax= 3.58D-03

 Cycle   3  Pass 1  IDiag  1:
 E= -160.176444518846     Delta-E=       -0.001456814109 Rises=F Damp=F
 DIIS: error= 3.58D-04 at cycle   3 NSaved=   3.
 NSaved= 3 IEnMin= 3 EnMin= -160.176444518846     IErMin= 3 ErrMin= 3.58D-04
 ErrMax= 3.58D-04  0.00D+00 EMaxC= 1.00D-01 BMatC= 2.13D-05 BMatP= 3.23D+01
 IDIUse=3 WtCom= 9.96D-01 WtEn= 3.58D-03
 Coeff-Com: -0.823D+00 0.940D+00 0.883D+00
 Coeff-En:   0.000D+00 0.000D+00 0.100D+01
 Coeff:     -0.820D+00 0.937D+00 0.883D+00
 Gap=     0.128 Goal=   None    Shift=    0.000
 RMSDP=6.83D-05 MaxDP=7.21D-03 DE=-1.46D-03 OVMax= 3.91D-03

 Cycle   4  Pass 1  IDiag  1:
 E= -160.176454815155     Delta-E=       -0.000010296310 Rises=F Damp=F
 DIIS: error= 2.46D-04 at cycle   4 NSaved=   4.
 NSaved= 4 IEnMin= 4 EnMin= -160.176454815155     IErMin= 4 ErrMin= 2.46D-04
 ErrMax= 2.46D-04  0.00D+00 EMaxC= 1.00D-01 BMatC= 8.56D-06 BMatP= 2.13D-05
 IDIUse=3 WtCom= 9.98D-01 WtEn= 2.46D-03
 Coeff-Com: -0.587D+00 0.671D+00 0.284D+00 0.632D+00
 Coeff-En:   0.000D+00 0.000D+00 0.276D+00 0.724D+00
 Coeff:     -0.586D+00 0.670D+00 0.284D+00 0.633D+00
 Gap=     0.128 Goal=   None    Shift=    0.000
 RMSDP=2.25D-05 MaxDP=1.73D-03 DE=-1.03D-05 OVMax= 4.27D-03

 Cycle   5  Pass 1  IDiag  1:
 E= -160.176452095792     Delta-E=        0.000002719363 Rises=F Damp=F
 DIIS: error= 2.95D-04 at cycle   5 NSaved=   5.
 NSaved= 5 IEnMin= 4 EnMin= -160.176454815155     IErMin= 4 ErrMin= 2.46D-04
 ErrMax= 2.95D-04  0.00D+00 EMaxC= 1.00D-01 BMatC= 8.45D-06 BMatP= 8.56D-06
 IDIUse=3 WtCom= 9.97D-01 WtEn= 2.95D-03
 Coeff-Com: -0.534D+00 0.610D+00-0.792D-01 0.430D+00 0.573D+00
 Coeff-En:   0.000D+00 0.000D+00 0.000D+00 0.554D+00 0.446D+00
 Coeff:     -0.532D+00 0.608D+00-0.790D-01 0.430D+00 0.573D+00
 Gap=     0.128 Goal=   None    Shift=    0.000
 RMSDP=1.24D-05 MaxDP=9.62D-04 DE= 2.72D-06 OVMax= 2.36D-03

 Cycle   6  Pass 1  IDiag  1:
 E= -160.176458633284     Delta-E=       -0.000006537492 Rises=F Damp=F
 DIIS: error= 1.66D-04 at cycle   6 NSaved=   6.
 NSaved= 6 IEnMin= 6 EnMin= -160.176458633284     IErMin= 6 ErrMin= 1.66D-04
 ErrMax= 1.66D-04  0.00D+00 EMaxC= 1.00D-01 BMatC= 3.21D-06 BMatP= 8.45D-06
 IDIUse=3 WtCom= 9.98D-01 WtEn= 1.66D-03
 Rare condition: small coef for last iteration:  0.000D+00
 Coeff-Com: -0.487D+00 0.557D+00-0.932D-01 0.150D+00 0.275D+00 0.599D+00
 Coeff-En:   0.000D+00 0.000D+00 0.000D+00 0.203D+00 0.613D-01 0.736D+00
 Coeff:     -0.487D+00 0.557D+00-0.932D-01 0.150D+00 0.275D+00 0.599D+00
 Gap=     0.128 Goal=   None    Shift=    0.000
 RMSDP=7.24D-06 MaxDP=6.06D-04 DE=-6.54D-06 OVMax= 5.35D-04

 Cycle   7  Pass 1  IDiag  1:
 E= -160.176459289675     Delta-E=       -0.000000656391 Rises=F Damp=F
 DIIS: error= 1.23D-04 at cycle   7 NSaved=   7.
 NSaved= 7 IEnMin= 7 EnMin= -160.176459289675     IErMin= 7 ErrMin= 1.23D-04
 ErrMax= 1.23D-04  0.00D+00 EMaxC= 1.00D-01 BMatC= 2.55D-06 BMatP= 3.21D-06
 IDIUse=3 WtCom= 9.99D-01 WtEn= 1.23D-03
 EnCoef did   100 forward-backward iterations
 Coeff-Com: -0.447D+00 0.511D+00-0.803D-01 0.280D-01 0.109D+00 0.426D+00
 Coeff-Com:  0.454D+00
 Coeff-En:   0.000D+00 0.000D+00 0.000D+00 0.521D+00 0.409D+00 0.000D+00
 Coeff-En:   0.698D-01
 Coeff:     -0.447D+00 0.510D+00-0.802D-01 0.286D-01 0.109D+00 0.425D+00
 Coeff:      0.454D+00
 Gap=     0.128 Goal=   None    Shift=    0.000
 RMSDP=3.16D-06 MaxDP=1.88D-04 DE=-6.56D-07 OVMax= 3.45D-04

 Cycle   8  Pass 1  IDiag  1:
 E= -160.176459795388     Delta-E=       -0.000000505713 Rises=F Damp=F
 DIIS: error= 1.11D-04 at cycle   8 NSaved=   8.
 NSaved= 8 IEnMin= 8 EnMin= -160.176459795388     IErMin= 8 ErrMin= 1.11D-04
 ErrMax= 1.11D-04  0.00D+00 EMaxC= 1.00D-01 BMatC= 2.01D-06 BMatP= 2.55D-06
 IDIUse=3 WtCom= 9.99D-01 WtEn= 1.11D-03
 EnCoef did    19 forward-backward iterations
 Coeff-Com: -0.364D+00 0.416D+00-0.515D-01-0.943D-01-0.811D-01 0.470D-01
 Coeff-Com:  0.356D+00 0.771D+00
 Coeff-En:   0.000D+00 0.000D+00 0.000D+00 0.369D+00 0.272D+00 0.000D+00
 Coeff-En:   0.000D+00 0.359D+00
 Coeff:     -0.364D+00 0.416D+00-0.514D-01-0.938D-01-0.807D-01 0.469D-01
 Coeff:      0.356D+00 0.771D+00
 Gap=     0.128 Goal=   None    Shift=    0.000
 RMSDP=4.50D-06 MaxDP=3.01D-04 DE=-5.06D-07 OVMax= 2.11D-04

 Cycle   9  Pass 1  IDiag  1:
 E= -160.176460374376     Delta-E=       -0.000000578988 Rises=F Damp=F
 DIIS: error= 9.06D-05 at cycle   9 NSaved=   9.
 NSaved= 9 IEnMin= 9 EnMin= -160.176460374376     IErMin= 9 ErrMin= 9.06D-05
 ErrMax= 9.06D-05  0.00D+00 EMaxC= 1.00D-01 BMatC= 1.30D-06 BMatP= 2.01D-06
 IDIUse=1 WtCom= 1.00D+00 WtEn= 0.00D+00
 Coeff-Com: -0.320D+00 0.366D+00-0.409D-01-0.113D+00-0.118D+00-0.584D-01
 Coeff-Com:  0.266D+00 0.697D+00 0.321D+00
 Coeff:     -0.320D+00 0.366D+00-0.409D-01-0.113D+00-0.118D+00-0.584D-01
 Coeff:      0.266D+00 0.697D+00 0.321D+00
 Gap=     0.128 Goal=   None    Shift=    0.000
 RMSDP=2.45D-06 MaxDP=1.63D-04 DE=-5.79D-07 OVMax= 8.79D-05

 Cycle  10  Pass 1  IDiag  1:
 E= -160.176460591678     Delta-E=       -0.000000217302 Rises=F Damp=F
 DIIS: error= 7.99D-05 at cycle  10 NSaved=  10.
 NSaved=10 IEnMin=10 EnMin= -160.176460591678     IErMin=10 ErrMin= 7.99D-05
 ErrMax= 7.99D-05  0.00D+00 EMaxC= 1.00D-01 BMatC= 1.01D-06 BMatP= 1.30D-06
 IDIUse=1 WtCom= 1.00D+00 WtEn= 0.00D+00
 Coeff-Com: -0.235D+00 0.269D+00-0.294D-01-0.776D-01-0.851D-01-0.811D-01
 Coeff-Com:  0.141D+00 0.241D+00-0.525D+00 0.138D+01
 Coeff:     -0.235D+00 0.269D+00-0.294D-01-0.776D-01-0.851D-01-0.811D-01
 Coeff:      0.141D+00 0.241D+00-0.525D+00 0.138D+01
 Gap=     0.128 Goal=   None    Shift=    0.000
 RMSDP=4.67D-06 MaxDP=3.15D-04 DE=-2.17D-07 OVMax= 1.50D-04

 Cycle  11  Pass 1  IDiag  1:
 E= -160.176460939344     Delta-E=       -0.000000347666 Rises=F Damp=F
 DIIS: error= 5.90D-05 at cycle  11 NSaved=  11.
 NSaved=11 IEnMin=11 EnMin= -160.176460939344     IErMin=11 ErrMin= 5.90D-05
 ErrMax= 5.90D-05  0.00D+00 EMaxC= 1.00D-01 BMatC= 5.53D-07 BMatP= 1.01D-06
 IDIUse=1 WtCom= 1.00D+00 WtEn= 0.00D+00
 Coeff-Com: -0.109D+00 0.125D+00-0.181D-01 0.629D-02 0.182D-01 0.514D-01
 Coeff-Com:  0.663D-01-0.179D+00-0.142D+01 0.832D+00 0.162D+01
 Coeff:     -0.109D+00 0.125D+00-0.181D-01 0.629D-02 0.182D-01 0.514D-01
 Coeff:      0.663D-01-0.179D+00-0.142D+01 0.832D+00 0.162D+01
 Gap=     0.128 Goal=   None    Shift=    0.000
 RMSDP=6.89D-06 MaxDP=4.69D-04 DE=-3.48D-07 OVMax= 2.48D-04

 Cycle  12  Pass 1  IDiag  1:
 E= -160.176461276410     Delta-E=       -0.000000337066 Rises=F Damp=F
 DIIS: error= 2.78D-05 at cycle  12 NSaved=  12.
 NSaved=12 IEnMin=12 EnMin= -160.176461276410     IErMin=12 ErrMin= 2.78D-05
 ErrMax= 2.78D-05  0.00D+00 EMaxC= 1.00D-01 BMatC= 1.17D-07 BMatP= 5.53D-07
 IDIUse=1 WtCom= 1.00D+00 WtEn= 0.00D+00
 Coeff-Com: -0.738D-01 0.844D-01-0.129D-01 0.527D-02 0.161D-01 0.478D-01
 Coeff-Com:  0.565D-01 0.244D-01-0.606D+00-0.309D+00 0.108D+01 0.692D+00
 Coeff:     -0.738D-01 0.844D-01-0.129D-01 0.527D-02 0.161D-01 0.478D-01
 Coeff:      0.565D-01 0.244D-01-0.606D+00-0.309D+00 0.108D+01 0.692D+00
 Gap=     0.128 Goal=   None    Shift=    0.000
 RMSDP=2.02D-06 MaxDP=1.41D-04 DE=-3.37D-07 OVMax= 6.50D-05

 Cycle  13  Pass 1  IDiag  1:
 E= -160.176461324647     Delta-E=       -0.000000048236 Rises=F Damp=F
 DIIS: error= 1.84D-05 at cycle  13 NSaved=  13.
 NSaved=13 IEnMin=13 EnMin= -160.176461324647     IErMin=13 ErrMin= 1.84D-05
 ErrMax= 1.84D-05  0.00D+00 EMaxC= 1.00D-01 BMatC= 5.35D-08 BMatP= 1.17D-07
 IDIUse=1 WtCom= 1.00D+00 WtEn= 0.00D+00
 Coeff-Com: -0.493D-01 0.563D-01-0.788D-02-0.638D-02-0.166D-02 0.155D-01
 Coeff-Com:  0.459D-01 0.174D+00 0.752D-01-0.773D+00 0.326D+00 0.393D+00
 Coeff-Com:  0.752D+00
 Coeff:     -0.493D-01 0.563D-01-0.788D-02-0.638D-02-0.166D-02 0.155D-01
 Coeff:      0.459D-01 0.174D+00 0.752D-01-0.773D+00 0.326D+00 0.393D+00
 Coeff:      0.752D+00
 Gap=     0.128 Goal=   None    Shift=    0.000
 RMSDP=1.37D-06 MaxDP=9.01D-05 DE=-4.82D-08 OVMax= 4.63D-05

 Cycle  14  Pass 1  IDiag  1:
 E= -160.176461347055     Delta-E=       -0.000000022408 Rises=F Damp=F
 DIIS: error= 1.25D-05 at cycle  14 NSaved=  14.
 NSaved=14 IEnMin=14 EnMin= -160.176461347055     IErMin=14 ErrMin= 1.25D-05
 ErrMax= 1.25D-05  0.00D+00 EMaxC= 1.00D-01 BMatC= 2.39D-08 BMatP= 5.35D-08
 IDIUse=1 WtCom= 1.00D+00 WtEn= 0.00D+00
 Coeff-Com: -0.266D-01 0.304D-01-0.370D-02-0.824D-02-0.804D-02-0.473D-02
 Coeff-Com:  0.245D-01 0.124D+00 0.126D+00-0.416D+00 0.415D-01-0.636D-01
 Coeff-Com:  0.144D+00 0.104D+01
 Coeff:     -0.266D-01 0.304D-01-0.370D-02-0.824D-02-0.804D-02-0.473D-02
 Coeff:      0.245D-01 0.124D+00 0.126D+00-0.416D+00 0.415D-01-0.636D-01
 Coeff:      0.144D+00 0.104D+01
 Gap=     0.128 Goal=   None    Shift=    0.000
 RMSDP=1.27D-06 MaxDP=8.74D-05 DE=-2.24D-08 OVMax= 4.09D-05

 Cycle  15  Pass 1  IDiag  1:
 E= -160.176461359747     Delta-E=       -0.000000012692 Rises=F Damp=F
 DIIS: error= 6.68D-06 at cycle  15 NSaved=  15.
 NSaved=15 IEnMin=15 EnMin= -160.176461359747     IErMin=15 ErrMin= 6.68D-06
 ErrMax= 6.68D-06  0.00D+00 EMaxC= 1.00D-01 BMatC= 6.99D-09 BMatP= 2.39D-08
 IDIUse=1 WtCom= 1.00D+00 WtEn= 0.00D+00
 Coeff-Com: -0.143D-01 0.163D-01-0.169D-02-0.648D-02-0.763D-02-0.995D-02
 Coeff-Com:  0.110D-01 0.662D-01 0.718D-01-0.141D+00-0.232D-01-0.207D+00
 Coeff-Com: -0.213D+00 0.899D+00 0.560D+00
 Coeff:     -0.143D-01 0.163D-01-0.169D-02-0.648D-02-0.763D-02-0.995D-02
 Coeff:      0.110D-01 0.662D-01 0.718D-01-0.141D+00-0.232D-01-0.207D+00
 Coeff:     -0.213D+00 0.899D+00 0.560D+00
 Gap=     0.128 Goal=   None    Shift=    0.000
 RMSDP=6.76D-07 MaxDP=4.57D-05 DE=-1.27D-08 OVMax= 2.29D-05

 Cycle  16  Pass 1  IDiag  1:
 E= -160.176461363500     Delta-E=       -0.000000003753 Rises=F Damp=F
 DIIS: error= 3.62D-06 at cycle  16 NSaved=  16.
 NSaved=16 IEnMin=16 EnMin= -160.176461363500     IErMin=16 ErrMin= 3.62D-06
 ErrMax= 3.62D-06  0.00D+00 EMaxC= 1.00D-01 BMatC= 2.02D-09 BMatP= 6.99D-09
 IDIUse=1 WtCom= 1.00D+00 WtEn= 0.00D+00
 Coeff-Com: -0.534D-02 0.610D-02-0.679D-03-0.125D-02-0.139D-02-0.266D-02
 Coeff-Com:  0.784D-03-0.252D-02-0.372D-01 0.678D-01 0.427D-01-0.925D-01
 Coeff-Com: -0.270D+00-0.255D-01 0.355D+00 0.967D+00
 Coeff:     -0.534D-02 0.610D-02-0.679D-03-0.125D-02-0.139D-02-0.266D-02
 Coeff:      0.784D-03-0.252D-02-0.372D-01 0.678D-01 0.427D-01-0.925D-01
 Coeff:     -0.270D+00-0.255D-01 0.355D+00 0.967D+00
 Gap=     0.128 Goal=   None    Shift=    0.000
 RMSDP=4.96D-07 MaxDP=3.31D-05 DE=-3.75D-09 OVMax= 1.65D-05

 Cycle  17  Pass 1  IDiag  1:
 E= -160.176461364800     Delta-E=       -0.000000001300 Rises=F Damp=F
 DIIS: error= 1.40D-06 at cycle  17 NSaved=  17.
 NSaved=17 IEnMin=17 EnMin= -160.176461364800     IErMin=17 ErrMin= 1.40D-06
 ErrMax= 1.40D-06  0.00D+00 EMaxC= 1.00D-01 BMatC= 2.89D-10 BMatP= 2.02D-09
 IDIUse=1 WtCom= 1.00D+00 WtEn= 0.00D+00
 Coeff-Com: -0.242D-02 0.277D-02-0.506D-03 0.144D-02 0.230D-02 0.359D-02
 Coeff-Com: -0.151D-02-0.226D-01-0.699D-01 0.801D-01 0.878D-01 0.315D-01
 Coeff-Com: -0.126D+00-0.430D+00 0.660D-02 0.849D+00 0.587D+00
 Coeff:     -0.242D-02 0.277D-02-0.506D-03 0.144D-02 0.230D-02 0.359D-02
 Coeff:     -0.151D-02-0.226D-01-0.699D-01 0.801D-01 0.878D-01 0.315D-01
 Coeff:     -0.126D+00-0.430D+00 0.660D-02 0.849D+00 0.587D+00
 Gap=     0.128 Goal=   None    Shift=    0.000
 RMSDP=1.78D-07 MaxDP=1.21D-05 DE=-1.30D-09 OVMax= 5.56D-06

 Cycle  18  Pass 1  IDiag  1:
 E= -160.176461364978     Delta-E=       -0.000000000178 Rises=F Damp=F
 DIIS: error= 6.16D-07 at cycle  18 NSaved=  18.
 NSaved=18 IEnMin=18 EnMin= -160.176461364978     IErMin=18 ErrMin= 6.16D-07
 ErrMax= 6.16D-07  0.00D+00 EMaxC= 1.00D-01 BMatC= 5.91D-11 BMatP= 2.89D-10
 IDIUse=1 WtCom= 1.00D+00 WtEn= 0.00D+00
 Coeff-Com: -0.211D-02 0.242D-02-0.430D-03 0.714D-03 0.141D-02 0.279D-02
 Coeff-Com: -0.120D-04-0.383D-02-0.219D-01-0.752D-02 0.532D-01 0.467D-01
 Coeff-Com:  0.107D-01-0.196D+00-0.119D+00 0.178D+00 0.363D+00 0.692D+00
 Coeff:     -0.211D-02 0.242D-02-0.430D-03 0.714D-03 0.141D-02 0.279D-02
 Coeff:     -0.120D-04-0.383D-02-0.219D-01-0.752D-02 0.532D-01 0.467D-01
 Coeff:      0.107D-01-0.196D+00-0.119D+00 0.178D+00 0.363D+00 0.692D+00
 Gap=     0.128 Goal=   None    Shift=    0.000
 RMSDP=2.07D-08 MaxDP=1.44D-06 DE=-1.78D-10 OVMax= 1.35D-06

 Cycle  19  Pass 1  IDiag  1:
 E= -160.176461364991     Delta-E=       -0.000000000013 Rises=F Damp=F
 DIIS: error= 5.19D-07 at cycle  19 NSaved=  19.
 NSaved=19 IEnMin=19 EnMin= -160.176461364991     IErMin=19 ErrMin= 5.19D-07
 ErrMax= 5.19D-07  0.00D+00 EMaxC= 1.00D-01 BMatC= 4.36D-11 BMatP= 5.91D-11
 IDIUse=1 WtCom= 1.00D+00 WtEn= 0.00D+00
 Coeff-Com: -0.672D-03 0.768D-03-0.150D-03 0.278D-03 0.583D-03 0.110D-02
 Coeff-Com: -0.295D-03 0.473D-03-0.204D-02-0.176D-01 0.203D-01 0.236D-01
 Coeff-Com:  0.226D-01-0.666D-01-0.906D-01-0.274D-01 0.157D+00 0.470D+00
 Coeff-Com:  0.510D+00
 Coeff:     -0.672D-03 0.768D-03-0.150D-03 0.278D-03 0.583D-03 0.110D-02
 Coeff:     -0.295D-03 0.473D-03-0.204D-02-0.176D-01 0.203D-01 0.236D-01
 Coeff:      0.226D-01-0.666D-01-0.906D-01-0.274D-01 0.157D+00 0.470D+00
 Coeff:      0.510D+00
 Gap=     0.128 Goal=   None    Shift=    0.000
 RMSDP=7.87D-08 MaxDP=5.30D-06 DE=-1.33D-11 OVMax= 2.62D-06

 Cycle  20  Pass 1  IDiag  1:
 E= -160.176461365021     Delta-E=       -0.000000000030 Rises=F Damp=F
 DIIS: error= 1.66D-07 at cycle  20 NSaved=  20.
 NSaved=20 IEnMin=20 EnMin= -160.176461365021     IErMin=20 ErrMin= 1.66D-07
 ErrMax= 1.66D-07  0.00D+00 EMaxC= 1.00D-01 BMatC= 4.45D-12 BMatP= 4.36D-11
 IDIUse=1 WtCom= 1.00D+00 WtEn= 0.00D+00
 Coeff-Com:  0.557D-03-0.636D-03 0.904D-04-0.321D-04-0.807D-04-0.324D-03
 Coeff-Com: -0.552D-03 0.138D-02 0.761D-02-0.103D-01-0.583D-02-0.125D-02
 Coeff-Com:  0.119D-01 0.243D-01-0.296D-01-0.101D+00-0.190D-01 0.102D+00
 Coeff-Com:  0.419D+00 0.601D+00
 Coeff:      0.557D-03-0.636D-03 0.904D-04-0.321D-04-0.807D-04-0.324D-03
 Coeff:     -0.552D-03 0.138D-02 0.761D-02-0.103D-01-0.583D-02-0.125D-02
 Coeff:      0.119D-01 0.243D-01-0.296D-01-0.101D+00-0.190D-01 0.102D+00
 Coeff:      0.419D+00 0.601D+00
 Gap=     0.128 Goal=   None    Shift=    0.000
 RMSDP=6.73D-08 MaxDP=4.54D-06 DE=-2.95D-11 OVMax= 2.21D-06

 Cycle  21  Pass 1  IDiag  1:
 E= -160.176461365021     Delta-E=       -0.000000000000 Rises=F Damp=F
 DIIS: error= 1.36D-07 at cycle  21 NSaved=  20.
 NSaved=20 IEnMin=20 EnMin= -160.176461365021     IErMin=20 ErrMin= 1.36D-07
 ErrMax= 1.36D-07  0.00D+00 EMaxC= 1.00D-01 BMatC= 3.00D-12 BMatP= 4.45D-12
 IDIUse=1 WtCom= 1.00D+00 WtEn= 0.00D+00
 Coeff-Com: -0.856D-10 0.928D-05-0.895D-04-0.134D-03-0.211D-03 0.913D-04
 Coeff-Com:  0.806D-03 0.183D-02-0.897D-03-0.295D-02-0.371D-02 0.581D-03
 Coeff-Com:  0.232D-01 0.112D-01-0.154D-01-0.342D-01-0.822D-01 0.136D-01
 Coeff-Com:  0.217D+00 0.871D+00
 Coeff:     -0.856D-10 0.928D-05-0.895D-04-0.134D-03-0.211D-03 0.913D-04
 Coeff:      0.806D-03 0.183D-02-0.897D-03-0.295D-02-0.371D-02 0.581D-03
 Coeff:      0.232D-01 0.112D-01-0.154D-01-0.342D-01-0.822D-01 0.136D-01
 Coeff:      0.217D+00 0.871D+00
 Gap=     0.128 Goal=   None    Shift=    0.000
 RMSDP=3.02D-08 MaxDP=2.05D-06 DE=-3.41D-13 OVMax= 1.01D-06

 Cycle  22  Pass 1  IDiag  1:
 E= -160.176461365023     Delta-E=       -0.000000000002 Rises=F Damp=F
 DIIS: error= 1.94D-09 at cycle  22 NSaved=  20.
 NSaved=20 IEnMin=20 EnMin= -160.176461365023     IErMin=20 ErrMin= 1.94D-09
 ErrMax= 1.94D-09  0.00D+00 EMaxC= 1.00D-01 BMatC= 4.78D-16 BMatP= 3.00D-12
 IDIUse=1 WtCom= 1.00D+00 WtEn= 0.00D+00
 Large coefficients: NSaved= 20 BigCof=    0.00 CofMax=   10.00 Det=-7.32D-16
 Inversion failed.  Reducing to 19 matrices.
 Large coefficients: NSaved= 19 BigCof=    0.00 CofMax=   10.00 Det=-1.00D-15
 Inversion failed.  Reducing to 18 matrices.
 Large coefficients: NSaved= 18 BigCof=    0.00 CofMax=   10.00 Det=-1.15D-15
 Inversion failed.  Reducing to 17 matrices.
 Large coefficients: NSaved= 17 BigCof=    0.00 CofMax=   10.00 Det=-1.21D-15
 Inversion failed.  Reducing to 16 matrices.
 Large coefficients: NSaved= 16 BigCof=    0.00 CofMax=   10.00 Det=-1.25D-15
 Inversion failed.  Reducing to 15 matrices.
 Coeff-Com: -0.150D-04 0.555D-05 0.204D-03 0.902D-04 0.130D-04-0.906D-03
 Coeff-Com: -0.186D-02 0.573D-03 0.553D-02 0.395D-02 0.117D-02-0.357D-01
 Coeff-Com: -0.810D-01-0.155D+00 0.126D+01
 Coeff:     -0.150D-04 0.555D-05 0.204D-03 0.902D-04 0.130D-04-0.906D-03
 Coeff:     -0.186D-02 0.573D-03 0.553D-02 0.395D-02 0.117D-02-0.357D-01
 Coeff:     -0.810D-01-0.155D+00 0.126D+01
 Gap=     0.128 Goal=   None    Shift=    0.000
 RMSDP=1.32D-10 MaxDP=7.13D-09 DE=-2.27D-12 OVMax= 2.33D-08

 SCF Done:  E(ROHF) =  -160.176461365     A.U. after   22 cycles
            NFock= 22  Conv=0.13D-09     -V/T= 2.6194
 <Sx>= 0.0000 <Sy>= 0.0000 <Sz>= 1.5000 <S**2>= 3.7500 S= 1.5000
 <L.S>=  0.00000000000    
 KE= 9.890843476841D+01 PE=-4.634425371814D+02 EE= 1.628375829604D+02
 Annihilation of the first spin contaminant:
 S**2 before annihilation     3.7500,   after     3.7500
 Leave Link  502 at Sat Mar 31 14:33:32 2018, MaxMem= 10737418240 cpu:            2495.4 elap:              97.9
 (Enter /home1/apps/gaussian/16rA.03/g16/l801.exe)
 Windowed orbitals will be sorted by symmetry type.
 GenMOA:  NOpAll=  4 NOp2=4 NOpUse=  4 JSym2X=1
 FoFJK:  IHMeth= 1 ICntrl=       0 DoSepK=F KAlg= 0 I1Cent=           0 FoldK=F
 IRaf=         0 NMat=       1 IRICut=       1 DoRegI=T DoRafI=F ISym2E= 1 IDoP0=0 IntGTp=1.
 FoFCou: FMM=F IPFlag=           8 FMFlag=      100000 FMFlg1=           0
         NFxFlg=           0 DoJE=F BraDBF=F KetDBF=F FulRan=T
         wScrn=  0.000000 ICntrl=         0 IOpCl=  1 I1Cent=           0 NGrid=           0
         NMat0=    1 NMatS0=      1 NMatT0=    0 NMatD0=    1 NMtDS0=    0 NMtDT0=    0
 Petite list used in FoFCou.
 <Sx>= 0.0000 <Sy>= 0.0000 <Sz>= 1.5000 <S**2>= 3.7500 S= 1.5000
 Range of M.O.s used for correlation:     1   380
 NBasis=   384 NAE=    13 NBE=    10 NFC=     0 NFV=     0
 NROrb=    380 NOA=    13 NOB=    10 NVA=   367 NVB=   370

 **** Warning!!: The largest alpha MO coefficient is  0.28818656D+03


 **** Warning!!: The largest beta MO coefficient is  0.28818738D+03

 Singles contribution to E2=   -0.1166515899D-01
 Leave Link  801 at Sat Mar 31 14:33:54 2018, MaxMem= 10737418240 cpu:             687.6 elap:              21.5
 (Enter /home1/apps/gaussian/16rA.03/g16/l804.exe)
 Open-shell transformation, MDV= 10737418240 ITran=4 ISComp=2.
 Unit  1 TFree=       4464133 TCopy=       3213379.
 Semi-Direct transformation.
 ModeAB=           4 MOrb=            13 LenV=   10733111460
 LASXX=     88669000 LTotXX=    88669000 LenRXX=   178270504
 LTotAB=    89601504 MaxLAS=   605392060 LenRXY=           0
 NonZer=   266939504 LenScr=   401980416 LnRSAI=   605392060
 LnScr1=   911649792 LExtra=    29296717 Total=   2126589489
 MaxDsk= 67108864000 SrtSym=           T ITran=            4
 DoSDTr:  NPSUse= 32
 JobTyp=1 Pass  1:  I=   1 to  13.
 (rs|ai) integrals will be sorted in core.
 Complete sort for first half transformation.
 First half transformation complete.
 Begin second half transformation for I=  10.
 Complete sort for second half transformation.
 Second half transformation complete.
 ModeAB=           4 MOrb=            10 LenV=   10733111460
 LASXX=     68559916 LTotXX=    68559916 LenRXX=   133134714
 LTotAB=    64574798 MaxLAS=   465686200 LenRXY=           0
 NonZer=   201694630 LenScr=   303728640 LnRSAI=   465686200
 LnScr1=   701268992 LExtra=   207567221 Total=   1811385767
 MaxDsk= 67108864000 SrtSym=           T ITran=            4
 DoSDTr:  NPSUse= 32
 JobTyp=2 Pass  1:  I=   1 to  10.
 (rs|ai) integrals will be sorted in core.
 Complete sort for first half transformation.
 First half transformation complete.
 Begin second half transformation for I=  10.
 Complete sort for second half transformation.
 Second half transformation complete.
 Spin components of T(2) and E(2):
     alpha-alpha T2 =       0.3524717317D-01 E2=     -0.2048412697D+00
     alpha-beta  T2 =       0.1539917195D+00 E2=     -0.8240822739D+00
     beta-beta   T2 =       0.3583492077D-01 E2=     -0.1466207541D+00
 ANorm=    0.1109003502D+01
 E2 =    -0.1187209457D+01 EUMP2 =    -0.16136367082172D+03
 (S**2,0)=  0.37500D+01           (S**2,1)=  0.37500D+01
 E(PUHF)=      -0.16017646137D+03        E(PMP2)=      -0.16136367082D+03
 Leave Link  804 at Sat Mar 31 14:46:17 2018, MaxMem= 10737418240 cpu:           23753.1 elap:             742.7
 (Enter /home1/apps/gaussian/16rA.03/g16/l913.exe)
 CIDS:  MDV= 10737418240.
 IFCWin=0 IBDFC=1 NFBD=     0     0 NFCmp=     0     0 NFFFC=     0     0
 Using original routines for 1st iteration.
 Using DD4UQ or CC4UQ for 2nd and later iterations.
 Keep R2 and R3 ints in memory in symmetry-blocked form, NReq=3425136703.
 FoFCou: FMM=F IPFlag=           8 FMFlag=           0 FMFlg1=           0
         NFxFlg=           0 DoJE=F BraDBF=F KetDBF=F FulRan=T
         wScrn=  0.000000 ICntrl=       600 IOpCl=  0 I1Cent=           0 NGrid=           0
         NMat0=    1 NMatS0=  73920 NMatT0=    0 NMatD0=    1 NMtDS0=    0 NMtDT0=    0
 Petite list used in FoFCou.
 CIDS: In Core Option IDoMem=           1.
 CCSD(T)
 =======
 Iterations= 150 Convergence= 0.100D-06
 Produce multiple copies of IABC intergrals
 Iteration Nr.   1
 **********************
 DD1Dir will call FoFMem   1 times, MxPair=       384
 NAB=   130 NAA=    78 NBB=    45.
 DD1Dir will call FoFMem   1 times, MxPair=       384
 NAB=   130 NAA=    78 NBB=    45.
 MP4(R+Q)= -0.10356428D+00
 Maximum subspace dimension=  5
 A-vector RMS=  3.3398753D-04 Max=  1.3923641D-02 conv= 1.00D-05.
 RLE energy=       -1.1676315451
 E3=        0.12289051D+00        EROMP3=      -0.16124078032D+03
 E4(SDQ)=  -0.81048306D-01        ROMP4(SDQ)=  -0.16132182862D+03
 VARIATIONAL ENERGIES WITH THE FIRST-ORDER WAVEFUNCTION:
 DE(Corr)=  -1.1672980     E(Corr)=     -161.34375934    
 NORM(A)=   0.10997129D+01
 Iteration Nr.   2
 **********************
 DD1Dir will call FoFMem   1 times, MxPair=       384
 NAB=   130 NAA=    78 NBB=    45.
 A-vector RMS=  4.3259957D-03 Max=  6.4699669D-02 conv= 1.00D-05.
 RLE energy=       -1.1278163763
 DE(Corr)=  -1.0443642     E(CORR)=     -161.22082555     Delta= 1.23D-01
 NORM(A)=   0.10924104D+01
 Iteration Nr.   3
 **********************
 DD1Dir will call FoFMem   1 times, MxPair=       384
 NAB=   130 NAA=    78 NBB=    45.
 A-vector RMS=  2.5192459D-03 Max=  3.9723939D-02 conv= 1.00D-05.
 RLE energy=       -1.1251260718
 DE(Corr)=  -1.0717478     E(CORR)=     -161.24820913     Delta=-2.74D-02
 NORM(A)=   0.10991772D+01
 Iteration Nr.   4
 **********************
 DD1Dir will call FoFMem   1 times, MxPair=       384
 NAB=   130 NAA=    78 NBB=    45.
 A-vector RMS=  2.2838655D-03 Max=  3.6498171D-02 conv= 1.00D-05.
 RLE energy=       -1.0883105689
 DE(Corr)=  -1.0850073     E(CORR)=     -161.26146865     Delta=-1.33D-02
 NORM(A)=   0.11633526D+01
 Iteration Nr.   5
 **********************
 DD1Dir will call FoFMem   1 times, MxPair=       384
 NAB=   130 NAA=    78 NBB=    45.
 A-vector RMS=  2.4897789D-03 Max=  3.0003515D-02 conv= 1.00D-05.
 RLE energy=       -1.1189903489
 DE(Corr)=  -1.1555187     E(CORR)=     -161.33198011     Delta=-7.05D-02
 NORM(A)=   0.11566958D+01
 Iteration Nr.   6
 **********************
 DD1Dir will call FoFMem   1 times, MxPair=       384
 NAB=   130 NAA=    78 NBB=    45.
 A-vector RMS=  4.2691650D-04 Max=  5.4883767D-03 conv= 1.00D-05.
 RLE energy=       -1.1209570528
 DE(Corr)=  -1.1274555     E(CORR)=     -161.30391685     Delta= 2.81D-02
 NORM(A)=   0.11480359D+01
 Iteration Nr.   7
 **********************
 DD1Dir will call FoFMem   1 times, MxPair=       384
 NAB=   130 NAA=    78 NBB=    45.
 A-vector RMS=  1.6084071D-04 Max=  2.7189512D-03 conv= 1.00D-05.
 RLE energy=       -1.1203372828
 DE(Corr)=  -1.1204241     E(CORR)=     -161.29688546     Delta= 7.03D-03
 NORM(A)=   0.11484508D+01
 Iteration Nr.   8
 **********************
 DD1Dir will call FoFMem   1 times, MxPair=       384
 NAB=   130 NAA=    78 NBB=    45.
 A-vector RMS=  7.4097675D-05 Max=  1.1829557D-03 conv= 1.00D-05.
 RLE energy=       -1.1204858187
 DE(Corr)=  -1.1206478     E(CORR)=     -161.29710920     Delta=-2.24D-04
 NORM(A)=   0.11487645D+01
 Iteration Nr.   9
 **********************
 DD1Dir will call FoFMem   1 times, MxPair=       384
 NAB=   130 NAA=    78 NBB=    45.
 A-vector RMS=  4.8300483D-05 Max=  7.8984950D-04 conv= 1.00D-05.
 RLE energy=       -1.1206861897
 DE(Corr)=  -1.1205275     E(CORR)=     -161.29698887     Delta= 1.20D-04
 NORM(A)=   0.11492974D+01
 Iteration Nr.  10
 **********************
 DD1Dir will call FoFMem   1 times, MxPair=       384
 NAB=   130 NAA=    78 NBB=    45.
 A-vector RMS=  2.9724563D-05 Max=  5.8363103D-04 conv= 1.00D-05.
 RLE energy=       -1.1207240153
 DE(Corr)=  -1.1206183     E(CORR)=     -161.29707965     Delta=-9.08D-05
 NORM(A)=   0.11494540D+01
 Iteration Nr.  11
 **********************
 DD1Dir will call FoFMem   1 times, MxPair=       384
 NAB=   130 NAA=    78 NBB=    45.
 A-vector RMS=  2.1730721D-05 Max=  4.6910117D-04 conv= 1.00D-05.
 RLE energy=       -1.1207144856
 DE(Corr)=  -1.1206418     E(CORR)=     -161.29710312     Delta=-2.35D-05
 NORM(A)=   0.11496227D+01
 Iteration Nr.  12
 **********************
 DD1Dir will call FoFMem   1 times, MxPair=       384
 NAB=   130 NAA=    78 NBB=    45.
 A-vector RMS=  1.2714041D-05 Max=  2.3336733D-04 conv= 1.00D-05.
 RLE energy=       -1.1207198968
 DE(Corr)=  -1.1206905     E(CORR)=     -161.29715183     Delta=-4.87D-05
 NORM(A)=   0.11496216D+01
 Iteration Nr.  13
 **********************
 DD1Dir will call FoFMem   1 times, MxPair=       384
 NAB=   130 NAA=    78 NBB=    45.
 A-vector RMS=  6.1966944D-06 Max=  1.0021809D-04 conv= 1.00D-05.
 RLE energy=       -1.1206491788
 DE(Corr)=  -1.1206570     E(CORR)=     -161.29711836     Delta= 3.35D-05
 NORM(A)=   0.11495716D+01
 Iteration Nr.  14
 **********************
 DD1Dir will call FoFMem   1 times, MxPair=       384
 NAB=   130 NAA=    78 NBB=    45.
 A-vector RMS=  4.1812424D-06 Max=  5.8896382D-05 conv= 1.00D-05.
 RLE energy=       -1.1206474019
 DE(Corr)=  -1.1206612     E(CORR)=     -161.29712254     Delta=-4.18D-06
 NORM(A)=   0.11495475D+01
 Iteration Nr.  15
 **********************
 DD1Dir will call FoFMem   1 times, MxPair=       384
 NAB=   130 NAA=    78 NBB=    45.
 A-vector RMS=  1.3472614D-06 Max=  1.6544772D-05 conv= 1.00D-05.
 RLE energy=       -1.1206417104
 DE(Corr)=  -1.1206438     E(CORR)=     -161.29710519     Delta= 1.74D-05
 NORM(A)=   0.11495415D+01
 Iteration Nr.  16
 **********************
 DD1Dir will call FoFMem   1 times, MxPair=       384
 NAB=   130 NAA=    78 NBB=    45.
 A-vector RMS=  1.2404268D-06 Max=  2.2623197D-05 conv= 1.00D-05.
 RLE energy=       -1.1206411677
 DE(Corr)=  -1.1206438     E(CORR)=     -161.29710516     Delta= 2.55D-08
 NORM(A)=   0.11495458D+01
 Iteration Nr.  17
 **********************
 DD1Dir will call FoFMem   1 times, MxPair=       384
 NAB=   130 NAA=    78 NBB=    45.
 A-vector RMS=  6.9095668D-07 Max=  1.0289149D-05 conv= 1.00D-05.
 RLE energy=       -1.1206444642
 DE(Corr)=  -1.1206446     E(CORR)=     -161.29710598     Delta=-8.21D-07
 NORM(A)=   0.11495514D+01
 Iteration Nr.  18
 **********************
 DD1Dir will call FoFMem   1 times, MxPair=       384
 NAB=   130 NAA=    78 NBB=    45.
 A-vector RMS=  5.1488529D-07 Max=  1.2560863D-05 conv= 1.00D-05.
 RLE energy=       -1.1206457565
 DE(Corr)=  -1.1206449     E(CORR)=     -161.29710624     Delta=-2.55D-07
 NORM(A)=   0.11495597D+01
 Iteration Nr.  19
 **********************
 DD1Dir will call FoFMem   1 times, MxPair=       384
 NAB=   130 NAA=    78 NBB=    45.
 A-vector RMS=  3.7767394D-07 Max=  8.2361549D-06 conv= 1.00D-05.
 RLE energy=       -1.1206483521
 DE(Corr)=  -1.1206475     E(CORR)=     -161.29710884     Delta=-2.60D-06
 NORM(A)=   0.11495643D+01
 Iteration Nr.  20
 **********************
 DD1Dir will call FoFMem   1 times, MxPair=       384
 NAB=   130 NAA=    78 NBB=    45.
 A-vector RMS=  3.1325492D-07 Max=  7.5978377D-06 conv= 1.00D-05.
 RLE energy=       -1.1206481643
 DE(Corr)=  -1.1206475     E(CORR)=     -161.29710884     Delta= 6.83D-10
 NORM(A)=   0.11495683D+01
 CI/CC converged in   20 iterations to DelEn= 6.83D-10 Conv= 1.00D-07 ErrA1= 3.13D-07 Conv= 1.00D-05
 Wavefunction amplitudes converged. E(Corr)=     -161.29710884    
 Dominant configurations:
 ***********************
 Spin Case        I    J    A    B          Value
    BB            9        26            0.128305D+00
    BB            9        37            0.105908D+00
    BB            8        27            0.128305D+00
    BB            8        36            0.105908D+00
 Largest amplitude= 1.28D-01
 Time for triples=   168024.20 seconds.
 T4(CCSD)= -0.66583357D-01
 T5(CCSD)=  0.14078682D-01
 CCSD(T)= -0.16134961351D+03
 Discarding MO integrals.
 Leave Link  913 at Sat Mar 31 16:35:11 2018, MaxMem= 10737418240 cpu:          207923.8 elap:            6533.6
 (Enter /home1/apps/gaussian/16rA.03/g16/l601.exe)
 Copying SCF densities to generalized density rwf, IOpCl= 0 IROHF=1.

 **********************************************************************

            Population analysis using the SCF density.

 **********************************************************************

 Orbital symmetries:
       Occupied  (SG) (SG) (PI) (PI) (SG) (SG) (DLTA) (PI) (PI)
                 (SG) (DLTA) (PI) (PI)
       Virtual   (SG) (PI) (PI) (SG) (SG) (PI) (PI) (SG) (DLTA)
                 (DLTA) (PI) (PI) (SG) (SG) (SG) (PI) (PI) (PI)
                 (PI) (SG) (DLTA) (DLTA) (PI) (PI) (SG) (SG) (SG)
                 (PI) (PI) (DLTA) (DLTA) (SG) (DLTA) (DLTA) (PI)
                 (PI) (PHI) (PHI) (SG) (PI) (PI) (DLTA) (DLTA)
                 (SG) (PI) (PI) (SG) (PI) (PI) (SG) (PHI) (PHI)
                 (SG) (DLTA) (DLTA) (PI) (PI) (SG) (?A) (?A) (?A)
                 (SG) (?A) (PI) (PI) (SG) (PI) (PI) (PHI) (PHI)
                 (DLTA) (DLTA) (?B) (?B) (PI) (PI) (SG) (?C) (?C)
                 (?C) (?C) (SG) (PI) (PI) (DLTA) (DLTA) (SG) (SG)
                 (PI) (PI) (?B) (?B) (SG) (PI) (PI) (DLTA) (DLTA)
                 (PHI) (PHI) (SG) (PHI) (PHI) (SG) (PI) (PI) (DLTA)
                 (DLTA) (DLTA) (DLTA) (SG) (PI) (PI) (DLTA) (DLTA)
                 (SG) (PI) (PI) (PHI) (PHI) (DLTA) (DLTA) (SG)
                 (PI) (PI) (SG) (?D) (?D) (?D) (?D) (?B) (?B) (?B)
                 (?B) (?D) (?D) (DLTA) (DLTA) (SG) (PHI) (PHI)
                 (PI) (PI) (SG) (DLTA) (DLTA) (SG) (PI) (PI) (SG)
                 (DLTA) (DLTA) (SG) (PI) (PI) (PI) (PI) (?B) (?B)
                 (PHI) (PHI) (SG) (DLTA) (DLTA) (PI) (PI) (SG)
                 (PHI) (PHI) (DLTA) (DLTA) (SG) (DLTA) (DLTA) (PI)
                 (PI) (SG) (?C) (?C) (?C) (?C) (DLTA) (DLTA) (PI)
                 (PI) (SG) (SG) (PI) (PI) (?B) (?B) (PHI) (PHI)
                 (DLTA) (DLTA) (?E) (?F) (?F) (?E) (?E) (?G) (?G)
                 (?G) (?G) (DLTA) (DLTA) (SG) (?G) (?G) (DLTA)
                 (DLTA) (SG) (PI) (PI) (SG) (SG) (PI) (PI) (PI)
                 (PI) (SG) (SG) (DLTA) (DLTA) (PI) (PI) (SG) (PHI)
                 (PHI) (DLTA) (DLTA) (PI) (PI) (SG) (SG) (?B) (?B)
                 (?C) (?C) (DLTA) (DLTA) (?C) (?C) (SG) (?H) (?H)
                 (?F) (?F) (?C) (?C) (DLTA) (?H) (DLTA) (?C) (?C)
                 (SG) (DLTA) (DLTA) (PI) (PI) (SG) (PI) (PI) (DLTA)
                 (DLTA) (PI) (PI) (SG) (SG) (SG) (PI) (PI) (SG)
                 (DLTA) (DLTA) (PI) (PI) (SG) (SG) (PI) (PI) (PHI)
                 (PHI) (DLTA) (DLTA) (PI) (PI) (SG) (SG) (SG) (PI)
                 (PI) (SG) (DLTA) (DLTA) (PI) (PI) (SG) (PI) (PI)
                 (SG) (SG) (DLTA) (DLTA) (PI) (PI) (SG) (SG) (PI)
                 (PI) (SG) (SG) (PI) (PI) (SG) (SG) (DLTA) (DLTA)
                 (PI) (PI) (SG) (SG) (SG) (PI) (PI) (SG) (PI) (PI)
                 (SG) (SG) (SG) (PI) (PI) (SG) (DLTA) (DLTA) (PI)
                 (PI) (SG) (SG) (SG) (PI) (PI) (SG) (SG) (PI) (PI)
                 (SG) (SG) (SG) (PI) (PI) (SG) (SG) (SG) (PI) (PI)
                 (SG) (SG) (SG) (PI) (PI) (SG) (SG) (SG) (SG) (SG)
                 (SG)
 Unable to determine electronic state:  partially filled degenerate orbitals.
 Alpha  occ. eigenvalues --   -4.87547  -3.34278  -3.30385  -3.30385  -1.32471
 Alpha  occ. eigenvalues --   -0.84859  -0.84859  -0.76716  -0.71699  -0.70924
 Alpha  occ. eigenvalues --   -0.47291  -0.47291  -0.34375
 Alpha virt. eigenvalues --   -0.00267   0.02550   0.02550   0.03366   0.03944
 Alpha virt. eigenvalues --    0.07090   0.07090   0.07197   0.07359   0.07367
 Alpha virt. eigenvalues --    0.09101   0.09101   0.12010   0.16227   0.21662
 Alpha virt. eigenvalues --    0.21986   0.21986   0.22555   0.22555   0.23371
 Alpha virt. eigenvalues --    0.23472   0.23584   0.28046   0.28046   0.33204
 Alpha virt. eigenvalues --    0.48871   0.52964   0.56108   0.56108   0.56320
 Alpha virt. eigenvalues --    0.56393   0.63335   0.63425   0.63855   0.66164
 Alpha virt. eigenvalues --    0.66164   0.69392   0.69392   0.72536   0.75490
 Alpha virt. eigenvalues --    0.75490   0.81492   0.81631   0.86610   0.89891
 Alpha virt. eigenvalues --    0.89891   0.90939   1.08331   1.08331   1.33803
 Alpha virt. eigenvalues --    1.44832   1.44832   1.53108   1.55275   1.55563
 Alpha virt. eigenvalues --    1.57905   1.57905   1.60816   1.65078   1.65773
 Alpha virt. eigenvalues --    1.72921   1.73668   1.74227   1.74415   1.74415
 Alpha virt. eigenvalues --    1.89138   1.99651   1.99651   2.06908   2.06908
 Alpha virt. eigenvalues --    2.23857   2.24534   2.26938   2.26938   2.27536
 Alpha virt. eigenvalues --    2.27536   2.32677   2.44620   2.44620   2.45985
 Alpha virt. eigenvalues --    2.45985   2.58353   2.79440   2.79440   2.89412
 Alpha virt. eigenvalues --    2.90023   2.98792   3.38046   3.69141   3.69141
 Alpha virt. eigenvalues --    3.72312   3.72312   3.94116   4.01759   4.01759
 Alpha virt. eigenvalues --    4.02556   4.04797   4.09433   4.09433   4.14101
 Alpha virt. eigenvalues --    4.15283   4.15283   4.21407   4.23398   4.23398
 Alpha virt. eigenvalues --    4.25458   4.25540   4.33491   4.33781   4.42582
 Alpha virt. eigenvalues --    4.87086   4.87086   5.04635   5.05095   5.10170
 Alpha virt. eigenvalues --    5.30683   5.30683   5.44698   5.44698   5.57010
 Alpha virt. eigenvalues --    5.59203   5.62922   5.92933   5.92933   6.08208
 Alpha virt. eigenvalues --    6.28706   6.28706   6.30710   6.30710   6.31221
 Alpha virt. eigenvalues --    6.31225   6.36677   6.36677   6.37257   6.37257
 Alpha virt. eigenvalues --    6.64921   6.66293   6.79578   6.87843   6.87843
 Alpha virt. eigenvalues --    7.21347   7.21347   7.74789   7.83659   7.84711
 Alpha virt. eigenvalues --    8.08439   8.14229   8.14229   8.61949   8.83635
 Alpha virt. eigenvalues --    8.86862   9.15097   9.18749   9.18749   9.99969
 Alpha virt. eigenvalues --    9.99969  10.67222  10.67222  10.80153  10.80153
 Alpha virt. eigenvalues --   11.03433  11.20197  11.20416  11.22441  11.22441
 Alpha virt. eigenvalues --   11.89153  11.93279  11.93279  12.27728  12.27779
 Alpha virt. eigenvalues --   12.60169  12.73894  12.74031  12.81498  12.81498
 Alpha virt. eigenvalues --   13.50299  13.52734  13.52734  13.54356  13.54356
 Alpha virt. eigenvalues --   13.69118  13.72253  13.84063  13.84063  14.01466
 Alpha virt. eigenvalues --   14.57889  14.77668  14.77668  15.69793  15.69807
 Alpha virt. eigenvalues --   15.72136  15.72136  15.98470  16.01102  16.40813
 Alpha virt. eigenvalues --   16.71429  16.71429  16.71476  16.71502  16.89962
 Alpha virt. eigenvalues --   16.89962  16.91030  16.91030  17.25356  17.28074
 Alpha virt. eigenvalues --   17.29468  17.30362  17.30362  17.33345  17.36715
 Alpha virt. eigenvalues --   17.45055  17.70738  17.70738  18.52409  19.80547
 Alpha virt. eigenvalues --   27.94118  27.94118  28.53146  28.53146  28.89161
 Alpha virt. eigenvalues --   29.74214  31.34883  31.38974  31.48194  31.48194
 Alpha virt. eigenvalues --   31.98732  33.09570  33.09570  33.17389  33.20387
 Alpha virt. eigenvalues --   33.69595  33.69595  34.39152  35.32102  36.92169
 Alpha virt. eigenvalues --   36.92183  36.92315  36.92315  37.06911  37.09941
 Alpha virt. eigenvalues --   37.47771  37.47771  37.68931  40.99448  40.99503
 Alpha virt. eigenvalues --   41.01107  41.01107  41.09219  41.09219  41.27792
 Alpha virt. eigenvalues --   41.29511  41.30793  41.34629  41.34629  41.71608
 Alpha virt. eigenvalues --   46.73400  46.73405  47.49002  47.49002  48.46345
 Alpha virt. eigenvalues --   53.75805  53.75805  54.13517  54.17828  54.27089
 Alpha virt. eigenvalues --   54.27089  54.43878  55.39013  67.92036  69.82373
 Alpha virt. eigenvalues --   69.82373  71.28630  94.48521  94.52264  94.61055
 Alpha virt. eigenvalues --   94.61055  94.82587  96.71025 102.35084 102.35084
 Alpha virt. eigenvalues --  102.92778 102.92778 102.95980 102.95981 103.02329
 Alpha virt. eigenvalues --  103.02329 103.09434 103.93221 121.38147 154.57316
 Alpha virt. eigenvalues --  154.57316 155.74619 190.82610 190.84772 190.93624
 Alpha virt. eigenvalues --  190.93624 191.22061 193.29607 193.29607 194.50339
 Alpha virt. eigenvalues --  201.58130 206.70341 206.70342 207.09623 207.09623
 Alpha virt. eigenvalues --  207.56937 209.85214 324.78466 324.78466 325.84061
 Alpha virt. eigenvalues --  353.18979 356.52162 356.52162 357.64922 358.22389
 Alpha virt. eigenvalues --  480.91415 480.92162 481.00064 481.00064 481.24920
 Alpha virt. eigenvalues --  611.94493 621.98827 660.02211 660.02211 661.33526
 Alpha virt. eigenvalues --  691.03169 691.03169 692.017411089.857651150.55066
 Alpha virt. eigenvalues -- 1261.671861261.671861262.927371556.249101556.25059
 Alpha virt. eigenvalues -- 1556.307061556.307061556.468862233.059222262.20950
 Alpha virt. eigenvalues -- 2546.024012546.024012547.196364564.231365539.77589
 Alpha virt. eigenvalues -- 5539.775895540.836236140.880019843.76272**********
 Alpha virt. eigenvalues -- **************************************************
 Alpha virt. eigenvalues -- **************************************************
 Alpha virt. eigenvalues -- **************************************************
 Alpha virt. eigenvalues -- ********************
     Molecular Orbital Coefficients:
                           6         7         8         9        10
                           O         O         O         O         O
     Eigenvalues --    -0.84859  -0.84859  -0.76716  -0.71699  -0.70924
   1 1   Co 1S          0.00000   0.00000   0.00000   0.00000  -0.00000
   2        2S         -0.00000   0.00000   0.00000   0.00000   0.00000
   3        3S          0.00000   0.00000   0.00000   0.00000  -0.00000
   4        4S         -0.00000   0.00000   0.00000   0.00000   0.00000
   5        5S          0.00000   0.00000   0.00000   0.00000  -0.00000
   6        6S         -0.00000   0.00000   0.00000   0.00000   0.00000
   7        7S          0.00000   0.00000   0.00000   0.00000  -0.00000
   8        8S         -0.00000   0.00000   0.00000   0.00000   0.00000
   9        9S          0.00001   0.00000   0.00000   0.00000  -0.00000
  10       10S         -0.00003   0.00000   0.00000   0.00000  -0.00000
  11       11S          0.00007   0.00000   0.00000   0.00000   0.00002
  12       12S         -0.00019   0.00000   0.00000   0.00000  -0.00021
  13       13S          0.00061   0.00000   0.00000   0.00000   0.00240
  14       14S         -0.00346   0.00000   0.00000   0.00000  -0.02579
  15       15S          0.00795   0.00000   0.00000   0.00000   0.05154
  16       16S         -0.01925   0.00000   0.00000   0.00000   0.13757
  17       17S         -0.00457   0.00000   0.00000   0.00000  -0.09569
  18       18S          0.04752   0.00000   0.00000   0.00000  -0.31132
  19       19S         -0.03292   0.00000   0.00000   0.00000  -0.20790
  20       20S         -0.03086   0.00000   0.00000   0.00000   0.36925
  21       21S         -0.00021   0.00000   0.00000   0.00000   0.49740
  22       22S         -0.00063   0.00000   0.00000   0.00000   0.09247
  23       23S          0.02814   0.00000   0.00000   0.00000  -0.04176
  24       24S         -0.06342   0.00000   0.00000   0.00000   0.04148
  25       25S          0.00067   0.00000   0.00000   0.00000  -0.00243
  26       26PX         0.00000   0.00000   0.00000   0.00000   0.00000
  27       26PY         0.00000   0.00000   0.00000   0.00000   0.00000
  28       26PZ        -0.00000   0.00000   0.00000   0.00000  -0.00000
  29       27PX         0.00000   0.00000  -0.00000   0.00000   0.00000
  30       27PY         0.00000   0.00000   0.00000  -0.00000   0.00000
  31       27PZ         0.00000   0.00000   0.00000   0.00000   0.00000
  32       28PX         0.00000   0.00000   0.00000   0.00000   0.00000
  33       28PY         0.00000   0.00000   0.00000   0.00000   0.00000
  34       28PZ        -0.00000   0.00000   0.00000   0.00000  -0.00000
  35       29PX         0.00000   0.00000  -0.00000   0.00000   0.00000
  36       29PY         0.00000   0.00000   0.00000  -0.00000   0.00000
  37       29PZ         0.00000   0.00000   0.00000   0.00000   0.00000
  38       30PX         0.00000   0.00000   0.00001   0.00000   0.00000
  39       30PY         0.00000   0.00000   0.00000   0.00001   0.00000
  40       30PZ        -0.00001   0.00000   0.00000   0.00000  -0.00001
  41       31PX         0.00000   0.00000  -0.00004   0.00000   0.00000
  42       31PY         0.00000   0.00000   0.00000  -0.00004   0.00000
  43       31PZ         0.00003   0.00000   0.00000   0.00000   0.00004
  44       32PX         0.00000   0.00000   0.00016   0.00000   0.00000
  45       32PY         0.00000   0.00000   0.00000   0.00016   0.00000
  46       32PZ        -0.00011   0.00000   0.00000   0.00000  -0.00013
  47       33PX         0.00000   0.00000  -0.00060   0.00000   0.00000
  48       33PY         0.00000   0.00000   0.00000  -0.00060   0.00000
  49       33PZ         0.00041   0.00000   0.00000   0.00000   0.00046
  50       34PX         0.00000   0.00000   0.00050   0.00000   0.00000
  51       34PY         0.00000   0.00000   0.00000   0.00050   0.00000
  52       34PZ        -0.00043   0.00000   0.00000   0.00000  -0.00053
  53       35PX         0.00000   0.00000   0.00867   0.00000   0.00000
  54       35PY         0.00000   0.00000   0.00000   0.00867   0.00000
  55       35PZ        -0.00503   0.00000   0.00000   0.00000  -0.00500
  56       36PX         0.00000   0.00000   0.01104   0.00000   0.00000
  57       36PY         0.00000   0.00000   0.00000   0.01104   0.00000
  58       36PZ         0.00086   0.00000   0.00000   0.00000  -0.00161
  59       37PX         0.00000   0.00000  -0.02137   0.00000   0.00000
  60       37PY         0.00000   0.00000   0.00000  -0.02137   0.00000
  61       37PZ         0.01131   0.00000   0.00000   0.00000   0.01366
  62       38PX         0.00000   0.00000  -0.01262   0.00000   0.00000
  63       38PY         0.00000   0.00000   0.00000  -0.01262   0.00000
  64       38PZ         0.01213   0.00000   0.00000   0.00000   0.01877
  65       39PX         0.00000   0.00000  -0.05701   0.00000   0.00000
  66       39PY         0.00000   0.00000   0.00000  -0.05701   0.00000
  67       39PZ         0.02635   0.00000   0.00000   0.00000   0.03103
  68       40PX         0.00000   0.00000  -0.00208   0.00000   0.00000
  69       40PY         0.00000   0.00000   0.00000  -0.00208   0.00000
  70       40PZ         0.01312   0.00000   0.00000   0.00000   0.01372
  71       41PX         0.00000   0.00000   0.04316   0.00000   0.00000
  72       41PY         0.00000   0.00000   0.00000   0.04316   0.00000
  73       41PZ        -0.04209   0.00000   0.00000   0.00000  -0.00758
  74       42PX         0.00000   0.00000   0.02022   0.00000   0.00000
  75       42PY         0.00000   0.00000   0.00000   0.02022   0.00000
  76       42PZ        -0.02129   0.00000   0.00000   0.00000   0.00164
  77       43PX         0.00000   0.00000   0.00459   0.00000   0.00000
  78       43PY         0.00000   0.00000   0.00000   0.00459   0.00000
  79       43PZ        -0.00180   0.00000   0.00000   0.00000   0.01256
  80       44PX         0.00000   0.00000  -0.00915   0.00000   0.00000
  81       44PY         0.00000   0.00000   0.00000  -0.00915   0.00000
  82       44PZ        -0.00129   0.00000   0.00000   0.00000   0.00023
  83       45PX         0.00000   0.00000  -0.03429   0.00000   0.00000
  84       45PY         0.00000   0.00000   0.00000  -0.03429   0.00000
  85       45PZ         0.02344   0.00000   0.00000   0.00000   0.01493
  86       46PX         0.00000   0.00000  -0.00171   0.00000   0.00000
  87       46PY         0.00000   0.00000   0.00000  -0.00171   0.00000
  88       46PZ        -0.00014   0.00000   0.00000   0.00000   0.00005
  89       47D 0       -0.00001   0.00000   0.00000   0.00000   0.00000
  90       47D+1        0.00000   0.00000   0.00000   0.00000   0.00000
  91       47D-1        0.00000   0.00000   0.00000   0.00000   0.00000
  92       47D+2        0.00000   0.00000   0.00000   0.00000   0.00000
  93       47D-2        0.00000  -0.00001   0.00000   0.00000   0.00000
  94       48D 0        0.00011   0.00000   0.00000   0.00000  -0.00005
  95       48D+1        0.00000   0.00000  -0.00005   0.00000   0.00000
  96       48D-1        0.00000   0.00000   0.00000  -0.00005   0.00000
  97       48D+2       -0.00000   0.00000   0.00000   0.00000  -0.00000
  98       48D-2        0.00000   0.00016   0.00000   0.00000   0.00000
  99       49D 0        0.00215   0.00000   0.00000   0.00000  -0.00101
 100       49D+1        0.00000   0.00000  -0.00100   0.00000   0.00000
 101       49D-1        0.00000   0.00000   0.00000  -0.00100   0.00000
 102       49D+2        0.00000   0.00000   0.00000   0.00000   0.00000
 103       49D-2        0.00000   0.00303   0.00000   0.00000   0.00000
 104       50D 0        0.03726   0.00000   0.00000   0.00000  -0.01787
 105       50D+1        0.00000   0.00000  -0.01716   0.00000   0.00000
 106       50D-1        0.00000   0.00000   0.00000  -0.01716   0.00000
 107       50D+2       -0.00000   0.00000   0.00000   0.00000   0.00000
 108       50D-2        0.00000   0.05344   0.00000   0.00000   0.00000
 109       51D 0        0.12554   0.00000   0.00000   0.00000  -0.05854
 110       51D+1        0.00000   0.00000  -0.05837   0.00000   0.00000
 111       51D-1        0.00000   0.00000   0.00000  -0.05837   0.00000
 112       51D+2        0.00000   0.00000   0.00000   0.00000   0.00000
 113       51D-2        0.00000   0.17567   0.00000   0.00000   0.00000
 114       52D 0        0.23985   0.00000   0.00000   0.00000  -0.10330
 115       52D+1        0.00000   0.00000  -0.11175   0.00000   0.00000
 116       52D-1        0.00000   0.00000   0.00000  -0.11175   0.00000
 117       52D+2        0.00000   0.00000   0.00000   0.00000   0.00000
 118       52D-2        0.00000   0.31370   0.00000   0.00000   0.00000
 119       53D 0        0.24027   0.00000   0.00000   0.00000  -0.10753
 120       53D+1        0.00000   0.00000  -0.11013   0.00000   0.00000
 121       53D-1        0.00000   0.00000   0.00000  -0.11013   0.00000
 122       53D+2        0.00000   0.00000   0.00000   0.00000   0.00000
 123       53D-2        0.00000   0.32567   0.00000   0.00000   0.00000
 124       54D 0        0.21633   0.00000   0.00000   0.00000  -0.10477
 125       54D+1        0.00000   0.00000  -0.10602   0.00000   0.00000
 126       54D-1        0.00000   0.00000   0.00000  -0.10602   0.00000
 127       54D+2       -0.00000   0.00000   0.00000   0.00000  -0.00000
 128       54D-2        0.00000   0.29639   0.00000   0.00000   0.00000
 129       55D 0        0.15733   0.00000   0.00000   0.00000  -0.07571
 130       55D+1        0.00000   0.00000  -0.08697   0.00000   0.00000
 131       55D-1        0.00000   0.00000   0.00000  -0.08697   0.00000
 132       55D+2        0.00000   0.00000   0.00000   0.00000   0.00000
 133       55D-2        0.00000   0.19486   0.00000   0.00000   0.00000
 134       56D 0        0.06214   0.00000   0.00000   0.00000  -0.01907
 135       56D+1        0.00000   0.00000  -0.01805   0.00000   0.00000
 136       56D-1        0.00000   0.00000   0.00000  -0.01805   0.00000
 137       56D+2       -0.00000   0.00000   0.00000   0.00000  -0.00000
 138       56D-2        0.00000   0.06363   0.00000   0.00000   0.00000
 139       57D 0        0.00281   0.00000   0.00000   0.00000  -0.00803
 140       57D+1        0.00000   0.00000   0.00054   0.00000   0.00000
 141       57D-1        0.00000   0.00000   0.00000   0.00054   0.00000
 142       57D+2       -0.00000   0.00000   0.00000   0.00000  -0.00000
 143       57D-2        0.00000   0.00344   0.00000   0.00000   0.00000
 144       58D 0       -0.03648   0.00000   0.00000   0.00000   0.01372
 145       58D+1        0.00000   0.00000   0.01783   0.00000   0.00000
 146       58D-1        0.00000   0.00000   0.00000   0.01783   0.00000
 147       58D+2       -0.00000   0.00000   0.00000   0.00000  -0.00000
 148       58D-2        0.00000  -0.04233   0.00000   0.00000   0.00000
 149       59D 0       -0.05112   0.00000   0.00000   0.00000   0.01194
 150       59D+1        0.00000   0.00000   0.02347   0.00000   0.00000
 151       59D-1        0.00000   0.00000   0.00000   0.02347   0.00000
 152       59D+2       -0.00000   0.00000   0.00000   0.00000  -0.00000
 153       59D-2        0.00000  -0.04332   0.00000   0.00000   0.00000
 154       60D 0        0.00030   0.00000   0.00000   0.00000   0.00034
 155       60D+1        0.00000   0.00000  -0.00027   0.00000   0.00000
 156       60D-1        0.00000   0.00000   0.00000  -0.00027   0.00000
 157       60D+2        0.00000   0.00000   0.00000   0.00000   0.00000
 158       60D-2        0.00000   0.00003   0.00000   0.00000   0.00000
 159       61F 0       -0.00058   0.00000   0.00000   0.00000  -0.00030
 160       61F+1        0.00000   0.00000   0.00071   0.00000   0.00000
 161       61F-1        0.00000   0.00000   0.00000   0.00071   0.00000
 162       61F+2        0.00000   0.00000   0.00000   0.00000   0.00000
 163       61F-2        0.00000  -0.00009   0.00000   0.00000   0.00000
 164       61F+3        0.00000   0.00000   0.00005   0.00000   0.00000
 165       61F-3        0.00000   0.00000   0.00000  -0.00005   0.00000
 166       62F 0       -0.00111   0.00000   0.00000   0.00000  -0.00090
 167       62F+1        0.00000   0.00000   0.00093   0.00000   0.00000
 168       62F-1        0.00000   0.00000   0.00000   0.00093   0.00000
 169       62F+2       -0.00000   0.00000   0.00000   0.00000  -0.00000
 170       62F-2        0.00000  -0.00018   0.00000   0.00000   0.00000
 171       62F+3        0.00000   0.00000   0.00007   0.00000   0.00000
 172       62F-3        0.00000   0.00000   0.00000  -0.00007   0.00000
 173       63F 0       -0.00730   0.00000   0.00000   0.00000  -0.00450
 174       63F+1        0.00000   0.00000   0.00804   0.00000   0.00000
 175       63F-1        0.00000   0.00000   0.00000   0.00804   0.00000
 176       63F+2        0.00000   0.00000   0.00000   0.00000   0.00000
 177       63F-2        0.00000   0.00023   0.00000   0.00000   0.00000
 178       63F+3        0.00000   0.00000   0.00005   0.00000   0.00000
 179       63F-3        0.00000   0.00000   0.00000  -0.00005   0.00000
 180       64F 0       -0.01047   0.00000   0.00000   0.00000  -0.00802
 181       64F+1        0.00000   0.00000   0.01693   0.00000   0.00000
 182       64F-1        0.00000   0.00000   0.00000   0.01693   0.00000
 183       64F+2       -0.00000   0.00000   0.00000   0.00000   0.00000
 184       64F-2        0.00000   0.00424   0.00000   0.00000   0.00000
 185       64F+3        0.00000   0.00000  -0.00007   0.00000   0.00000
 186       64F-3        0.00000   0.00000   0.00000   0.00007   0.00000
 187       65F 0       -0.00486   0.00000   0.00000   0.00000  -0.01363
 188       65F+1        0.00000   0.00000   0.00278   0.00000   0.00000
 189       65F-1        0.00000   0.00000   0.00000   0.00278   0.00000
 190       65F+2        0.00000   0.00000   0.00000   0.00000   0.00000
 191       65F-2        0.00000   0.00318   0.00000   0.00000   0.00000
 192       65F+3        0.00000   0.00000  -0.00009   0.00000   0.00000
 193       65F-3        0.00000   0.00000   0.00000   0.00009   0.00000
 194       66G 0        0.00013   0.00000   0.00000   0.00000  -0.00009
 195       66G+1        0.00000   0.00000  -0.00014   0.00000   0.00000
 196       66G-1        0.00000   0.00000   0.00000  -0.00014   0.00000
 197       66G+2        0.00000   0.00000   0.00000   0.00000   0.00000
 198       66G-2        0.00000   0.00007   0.00000   0.00000   0.00000
 199       66G+3        0.00000   0.00000   0.00002   0.00000   0.00000
 200       66G-3        0.00000   0.00000   0.00000  -0.00002   0.00000
 201       66G+4        0.00007   0.00000   0.00000   0.00000  -0.00002
 202       66G-4        0.00000   0.00000   0.00000   0.00000   0.00000
 203       67G 0        0.00106   0.00000   0.00000   0.00000   0.00025
 204       67G+1        0.00000   0.00000  -0.00043   0.00000   0.00000
 205       67G-1        0.00000   0.00000   0.00000  -0.00043   0.00000
 206       67G+2       -0.00000   0.00000   0.00000   0.00000  -0.00000
 207       67G-2        0.00000   0.00026   0.00000   0.00000   0.00000
 208       67G+3        0.00000   0.00000   0.00005   0.00000   0.00000
 209       67G-3        0.00000   0.00000   0.00000  -0.00005   0.00000
 210       67G+4        0.00013   0.00000   0.00000   0.00000  -0.00017
 211       67G-4        0.00000   0.00000   0.00000   0.00000   0.00000
 212       68G 0        0.00467   0.00000   0.00000   0.00000  -0.00052
 213       68G+1        0.00000   0.00000  -0.00491   0.00000   0.00000
 214       68G-1        0.00000   0.00000   0.00000  -0.00491   0.00000
 215       68G+2        0.00000   0.00000   0.00000   0.00000   0.00000
 216       68G-2        0.00000   0.00152   0.00000   0.00000   0.00000
 217       68G+3        0.00000   0.00000   0.00010   0.00000   0.00000
 218       68G-3        0.00000   0.00000   0.00000  -0.00010   0.00000
 219       68G+4        0.00029   0.00000   0.00000   0.00000  -0.00010
 220       68G-4        0.00000  -0.00000   0.00000   0.00000   0.00000
 221       69G 0        0.00527   0.00000   0.00000   0.00000   0.00013
 222       69G+1        0.00000   0.00000  -0.00402   0.00000   0.00000
 223       69G-1        0.00000   0.00000   0.00000  -0.00402   0.00000
 224       69G+2       -0.00000   0.00000   0.00000   0.00000  -0.00000
 225       69G-2        0.00000   0.00073   0.00000   0.00000   0.00000
 226       69G+3        0.00000   0.00000   0.00008   0.00000   0.00000
 227       69G-3        0.00000   0.00000   0.00000  -0.00008   0.00000
 228       69G+4        0.00025   0.00000   0.00000   0.00000   0.00008
 229       69G-4        0.00000  -0.00000   0.00000   0.00000   0.00000
[...]
 166       62F 0        0.00012   0.00006   0.00006  -0.00000
 167       62F+1        0.00004   0.00002   0.00002  -0.00000
 168       62F-1        0.00004   0.00002   0.00002  -0.00000
 169       62F+2        0.00000   0.00000   0.00000   0.00000
 170       62F-2       -0.00000  -0.00000  -0.00000   0.00000
 171       62F+3        0.00001   0.00001   0.00001   0.00000
 172       62F-3        0.00001   0.00001   0.00001   0.00000
 173       63F 0        0.00248   0.00124   0.00124  -0.00000
 174       63F+1        0.00145   0.00077   0.00068   0.00010
 175       63F-1        0.00145   0.00077   0.00068   0.00010
 176       63F+2        0.00000   0.00000  -0.00000   0.00000
 177       63F-2        0.00000   0.00000   0.00000   0.00000
 178       63F+3        0.00004   0.00002   0.00002   0.00000
 179       63F-3        0.00004   0.00002   0.00002   0.00000
 180       64F 0        0.00526   0.00263   0.00263  -0.00000
 181       64F+1        0.01335   0.00798   0.00537   0.00261
 182       64F-1        0.01335   0.00798   0.00537   0.00261
 183       64F+2        0.00002   0.00002   0.00000   0.00002
 184       64F-2        0.00002   0.00001   0.00001  -0.00000
 185       64F+3        0.00002   0.00001   0.00001   0.00000
 186       64F-3        0.00002   0.00001   0.00001   0.00000
 187       65F 0       -0.00413  -0.00206  -0.00206   0.00000
 188       65F+1        0.00380   0.00282   0.00098   0.00184
 189       65F-1        0.00380   0.00282   0.00098   0.00184
 190       65F+2        0.00001   0.00001   0.00000   0.00001
 191       65F-2        0.00001   0.00000   0.00000  -0.00000
 192       65F+3        0.00000   0.00000   0.00000   0.00000
 193       65F-3        0.00000   0.00000   0.00000   0.00000
 194       66G 0        0.00000   0.00000   0.00000  -0.00000
 195       66G+1        0.00000   0.00000   0.00000  -0.00000
 196       66G-1        0.00000   0.00000   0.00000  -0.00000
 197       66G+2        0.00000   0.00000   0.00000   0.00000
 198       66G-2        0.00000   0.00000   0.00000  -0.00000
 199       66G+3        0.00000   0.00000   0.00000   0.00000
 200       66G-3        0.00000   0.00000   0.00000   0.00000
 201       66G+4        0.00000   0.00000   0.00000  -0.00000
 202       66G-4       -0.00000  -0.00000  -0.00000   0.00000
 203       67G 0        0.00005   0.00002   0.00002   0.00000
 204       67G+1        0.00001   0.00001   0.00001  -0.00000
 205       67G-1        0.00001   0.00001   0.00001  -0.00000
 206       67G+2        0.00000   0.00000   0.00000   0.00000
 207       67G-2        0.00000   0.00000   0.00000  -0.00000
 208       67G+3        0.00000   0.00000   0.00000   0.00000
 209       67G-3        0.00000   0.00000   0.00000   0.00000
 210       67G+4        0.00000   0.00000   0.00000   0.00000
 211       67G-4       -0.00000  -0.00000  -0.00000   0.00000
 212       68G 0        0.00092   0.00046   0.00046  -0.00000
 213       68G+1        0.00098   0.00047   0.00051  -0.00004
 214       68G-1        0.00098   0.00047   0.00051  -0.00004
 215       68G+2        0.00001   0.00001  -0.00000   0.00001
 216       68G-2        0.00001   0.00001   0.00001  -0.00000
 217       68G+3        0.00000   0.00000   0.00000   0.00000
 218       68G-3        0.00000   0.00000   0.00000   0.00000
 219       68G+4        0.00000   0.00000   0.00000  -0.00000
 220       68G-4       -0.00000  -0.00000  -0.00000   0.00000
 221       69G 0        0.00027   0.00013   0.00013  -0.00000
 222       69G+1        0.00259   0.00137   0.00122   0.00015
 223       69G-1        0.00259   0.00137   0.00122   0.00015
 224       69G+2        0.00001   0.00001   0.00000   0.00001
 225       69G-2        0.00001   0.00000   0.00000  -0.00000
 226       69G+3        0.00000   0.00000   0.00000   0.00000
 227       69G-3        0.00000   0.00000   0.00000   0.00000
 228       69G+4        0.00000   0.00000   0.00000  -0.00000
 229       69G-4        0.00000   0.00000   0.00000   0.00000
 230       70H 0        0.00000   0.00000   0.00000  -0.00000
 231       70H+1        0.00000   0.00000   0.00000   0.00000
 232       70H-1        0.00000   0.00000   0.00000   0.00000
 233       70H+2        0.00000   0.00000   0.00000   0.00000
 234       70H-2        0.00000   0.00000   0.00000  -0.00000
 235       70H+3        0.00000   0.00000   0.00000   0.00000
 236       70H-3        0.00000   0.00000   0.00000   0.00000
 237       70H+4        0.00000   0.00000   0.00000  -0.00000
 238       70H-4       -0.00000  -0.00000  -0.00000   0.00000
 239       70H+5        0.00000   0.00000   0.00000   0.00000
 240       70H-5        0.00000   0.00000   0.00000   0.00000
 241       71H 0        0.00001   0.00001   0.00001  -0.00000
 242       71H+1        0.00001   0.00000   0.00000  -0.00000
 243       71H-1        0.00001   0.00000   0.00000  -0.00000
 244       71H+2        0.00000   0.00000  -0.00000   0.00000
 245       71H-2        0.00000   0.00000   0.00000  -0.00000
 246       71H+3        0.00000   0.00000   0.00000   0.00000
 247       71H-3        0.00000   0.00000   0.00000   0.00000
 248       71H+4        0.00000   0.00000   0.00000   0.00000
 249       71H-4       -0.00000  -0.00000  -0.00000   0.00000
 250       71H+5        0.00000   0.00000   0.00000  -0.00000
 251       71H-5        0.00000   0.00000   0.00000  -0.00000
 252       72H 0        0.00019   0.00010   0.00010   0.00000
 253       72H+1        0.00044   0.00021   0.00023  -0.00002
 254       72H-1        0.00044   0.00021   0.00023  -0.00002
 255       72H+2        0.00000   0.00000  -0.00000   0.00000
 256       72H-2        0.00000   0.00000   0.00000  -0.00000
 257       72H+3        0.00000   0.00000   0.00000   0.00000
 258       72H-3        0.00000   0.00000   0.00000   0.00000
 259       72H+4        0.00000   0.00000   0.00000  -0.00000
 260       72H-4        0.00000   0.00000   0.00000  -0.00000
 261       72H+5        0.00000   0.00000   0.00000   0.00000
 262       72H-5        0.00000   0.00000   0.00000   0.00000
 263 2   O  1S         -0.00000  -0.00000  -0.00000   0.00000
 264        2S          0.00000   0.00000   0.00000   0.00000
 265        3S         -0.00000  -0.00000  -0.00000   0.00000
 266        4S          0.00000   0.00000   0.00000   0.00000
 267        5S         -0.00000  -0.00000  -0.00000   0.00000
 268        6S         -0.00007  -0.00004  -0.00004  -0.00000
 269        7S         -0.00061  -0.00031  -0.00031  -0.00000
 270        8S         -0.09368  -0.04684  -0.04684   0.00000
 271        9S         -0.07841  -0.03921  -0.03921   0.00000
 272       10S          0.43642   0.21821   0.21821  -0.00000
 273       11S          1.08403   0.54201   0.54201  -0.00000
 274       12S          0.54986   0.27493   0.27493  -0.00000
 275       13S          0.05658   0.02829   0.02829  -0.00000
 276       14S          0.00037   0.00018   0.00018  -0.00000
 277       15S          0.00003   0.00001   0.00001  -0.00000
 278       16S         -0.02417  -0.01209  -0.01209   0.00000
 279       17PX        -0.00018  -0.00010  -0.00008  -0.00001
 280       17PY        -0.00018  -0.00010  -0.00008  -0.00001
 281       17PZ        -0.00017  -0.00008  -0.00008   0.00000
 282       18PX        -0.12868  -0.06943  -0.05925  -0.01017
 283       18PY        -0.12868  -0.06943  -0.05925  -0.01017
 284       18PZ        -0.11858  -0.05929  -0.05929   0.00000
 285       19PX         0.14095   0.07708   0.06387   0.01321
 286       19PY         0.14095   0.07708   0.06387   0.01321
 287       19PZ         0.11830   0.05915   0.05915  -0.00000
 288       20PX         0.48367   0.26182   0.22185   0.03997
 289       20PY         0.48367   0.26182   0.22185   0.03997
 290       20PZ         0.41838   0.20919   0.20919  -0.00000
 291       21PX         0.69656   0.37317   0.32339   0.04978
 292       21PY         0.69656   0.37317   0.32339   0.04978
 293       21PZ         0.50913   0.25456   0.25456  -0.00000
 294       22PX         0.34339   0.19029   0.15310   0.03719
 295       22PY         0.34339   0.19029   0.15310   0.03719
 296       22PZ         0.26684   0.13342   0.13342  -0.00000
 297       23PX         0.14702   0.07944   0.06758   0.01186
 298       23PY         0.14702   0.07944   0.06758   0.01186
 299       23PZ         0.13424   0.06712   0.06712  -0.00000
 300       24PX         0.00067   0.00036   0.00031   0.00006
 301       24PY         0.00067   0.00036   0.00031   0.00006
 302       24PZ         0.00061   0.00031   0.00031  -0.00000
 303       25PX         0.00001   0.00001   0.00000   0.00000
 304       25PY         0.00001   0.00001   0.00000   0.00000
 305       25PZ         0.00001   0.00000   0.00000  -0.00000
 306       26PX         0.01633   0.01016   0.00618   0.00398
 307       26PY         0.01633   0.01016   0.00618   0.00398
 308       26PZ         0.03269   0.01635   0.01635  -0.00000
 309       27D 0        0.00056   0.00028   0.00028  -0.00000
 310       27D+1        0.00023   0.00013   0.00010   0.00003
 311       27D-1        0.00023   0.00013   0.00010   0.00003
 312       27D+2        0.00000   0.00000  -0.00000   0.00000
 313       27D-2        0.00001   0.00001   0.00001  -0.00000
 314       28D 0        0.00813   0.00407   0.00407  -0.00000
 315       28D+1        0.00466   0.00261   0.00205   0.00057
 316       28D-1        0.00466   0.00261   0.00205   0.00057
 317       28D+2        0.00015   0.00015   0.00000   0.00015
 318       28D-2        0.00036   0.00018   0.00018  -0.00000
 319       29D 0       -0.00020  -0.00010  -0.00010   0.00000
 320       29D+1        0.00968   0.00495   0.00473   0.00022
 321       29D-1        0.00968   0.00495   0.00473   0.00022
 322       29D+2        0.00057   0.00057  -0.00000   0.00057
 323       29D-2        0.00147   0.00073   0.00073  -0.00000
 324       30D 0        0.00001   0.00000   0.00000   0.00000
 325       30D+1        0.00001   0.00000   0.00000   0.00000
 326       30D-1        0.00001   0.00000   0.00000   0.00000
 327       30D+2        0.00000   0.00000   0.00000   0.00000
 328       30D-2        0.00000   0.00000   0.00000  -0.00000
 329       31D 0       -0.00000  -0.00000  -0.00000   0.00000
 330       31D+1       -0.00000  -0.00000  -0.00000  -0.00000
 331       31D-1       -0.00000  -0.00000  -0.00000  -0.00000
 332       31D+2       -0.00000  -0.00000   0.00000  -0.00000
 333       31D-2       -0.00000  -0.00000  -0.00000   0.00000
 334       32D 0       -0.00045  -0.00022  -0.00022   0.00000
 335       32D+1        0.00186   0.00095   0.00091   0.00004
 336       32D-1        0.00186   0.00095   0.00091   0.00004
 337       32D+2        0.00012   0.00012   0.00000   0.00012
 338       32D-2        0.00026   0.00013   0.00013  -0.00000
 339       33F 0        0.00040   0.00020   0.00020  -0.00000
 340       33F+1        0.00016   0.00010   0.00006   0.00004
 341       33F-1        0.00016   0.00010   0.00006   0.00004
 342       33F+2        0.00001   0.00001  -0.00000   0.00001
 343       33F-2        0.00002   0.00001   0.00001  -0.00000
 344       33F+3        0.00000   0.00000   0.00000   0.00000
 345       33F-3        0.00000   0.00000   0.00000   0.00000
 346       34F 0        0.00258   0.00129   0.00129   0.00000
 347       34F+1        0.00233   0.00145   0.00087   0.00058
 348       34F-1        0.00233   0.00145   0.00087   0.00058
 349       34F+2        0.00027   0.00027  -0.00000   0.00027
 350       34F-2        0.00066   0.00033   0.00033  -0.00000
 351       34F+3        0.00000   0.00000   0.00000  -0.00000
 352       34F-3        0.00000   0.00000   0.00000  -0.00000
 353       35F 0        0.00000   0.00000   0.00000  -0.00000
 354       35F+1        0.00000   0.00000   0.00000   0.00000
 355       35F-1        0.00000   0.00000   0.00000   0.00000
 356       35F+2        0.00000   0.00000   0.00000   0.00000
 357       35F-2        0.00000   0.00000   0.00000  -0.00000
 358       35F+3        0.00000   0.00000   0.00000  -0.00000
 359       35F-3        0.00000   0.00000   0.00000  -0.00000
 360       36F 0       -0.00195  -0.00097  -0.00097  -0.00000
 361       36F+1        0.00061   0.00035   0.00026   0.00009
 362       36F-1        0.00061   0.00035   0.00026   0.00009
 363       36F+2        0.00006   0.00006   0.00000   0.00006
 364       36F-2        0.00015   0.00007   0.00007  -0.00000
 365       36F+3       -0.00000  -0.00000  -0.00000  -0.00000
 366       36F-3       -0.00000  -0.00000  -0.00000  -0.00000
 367       37G 0        0.00038   0.00019   0.00019  -0.00000
 368       37G+1        0.00016   0.00011   0.00005   0.00005
 369       37G-1        0.00016   0.00011   0.00005   0.00005
 370       37G+2        0.00002   0.00002   0.00000   0.00002
 371       37G-2        0.00005   0.00003   0.00003  -0.00000
 372       37G+3        0.00000   0.00000   0.00000  -0.00000
 373       37G-3        0.00000   0.00000   0.00000  -0.00000
 374       37G+4       -0.00000  -0.00000  -0.00000  -0.00000
 375       37G-4        0.00000   0.00000   0.00000  -0.00000
 376       38G 0        0.00009   0.00005   0.00005  -0.00000
 377       38G+1        0.00050   0.00034   0.00016   0.00019
 378       38G-1        0.00050   0.00034   0.00016   0.00019
 379       38G+2        0.00009   0.00009   0.00000   0.00009
 380       38G-2        0.00023   0.00011   0.00011   0.00000
 381       38G+3       -0.00000  -0.00000  -0.00000  -0.00000
 382       38G-3       -0.00000  -0.00000  -0.00000  -0.00000
 383       38G+4        0.00000   0.00000   0.00000  -0.00000
 384       38G-4        0.00000   0.00000   0.00000   0.00000
          Condensed to atoms (all electrons):
               1          2
     1  Co  16.217903   0.036382
     2  O    0.036382   6.709332
          Atomic-Atomic Spin Densities.
               1          2
     1  Co   2.781257  -0.077907
     2  O   -0.077907   0.374557
 Mulliken charges and spin densities:
               1          2
     1  Co   0.745714   2.703350
     2  O   -0.745714   0.296650
 Sum of Mulliken charges =  -0.00000   3.00000
 Mulliken charges and spin densities with hydrogens summed into heavy atoms:
               1          2
     1  Co   0.745714   2.703350
     2  O   -0.745714   0.296650
 Electronic spatial extent (au):  <R**2>=             71.0968
 Charge=             -0.0000 electrons
 Dipole moment (field-independent basis, Debye):
    X=              0.0000    Y=              0.0000    Z=              3.8077  Tot=              3.8077
 Quadrupole moment (field-independent basis, Debye-Ang):
   XX=            -19.7072   YY=            -19.7072   ZZ=            -20.0194
   XY=              0.0000   XZ=              0.0000   YZ=              0.0000
 Traceless Quadrupole moment (field-independent basis, Debye-Ang):
   XX=              0.1040   YY=              0.1040   ZZ=             -0.2081
   XY=              0.0000   XZ=              0.0000   YZ=              0.0000
 Octapole moment (field-independent basis, Debye-Ang**2):
  XXX=              0.0000  YYY=              0.0000  ZZZ=              8.3933  XYY=              0.0000
  XXY=              0.0000  XXZ=              1.3151  XZZ=              0.0000  YZZ=              0.0000
  YYZ=              1.3151  XYZ=              0.0000
 Hexadecapole moment (field-independent basis, Debye-Ang**3):
 XXXX=            -25.2874 YYYY=            -25.2874 ZZZZ=            -64.6356 XXXY=              0.0000
 XXXZ=              0.0000 YYYX=              0.0000 YYYZ=              0.0000 ZZZX=              0.0000
 ZZZY=              0.0000 XXYY=             -8.5628 XXZZ=            -14.9519 YYZZ=            -14.9519
 XXYZ=              0.0000 YYXZ=              0.0000 ZZXY=              0.0000
 N-N= 4.152005808757D+01 E-N=-4.634425371718D+02  KE= 9.890843476841D+01
 Symmetry A1   KE= 3.923732125106D+01
 Symmetry A2   KE= 1.583985923206D+01
 Symmetry B1   KE= 2.191562714333D+01
 Symmetry B2   KE= 2.191562714049D+01
 Symmetry A1   SP= 1.000000000000D+00
 Symmetry A2   SP=-2.155844737429D-16
 Symmetry B1   SP= 1.000000000000D+00
 Symmetry B2   SP= 1.000000000000D+00
 Orbital energies and kinetic energies (alpha):
                                 1                 2
   6         O                -0.848592          5.107416
   7         O                -0.848592          7.919930
   8         O                -0.767155          2.752692
   9         O                -0.716989          2.752692
  10         O                -0.709235          1.916678
  11         O                -0.472905          8.169921
  12         O                -0.472905          7.679291
  13         O                -0.343752          7.679291
  14         V                -0.002666          0.694816
  15         V                 0.025498          0.063910
  16         V                 0.025498          0.063910
  17         V                 0.033656          0.037691
  18         V                 0.039440          0.625250
 Total kinetic energy from orbitals= 1.224369378215D+02
                          Isotropic Fermi Contact Couplings
        Atom                 a.u.       MegaHertz       Gauss      10(-4) cm-1
     1  Co(59)             0.00000       0.00000       0.00000       0.00000
     2  O(17)              0.00000      -0.00000      -0.00000      -0.00000
 --------------------------------------------------------
       Center         ----  Spin Dipole Couplings  ----
                      3XX-RR        3YY-RR        3ZZ-RR
 --------------------------------------------------------
     1   Atom        0.171361      0.171361     -0.342723
     2   Atom        0.101559      0.101559     -0.203119
 --------------------------------------------------------
                        XY            XZ            YZ
 --------------------------------------------------------
     1   Atom        0.000000      0.000000      0.000000
     2   Atom        0.000000      0.000000      0.000000
 --------------------------------------------------------


 ---------------------------------------------------------------------------------
              Anisotropic Spin Dipole Couplings in Principal Axis System
 ---------------------------------------------------------------------------------

       Atom             a.u.   MegaHertz   Gauss  10(-4) cm-1        Axes

              Baa    -0.3427   -43.279   -15.443   -14.436  0.0000  0.0000  1.0000
     1 Co(59) Bbb     0.1714    21.639     7.721     7.218 -0.0000  1.0000  0.0000
              Bcc     0.1714    21.639     7.721     7.218  1.0000  0.0000  0.0000
 
              Baa    -0.2031    14.698     5.244     4.903  0.0000  0.0000  1.0000
     2 O(17)  Bbb     0.1016    -7.349    -2.622    -2.451 -0.0000  1.0000  0.0000
              Bcc     0.1016    -7.349    -2.622    -2.451  1.0000  0.0000  0.0000
 

 ---------------------------------------------------------------------------------

 No NMR shielding tensors so no spin-rotation constants.
 Leave Link  601 at Sat Mar 31 16:35:19 2018, MaxMem= 10737418240 cpu:             237.8 elap:               7.7
 (Enter /home1/apps/gaussian/16rA.03/g16/l9999.exe)

 Test job not archived.
 1\1\GINC-C403-011\SP\ROCCSD(T)-Full\Gen\Co1O1(4)\GWANG18\31-Mar-2018\0
 \\#P ROCCSD(T)=(MaxCyc=150, Full)/Gen SCF=(maxcycle=400) Pseudo=Read I
 ntegral(NoXCTest) Pop=Regular MaxDisk=500GB Guess=Read IOp(5/15=2)\\Co
 O\\0,4\Co,0,0.,0.,0.\O,0,0.,0.,1.3\\Version=ES64L-G16RevA.03\HF=-160.1
 764614\MP2=-161.3636708\MP3=-161.2407803\PUHF=-160.1764614\PMP2-0=-161
 .3636708\MP4SDQ=-161.3218286\CCSD=-161.2971088\CCSD(T)=-161.3496135\RM
 SD=1.320e-10\PG=C*V [C*(O1Co1)]\\@


 LENDING MONEY TO FRIENDS CAUSES THEM TO LOSE THEIR MEMORIES.

    --  PETER'S THEORY OF RECIPROCAL INHIBITION OF FISCAL RECALL
 Job cpu time:       2 days 17 hours 20 minutes 32.1 seconds.
 Elapsed time:       0 days  2 hours  3 minutes 28.0 seconds.
 File lengths (MBytes):  RWF=  16229 Int=      0 D2E=      0 Chk=     19 Scr=      1
 Normal termination of Gaussian 16 at Sat Mar 31 16:35:20 2018.
