 Entering Gaussian System, Link 0=g16
 Initial command:
 /home1/apps/gaussian/16rA.03/g16/l1.exe "/tmp/Gau-38099.inp" -scrdir="/tmp/"
 Entering Link 1 = /home1/apps/gaussian/16rA.03/g16/l1.exe PID=     38100.
  
 Copyright (c) 1988,1990,1992,1993,1995,1998,2003,2009,2016,
            Gaussian, Inc.  All Rights Reserved.
  
 This is part of the Gaussian(R) 16 program.  It is based on
 the Gaussian(R) 09 system (copyright 2009, Gaussian, Inc.),
 the Gaussian(R) 03 system (copyright 2003, Gaussian, Inc.),
 the Gaussian(R) 98 system (copyright 1998, Gaussian, Inc.),
 the Gaussian(R) 94 system (copyright 1995, Gaussian, Inc.),
 the Gaussian 92(TM) system (copyright 1992, Gaussian, Inc.),
 the Gaussian 90(TM) system (copyright 1990, Gaussian, Inc.),
 the Gaussian 88(TM) system (copyright 1988, Gaussian, Inc.),
 the Gaussian 86(TM) system (copyright 1986, Carnegie Mellon
 University), and the Gaussian 82(TM) system (copyright 1983,
 Carnegie Mellon University). Gaussian is a federally registered
 trademark of Gaussian, Inc.
  
 This software contains proprietary and confidential information,
 including trade secrets, belonging to Gaussian, Inc.
  
 This software is provided under written license and may be
 used, copied, transmitted, or stored only in accord with that
 written license.
  
 The following legend is applicable only to US Government
 contracts under FAR:
  
                    RESTRICTED RIGHTS LEGEND
  
 Use, reproduction and disclosure by the US Government is
 subject to restrictions as set forth in subparagraphs (a)
 and (c) of the Commercial Computer Software - Restricted
 Rights clause in FAR 52.227-19.
  
 Gaussian, Inc.
 340 Quinnipiac St., Bldg. 40, Wallingford CT 06492
  
  
 ---------------------------------------------------------------
 Warning -- This program may not be used in any manner that
 competes with the business of Gaussian, Inc. or will provide
 assistance to any competitor of Gaussian, Inc.  The licensee
 of this program is prohibited from giving any competitor of
 Gaussian, Inc. access to this program.  By using this program,
 the user acknowledges that Gaussian, Inc. is engaged in the
 business of creating and licensing software in the field of
 computational chemistry and represents and warrants to the
 licensee that it is not a competitor of Gaussian, Inc. and that
 it will not use this program in any manner prohibited above.
 ---------------------------------------------------------------
  

 Cite this work as:
 Gaussian 16, Revision A.03,
 M. J. Frisch, G. W. Trucks, H. B. Schlegel, G. E. Scuseria, 
 M. A. Robb, J. R. Cheeseman, G. Scalmani, V. Barone, 
 G. A. Petersson, H. Nakatsuji, X. Li, M. Caricato, A. V. Marenich, 
 J. Bloino, B. G. Janesko, R. Gomperts, B. Mennucci, H. P. Hratchian, 
 J. V. Ortiz, A. F. Izmaylov, J. L. Sonnenberg, D. Williams-Young, 
 F. Ding, F. Lipparini, F. Egidi, J. Goings, B. Peng, A. Petrone, 
 T. Henderson, D. Ranasinghe, V. G. Zakrzewski, J. Gao, N. Rega, 
 G. Zheng, W. Liang, M. Hada, M. Ehara, K. Toyota, R. Fukuda, 
 J. Hasegawa, M. Ishida, T. Nakajima, Y. Honda, O. Kitao, H. Nakai, 
 T. Vreven, K. Throssell, J. A. Montgomery, Jr., J. E. Peralta, 
 F. Ogliaro, M. J. Bearpark, J. J. Heyd, E. N. Brothers, K. N. Kudin, 
 V. N. Staroverov, T. A. Keith, R. Kobayashi, J. Normand, 
 K. Raghavachari, A. P. Rendell, J. C. Burant, S. S. Iyengar, 
 J. Tomasi, M. Cossi, J. M. Millam, M. Klene, C. Adamo, R. Cammi, 
 J. W. Ochterski, R. L. Martin, K. Morokuma, O. Farkas, 
 J. B. Foresman, and D. J. Fox, Gaussian, Inc., Wallingford CT, 2016.
 
 ******************************************
 Gaussian 16:  ES64L-G16RevA.03 25-Dec-2016
                12-Feb-2018 
 ******************************************
 %mem=80GB
 %nproc=32
 Will use up to   32 processors via shared memory.
 ----------------------------------------------------------------------
 #P ROCCSD(T)=(maxcyc=100, Full)/Gen SCF=(maxcycle=400, symm) Pseudo=Re
 ad Integral(NoXCTest) Pop=Regular MaxDisk=500GB Guess=Permute IOp(5/15
 =2)
 ----------------------------------------------------------------------
 1/38=1,172=1/1;
 2/12=2,17=6,18=5,40=1/2;
 3/5=7,11=2,16=1,17=8,25=1,30=1,47=8,116=101/1,2,3;
 4/8=2,9=4/1;
 5/5=2,7=400,15=2,38=5/2;
 8/5=-1,6=4,9=120000,10=90/1,4;
 9/5=7,6=100,14=2/13;
 6//1;
 99/5=1,9=1/99;
 Leave Link    1 at Mon Feb 12 21:00:46 2018, MaxMem= 10737418240 cpu:               5.8 elap:               0.2
 (Enter /home1/apps/gaussian/16rA.03/g16/l101.exe)
 ---
 FeH
 ---
 Symbolic Z-matrix:
 Charge =  0 Multiplicity = 4
 Fe                    0.        0.        0. 
 H                     0.        0.        1.4 
 
 ITRead=  0  0
 MicOpt= -1 -1
 NAtoms=      2 NQM=        2 NQMF=       0 NMMI=      0 NMMIF=      0
                NMic=       0 NMicF=      0.
                    Isotopes and Nuclear Properties:
 (Nuclear quadrupole moments (NQMom) in fm**2, nuclear magnetic moments (NMagM)
  in nuclear magnetons)

  Atom         1           2
 IAtWgt=          56           1
 AtmWgt=  55.9349393   1.0078250
 NucSpn=           0           1
 AtZEff=  -0.0000000  -0.0000000
 NQMom=    0.0000000   0.0000000
 NMagM=    0.0000000   2.7928460
 AtZNuc=  26.0000000   1.0000000
 Leave Link  101 at Mon Feb 12 21:00:46 2018, MaxMem= 10737418240 cpu:               2.6 elap:               0.1
 (Enter /home1/apps/gaussian/16rA.03/g16/l202.exe)
                          Input orientation:                          
 ---------------------------------------------------------------------
 Center     Atomic      Atomic             Coordinates (Angstroms)
 Number     Number       Type             X           Y           Z
 ---------------------------------------------------------------------
      1         26           0        0.000000    0.000000    0.000000
      2          1           0        0.000000    0.000000    1.400000
 ---------------------------------------------------------------------
 Stoichiometry    FeH(4)
 Framework group  C*V[C*(HFe)]
 Deg. of freedom     1
 Full point group                 C*V     NOp   4
 Largest Abelian subgroup         C2V     NOp   4
 Largest concise Abelian subgroup C1      NOp   1
                         Standard orientation:                         
 ---------------------------------------------------------------------
 Center     Atomic      Atomic             Coordinates (Angstroms)
 Number     Number       Type             X           Y           Z
 ---------------------------------------------------------------------
      1         26           0        0.000000    0.000000    0.051852
      2          1           0        0.000000    0.000000   -1.348148
 ---------------------------------------------------------------------
 Rotational constants (GHZ):           0.0000000         260.4541973         260.4541973
 Leave Link  202 at Mon Feb 12 21:00:46 2018, MaxMem= 10737418240 cpu:               0.4 elap:               0.0
 (Enter /home1/apps/gaussian/16rA.03/g16/l301.exe)
 General basis read from cards:  (5D, 7F)
 Centers:       1
 S 1 1.00
     Exponent=  1.4976900000D+08 Coefficients=  1.0000000000D+00
 S 1 1.00
     Exponent=  2.6722500000D+07 Coefficients=  1.0000000000D+00
 S 1 1.00
     Exponent=  5.9590000000D+06 Coefficients=  1.0000000000D+00
 S 1 1.00
     Exponent=  1.5936100000D+06 Coefficients=  1.0000000000D+00
 S 1 1.00
     Exponent=  4.9346400000D+05 Coefficients=  1.0000000000D+00
 S 1 1.00
     Exponent=  1.7179000000D+05 Coefficients=  1.0000000000D+00
 S 1 1.00
     Exponent=  6.5620900000D+04 Coefficients=  1.0000000000D+00
 S 1 1.00
     Exponent=  2.6965600000D+04 Coefficients=  1.0000000000D+00
 S 1 1.00
     Exponent=  1.1735300000D+04 Coefficients=  1.0000000000D+00
 S 1 1.00
     Exponent=  5.3434300000D+03 Coefficients=  1.0000000000D+00
 S 1 1.00
     Exponent=  2.5225000000D+03 Coefficients=  1.0000000000D+00
 S 1 1.00
     Exponent=  1.2264300000D+03 Coefficients=  1.0000000000D+00
 S 1 1.00
     Exponent=  6.1126900000D+02 Coefficients=  1.0000000000D+00
 S 1 1.00
     Exponent=  3.1130800000D+02 Coefficients=  1.0000000000D+00
 S 1 1.00
     Exponent=  1.6162400000D+02 Coefficients=  1.0000000000D+00
 S 1 1.00
     Exponent=  8.5376700000D+01 Coefficients=  1.0000000000D+00
 S 1 1.00
     Exponent=  4.5791100000D+01 Coefficients=  1.0000000000D+00
 S 1 1.00
     Exponent=  2.4867700000D+01 Coefficients=  1.0000000000D+00
 S 1 1.00
     Exponent=  1.3620200000D+01 Coefficients=  1.0000000000D+00
 S 1 1.00
     Exponent=  7.4810600000D+00 Coefficients=  1.0000000000D+00
 S 1 1.00
     Exponent=  4.0881700000D+00 Coefficients=  1.0000000000D+00
 S 1 1.00
     Exponent=  2.1990500000D+00 Coefficients=  1.0000000000D+00
 S 1 1.00
     Exponent=  1.1481500000D+00 Coefficients=  1.0000000000D+00
 S 1 1.00
     Exponent=  5.7726500000D-01 Coefficients=  1.0000000000D+00
 S 1 1.00
     Exponent=  1.9763500000D-01 Coefficients=  1.0000000000D+00
 S 1 1.00
     Exponent=  1.0898600000D-01 Coefficients=  1.0000000000D+00
 S 1 1.00
     Exponent=  5.3216000000D-02 Coefficients=  1.0000000000D+00
 S 1 1.00
     Exponent=  2.5571000000D-02 Coefficients=  1.0000000000D+00
 S 1 1.00
     Exponent=  6.6224000000D+00 Coefficients=  1.0000000000D+00
 S 1 1.00
     Exponent=  2.2140000000D+00 Coefficients=  1.0000000000D+00
 S 1 1.00
     Exponent=  1.2290000000D-02 Coefficients=  1.0000000000D+00
 P 1 1.00
     Exponent=  8.6947300000D+04 Coefficients=  1.0000000000D+00
 P 1 1.00
     Exponent=  2.1254000000D+04 Coefficients=  1.0000000000D+00
 P 1 1.00
     Exponent=  6.7411400000D+03 Coefficients=  1.0000000000D+00
 P 1 1.00
     Exponent=  2.5571600000D+03 Coefficients=  1.0000000000D+00
 P 1 1.00
     Exponent=  1.0935100000D+03 Coefficients=  1.0000000000D+00
 P 1 1.00
     Exponent=  5.0616100000D+02 Coefficients=  1.0000000000D+00
 P 1 1.00
     Exponent=  2.4713900000D+02 Coefficients=  1.0000000000D+00
 P 1 1.00
     Exponent=  1.2541500000D+02 Coefficients=  1.0000000000D+00
 P 1 1.00
     Exponent=  6.5651200000D+01 Coefficients=  1.0000000000D+00
 P 1 1.00
     Exponent=  3.5307900000D+01 Coefficients=  1.0000000000D+00
 P 1 1.00
     Exponent=  1.9426000000D+01 Coefficients=  1.0000000000D+00
 P 1 1.00
     Exponent=  1.0843800000D+01 Coefficients=  1.0000000000D+00
 P 1 1.00
     Exponent=  6.0435900000D+00 Coefficients=  1.0000000000D+00
 P 1 1.00
     Exponent=  3.3024500000D+00 Coefficients=  1.0000000000D+00
 P 1 1.00
     Exponent=  1.7638900000D+00 Coefficients=  1.0000000000D+00
 P 1 1.00
     Exponent=  9.2138600000D-01 Coefficients=  1.0000000000D+00
 P 1 1.00
     Exponent=  4.6037300000D-01 Coefficients=  1.0000000000D+00
 P 1 1.00
     Exponent=  1.8377200000D-01 Coefficients=  1.0000000000D+00
 P 1 1.00
     Exponent=  7.5833000000D-02 Coefficients=  1.0000000000D+00
 P 1 1.00
     Exponent=  3.1099000000D-02 Coefficients=  1.0000000000D+00
 P 1 1.00
     Exponent=  1.0012800000D+01 Coefficients=  1.0000000000D+00
 P 1 1.00
     Exponent=  3.1869000000D+00 Coefficients=  1.0000000000D+00
 P 1 1.00
     Exponent=  1.2750000000D-02 Coefficients=  1.0000000000D+00
 D 1 1.00
     Exponent=  5.1841600000D+02 Coefficients=  1.0000000000D+00
 D 1 1.00
     Exponent=  1.5281900000D+02 Coefficients=  1.0000000000D+00
 D 1 1.00
     Exponent=  5.8586900000D+01 Coefficients=  1.0000000000D+00
 D 1 1.00
     Exponent=  2.5456400000D+01 Coefficients=  1.0000000000D+00
 D 1 1.00
     Exponent=  1.1786800000D+01 Coefficients=  1.0000000000D+00
 D 1 1.00
     Exponent=  5.7186100000D+00 Coefficients=  1.0000000000D+00
 D 1 1.00
     Exponent=  2.8241700000D+00 Coefficients=  1.0000000000D+00
 D 1 1.00
     Exponent=  1.3798500000D+00 Coefficients=  1.0000000000D+00
 D 1 1.00
     Exponent=  6.5616000000D-01 Coefficients=  1.0000000000D+00
 D 1 1.00
     Exponent=  2.9960900000D-01 Coefficients=  1.0000000000D+00
 D 1 1.00
     Exponent=  1.2936100000D-01 Coefficients=  1.0000000000D+00
 D 1 1.00
     Exponent=  5.1155000000D-02 Coefficients=  1.0000000000D+00
 D 1 1.00
     Exponent=  7.0982000000D+00 Coefficients=  1.0000000000D+00
 D 1 1.00
     Exponent=  4.2772000000D+00 Coefficients=  1.0000000000D+00
 D 1 1.00
     Exponent=  2.0230000000D-02 Coefficients=  1.0000000000D+00
 F 1 1.00
     Exponent=  1.1047100000D+01 Coefficients=  1.0000000000D+00
 F 1 1.00
     Exponent=  4.8541000000D+00 Coefficients=  1.0000000000D+00
 F 1 1.00
     Exponent=  2.1329000000D+00 Coefficients=  1.0000000000D+00
 F 1 1.00
     Exponent=  9.3720000000D-01 Coefficients=  1.0000000000D+00
 F 1 1.00
     Exponent=  3.1410000000D-01 Coefficients=  1.0000000000D+00
 F 1 1.00
     Exponent=  1.0527000000D-01 Coefficients=  1.0000000000D+00
 G 1 1.00
     Exponent=  7.5475000000D+00 Coefficients=  1.0000000000D+00
 G 1 1.00
     Exponent=  3.6737000000D+00 Coefficients=  1.0000000000D+00
 G 1 1.00
     Exponent=  1.7881000000D+00 Coefficients=  1.0000000000D+00
 G 1 1.00
     Exponent=  6.5640000000D-01 Coefficients=  1.0000000000D+00
 G 1 1.00
     Exponent=  2.4096000000D-01 Coefficients=  1.0000000000D+00
 H 1 1.00
     Exponent=  6.9263000000D+00 Coefficients=  1.0000000000D+00
 H 1 1.00
     Exponent=  3.2527000000D+00 Coefficients=  1.0000000000D+00
 H 1 1.00
     Exponent=  1.2964000000D+00 Coefficients=  1.0000000000D+00
 H 1 1.00
     Exponent=  5.1669000000D-01 Coefficients=  1.0000000000D+00
 I 1 1.00
     Exponent=  7.0569000000D+00 Coefficients=  1.0000000000D+00
 I 1 1.00
     Exponent=  1.3776500000D+00 Coefficients=  1.0000000000D+00
 ****
 Centers:       2
 S 1 1.00
     Exponent=  4.0200000000D+02 Coefficients=  1.0000000000D+00
 S 1 1.00
     Exponent=  6.0240000000D+01 Coefficients=  1.0000000000D+00
 S 1 1.00
     Exponent=  1.3730000000D+01 Coefficients=  1.0000000000D+00
 S 1 1.00
     Exponent=  3.9050000000D+00 Coefficients=  1.0000000000D+00
 S 1 1.00
     Exponent=  1.2830000000D+00 Coefficients=  1.0000000000D+00
 S 1 1.00
     Exponent=  4.6550000000D-01 Coefficients=  1.0000000000D+00
 S 1 1.00
     Exponent=  1.8110000000D-01 Coefficients=  1.0000000000D+00
 S 1 1.00
     Exponent=  7.2790000000D-02 Coefficients=  1.0000000000D+00
 S 1 1.00
     Exponent=  2.0700000000D-02 Coefficients=  1.0000000000D+00
 P 1 1.00
     Exponent=  4.5160000000D+00 Coefficients=  1.0000000000D+00
 P 1 1.00
     Exponent=  1.7120000000D+00 Coefficients=  1.0000000000D+00
 P 1 1.00
     Exponent=  6.4900000000D-01 Coefficients=  1.0000000000D+00
 P 1 1.00
     Exponent=  2.4600000000D-01 Coefficients=  1.0000000000D+00
 P 1 1.00
     Exponent=  7.4400000000D-02 Coefficients=  1.0000000000D+00
 D 1 1.00
     Exponent=  2.9500000000D+00 Coefficients=  1.0000000000D+00
 D 1 1.00
     Exponent=  1.2060000000D+00 Coefficients=  1.0000000000D+00
 D 1 1.00
     Exponent=  4.9300000000D-01 Coefficients=  1.0000000000D+00
 D 1 1.00
     Exponent=  1.5600000000D-01 Coefficients=  1.0000000000D+00
 F 1 1.00
     Exponent=  2.5060000000D+00 Coefficients=  1.0000000000D+00
 F 1 1.00
     Exponent=  8.7500000000D-01 Coefficients=  1.0000000000D+00
 F 1 1.00
     Exponent=  2.7400000000D-01 Coefficients=  1.0000000000D+00
 G 1 1.00
     Exponent=  2.3580000000D+00 Coefficients=  1.0000000000D+00
 G 1 1.00
     Exponent=  5.4300000000D-01 Coefficients=  1.0000000000D+00
 ****
 ======================================================================================================
                                       Pseudopotential Parameters
 ======================================================================================================
  Center     Atomic      Valence      Angular      Power
  Number     Number     Electrons     Momentum     of R      Exponent        Coefficient   SO-Coeffient
 ======================================================================================================
    1         26           16
                                      D and up 
                                                     1        3.7207563       16.00000000    0.00000000
                                                     3        3.9232127       59.53210107    0.00000000
                                                     2        3.8959544      -68.75847841    0.00000000
                                      S - D
                                                     2       10.4234355      112.92561163    0.00000000
                                      P - D
                                                     2        8.4166408       52.55882759    0.00000000
    2          1            1
                                      P and up 
                                                     2       21.7769666      -10.85192405    0.00000000
                                                     1       21.2435951        1.00000000    0.00000000
                                                     3       21.2435951       21.24359508    0.00000000
                                      S - P
                                                     2        1.0000000        0.00000000    0.00000000
 ======================================================================================================
 Ernie: Thresh=  0.10000D-02 Tol=  0.10000D-05 Strict=F.
 There are   238 symmetry adapted cartesian basis functions of A1  symmetry.
 There are    73 symmetry adapted cartesian basis functions of A2  symmetry.
 There are   131 symmetry adapted cartesian basis functions of B1  symmetry.
 There are   131 symmetry adapted cartesian basis functions of B2  symmetry.
 There are   165 symmetry adapted basis functions of A1  symmetry.
 There are    56 symmetry adapted basis functions of A2  symmetry.
 There are    97 symmetry adapted basis functions of B1  symmetry.
 There are    97 symmetry adapted basis functions of B2  symmetry.
   415 basis functions,   573 primitive gaussians,   573 cartesian basis functions
    10 alpha electrons        7 beta electrons
       nuclear repulsion energy         6.0477395534 Hartrees.
 IExCor=    0 DFT=F Ex=HF Corr=None ExCW=0 ScaHFX=  1.000000
 ScaDFX=  1.000000  1.000000  1.000000  1.000000 ScalE2=  1.000000  1.000000
 IRadAn=      5 IRanWt=     -1 IRanGd=            0 ICorTp=0 IEmpDi=  4
 NAtoms=    2 NActive=    2 NUniq=    2 SFac= 1.00D+00 NAtFMM=   60 NAOKFM=F Big=F
 Integral buffers will be    131072 words long.
 Raffenetti 2 integral format.
 Two-electron integral symmetry is turned on.
 Leave Link  301 at Mon Feb 12 21:00:46 2018, MaxMem= 10737418240 cpu:               8.5 elap:               0.3
 (Enter /home1/apps/gaussian/16rA.03/g16/l302.exe)
 NPDir=0 NMtPBC=     1 NCelOv=     1 NCel=       1 NClECP=     1 NCelD=      1
         NCelK=      1 NCelE2=     1 NClLst=     1 CellRange=     0.0.
 One-electron integrals computed using PRISM.
 One-electron integral symmetry used in STVInt
   4 Symmetry operations used in ECPInt.
 ECPInt:  NShTT=    5995 NPrTT=    5995 LenC2=    5900 LenP2D=    5899.
 LDataN:  DoStor=T MaxTD1=12 Len= 1566
 NBasis=   415 RedAO= T EigKep=  5.88D-06  NBF=   165    56    97    97
 NBsUse=   407 1.00D-06 EigRej=  9.21D-07 NBFU=   161    56    95    95
 Leave Link  302 at Mon Feb 12 21:00:57 2018, MaxMem= 10737418240 cpu:             323.4 elap:              10.1
 (Enter /home1/apps/gaussian/16rA.03/g16/l303.exe)
 DipDrv:  MaxL=1.
 Leave Link  303 at Mon Feb 12 21:00:57 2018, MaxMem= 10737418240 cpu:               4.3 elap:               0.2
 (Enter /home1/apps/gaussian/16rA.03/g16/l401.exe)
 ExpMin= 1.23D-02 ExpMax= 1.50D+08 ExpMxC= 1.50D+08 IAcc=4 IRadAn=    399590 AccDes= 0.00D+00
 Harris functional with IExCor=  205 and IRadAn=  399590 diagonalized for initial guess.
 HarFok:  IExCor=  205 AccDes= 0.00D+00 IRadAn=    399590 IDoV= 1 UseB2=F ITyADJ=14
 ICtDFT=  3500011 ScaDFX=  1.000000  1.000000  1.000000  1.000000
 Spurious integrated density or basis function:
 NE=   17 NElCor=    0 El error=5.38D-09 rel=1.99D-10 Tolerance=1.00D-03
 Shell     1     absolute error=6.45D-02              Tolerance=1.20D-02
 Shell     1       signed error=6.45D-02              Tolerance=1.00D-01
 FoFCou: FMM=F IPFlag=           8 FMFlag=      100000 FMFlg1=           0
         NFxFlg=           0 DoJE=T BraDBF=F KetDBF=T FulRan=T
         wScrn=  0.000000 ICntrl=       500 IOpCl=  0 I1Cent=   200000004 NGrid=           0
         NMat0=    1 NMatS0=      1 NMatT0=    0 NMatD0=    1 NMtDS0=    0 NMtDT0=    0
 Petite list used in FoFCou.
 Harris En= -124.593696718229    
 JPrj=0 DoOrth=F DoCkMO=F.
 Alpha guess permutation (I<-O):    1    2    3    4    5   10    9    8    6    7
 Initial guess orbital symmetries:
       Occupied  (SG) (SG) (PI) (PI) (SG) (SG) (DLTA) (DLTA) (PI)
                 (PI)
       Virtual   (SG) (PI) (PI) (SG) (SG) (PI) (PI) (SG) (PI) (PI)
                 (DLTA) (DLTA) (SG) (SG) (SG) (PI) (PI) (PI) (PI)
                 (SG) (DLTA) (DLTA) (SG) (PI) (PI) (SG) (SG) (DLTA)
                 (DLTA) (PHI) (PHI) (SG) (PI) (PI) (SG) (PI) (PI)
                 (DLTA) (DLTA) (PI) (PI) (SG) (PI) (PI) (DLTA)
                 (DLTA) (SG) (SG) (SG) (PI) (PI) (SG) (PHI) (PHI)
                 (DLTA) (DLTA) (?A) (?A) (SG) (PHI) (PHI) (PI)
                 (PI) (DLTA) (DLTA) (SG) (PI) (PI) (DLTA) (DLTA)
                 (PI) (PI) (PHI) (PHI) (SG) (DLTA) (DLTA) (PI)
                 (PI) (SG) (SG) (PI) (PI) (SG) (DLTA) (DLTA) (PI)
                 (PI) (SG) (SG) (PI) (PI) (?A) (?A) (SG) (DLTA)
                 (DLTA) (?B) (?B) (PI) (PI) (PHI) (PHI) (PI) (PI)
                 (DLTA) (DLTA) (SG) (DLTA) (DLTA) (PHI) (PHI) (SG)
                 (?A) (?A) (PHI) (PHI) (?A) (?A) (PI) (PI) (DLTA)
                 (DLTA) (SG) (PI) (PI) (PHI) (PHI) (SG) (DLTA)
                 (DLTA) (SG) (PI) (PI) (PHI) (PHI) (SG) (PI) (PI)
                 (DLTA) (DLTA) (SG) (PI) (PI) (DLTA) (DLTA) (SG)
                 (PI) (PI) (SG) (PI) (PI) (SG) (DLTA) (DLTA) (PI)
                 (PI) (SG) (PHI) (PHI) (SG) (DLTA) (DLTA) (?B)
                 (?B) (?A) (?A) (PHI) (PHI) (PI) (PI) (DLTA) (DLTA)
                 (SG) (?A) (?A) (PHI) (PHI) (DLTA) (DLTA) (PI)
                 (PI) (SG) (PI) (PI) (?B) (?B) (SG) (SG) (?A) (?A)
                 (PHI) (PHI) (SG) (DLTA) (DLTA) (SG) (PI) (PI)
                 (PI) (PI) (SG) (SG) (PHI) (PHI) (?A) (?A) (DLTA)
                 (DLTA) (PHI) (PHI) (SG) (PI) (PI) (DLTA) (DLTA)
                 (PI) (PI) (DLTA) (DLTA) (DLTA) (DLTA) (SG) (PI)
                 (PI) (SG) (PI) (PI) (SG) (PI) (PI) (SG) (PHI)
                 (PHI) (DLTA) (DLTA) (SG) (?A) (?A) (PI) (PI) (PHI)
                 (PHI) (DLTA) (DLTA) (SG) (PI) (PI) (?B) (?B) (?A)
                 (?A) (PHI) (PHI) (DLTA) (DLTA) (PI) (PI) (SG)
                 (SG) (PI) (PI) (SG) (DLTA) (DLTA) (PI) (PI) (SG)
                 (SG) (SG) (?A) (?A) (PHI) (PHI) (DLTA) (DLTA)
                 (PI) (PI) (SG) (?B) (?B) (?A) (?A) (PHI) (PHI)
                 (DLTA) (DLTA) (PI) (PI) (SG) (?B) (?B) (?A) (?A)
                 (SG) (SG) (PHI) (PHI) (DLTA) (DLTA) (PI) (PI)
                 (SG) (PHI) (PHI) (DLTA) (DLTA) (PI) (PI) (SG)
                 (DLTA) (DLTA) (PI) (PI) (SG) (PI) (PI) (SG) (SG)
                 (DLTA) (DLTA) (PI) (PI) (SG) (PI) (PI) (SG) (SG)
                 (SG) (DLTA) (DLTA) (PI) (PI) (SG) (PI) (PI) (SG)
                 (SG) (DLTA) (DLTA) (PI) (PI) (SG) (PI) (PI) (SG)
                 (SG) (PI) (PI) (SG) (DLTA) (DLTA) (PI) (PI) (SG)
                 (SG) (SG) (PI) (PI) (SG) (SG) (DLTA) (DLTA) (PI)
                 (PI) (SG) (PI) (PI) (SG) (SG) (PI) (PI) (SG) (SG)
                 (SG) (PI) (PI) (SG) (SG) (PI) (PI) (SG) (SG) (PI)
                 (PI) (SG) (SG) (SG) (PI) (PI) (SG) (SG) (SG) (SG)
                 (SG) (SG) (SG)
 Leave Link  401 at Mon Feb 12 21:01:02 2018, MaxMem= 10737418240 cpu:             147.6 elap:               4.8
 (Enter /home1/apps/gaussian/16rA.03/g16/l502.exe)
 Keep R1 and R2 ints in memory in symmetry-blocked form, NReq=4666733380.
 FoFCou: FMM=F IPFlag=           8 FMFlag=           0 FMFlg1=           0
         NFxFlg=           0 DoJE=F BraDBF=F KetDBF=F FulRan=T
         wScrn=  0.000000 ICntrl=       600 IOpCl=  0 I1Cent=           0 NGrid=           0
         NMat0=    1 NMatS0=  86320 NMatT0=    0 NMatD0=    1 NMtDS0=    0 NMtDT0=    0
 Petite list used in FoFCou.
 Restricted open shell SCF:
 Using DIIS extrapolation, IDIIS=  1040.
 NGot= 10737418240 LenX=  8854695926 LenY=  8854367024
 Requested convergence on RMS density matrix=1.00D-08 within 400 cycles.
 Requested convergence on MAX density matrix=1.00D-06.
 Requested convergence on             energy=1.00D-06.
 No special actions if energy rises.

 Cycle   1  Pass 1  IDiag  1:
 E= -123.520952441631    
 DIIS: error= 3.83D-02 at cycle   1 NSaved=   1.
 NSaved= 1 IEnMin= 1 EnMin= -123.520952441631     IErMin= 1 ErrMin= 3.83D-02
 ErrMax= 3.83D-02  0.00D+00 EMaxC= 1.00D-01 BMatC= 1.43D-01 BMatP= 1.43D-01
 IDIUse=3 WtCom= 6.17D-01 WtEn= 3.83D-01
 Coeff-Com:  0.100D+01
 Coeff-En:   0.100D+01
 Coeff:      0.100D+01
 Gap=     0.014 Goal=   None    Shift=    0.000
 GapD=    0.014 DampG=0.250 DampE=0.250 DampFc=0.1250 IDamp=-1.
 Damping current iteration by 1.25D-01
 RMSDP=1.10D-02 MaxDP=1.83D+00              OVMax= 9.98D-01

 Cycle   2  Pass 1  IDiag  1:
 E= -123.352035554927     Delta-E=        0.168916886705 Rises=F Damp=T
 DIIS: error= 3.08D-02 at cycle   2 NSaved=   2.
 NSaved= 2 IEnMin= 1 EnMin= -123.520952441631     IErMin= 2 ErrMin= 3.08D-02
 ErrMax= 3.08D-02  0.00D+00 EMaxC= 1.00D-01 BMatC= 7.65D-02 BMatP= 1.43D-01
 IDIUse=3 WtCom= 6.92D-01 WtEn= 3.08D-01
 Coeff-Com: -0.157D+00 0.116D+01
 Coeff-En:   0.000D+00 0.100D+01
 Coeff:     -0.109D+00 0.111D+01
 Gap=    -0.295 Goal=   None    Shift=    0.000
 RMSDP=1.40D-03 MaxDP=2.29D-01 DE= 1.69D-01 OVMax= 1.00D+00

 Cycle   3  Pass 1  IDiag  1:
 E= -123.542868511534     Delta-E=       -0.190832956608 Rises=F Damp=F
 DIIS: error= 2.21D-02 at cycle   3 NSaved=   3.
 NSaved= 3 IEnMin= 3 EnMin= -123.542868511534     IErMin= 3 ErrMin= 2.21D-02
 ErrMax= 2.21D-02  0.00D+00 EMaxC= 1.00D-01 BMatC= 2.79D-02 BMatP= 7.65D-02
 IDIUse=3 WtCom= 7.79D-01 WtEn= 2.21D-01
 Coeff-Com: -0.581D+00 0.734D+00 0.848D+00
 Coeff-En:   0.000D+00 0.000D+00 0.100D+01
 Coeff:     -0.453D+00 0.572D+00 0.881D+00
 Gap=     0.143 Goal=   None    Shift=    0.000
 RMSDP=3.57D-04 MaxDP=4.52D-02 DE=-1.91D-01 OVMax= 1.26D-01

 Cycle   4  Pass 1  IDiag  1:
 E= -123.560246604151     Delta-E=       -0.017378092617 Rises=F Damp=F
 DIIS: error= 1.11D-02 at cycle   4 NSaved=   4.
 NSaved= 4 IEnMin= 4 EnMin= -123.560246604151     IErMin= 4 ErrMin= 1.11D-02
 ErrMax= 1.11D-02  0.00D+00 EMaxC= 1.00D-01 BMatC= 1.00D-02 BMatP= 2.79D-02
 IDIUse=3 WtCom= 8.89D-01 WtEn= 1.11D-01
 Coeff-Com: -0.450D+00 0.552D+00 0.374D+00 0.524D+00
 Coeff-En:   0.000D+00 0.000D+00 0.669D-01 0.933D+00
 Coeff:     -0.400D+00 0.491D+00 0.340D+00 0.570D+00
 Gap=     0.124 Goal=   None    Shift=    0.000
 RMSDP=3.27D-04 MaxDP=4.39D-02 DE=-1.74D-02 OVMax= 1.13D-01

 Cycle   5  Pass 1  IDiag  1:
 E= -123.561655463351     Delta-E=       -0.001408859200 Rises=F Damp=F
 DIIS: error= 1.31D-02 at cycle   5 NSaved=   5.
 NSaved= 5 IEnMin= 5 EnMin= -123.561655463351     IErMin= 4 ErrMin= 1.11D-02
 ErrMax= 1.31D-02  0.00D+00 EMaxC= 1.00D-01 BMatC= 9.91D-03 BMatP= 1.00D-02
 IDIUse=3 WtCom= 8.69D-01 WtEn= 1.31D-01
 Coeff-Com: -0.402D+00 0.490D+00 0.114D+00 0.256D+00 0.542D+00
 Coeff-En:   0.000D+00 0.000D+00 0.000D+00 0.458D+00 0.542D+00
 Coeff:     -0.349D+00 0.426D+00 0.993D-01 0.282D+00 0.542D+00
 Gap=     0.109 Goal=   None    Shift=    0.000
 RMSDP=2.25D-04 MaxDP=2.94D-02 DE=-1.41D-03 OVMax= 7.07D-02

 Cycle   6  Pass 1  IDiag  1:
 E= -123.567802751532     Delta-E=       -0.006147288180 Rises=F Damp=F
 DIIS: error= 1.19D-02 at cycle   6 NSaved=   6.
 NSaved= 6 IEnMin= 6 EnMin= -123.567802751532     IErMin= 4 ErrMin= 1.11D-02
 ErrMax= 1.19D-02  0.00D+00 EMaxC= 1.00D-01 BMatC= 6.95D-03 BMatP= 9.91D-03
 IDIUse=3 WtCom= 8.81D-01 WtEn= 1.19D-01
 Coeff-Com: -0.298D+00 0.360D+00-0.146D+00-0.396D+00 0.183D+00 0.130D+01
 Coeff-En:   0.000D+00 0.000D+00 0.000D+00 0.000D+00 0.337D-01 0.966D+00
 Coeff:     -0.263D+00 0.317D+00-0.128D+00-0.349D+00 0.165D+00 0.126D+01
 Gap=     0.081 Goal=   None    Shift=    0.000
 RMSDP=1.41D-04 MaxDP=1.54D-02 DE=-6.15D-03 OVMax= 3.31D-02

 Cycle   7  Pass 1  IDiag  1:
 E= -123.572530100930     Delta-E=       -0.004727349398 Rises=F Damp=F
 DIIS: error= 6.92D-03 at cycle   7 NSaved=   7.
 NSaved= 7 IEnMin= 7 EnMin= -123.572530100930     IErMin= 7 ErrMin= 6.92D-03
 ErrMax= 6.92D-03  0.00D+00 EMaxC= 1.00D-01 BMatC= 3.02D-03 BMatP= 6.95D-03
 IDIUse=3 WtCom= 9.31D-01 WtEn= 6.92D-02
 Coeff-Com: -0.271D+00 0.331D+00-0.134D+00-0.406D+00 0.693D-01 0.124D+01
 Coeff-Com:  0.173D+00
 Coeff-En:   0.000D+00 0.000D+00 0.000D+00 0.000D+00 0.000D+00 0.000D+00
 Coeff-En:   0.100D+01
 Coeff:     -0.252D+00 0.308D+00-0.125D+00-0.378D+00 0.645D-01 0.115D+01
 Coeff:      0.230D+00
 Gap=     0.081 Goal=   None    Shift=    0.000
 RMSDP=3.27D-05 MaxDP=3.61D-03 DE=-4.73D-03 OVMax= 7.93D-03

 Cycle   8  Pass 1  IDiag  1:
 E= -123.573281288693     Delta-E=       -0.000751187763 Rises=F Damp=F
 DIIS: error= 7.29D-03 at cycle   8 NSaved=   8.
 NSaved= 8 IEnMin= 8 EnMin= -123.573281288693     IErMin= 7 ErrMin= 6.92D-03
 ErrMax= 7.29D-03  0.00D+00 EMaxC= 1.00D-01 BMatC= 2.92D-03 BMatP= 3.02D-03
 IDIUse=3 WtCom= 9.31D-01 WtEn= 6.92D-02
 Coeff-Com: -0.218D+00 0.243D+00 0.229D-01 0.268D-01-0.374D-01-0.255D+00
 Coeff-Com: -0.217D+01 0.338D+01
 Coeff-En:   0.000D+00 0.000D+00 0.000D+00 0.000D+00 0.000D+00 0.000D+00
 Coeff-En:   0.000D+00 0.100D+01
 Coeff:     -0.203D+00 0.226D+00 0.213D-01 0.250D-01-0.348D-01-0.237D+00
 Coeff:     -0.202D+01 0.322D+01
 Gap=     0.063 Goal=   None    Shift=    0.000
 RMSDP=4.56D-05 MaxDP=4.68D-03 DE=-7.51D-04 OVMax= 1.50D-02

 Cycle   9  Pass 1  IDiag  1:
 E= -123.575790909382     Delta-E=       -0.002509620689 Rises=F Damp=F
 DIIS: error= 5.00D-03 at cycle   9 NSaved=   9.
 NSaved= 9 IEnMin= 9 EnMin= -123.575790909382     IErMin= 9 ErrMin= 5.00D-03
 ErrMax= 5.00D-03  0.00D+00 EMaxC= 1.00D-01 BMatC= 1.53D-03 BMatP= 2.92D-03
 IDIUse=3 WtCom= 9.50D-01 WtEn= 5.00D-02
 Coeff-Com: -0.179D+00 0.200D+00 0.379D-02 0.355D-01 0.641D-01-0.141D+00
 Coeff-Com: -0.203D+01 0.209D+01 0.958D+00
 Coeff-En:   0.000D+00 0.000D+00 0.000D+00 0.000D+00 0.000D+00 0.000D+00
 Coeff-En:   0.000D+00 0.000D+00 0.100D+01
 Coeff:     -0.170D+00 0.190D+00 0.360D-02 0.337D-01 0.609D-01-0.134D+00
 Coeff:     -0.193D+01 0.198D+01 0.960D+00
 Gap=     0.056 Goal=   None    Shift=    0.000
 RMSDP=4.08D-05 MaxDP=3.36D-03 DE=-2.51D-03 OVMax= 1.08D-02

 Cycle  10  Pass 1  IDiag  1:
 E= -123.576759353174     Delta-E=       -0.000968443792 Rises=F Damp=F
 DIIS: error= 4.27D-03 at cycle  10 NSaved=  10.
 NSaved=10 IEnMin=10 EnMin= -123.576759353174     IErMin=10 ErrMin= 4.27D-03
 ErrMax= 4.27D-03  0.00D+00 EMaxC= 1.00D-01 BMatC= 1.14D-03 BMatP= 1.53D-03
 IDIUse=3 WtCom= 9.57D-01 WtEn= 4.27D-02
 Coeff-Com: -0.120D+00 0.135D+00-0.434D-01 0.779D-03 0.197D+00 0.231D+00
 Coeff-Com: -0.131D+01-0.238D+00 0.122D+01 0.926D+00
 Coeff-En:   0.000D+00 0.000D+00 0.000D+00 0.000D+00 0.000D+00 0.000D+00
 Coeff-En:   0.000D+00 0.000D+00 0.000D+00 0.100D+01
 Coeff:     -0.115D+00 0.130D+00-0.415D-01 0.746D-03 0.189D+00 0.222D+00
 Coeff:     -0.125D+01-0.228D+00 0.117D+01 0.929D+00
 Gap=     0.043 Goal=   None    Shift=    0.000
 RMSDP=5.41D-05 MaxDP=4.98D-03 DE=-9.68D-04 OVMax= 1.73D-02

 Cycle  11  Pass 1  IDiag  1:
 E= -123.578092181605     Delta-E=       -0.001332828431 Rises=F Damp=F
 DIIS: error= 2.80D-03 at cycle  11 NSaved=  11.
 NSaved=11 IEnMin=11 EnMin= -123.578092181605     IErMin=11 ErrMin= 2.80D-03
 ErrMax= 2.80D-03  0.00D+00 EMaxC= 1.00D-01 BMatC= 5.57D-04 BMatP= 1.14D-03
 IDIUse=3 WtCom= 9.72D-01 WtEn= 2.80D-02
 Coeff-Com: -0.757D-01 0.855D-01-0.531D-01-0.112D-01 0.158D+00 0.380D+00
 Coeff-Com: -0.678D+00-0.793D+00 0.359D+00 0.722D+00 0.906D+00
 Coeff-En:   0.000D+00 0.000D+00 0.000D+00 0.000D+00 0.000D+00 0.000D+00
 Coeff-En:   0.000D+00 0.000D+00 0.000D+00 0.000D+00 0.100D+01
 Coeff:     -0.736D-01 0.831D-01-0.516D-01-0.109D-01 0.153D+00 0.370D+00
 Coeff:     -0.659D+00-0.770D+00 0.349D+00 0.702D+00 0.909D+00
 Gap=     0.034 Goal=   None    Shift=    0.000
 RMSDP=5.05D-05 MaxDP=4.78D-03 DE=-1.33D-03 OVMax= 1.70D-02

 Cycle  12  Pass 1  IDiag  1:
 E= -123.578847697207     Delta-E=       -0.000755515602 Rises=F Damp=F
 DIIS: error= 1.77D-03 at cycle  12 NSaved=  12.
 NSaved=12 IEnMin=12 EnMin= -123.578847697207     IErMin=12 ErrMin= 1.77D-03
 ErrMax= 1.77D-03  0.00D+00 EMaxC= 1.00D-01 BMatC= 2.58D-04 BMatP= 5.57D-04
 IDIUse=3 WtCom= 9.82D-01 WtEn= 1.77D-02
 Coeff-Com: -0.303D-01 0.347D-01-0.367D-01-0.150D-02 0.115D-01 0.356D+00
 Coeff-Com: -0.185D+00-0.490D+00-0.509D+00 0.119D+00 0.114D+01 0.588D+00
 Coeff-En:   0.000D+00 0.000D+00 0.000D+00 0.000D+00 0.000D+00 0.000D+00
 Coeff-En:   0.000D+00 0.000D+00 0.000D+00 0.000D+00 0.000D+00 0.100D+01
 Coeff:     -0.297D-01 0.341D-01-0.360D-01-0.148D-02 0.113D-01 0.349D+00
 Coeff:     -0.182D+00-0.481D+00-0.500D+00 0.117D+00 0.112D+01 0.595D+00
 Gap=     0.025 Goal=   None    Shift=    0.000
 RMSDP=6.00D-05 MaxDP=5.41D-03 DE=-7.56D-04 OVMax= 1.80D-02

 Cycle  13  Pass 1  IDiag  1:
 E= -123.579397806488     Delta-E=       -0.000550109281 Rises=F Damp=F
 DIIS: error= 7.99D-04 at cycle  13 NSaved=  13.
 NSaved=13 IEnMin=13 EnMin= -123.579397806488     IErMin=13 ErrMin= 7.99D-04
 ErrMax= 7.99D-04  0.00D+00 EMaxC= 1.00D-01 BMatC= 6.78D-05 BMatP= 2.58D-04
 IDIUse=3 WtCom= 9.92D-01 WtEn= 7.99D-03
 Coeff-Com: -0.144D-01 0.161D-01-0.130D-01 0.185D-01-0.701D-01 0.200D+00
 Coeff-Com: -0.143D+00 0.187D+00-0.710D+00-0.232D+00 0.685D+00 0.602D+00
 Coeff-Com:  0.475D+00
 Coeff-En:   0.000D+00 0.000D+00 0.000D+00 0.000D+00 0.000D+00 0.000D+00
 Coeff-En:   0.000D+00 0.000D+00 0.000D+00 0.000D+00 0.000D+00 0.000D+00
 Coeff-En:   0.100D+01
 Coeff:     -0.143D-01 0.160D-01-0.129D-01 0.184D-01-0.695D-01 0.198D+00
 Coeff:     -0.142D+00 0.185D+00-0.705D+00-0.230D+00 0.680D+00 0.598D+00
 Coeff:      0.479D+00
 Gap=     0.022 Goal=   None    Shift=    0.000
 RMSDP=2.11D-04 MaxDP=2.82D-02 DE=-5.50D-04 OVMax= 4.97D-02

 Cycle  14  Pass 1  IDiag  1:
 E= -123.578921361099     Delta-E=        0.000476445389 Rises=F Damp=F
 DIIS: error= 1.75D-03 at cycle  14 NSaved=  14.
 NSaved=14 IEnMin=13 EnMin= -123.579397806488     IErMin=13 ErrMin= 7.99D-04
 ErrMax= 1.75D-03  0.00D+00 EMaxC= 1.00D-01 BMatC= 2.66D-04 BMatP= 6.78D-05
 IDIUse=3 WtCom= 9.92D-01 WtEn= 7.99D-03
 Coeff-Com: -0.635D-02 0.626D-02 0.599D-02 0.345D-01-0.116D+00 0.570D-01
 Coeff-Com: -0.189D+00 0.740D+00-0.719D+00-0.433D+00 0.210D+00 0.486D+00
 Coeff-Com:  0.793D+00 0.130D+00
 Coeff-En:   0.000D+00 0.000D+00 0.000D+00 0.000D+00 0.000D+00 0.000D+00
 Coeff-En:   0.000D+00 0.000D+00 0.000D+00 0.000D+00 0.000D+00 0.000D+00
 Coeff-En:   0.651D+00 0.349D+00
 Coeff:     -0.630D-02 0.621D-02 0.594D-02 0.342D-01-0.115D+00 0.566D-01
 Coeff:     -0.187D+00 0.734D+00-0.714D+00-0.430D+00 0.209D+00 0.482D+00
 Coeff:      0.792D+00 0.132D+00
 Gap=     0.021 Goal=   None    Shift=    0.000
 RMSDP=1.89D-04 MaxDP=2.50D-02 DE= 4.76D-04 OVMax= 4.61D-02

 Cycle  15  Pass 1  IDiag  1:
 E= -123.579589193618     Delta-E=       -0.000667832519 Rises=F Damp=F
 DIIS: error= 2.37D-04 at cycle  15 NSaved=  15.
 NSaved=15 IEnMin=15 EnMin= -123.579589193618     IErMin=15 ErrMin= 2.37D-04
 ErrMax= 2.37D-04  0.00D+00 EMaxC= 1.00D-01 BMatC= 1.28D-05 BMatP= 6.78D-05
 IDIUse=3 WtCom= 9.98D-01 WtEn= 2.37D-03
 Coeff-Com: -0.725D-02 0.709D-02 0.834D-02 0.313D-01-0.731D-01-0.498D-02
 Coeff-Com: -0.237D+00 0.651D+00-0.331D+00-0.248D+00-0.105D+00 0.155D+00
 Coeff-Com:  0.553D+00 0.134D+00 0.467D+00
 Coeff-En:   0.000D+00 0.000D+00 0.000D+00 0.000D+00 0.000D+00 0.000D+00
 Coeff-En:   0.000D+00 0.000D+00 0.000D+00 0.000D+00 0.000D+00 0.000D+00
 Coeff-En:   0.000D+00 0.260D+00 0.740D+00
 Coeff:     -0.723D-02 0.707D-02 0.832D-02 0.313D-01-0.730D-01-0.497D-02
 Coeff:     -0.237D+00 0.649D+00-0.331D+00-0.247D+00-0.105D+00 0.155D+00
 Coeff:      0.551D+00 0.134D+00 0.468D+00
 Gap=     0.021 Goal=   None    Shift=    0.000
 RMSDP=3.83D-05 MaxDP=5.87D-03 DE=-6.68D-04 OVMax= 8.61D-03

 Cycle  16  Pass 1  IDiag  1:
 E= -123.579598569587     Delta-E=       -0.000009375968 Rises=F Damp=F
 DIIS: error= 2.81D-04 at cycle  16 NSaved=  16.
 NSaved=16 IEnMin=16 EnMin= -123.579598569587     IErMin=15 ErrMin= 2.37D-04
 ErrMax= 2.81D-04  0.00D+00 EMaxC= 1.00D-01 BMatC= 1.08D-05 BMatP= 1.28D-05
 IDIUse=3 WtCom= 9.98D-01 WtEn= 2.37D-03
 Rare condition: small coef for last iteration:  0.000D+00
 Coeff-Com:  0.266D-02-0.351D-02 0.689D-02 0.200D-01-0.301D-01-0.289D-01
 Coeff-Com: -0.121D+00 0.265D+00 0.290D-01-0.214D-01-0.283D+00-0.149D+00
 Coeff-Com:  0.155D+00 0.792D-01 0.628D+00 0.451D+00
 Coeff-En:   0.000D+00 0.000D+00 0.000D+00 0.000D+00 0.000D+00 0.000D+00
 Coeff-En:   0.000D+00 0.000D+00 0.000D+00 0.000D+00 0.000D+00 0.000D+00
 Coeff-En:   0.000D+00 0.219D+00 0.337D+00 0.445D+00
 Coeff:      0.266D-02-0.351D-02 0.689D-02 0.200D-01-0.301D-01-0.289D-01
 Coeff:     -0.121D+00 0.265D+00 0.290D-01-0.214D-01-0.283D+00-0.149D+00
 Coeff:      0.155D+00 0.792D-01 0.628D+00 0.451D+00
 Gap=     0.019 Goal=   None    Shift=    0.000
 RMSDP=7.38D-05 MaxDP=1.25D-02 DE=-9.38D-06 OVMax= 5.80D-03

 Cycle  17  Pass 1  IDiag  1:
 E= -123.579628574102     Delta-E=       -0.000030004515 Rises=F Damp=F
 DIIS: error= 1.30D-04 at cycle  17 NSaved=  17.
 NSaved=17 IEnMin=17 EnMin= -123.579628574102     IErMin=17 ErrMin= 1.30D-04
 ErrMax= 1.30D-04  0.00D+00 EMaxC= 1.00D-01 BMatC= 1.97D-06 BMatP= 1.08D-05
 IDIUse=3 WtCom= 9.99D-01 WtEn= 1.30D-03
 EnCoef did   100 forward-backward iterations
 Rare condition: small coef for last iteration:  0.000D+00
 Coeff-Com:  0.372D-02-0.452D-02 0.467D-02 0.139D-01-0.158D-01-0.217D-01
 Coeff-Com: -0.711D-01 0.152D+00 0.391D-01 0.621D-02-0.213D+00-0.135D+00
 Coeff-Com:  0.637D-01 0.484D-01 0.464D+00 0.394D+00 0.271D+00
 Coeff-En:   0.000D+00 0.000D+00 0.000D+00 0.000D+00 0.000D+00 0.000D+00
 Coeff-En:   0.000D+00 0.000D+00 0.000D+00 0.000D+00 0.000D+00 0.000D+00
 Coeff-En:   0.000D+00 0.172D+00 0.000D+00 0.000D+00 0.828D+00
 Coeff:      0.372D-02-0.452D-02 0.467D-02 0.139D-01-0.158D-01-0.217D-01
 Coeff:     -0.711D-01 0.152D+00 0.391D-01 0.621D-02-0.213D+00-0.135D+00
 Coeff:      0.637D-01 0.484D-01 0.464D+00 0.394D+00 0.271D+00
 Gap=     0.019 Goal=   None    Shift=    0.000
 RMSDP=1.11D-04 MaxDP=1.99D-02 DE=-3.00D-05 OVMax= 6.25D-03

 Cycle  18  Pass 1  IDiag  1:
 E= -123.579624759393     Delta-E=        0.000003814709 Rises=F Damp=F
 DIIS: error= 1.72D-04 at cycle  18 NSaved=  18.
 NSaved=18 IEnMin=17 EnMin= -123.579628574102     IErMin=17 ErrMin= 1.30D-04
 ErrMax= 1.72D-04  0.00D+00 EMaxC= 1.00D-01 BMatC= 4.01D-06 BMatP= 1.97D-06
 IDIUse=3 WtCom= 9.99D-01 WtEn= 1.30D-03
 EnCoef did     5 forward-backward iterations
 Coeff-Com:  0.399D-02-0.447D-02-0.559D-03 0.472D-03 0.147D-01-0.347D-02
 Coeff-Com:  0.282D-01-0.617D-01 0.112D-01 0.401D-01-0.853D-02-0.473D-01
 Coeff-Com: -0.100D+00-0.192D-01 0.238D-01 0.172D+00 0.600D+00 0.351D+00
 Coeff-En:   0.000D+00 0.000D+00 0.000D+00 0.000D+00 0.000D+00 0.000D+00
 Coeff-En:   0.000D+00 0.000D+00 0.000D+00 0.000D+00 0.000D+00 0.000D+00
 Coeff-En:   0.000D+00 0.167D+00 0.000D+00 0.000D+00 0.485D+00 0.349D+00
 Coeff:      0.399D-02-0.447D-02-0.558D-03 0.471D-03 0.147D-01-0.346D-02
 Coeff:      0.282D-01-0.616D-01 0.111D-01 0.400D-01-0.852D-02-0.472D-01
 Coeff:     -0.100D+00-0.189D-01 0.238D-01 0.172D+00 0.600D+00 0.351D+00
 Gap=     0.019 Goal=   None    Shift=    0.000
 RMSDP=6.39D-05 MaxDP=1.09D-02 DE= 3.81D-06 OVMax= 4.19D-03

 Cycle  19  Pass 1  IDiag  1:
 E= -123.579631097102     Delta-E=       -0.000006337710 Rises=F Damp=F
 DIIS: error= 1.22D-04 at cycle  19 NSaved=  19.
 NSaved=19 IEnMin=19 EnMin= -123.579631097102     IErMin=19 ErrMin= 1.22D-04
 ErrMax= 1.22D-04  0.00D+00 EMaxC= 1.00D-01 BMatC= 1.25D-06 BMatP= 1.97D-06
 IDIUse=3 WtCom= 9.99D-01 WtEn= 1.22D-03
 Rare condition: small coef for last iteration: -0.222D-15
 Coeff-Com:  0.224D-02-0.246D-02-0.981D-03-0.228D-02 0.198D-01-0.767D-02
 Coeff-Com:  0.333D-01-0.589D-01-0.151D-01 0.278D-01 0.478D-01 0.306D-02
 Coeff-Com: -0.986D-01-0.265D-01-0.101D+00 0.594D-01 0.403D+00 0.266D+00
 Coeff-Com:  0.452D+00
 Coeff-En:   0.000D+00 0.000D+00 0.000D+00 0.000D+00 0.000D+00 0.000D+00
 Coeff-En:   0.000D+00 0.000D+00 0.000D+00 0.000D+00 0.000D+00 0.000D+00
 Coeff-En:   0.000D+00 0.164D+00 0.000D+00 0.000D+00 0.208D+00 0.161D+00
 Coeff-En:   0.468D+00
 Coeff:      0.224D-02-0.246D-02-0.981D-03-0.228D-02 0.198D-01-0.767D-02
 Coeff:      0.333D-01-0.589D-01-0.151D-01 0.278D-01 0.478D-01 0.306D-02
 Coeff:     -0.986D-01-0.265D-01-0.101D+00 0.594D-01 0.403D+00 0.266D+00
 Coeff:      0.452D+00
 Gap=     0.020 Goal=   None    Shift=    0.000
 RMSDP=4.59D-05 MaxDP=6.29D-03 DE=-6.34D-06 OVMax= 2.30D-03

 Cycle  20  Pass 1  IDiag  1:
 E= -123.579631504393     Delta-E=       -0.000000407291 Rises=F Damp=F
 DIIS: error= 7.29D-05 at cycle  20 NSaved=  20.
 NSaved=20 IEnMin=20 EnMin= -123.579631504393     IErMin=20 ErrMin= 7.29D-05
 ErrMax= 7.29D-05  0.00D+00 EMaxC= 1.00D-01 BMatC= 8.59D-07 BMatP= 1.25D-06
 IDIUse=1 WtCom= 1.00D+00 WtEn= 0.00D+00
 Coeff-Com:  0.249D-03-0.227D-03-0.624D-03-0.359D-02 0.201D-01-0.154D-01
 Coeff-Com:  0.270D-01-0.254D-01-0.372D-01 0.476D-02 0.760D-01 0.463D-01
 Coeff-Com: -0.673D-01-0.207D-01-0.171D+00-0.414D-01 0.102D+00 0.975D-01
 Coeff-Com:  0.651D+00 0.358D+00
 Coeff:      0.249D-03-0.227D-03-0.624D-03-0.359D-02 0.201D-01-0.154D-01
 Coeff:      0.270D-01-0.254D-01-0.372D-01 0.476D-02 0.760D-01 0.463D-01
 Coeff:     -0.673D-01-0.207D-01-0.171D+00-0.414D-01 0.102D+00 0.975D-01
 Coeff:      0.651D+00 0.358D+00
 Gap=     0.020 Goal=   None    Shift=    0.000
 RMSDP=3.25D-05 MaxDP=4.25D-03 DE=-4.07D-07 OVMax= 1.71D-03

 Cycle  21  Pass 1  IDiag  1:
 E= -123.579632916909     Delta-E=       -0.000001412515 Rises=F Damp=F
 DIIS: error= 4.35D-05 at cycle  21 NSaved=  20.
 NSaved=20 IEnMin=20 EnMin= -123.579632916909     IErMin=20 ErrMin= 4.35D-05
 ErrMax= 4.35D-05  0.00D+00 EMaxC= 1.00D-01 BMatC= 2.12D-07 BMatP= 8.59D-07
 IDIUse=1 WtCom= 1.00D+00 WtEn= 0.00D+00
 Coeff-Com: -0.175D-04 0.222D-03-0.161D-02 0.115D-01-0.159D-01 0.147D-01
 Coeff-Com:  0.323D-02-0.152D-01-0.114D-01 0.186D-01 0.217D-01-0.170D-01
 Coeff-Com: -0.313D-02-0.525D-01-0.119D-01-0.270D-01-0.724D-02 0.226D+00
 Coeff-Com:  0.203D+00 0.664D+00
 Coeff:     -0.175D-04 0.222D-03-0.161D-02 0.115D-01-0.159D-01 0.147D-01
 Coeff:      0.323D-02-0.152D-01-0.114D-01 0.186D-01 0.217D-01-0.170D-01
 Coeff:     -0.313D-02-0.525D-01-0.119D-01-0.270D-01-0.724D-02 0.226D+00
 Coeff:      0.203D+00 0.664D+00
 Gap=     0.020 Goal=   None    Shift=    0.000
 RMSDP=3.17D-06 MaxDP=3.60D-04 DE=-1.41D-06 OVMax= 5.58D-04

 Cycle  22  Pass 1  IDiag  1:
 E= -123.579633163484     Delta-E=       -0.000000246575 Rises=F Damp=F
 DIIS: error= 4.02D-05 at cycle  22 NSaved=  20.
 NSaved=20 IEnMin=20 EnMin= -123.579633163484     IErMin=20 ErrMin= 4.02D-05
 ErrMax= 4.02D-05  0.00D+00 EMaxC= 1.00D-01 BMatC= 1.06D-07 BMatP= 2.12D-07
 IDIUse=1 WtCom= 1.00D+00 WtEn= 0.00D+00
 Coeff-Com:  0.215D-03-0.136D-02 0.940D-02-0.135D-01 0.129D-01 0.150D-02
 Coeff-Com: -0.677D-02-0.101D-01 0.631D-02 0.131D-01-0.101D-01-0.887D-03
 Coeff-Com: -0.255D-01-0.229D-02-0.286D-01-0.142D-01 0.122D+00 0.135D+00
 Coeff-Com:  0.584D+00 0.229D+00
 Coeff:      0.215D-03-0.136D-02 0.940D-02-0.135D-01 0.129D-01 0.150D-02
 Coeff:     -0.677D-02-0.101D-01 0.631D-02 0.131D-01-0.101D-01-0.887D-03
 Coeff:     -0.255D-01-0.229D-02-0.286D-01-0.142D-01 0.122D+00 0.135D+00
 Coeff:      0.584D+00 0.229D+00
 Gap=     0.020 Goal=   None    Shift=    0.000
 RMSDP=1.41D-06 MaxDP=1.94D-04 DE=-2.47D-07 OVMax= 4.80D-04

 Cycle  23  Pass 1  IDiag  1:
 E= -123.579633247769     Delta-E=       -0.000000084285 Rises=F Damp=F
 DIIS: error= 3.16D-05 at cycle  23 NSaved=  20.
 NSaved=20 IEnMin=20 EnMin= -123.579633247769     IErMin=20 ErrMin= 3.16D-05
 ErrMax= 3.16D-05  0.00D+00 EMaxC= 1.00D-01 BMatC= 6.67D-08 BMatP= 1.06D-07
 IDIUse=1 WtCom= 1.00D+00 WtEn= 0.00D+00
 Coeff-Com: -0.685D-03 0.483D-02-0.635D-02 0.548D-02-0.604D-02 0.122D-01
 Coeff-Com: -0.144D-02-0.147D-01-0.613D-02-0.713D-03 0.161D-02 0.238D-01
 Coeff-Com:  0.161D-01-0.251D-02-0.834D-02-0.762D-01-0.281D-01 0.154D+00
 Coeff-Com:  0.412D+00 0.521D+00
 Coeff:     -0.685D-03 0.483D-02-0.635D-02 0.548D-02-0.604D-02 0.122D-01
 Coeff:     -0.144D-02-0.147D-01-0.613D-02-0.713D-03 0.161D-02 0.238D-01
 Coeff:      0.161D-01-0.251D-02-0.834D-02-0.762D-01-0.281D-01 0.154D+00
 Coeff:      0.412D+00 0.521D+00
 Gap=     0.020 Goal=   None    Shift=    0.000
 RMSDP=1.63D-06 MaxDP=2.50D-04 DE=-8.43D-08 OVMax= 3.97D-04

 Cycle  24  Pass 1  IDiag  1:
 E= -123.579633366227     Delta-E=       -0.000000118458 Rises=F Damp=F
 DIIS: error= 1.03D-05 at cycle  24 NSaved=  20.
 NSaved=20 IEnMin=20 EnMin= -123.579633366227     IErMin=20 ErrMin= 1.03D-05
 ErrMax= 1.03D-05  0.00D+00 EMaxC= 1.00D-01 BMatC= 1.11D-08 BMatP= 6.67D-08
 IDIUse=1 WtCom= 1.00D+00 WtEn= 0.00D+00
 Coeff-Com:  0.254D-02-0.321D-02 0.462D-03-0.501D-02 0.134D-01 0.142D-02
 Coeff-Com: -0.159D-01-0.964D-02 0.227D-02 0.189D-02 0.313D-01 0.175D-01
 Coeff-Com:  0.893D-02-0.175D-02-0.106D+00-0.640D-01-0.202D-01 0.294D+00
 Coeff-Com:  0.442D+00 0.410D+00
 Coeff:      0.254D-02-0.321D-02 0.462D-03-0.501D-02 0.134D-01 0.142D-02
 Coeff:     -0.159D-01-0.964D-02 0.227D-02 0.189D-02 0.313D-01 0.175D-01
 Coeff:      0.893D-02-0.175D-02-0.106D+00-0.640D-01-0.202D-01 0.294D+00
 Coeff:      0.442D+00 0.410D+00
 Gap=     0.020 Goal=   None    Shift=    0.000
 RMSDP=2.23D-06 MaxDP=3.69D-04 DE=-1.18D-07 OVMax= 1.94D-04

 Cycle  25  Pass 1  IDiag  1:
 E= -123.579633384064     Delta-E=       -0.000000017837 Rises=F Damp=F
 DIIS: error= 4.95D-06 at cycle  25 NSaved=  20.
 NSaved=20 IEnMin=20 EnMin= -123.579633384064     IErMin=20 ErrMin= 4.95D-06
 ErrMax= 4.95D-06  0.00D+00 EMaxC= 1.00D-01 BMatC= 2.90D-09 BMatP= 1.11D-08
 IDIUse=1 WtCom= 1.00D+00 WtEn= 0.00D+00
 Coeff-Com: -0.212D-03-0.143D-02 0.250D-03 0.509D-02 0.517D-03-0.750D-02
 Coeff-Com: -0.560D-02 0.267D-02 0.561D-03 0.173D-01 0.751D-02 0.104D-01
 Coeff-Com:  0.287D-02-0.667D-01-0.501D-01-0.110D+00 0.727D-01 0.171D+00
 Coeff-Com:  0.502D+00 0.449D+00
 Coeff:     -0.212D-03-0.143D-02 0.250D-03 0.509D-02 0.517D-03-0.750D-02
 Coeff:     -0.560D-02 0.267D-02 0.561D-03 0.173D-01 0.751D-02 0.104D-01
 Coeff:      0.287D-02-0.667D-01-0.501D-01-0.110D+00 0.727D-01 0.171D+00
 Coeff:      0.502D+00 0.449D+00
 Gap=     0.020 Goal=   None    Shift=    0.000
 RMSDP=1.55D-06 MaxDP=2.15D-04 DE=-1.78D-08 OVMax= 1.19D-04

 Cycle  26  Pass 1  IDiag  1:
 E= -123.579633390174     Delta-E=       -0.000000006110 Rises=F Damp=F
 DIIS: error= 1.31D-06 at cycle  26 NSaved=  20.
 NSaved=20 IEnMin=20 EnMin= -123.579633390174     IErMin=20 ErrMin= 1.31D-06
 ErrMax= 1.31D-06  0.00D+00 EMaxC= 1.00D-01 BMatC= 2.51D-10 BMatP= 2.90D-09
 IDIUse=1 WtCom= 1.00D+00 WtEn= 0.00D+00
 Coeff-Com: -0.964D-03 0.188D-03 0.198D-02 0.264D-03-0.250D-02-0.218D-02
 Coeff-Com:  0.981D-03-0.160D-04 0.673D-02 0.255D-02 0.558D-02 0.196D-02
 Coeff-Com: -0.280D-01-0.230D-01-0.617D-01 0.184D-01 0.676D-01 0.293D+00
 Coeff-Com:  0.310D+00 0.409D+00
 Coeff:     -0.964D-03 0.188D-03 0.198D-02 0.264D-03-0.250D-02-0.218D-02
 Coeff:      0.981D-03-0.160D-04 0.673D-02 0.255D-02 0.558D-02 0.196D-02
 Coeff:     -0.280D-01-0.230D-01-0.617D-01 0.184D-01 0.676D-01 0.293D+00
 Coeff:      0.310D+00 0.409D+00
 Gap=     0.020 Goal=   None    Shift=    0.000
 RMSDP=1.33D-06 MaxDP=1.71D-04 DE=-6.11D-09 OVMax= 4.62D-05

 Cycle  27  Pass 1  IDiag  1:
 E= -123.579633390412     Delta-E=       -0.000000000239 Rises=F Damp=F
 DIIS: error= 1.14D-06 at cycle  27 NSaved=  20.
 NSaved=20 IEnMin=20 EnMin= -123.579633390412     IErMin=20 ErrMin= 1.14D-06
 ErrMax= 1.14D-06  0.00D+00 EMaxC= 1.00D-01 BMatC= 1.25D-10 BMatP= 2.51D-10
 IDIUse=1 WtCom= 1.00D+00 WtEn= 0.00D+00
 Coeff-Com:  0.401D-03-0.136D-02-0.598D-03 0.199D-02 0.152D-02-0.660D-04
 Coeff-Com: -0.274D-03-0.299D-02-0.198D-02-0.190D-02-0.580D-03 0.801D-02
 Coeff-Com:  0.529D-02 0.654D-02-0.125D-01-0.172D-01 0.199D-01 0.658D-01
 Coeff-Com:  0.431D+00 0.499D+00
 Coeff:      0.401D-03-0.136D-02-0.598D-03 0.199D-02 0.152D-02-0.660D-04
 Coeff:     -0.274D-03-0.299D-02-0.198D-02-0.190D-02-0.580D-03 0.801D-02
 Coeff:      0.529D-02 0.654D-02-0.125D-01-0.172D-01 0.199D-01 0.658D-01
 Coeff:      0.431D+00 0.499D+00
 Gap=     0.020 Goal=   None    Shift=    0.000
 RMSDP=7.82D-07 MaxDP=1.33D-04 DE=-2.39D-10 OVMax= 2.33D-05

 Cycle  28  Pass 1  IDiag  1:
 E= -123.579633390649     Delta-E=       -0.000000000237 Rises=F Damp=F
 DIIS: error= 4.58D-07 at cycle  28 NSaved=  20.
 NSaved=20 IEnMin=20 EnMin= -123.579633390649     IErMin=20 ErrMin= 4.58D-07
 ErrMax= 4.58D-07  0.00D+00 EMaxC= 1.00D-01 BMatC= 1.03D-11 BMatP= 1.25D-10
 IDIUse=1 WtCom= 1.00D+00 WtEn= 0.00D+00
 Coeff-Com: -0.550D-03-0.745D-04 0.112D-02 0.779D-03-0.325D-03-0.195D-03
 Coeff-Com: -0.203D-02-0.110D-02-0.967D-03-0.183D-03 0.609D-02 0.433D-02
 Coeff-Com:  0.689D-02-0.748D-02-0.138D-01-0.148D-01 0.107D-01 0.202D+00
 Coeff-Com:  0.296D+00 0.514D+00
 Coeff:     -0.550D-03-0.745D-04 0.112D-02 0.779D-03-0.325D-03-0.195D-03
 Coeff:     -0.203D-02-0.110D-02-0.967D-03-0.183D-03 0.609D-02 0.433D-02
 Coeff:      0.689D-02-0.748D-02-0.138D-01-0.148D-01 0.107D-01 0.202D+00
 Coeff:      0.296D+00 0.514D+00
 Gap=     0.020 Goal=   None    Shift=    0.000
 RMSDP=3.66D-07 MaxDP=4.91D-05 DE=-2.37D-10 OVMax= 8.80D-06

 Cycle  29  Pass 1  IDiag  1:
 E= -123.579633390662     Delta-E=       -0.000000000013 Rises=F Damp=F
 DIIS: error= 2.02D-07 at cycle  29 NSaved=  20.
 NSaved=20 IEnMin=20 EnMin= -123.579633390662     IErMin=20 ErrMin= 2.02D-07
 ErrMax= 2.02D-07  0.00D+00 EMaxC= 1.00D-01 BMatC= 3.62D-12 BMatP= 1.03D-11
 IDIUse=1 WtCom= 1.00D+00 WtEn= 0.00D+00
 Coeff-Com:  0.344D-04 0.205D-04 0.269D-04-0.110D-03-0.183D-04-0.167D-03
 Coeff-Com:  0.373D-04 0.235D-03 0.174D-03 0.767D-03 0.406D-03 0.157D-02
 Coeff-Com: -0.952D-03-0.204D-02-0.600D-02 0.156D-02 0.291D-01 0.712D-01
 Coeff-Com:  0.356D+00 0.548D+00
 Coeff:      0.344D-04 0.205D-04 0.269D-04-0.110D-03-0.183D-04-0.167D-03
 Coeff:      0.373D-04 0.235D-03 0.174D-03 0.767D-03 0.406D-03 0.157D-02
 Coeff:     -0.952D-03-0.204D-02-0.600D-02 0.156D-02 0.291D-01 0.712D-01
 Coeff:      0.356D+00 0.548D+00
 Gap=     0.020 Goal=   None    Shift=    0.000
 RMSDP=1.08D-07 MaxDP=1.52D-05 DE=-1.26D-11 OVMax= 4.26D-06

 Cycle  30  Pass 1  IDiag  1:
 E= -123.579633390667     Delta-E=       -0.000000000005 Rises=F Damp=F
 DIIS: error= 1.57D-07 at cycle  30 NSaved=  20.
 NSaved=20 IEnMin=20 EnMin= -123.579633390667     IErMin=20 ErrMin= 1.57D-07
 ErrMax= 1.57D-07  0.00D+00 EMaxC= 1.00D-01 BMatC= 1.37D-12 BMatP= 3.62D-12
 IDIUse=1 WtCom= 1.00D+00 WtEn= 0.00D+00
 Coeff-Com:  0.428D-04 0.516D-04-0.932D-04-0.423D-05-0.210D-03-0.212D-04
 Coeff-Com:  0.110D-03 0.953D-04 0.714D-03 0.327D-03 0.110D-02-0.817D-03
 Coeff-Com: -0.232D-02-0.781D-02-0.500D-02-0.104D-01 0.927D-02 0.167D+00
 Coeff-Com:  0.393D+00 0.455D+00
 Coeff:      0.428D-04 0.516D-04-0.932D-04-0.423D-05-0.210D-03-0.212D-04
 Coeff:      0.110D-03 0.953D-04 0.714D-03 0.327D-03 0.110D-02-0.817D-03
 Coeff:     -0.232D-02-0.781D-02-0.500D-02-0.104D-01 0.927D-02 0.167D+00
 Coeff:      0.393D+00 0.455D+00
 Gap=     0.020 Goal=   None    Shift=    0.000
 RMSDP=4.56D-08 MaxDP=7.04D-06 DE=-5.14D-12 OVMax= 2.41D-06

 Cycle  31  Pass 1  IDiag  1:
 E= -123.579633390669     Delta-E=       -0.000000000003 Rises=F Damp=F
 DIIS: error= 6.81D-08 at cycle  31 NSaved=  20.
 NSaved=20 IEnMin=20 EnMin= -123.579633390669     IErMin=20 ErrMin= 6.81D-08
 ErrMax= 6.81D-08  0.00D+00 EMaxC= 1.00D-01 BMatC= 3.01D-13 BMatP= 1.37D-12
 IDIUse=1 WtCom= 1.00D+00 WtEn= 0.00D+00
 Coeff-Com:  0.314D-04-0.201D-04 0.102D-04-0.774D-04-0.111D-04-0.122D-04
 Coeff-Com:  0.799D-05 0.281D-03 0.118D-03 0.241D-03-0.369D-03-0.944D-03
 Coeff-Com: -0.412D-02-0.435D-02-0.202D-01-0.172D-01 0.321D-01 0.153D+00
 Coeff-Com:  0.327D+00 0.534D+00
 Coeff:      0.314D-04-0.201D-04 0.102D-04-0.774D-04-0.111D-04-0.122D-04
 Coeff:      0.799D-05 0.281D-03 0.118D-03 0.241D-03-0.369D-03-0.944D-03
 Coeff:     -0.412D-02-0.435D-02-0.202D-01-0.172D-01 0.321D-01 0.153D+00
 Coeff:      0.327D+00 0.534D+00
 Gap=     0.020 Goal=   None    Shift=    0.000
 RMSDP=3.39D-08 MaxDP=4.85D-06 DE=-2.50D-12 OVMax= 1.71D-06

 Cycle  32  Pass 1  IDiag  1:
 E= -123.579633390670     Delta-E=       -0.000000000000 Rises=F Damp=F
 DIIS: error= 5.75D-08 at cycle  32 NSaved=  20.
 NSaved=20 IEnMin=20 EnMin= -123.579633390670     IErMin=20 ErrMin= 5.75D-08
 ErrMax= 5.75D-08  0.00D+00 EMaxC= 1.00D-01 BMatC= 2.23D-13 BMatP= 3.01D-13
 IDIUse=1 WtCom= 1.00D+00 WtEn= 0.00D+00
 Coeff-Com: -0.148D-04 0.465D-05-0.102D-04-0.283D-05-0.125D-05-0.727D-06
 Coeff-Com: -0.588D-04-0.854D-04-0.234D-03-0.248D-03-0.342D-03-0.562D-03
 Coeff-Com: -0.120D-02-0.123D-01-0.164D-01-0.255D-01 0.251D-01 0.179D+00
 Coeff-Com:  0.474D+00 0.379D+00
 Coeff:     -0.148D-04 0.465D-05-0.102D-04-0.283D-05-0.125D-05-0.727D-06
 Coeff:     -0.588D-04-0.854D-04-0.234D-03-0.248D-03-0.342D-03-0.562D-03
 Coeff:     -0.120D-02-0.123D-01-0.164D-01-0.255D-01 0.251D-01 0.179D+00
 Coeff:      0.474D+00 0.379D+00
 Gap=     0.020 Goal=   None    Shift=    0.000
 RMSDP=5.06D-08 MaxDP=9.03D-06 DE=-2.27D-13 OVMax= 1.66D-06

 Cycle  33  Pass 1  IDiag  1:
 E= -123.579633390669     Delta-E=        0.000000000001 Rises=F Damp=F
 DIIS: error= 1.05D-07 at cycle  33 NSaved=  20.
 NSaved=20 IEnMin=19 EnMin= -123.579633390670     IErMin=19 ErrMin= 5.75D-08
 ErrMax= 1.05D-07  0.00D+00 EMaxC= 1.00D-01 BMatC= 6.34D-13 BMatP= 2.23D-13
 IDIUse=1 WtCom= 1.00D+00 WtEn= 0.00D+00
 Coeff-Com: -0.829D-05-0.239D-04-0.406D-05 0.394D-05 0.953D-04-0.844D-04
 Coeff-Com: -0.200D-03-0.458D-03-0.212D-03-0.108D-03 0.122D-02 0.413D-04
 Coeff-Com: -0.892D-02-0.539D-02-0.298D-01-0.145D-02 0.838D-01 0.343D+00
 Coeff-Com:  0.348D+00 0.270D+00
 Coeff:     -0.829D-05-0.239D-04-0.406D-05 0.394D-05 0.953D-04-0.844D-04
 Coeff:     -0.200D-03-0.458D-03-0.212D-03-0.108D-03 0.122D-02 0.413D-04
 Coeff:     -0.892D-02-0.539D-02-0.298D-01-0.145D-02 0.838D-01 0.343D+00
 Coeff:      0.348D+00 0.270D+00
 Gap=     0.020 Goal=   None    Shift=    0.000
 RMSDP=4.84D-08 MaxDP=8.71D-06 DE= 8.24D-13 OVMax= 2.23D-06

 Cycle  34  Pass 1  IDiag  1:
 E= -123.579633390670     Delta-E=       -0.000000000001 Rises=F Damp=F
 DIIS: error= 4.23D-08 at cycle  34 NSaved=  20.
 NSaved=20 IEnMin=18 EnMin= -123.579633390670     IErMin=20 ErrMin= 4.23D-08
 ErrMax= 4.23D-08  0.00D+00 EMaxC= 1.00D-01 BMatC= 1.98D-13 BMatP= 2.23D-13
 IDIUse=1 WtCom= 1.00D+00 WtEn= 0.00D+00
 Coeff-Com: -0.114D-04 0.449D-06-0.434D-04 0.532D-04 0.126D-04-0.857D-04
 Coeff-Com: -0.116D-03-0.208D-03-0.279D-03 0.230D-03-0.776D-03-0.842D-02
 Coeff-Com: -0.560D-02-0.300D-01-0.104D-01 0.593D-01 0.275D+00 0.278D+00
 Coeff-Com:  0.226D+00 0.217D+00
 Coeff:     -0.114D-04 0.449D-06-0.434D-04 0.532D-04 0.126D-04-0.857D-04
 Coeff:     -0.116D-03-0.208D-03-0.279D-03 0.230D-03-0.776D-03-0.842D-02
 Coeff:     -0.560D-02-0.300D-01-0.104D-01 0.593D-01 0.275D+00 0.278D+00
 Coeff:      0.226D+00 0.217D+00
 Gap=     0.020 Goal=   None    Shift=    0.000
 RMSDP=3.06D-09 MaxDP=4.35D-07 DE=-6.54D-13 OVMax= 8.30D-07

 SCF Done:  E(ROHF) =  -123.579633391     A.U. after   34 cycles
            NFock= 34  Conv=0.31D-08     -V/T= 2.7571
 <Sx>= 0.0000 <Sy>= 0.0000 <Sz>= 1.5000 <S**2>= 3.7500 S= 1.5000
 <L.S>=  0.00000000000    
 KE= 7.033087845696D+01 PE=-3.019002795552D+02 EE= 1.019420281542D+02
 Annihilation of the first spin contaminant:
 S**2 before annihilation     3.7500,   after     3.7500
 Leave Link  502 at Mon Feb 12 21:05:05 2018, MaxMem= 10737418240 cpu:            6493.0 elap:             243.5
 (Enter /home1/apps/gaussian/16rA.03/g16/l801.exe)
 Windowed orbitals will be sorted by symmetry type.
 GenMOA:  NOpAll=  4 NOp2=4 NOpUse=  4 JSym2X=1
 FoFJK:  IHMeth= 1 ICntrl=       0 DoSepK=F KAlg= 0 I1Cent=           0 FoldK=F
 IRaf=         0 NMat=       1 IRICut=       1 DoRegI=T DoRafI=F ISym2E= 1 IDoP0=0 IntGTp=1.
 FoFCou: FMM=F IPFlag=           8 FMFlag=      100000 FMFlg1=           0
         NFxFlg=           0 DoJE=F BraDBF=F KetDBF=F FulRan=T
         wScrn=  0.000000 ICntrl=         0 IOpCl=  1 I1Cent=           0 NGrid=           0
         NMat0=    1 NMatS0=      1 NMatT0=    0 NMatD0=    1 NMtDS0=    0 NMtDT0=    0
 Petite list used in FoFCou.
 <Sx>= 0.0000 <Sy>= 0.0000 <Sz>= 1.5000 <S**2>= 3.7500 S= 1.5000
 Range of M.O.s used for correlation:     1   407
 NBasis=   415 NAE=    10 NBE=     7 NFC=     0 NFV=     0
 NROrb=    407 NOA=    10 NOB=     7 NVA=   397 NVB=   400

 **** Warning!!: The largest alpha MO coefficient is  0.17457296D+03


 **** Warning!!: The largest beta MO coefficient is  0.17455595D+03

 Singles contribution to E2=   -0.7969785648D-02
 Leave Link  801 at Mon Feb 12 21:05:56 2018, MaxMem= 10737418240 cpu:            1624.6 elap:              50.8
 (Enter /home1/apps/gaussian/16rA.03/g16/l804.exe)
 Open-shell transformation, MDV= 10737418240 ITran=4 ISComp=2.
 Unit  1 TFree=       5192024 TCopy=       3708082.
 Semi-Direct transformation.
 ModeAB=           2 MOrb=            10 LenV=   10732346110
 LASXX=     83967637 LTotXX=    83967637 LenRXX=    83967637
 LTotAB=    84746805 MaxLAS=   669315570 LenRXY=   669315570
 NonZer=   680845880 LenScr=  1025273856 LnRSAI=           0
 LnScr1=           0 LExtra=    20154004 Total=   1798711067
 MaxDsk= 67108864000 SrtSym=           F ITran=            4
 DoSDTr:  NPSUse= 32
 JobTyp=1 Pass  1:  I=   1 to  10.
 (rs|ai) integrals will be sorted in core.
 Complete sort for first half transformation.
 First half transformation complete.
 Begin second half transformation for I=  10.
 Begin second half transformation for I=  10.
 Complete sort for second half transformation.
 Second half transformation complete.
 ModeAB=           2 MOrb=             7 LenV=   10732346110
 LASXX=     59071414 LTotXX=    59071414 LenRXX=   468520899
 LTotAB=    56697284 MaxLAS=   468520899 LenRXY=    56697284
 NonZer=   476592116 LenScr=   717691904 LnRSAI=           0
 LnScr1=           0 LExtra=   773437211 Total=   2016347298
 MaxDsk= 67108864000 SrtSym=           F ITran=            4
 DoSDTr:  NPSUse= 32
 JobTyp=2 Pass  1:  I=   1 to   7.
 (rs|ai) integrals will be sorted in core.
 Complete sort for first half transformation.
 First half transformation complete.
 Complete sort for second half transformation.
 Second half transformation complete.
 Spin components of T(2) and E(2):
     alpha-alpha T2 =       0.2901898404D-01 E2=     -0.1665968537D+00
     alpha-beta  T2 =       0.9689692735D-01 E2=     -0.5846308593D+00
     beta-beta   T2 =       0.1196434813D-01 E2=     -0.7381476993D-01
 ANorm=    0.1068333411D+01
 E2 =    -0.8330122686D+00 EUMP2 =    -0.12441264565927D+03
 (S**2,0)=  0.37500D+01           (S**2,1)=  0.37500D+01
 E(PUHF)=      -0.12357963339D+03        E(PMP2)=      -0.12441264566D+03
 Leave Link  804 at Mon Feb 12 21:32:45 2018, MaxMem= 10737418240 cpu:           51475.3 elap:            1608.7
 (Enter /home1/apps/gaussian/16rA.03/g16/l913.exe)
 CIDS:  MDV= 10737418240.
 IFCWin=0 IBDFC=1 NFBD=     0     0 NFCmp=     0     0 NFFFC=     0     0
 Using original routines for 1st iteration.
 Using DD4UQ or CC4UQ for 2nd and later iterations.
 Keep R2 and R3 ints in memory in symmetry-blocked form, NReq=4666752578.
 FoFCou: FMM=F IPFlag=           8 FMFlag=           0 FMFlg1=           0
         NFxFlg=           0 DoJE=F BraDBF=F KetDBF=F FulRan=T
         wScrn=  0.000000 ICntrl=       600 IOpCl=  0 I1Cent=           0 NGrid=           0
         NMat0=    1 NMatS0=  86320 NMatT0=    0 NMatD0=    1 NMtDS0=    0 NMtDT0=    0
 Petite list used in FoFCou.
 CIDS: In Core Option IDoMem=           1.
 CCSD(T)
 =======
 Iterations= 100 Convergence= 0.100D-06
 Produce multiple copies of IABC intergrals
 Iteration Nr.   1
 **********************
 DD1Dir will call FoFMem   1 times, MxPair=       206
 NAB=    70 NAA=    45 NBB=    21.
 DD1Dir will call FoFMem   1 times, MxPair=       206
 NAB=    70 NAA=    45 NBB=    21.
 MP4(R+Q)= -0.47120662D-01
 Maximum subspace dimension=  5
 A-vector RMS=  4.3587230D-04 Max=  6.8170380D-03 conv= 1.00D-05.
 RLE energy=       -0.8222030067
 E3=        0.57633177D-01        EROMP3=      -0.12435501248D+03
 E4(SDQ)=  -0.33510120D-01        ROMP4(SDQ)=  -0.12438852260D+03
 VARIATIONAL ENERGIES WITH THE FIRST-ORDER WAVEFUNCTION:
 DE(Corr)= -0.82205867     E(Corr)=     -124.40169206    
 NORM(A)=   0.10631812D+01
 Iteration Nr.   2
 **********************
 DD1Dir will call FoFMem   1 times, MxPair=       206
 NAB=    70 NAA=    45 NBB=    21.
 A-vector RMS=  2.8698248D-03 Max=  3.3565716D-02 conv= 1.00D-05.
 RLE energy=       -0.8061949419
 DE(Corr)= -0.76337392     E(CORR)=     -124.34300731     Delta= 5.87D-02
 NORM(A)=   0.10605219D+01
 Iteration Nr.   3
 **********************
 DD1Dir will call FoFMem   1 times, MxPair=       206
 NAB=    70 NAA=    45 NBB=    21.
 A-vector RMS=  1.9443622D-03 Max=  2.4717801D-02 conv= 1.00D-05.
 RLE energy=       -0.8060483771
 DE(Corr)= -0.77334081     E(CORR)=     -124.35297420     Delta=-9.97D-03
 NORM(A)=   0.10637956D+01
 Iteration Nr.   4
 **********************
 DD1Dir will call FoFMem   1 times, MxPair=       206
 NAB=    70 NAA=    45 NBB=    21.
 A-vector RMS=  1.9263978D-03 Max=  2.7884490D-02 conv= 1.00D-05.
 RLE energy=       -0.7939952455
 DE(Corr)= -0.77817496     E(CORR)=     -124.35780835     Delta=-4.83D-03
 NORM(A)=   0.10796077D+01
 Iteration Nr.   5
 **********************
 DD1Dir will call FoFMem   1 times, MxPair=       206
 NAB=    70 NAA=    45 NBB=    21.
 A-vector RMS=  6.2943125D-04 Max=  9.8820475D-03 conv= 1.00D-05.
 RLE energy=       -0.7998126646
 DE(Corr)= -0.79841899     E(CORR)=     -124.37805238     Delta=-2.02D-02
 NORM(A)=   0.10860235D+01
 Iteration Nr.   6
 **********************
 DD1Dir will call FoFMem   1 times, MxPair=       206
 NAB=    70 NAA=    45 NBB=    21.
 A-vector RMS=  6.4437854D-04 Max=  1.7118744D-02 conv= 1.00D-05.
 RLE energy=       -0.7987065631
 DE(Corr)= -0.79472987     E(CORR)=     -124.37436326     Delta= 3.69D-03
 NORM(A)=   0.11065173D+01
 Iteration Nr.   7
 **********************
 DD1Dir will call FoFMem   1 times, MxPair=       206
 NAB=    70 NAA=    45 NBB=    21.
 A-vector RMS=  4.0927066D-04 Max=  7.8000216D-03 conv= 1.00D-05.
 RLE energy=       -0.7991822780
 DE(Corr)= -0.79879471     E(CORR)=     -124.37842810     Delta=-4.06D-03
 NORM(A)=   0.11212757D+01
 Iteration Nr.   8
 **********************
 DD1Dir will call FoFMem   1 times, MxPair=       206
 NAB=    70 NAA=    45 NBB=    21.
 A-vector RMS=  3.4625275D-04 Max=  7.7856603D-03 conv= 1.00D-05.
 RLE energy=       -0.7997048741
 DE(Corr)= -0.79968403     E(CORR)=     -124.37931742     Delta=-8.89D-04
 NORM(A)=   0.11340220D+01
 Iteration Nr.   9
 **********************
 DD1Dir will call FoFMem   1 times, MxPair=       206
 NAB=    70 NAA=    45 NBB=    21.
 A-vector RMS=  2.1785352D-04 Max=  3.8242743D-03 conv= 1.00D-05.
 RLE energy=       -0.8002009611
 DE(Corr)= -0.79957311     E(CORR)=     -124.37920650     Delta= 1.11D-04
 NORM(A)=   0.11412460D+01
 Iteration Nr.  10
 **********************
 DD1Dir will call FoFMem   1 times, MxPair=       206
 NAB=    70 NAA=    45 NBB=    21.
 A-vector RMS=  1.3634487D-04 Max=  2.3979900D-03 conv= 1.00D-05.
 RLE energy=       -0.7997034670
 DE(Corr)= -0.79989191     E(CORR)=     -124.37952530     Delta=-3.19D-04
 NORM(A)=   0.11429081D+01
 Iteration Nr.  11
 **********************
 DD1Dir will call FoFMem   1 times, MxPair=       206
 NAB=    70 NAA=    45 NBB=    21.
 A-vector RMS=  9.2331117D-05 Max=  1.8870535D-03 conv= 1.00D-05.
 RLE energy=       -0.8001292448
 DE(Corr)= -0.80004579     E(CORR)=     -124.37967918     Delta=-1.54D-04
 NORM(A)=   0.11437918D+01
 Iteration Nr.  12
 **********************
 DD1Dir will call FoFMem   1 times, MxPair=       206
 NAB=    70 NAA=    45 NBB=    21.
 A-vector RMS=  8.1538890D-05 Max=  1.7604112D-03 conv= 1.00D-05.
 RLE energy=       -0.7999671046
 DE(Corr)= -0.79987761     E(CORR)=     -124.37951100     Delta= 1.68D-04
 NORM(A)=   0.11458833D+01
 Iteration Nr.  13
 **********************
 DD1Dir will call FoFMem   1 times, MxPair=       206
 NAB=    70 NAA=    45 NBB=    21.
 A-vector RMS=  7.2211220D-05 Max=  1.3084186D-03 conv= 1.00D-05.
 RLE energy=       -0.8000816566
 DE(Corr)= -0.80016965     E(CORR)=     -124.37980304     Delta=-2.92D-04
 NORM(A)=   0.11460450D+01
 Iteration Nr.  14
 **********************
 DD1Dir will call FoFMem   1 times, MxPair=       206
 NAB=    70 NAA=    45 NBB=    21.
 A-vector RMS=  5.4503994D-05 Max=  1.3349782D-03 conv= 1.00D-05.
 RLE energy=       -0.8001997113
 DE(Corr)= -0.80012562     E(CORR)=     -124.37975901     Delta= 4.40D-05
 NORM(A)=   0.11467688D+01
 Iteration Nr.  15
 **********************
 DD1Dir will call FoFMem   1 times, MxPair=       206
 NAB=    70 NAA=    45 NBB=    21.
 A-vector RMS=  3.1518879D-05 Max=  4.6720744D-04 conv= 1.00D-05.
 RLE energy=       -0.8001654479
 DE(Corr)= -0.80012862     E(CORR)=     -124.37976201     Delta=-2.99D-06
 NORM(A)=   0.11471818D+01
 Iteration Nr.  16
 **********************
 DD1Dir will call FoFMem   1 times, MxPair=       206
 NAB=    70 NAA=    45 NBB=    21.
 A-vector RMS=  2.1478332D-05 Max=  5.0033575D-04 conv= 1.00D-05.
 RLE energy=       -0.8001992787
 DE(Corr)= -0.80021753     E(CORR)=     -124.37985092     Delta=-8.89D-05
 NORM(A)=   0.11473072D+01
 Iteration Nr.  17
 **********************
 DD1Dir will call FoFMem   1 times, MxPair=       206
 NAB=    70 NAA=    45 NBB=    21.
 A-vector RMS=  1.3786952D-05 Max=  2.7854629D-04 conv= 1.00D-05.
 RLE energy=       -0.8002287771
 DE(Corr)= -0.80021318     E(CORR)=     -124.37984657     Delta= 4.35D-06
 NORM(A)=   0.11474592D+01
 Iteration Nr.  18
 **********************
 DD1Dir will call FoFMem   1 times, MxPair=       206
 NAB=    70 NAA=    45 NBB=    21.
 A-vector RMS=  8.7515245D-06 Max=  2.5097894D-04 conv= 1.00D-05.
 RLE energy=       -0.8002171952
 DE(Corr)= -0.80021350     E(CORR)=     -124.37984690     Delta=-3.23D-07
 NORM(A)=   0.11475744D+01
 Iteration Nr.  19
 **********************
 DD1Dir will call FoFMem   1 times, MxPair=       206
 NAB=    70 NAA=    45 NBB=    21.
 A-vector RMS=  4.6621956D-06 Max=  1.1096693D-04 conv= 1.00D-05.
 RLE energy=       -0.8002314195
 DE(Corr)= -0.80023781     E(CORR)=     -124.37987120     Delta=-2.43D-05
 NORM(A)=   0.11476372D+01
 Iteration Nr.  20
 **********************
 DD1Dir will call FoFMem   1 times, MxPair=       206
 NAB=    70 NAA=    45 NBB=    21.
 A-vector RMS=  3.7758351D-06 Max=  7.8434791D-05 conv= 1.00D-05.
 RLE energy=       -0.8002392274
 DE(Corr)= -0.80023393     E(CORR)=     -124.37986732     Delta= 3.87D-06
 NORM(A)=   0.11477130D+01
 Iteration Nr.  21
 **********************
 DD1Dir will call FoFMem   1 times, MxPair=       206
 NAB=    70 NAA=    45 NBB=    21.
 A-vector RMS=  3.0016328D-06 Max=  5.6632057D-05 conv= 1.00D-05.
 RLE energy=       -0.8002374910
 DE(Corr)= -0.80023696     E(CORR)=     -124.37987035     Delta=-3.03D-06
 NORM(A)=   0.11477678D+01
 Iteration Nr.  22
 **********************
 DD1Dir will call FoFMem   1 times, MxPair=       206
 NAB=    70 NAA=    45 NBB=    21.
 A-vector RMS=  1.7732414D-06 Max=  2.6406358D-05 conv= 1.00D-05.
 RLE energy=       -0.8002426290
 DE(Corr)= -0.80024266     E(CORR)=     -124.37987605     Delta=-5.70D-06
 NORM(A)=   0.11478141D+01
 Iteration Nr.  23
 **********************
 DD1Dir will call FoFMem   1 times, MxPair=       206
 NAB=    70 NAA=    45 NBB=    21.
 A-vector RMS=  1.9737114D-06 Max=  4.4453664D-05 conv= 1.00D-05.
 RLE energy=       -0.8002442397
 DE(Corr)= -0.80024168     E(CORR)=     -124.37987508     Delta= 9.72D-07
 NORM(A)=   0.11478430D+01
 Iteration Nr.  24
 **********************
 DD1Dir will call FoFMem   1 times, MxPair=       206
 NAB=    70 NAA=    45 NBB=    21.
 A-vector RMS=  1.3044642D-06 Max=  3.0650056D-05 conv= 1.00D-05.
 RLE energy=       -0.8002423437
 DE(Corr)= -0.80024243     E(CORR)=     -124.37987582     Delta=-7.49D-07
 NORM(A)=   0.11478627D+01
 Iteration Nr.  25
 **********************
 DD1Dir will call FoFMem   1 times, MxPair=       206
 NAB=    70 NAA=    45 NBB=    21.
 A-vector RMS=  8.8971445D-07 Max=  2.4486555D-05 conv= 1.00D-05.
 RLE energy=       -0.8002441962
 DE(Corr)= -0.80024437     E(CORR)=     -124.37987776     Delta=-1.94D-06
 NORM(A)=   0.11478722D+01
 Iteration Nr.  26
 **********************
 DD1Dir will call FoFMem   1 times, MxPair=       206
 NAB=    70 NAA=    45 NBB=    21.
 A-vector RMS=  6.0591827D-07 Max=  1.4117602D-05 conv= 1.00D-05.
 RLE energy=       -0.8002438152
 DE(Corr)= -0.80024306     E(CORR)=     -124.37987645     Delta= 1.31D-06
 NORM(A)=   0.11478732D+01
 Iteration Nr.  27
 **********************
 DD1Dir will call FoFMem   1 times, MxPair=       206
 NAB=    70 NAA=    45 NBB=    21.
 A-vector RMS=  3.8396149D-07 Max=  7.1305828D-06 conv= 1.00D-05.
 RLE energy=       -0.8002431596
 DE(Corr)= -0.80024314     E(CORR)=     -124.37987653     Delta=-7.41D-08
 NORM(A)=   0.11478737D+01
 CI/CC converged in   27 iterations to DelEn=-7.41D-08 Conv= 1.00D-07 ErrA1= 3.84D-07 Conv= 1.00D-05
 Wavefunction amplitudes converged. E(Corr)=     -124.37987653    
 Dominant configurations:
 ***********************
 Spin Case        I    J    A    B          Value
    BB            7         8            0.216437D+00
    BB            7        12            0.220310D+00
    BB            7        21            0.132059D+00
 Largest amplitude= 2.20D-01
 Time for triples=    89183.85 seconds.
 T4(CCSD)= -0.37879176D-01
 T5(CCSD)=  0.65061616D-02
 CCSD(T)= -0.12441124954D+03
 Discarding MO integrals.
 Leave Link  913 at Mon Feb 12 22:41:03 2018, MaxMem= 10737418240 cpu:          131110.9 elap:            4097.5
 (Enter /home1/apps/gaussian/16rA.03/g16/l601.exe)
 Copying SCF densities to generalized density rwf, IOpCl= 0 IROHF=1.

 **********************************************************************

            Population analysis using the SCF density.

 **********************************************************************

 Orbital symmetries:
       Occupied  (SG) (SG) (PI) (PI) (SG) (?A) (SG) (PI) (PI) (?A)
       Virtual   (SG) (PI) (PI) (SG) (SG) (SG) (DLTA) (DLTA) (PI)
                 (PI) (PI) (PI) (SG) (SG) (SG) (SG) (PI) (PI) (DLTA)
                 (DLTA) (PI) (PI) (SG) (PI) (PI) (SG) (DLTA) (DLTA)
                 (SG) (PHI) (PHI) (SG) (PI) (PI) (SG) (PI) (PI)
                 (?A) (?A) (SG) (PI) (PI) (PI) (PI) (DLTA) (DLTA)
                 (SG) (SG) (SG) (PI) (PI) (SG) (PHI) (PHI) (?B)
                 (?B) (DLTA) (DLTA) (?B) (PI) (PI) (PHI) (PHI)
                 (SG) (DLTA) (PI) (PI) (DLTA) (DLTA) (DLTA) (PI)
                 (PI) (PHI) (PHI) (SG) (DLTA) (DLTA) (PI) (PI)
                 (SG) (PI) (PI) (SG) (SG) (DLTA) (DLTA) (PI) (PI)
                 (SG) (SG) (PI) (PI) (?C) (?C) (SG) (?D) (?D) (PHI)
                 (PHI) (PI) (PI) (?A) (?A) (?A) (?A) (PI) (PI)
                 (SG) (?E) (?E) (PHI) (PHI) (DLTA) (DLTA) (?E)
                 (?C) (?C) (PHI) (PHI) (PI) (PI) (DLTA) (DLTA)
                 (SG) (?F) (?F) (?F) (?F) (SG) (DLTA) (DLTA) (SG)
                 (PI) (PI) (PHI) (PHI) (SG) (PI) (PI) (SG) (DLTA)
                 (DLTA) (PI) (PI) (DLTA) (DLTA) (SG) (PI) (PI)
                 (SG) (PI) (PI) (SG) (DLTA) (DLTA) (PI) (PI) (SG)
                 (SG) (PHI) (PHI) (DLTA) (DLTA) (?D) (?D) (?C)
                 (?C) (?F) (?F) (?F) (?F) (DLTA) (DLTA) (SG) (?C)
                 (?C) (PHI) (PHI) (DLTA) (DLTA) (PI) (PI) (SG)
                 (?G) (?G) (?G) (?G) (SG) (SG) (?C) (?C) (PHI)
                 (PHI) (SG) (DLTA) (DLTA) (SG) (PI) (PI) (PI) (PI)
                 (SG) (SG) (PHI) (PHI) (?C) (?C) (DLTA) (DLTA)
                 (PHI) (PHI) (SG) (PI) (PI) (DLTA) (DLTA) (PI)
                 (PI) (DLTA) (DLTA) (SG) (DLTA) (DLTA) (PI) (PI)
                 (SG) (PI) (PI) (SG) (PI) (PI) (SG) (PHI) (PHI)
                 (DLTA) (DLTA) (SG) (?C) (?C) (?F) (?F) (?F) (?F)
                 (DLTA) (DLTA) (?H) (PI) (PI) (?H) (?H) (?D) (?D)
                 (PHI) (PHI) (DLTA) (DLTA) (PI) (PI) (SG) (SG)
                 (PI) (PI) (SG) (DLTA) (DLTA) (PI) (PI) (SG) (SG)
                 (SG) (?C) (?C) (?F) (?F) (DLTA) (DLTA) (?F) (?F)
                 (SG) (?I) (?I) (?J) (?J) (?J) (?J) (DLTA) (DLTA)
                 (?J) (?J) (?I) (?K) (?K) (?L) (?L) (?L) (?L) (?L)
                 (?L) (?L) (?L) (?L) (?L) (?K) (?L) (?L) (DLTA)
                 (DLTA) (PI) (PI) (SG) (DLTA) (DLTA) (PI) (PI)
                 (SG) (PI) (PI) (SG) (SG) (DLTA) (DLTA) (PI) (PI)
                 (SG) (PI) (PI) (SG) (SG) (SG) (DLTA) (DLTA) (PI)
                 (PI) (SG) (PI) (PI) (SG) (SG) (DLTA) (DLTA) (PI)
                 (PI) (SG) (PI) (PI) (SG) (SG) (PI) (PI) (SG) (DLTA)
                 (DLTA) (PI) (PI) (SG) (SG) (SG) (PI) (PI) (SG)
                 (SG) (DLTA) (DLTA) (PI) (PI) (SG) (PI) (PI) (SG)
                 (SG) (PI) (PI) (SG) (SG) (SG) (PI) (PI) (SG) (SG)
                 (PI) (PI) (SG) (SG) (PI) (PI) (SG) (SG) (SG) (PI)
                 (PI) (SG) (SG) (SG) (SG) (SG) (SG) (SG)
 Unable to determine electronic state:  an orbital has unidentified symmetry.
 Alpha  occ. eigenvalues --   -4.20011  -2.78528  -2.77316  -2.77316  -0.52198
 Alpha  occ. eigenvalues --   -0.52198  -0.50649  -0.48487  -0.45585  -0.31299
 Alpha virt. eigenvalues --   -0.00096   0.02169   0.02169   0.02476   0.03613
 Alpha virt. eigenvalues --    0.05831   0.06256   0.06266   0.06307   0.06307
 Alpha virt. eigenvalues --    0.07254   0.07254   0.08369   0.12971   0.17113
 Alpha virt. eigenvalues --    0.18350   0.18854   0.18854   0.20050   0.20174
 Alpha virt. eigenvalues --    0.20830   0.20830   0.25115   0.25903   0.25903
 Alpha virt. eigenvalues --    0.32870   0.40762   0.40817   0.40905   0.42822
 Alpha virt. eigenvalues --    0.42822   0.45417   0.47805   0.47805   0.48352
 Alpha virt. eigenvalues --    0.52627   0.52627   0.53670   0.54240   0.60225
 Alpha virt. eigenvalues --    0.61311   0.61311   0.66552   0.66552   0.67485
 Alpha virt. eigenvalues --    0.67525   0.69232   0.94194   0.96795   1.05469
 Alpha virt. eigenvalues --    1.05469   1.14272   1.17293   1.17293   1.20274
 Alpha virt. eigenvalues --    1.20458   1.20461   1.20543   1.21579   1.25131
 Alpha virt. eigenvalues --    1.25131   1.28986   1.28986   1.29970   1.33782
 Alpha virt. eigenvalues --    1.34691   1.34691   1.35093   1.41119   1.41427
 Alpha virt. eigenvalues --    1.43693   1.43693   1.50088   1.50088   1.52318
 Alpha virt. eigenvalues --    1.56669   1.56795   1.69213   1.69213   1.75780
 Alpha virt. eigenvalues --    1.91540   1.91540   1.92992   2.12477   2.34788
 Alpha virt. eigenvalues --    2.35115   2.53338   2.53338   2.57617   2.75875
 Alpha virt. eigenvalues --    2.83357   2.83357   2.85672   2.85672   2.98482
 Alpha virt. eigenvalues --    3.04768   3.04768   3.12699   3.12699   3.15004
 Alpha virt. eigenvalues --    3.15004   3.18449   3.20278   3.22035   3.22035
 Alpha virt. eigenvalues --    3.22566   3.23261   3.29906   3.33836   3.34335
 Alpha virt. eigenvalues --    3.34343   3.34957   3.35735   3.35735   3.37060
 Alpha virt. eigenvalues --    3.48920   3.48921   3.51344   3.51344   3.55805
 Alpha virt. eigenvalues --    3.55805   3.66012   3.66507   3.72994   3.80492
 Alpha virt. eigenvalues --    3.80492   3.82563   3.82563   3.92809   4.04184
 Alpha virt. eigenvalues --    4.05070   4.24376   4.46288   4.46288   4.55425
 Alpha virt. eigenvalues --    4.55425   4.76770   5.00644   5.00644   5.24784
 Alpha virt. eigenvalues --    5.25965   5.26410   5.68355   5.68355   5.96061
 Alpha virt. eigenvalues --    5.96313   6.20989   6.22991   6.22991   6.58181
 Alpha virt. eigenvalues --    6.75248   6.75248   6.90978   7.13317   7.15351
 Alpha virt. eigenvalues --    7.15351   7.16274   7.46357   8.04874   8.07079
 Alpha virt. eigenvalues --    8.07079   8.09928   8.12145   8.19590   8.19590
 Alpha virt. eigenvalues --    8.20175   8.20176   8.27072   8.27072   8.32579
 Alpha virt. eigenvalues --    8.32579   8.52763   8.54497   8.63294   8.81551
 Alpha virt. eigenvalues --    8.81561   8.84315   8.84315   8.97333   8.98817
 Alpha virt. eigenvalues --    9.23697   9.23697   9.29180   9.53909   9.53909
 Alpha virt. eigenvalues --    9.59492   9.59492   9.61543   9.61543   9.62600
 Alpha virt. eigenvalues --    9.62607   9.84466   9.84466  10.01788  10.23859
 Alpha virt. eigenvalues --   10.25347  10.54436  10.56495  10.56495  11.09010
 Alpha virt. eigenvalues --   11.09010  11.74396  12.15805  13.04559  13.04559
 Alpha virt. eigenvalues --   13.23453  13.23453  13.37247  13.37328  13.41642
 Alpha virt. eigenvalues --   13.41642  13.98013  14.00207  14.00207  14.18437
 Alpha virt. eigenvalues --   14.18567  14.36556  14.36556  14.48243  14.48503
 Alpha virt. eigenvalues --   14.49269  14.64413  14.67771  14.78181  14.78181
 Alpha virt. eigenvalues --   15.02410  15.85024  15.85024  17.13083  17.39802
 Alpha virt. eigenvalues --   17.39802  17.91997  18.20606  18.20606  18.36265
 Alpha virt. eigenvalues --   18.39190  18.64624  19.31541  19.31541  19.32214
 Alpha virt. eigenvalues --   19.32214  19.33180  19.33180  19.51119  19.53790
 Alpha virt. eigenvalues --   19.78008  19.84012  19.84012  19.91211  19.91287
 Alpha virt. eigenvalues --   19.92748  19.92748  19.96990  19.96990  20.14653
 Alpha virt. eigenvalues --   20.16940  21.00948  21.00948  21.15248  21.80237
 Alpha virt. eigenvalues --   23.79160  23.79160  24.90954  27.35763  27.39486
 Alpha virt. eigenvalues --   27.43723  27.43723  28.26611  34.63434  37.55084
 Alpha virt. eigenvalues --   40.92948  40.92956  40.93810  40.93810  41.05433
 Alpha virt. eigenvalues --   41.07950  41.30491  41.30491  41.80836  43.99355
 Alpha virt. eigenvalues --   43.99419  44.01364  44.01364  44.02507  44.02507
 Alpha virt. eigenvalues --   44.08611  44.11251  44.23518  44.23518  44.28265
 Alpha virt. eigenvalues --   45.68689  45.68866  45.69418  45.69418  45.70556
 Alpha virt. eigenvalues --   45.70556  45.72247  45.72317  45.73932  45.76556
 Alpha virt. eigenvalues --   45.79559  45.79559  45.81851  45.83641  45.83641
 Alpha virt. eigenvalues --   45.96435  45.98661  46.76132  46.76132  47.57878
 Alpha virt. eigenvalues --   47.64272  47.68101  47.73773  47.73773  48.00927
 Alpha virt. eigenvalues --   48.05097  48.05097  49.29594  71.95876  79.95541
 Alpha virt. eigenvalues --   79.99036  80.02300  80.02300  80.49258  93.49734
 Alpha virt. eigenvalues --   93.49734  94.27026 128.77746 140.04535 142.53821
 Alpha virt. eigenvalues --  142.56192 142.60050 142.60050 143.00891 178.09412
 Alpha virt. eigenvalues --  178.09412 178.81662 229.79029 296.11212 296.12256
 Alpha virt. eigenvalues --  296.16507 296.16507 296.49083 336.24223 336.24223
 Alpha virt. eigenvalues --  336.93258 413.33390 637.79905 637.79905 638.45200
 Alpha virt. eigenvalues --  727.52920 727.53234 727.57064 727.57064 727.82106
 Alpha virt. eigenvalues --  752.40719 817.607091231.696911231.696911232.31415
 Alpha virt. eigenvalues -- 1394.853422253.563932253.564532253.591642253.59164
 Alpha virt. eigenvalues -- 2253.756142451.483122451.483122452.057012644.69036
 Alpha virt. eigenvalues -- 5098.036435098.036435098.560255139.18559**********
 Alpha virt. eigenvalues -- **************************************************
 Alpha virt. eigenvalues -- **************************************************
 Alpha virt. eigenvalues -- **************************************************
 Alpha virt. eigenvalues -- **************************************************
 Alpha virt. eigenvalues -- ********************
     Molecular Orbital Coefficients:
                           3         4         5         6         7
                           O         O         O         O         O
     Eigenvalues --    -2.77316  -2.77316  -0.52198  -0.52198  -0.50649
   1 1   Fe 1S          0.00000   0.00000   0.00000   0.00000   0.00000
   2        2S          0.00000   0.00000  -0.00000   0.00000  -0.00000
[...]
 197       73F 0        0.00075   0.00037   0.00037  -0.00000
 198       73F+1        0.00002   0.00002   0.00000   0.00002
 199       73F-1        0.00002   0.00002   0.00000   0.00002
 200       73F+2        0.00003   0.00003   0.00000   0.00003
 201       73F-2        0.00005   0.00003   0.00003  -0.00000
 202       73F+3        0.00003   0.00002   0.00002   0.00000
 203       73F-3        0.00003   0.00002   0.00002   0.00000
 204       74F 0        0.00231   0.00116   0.00116   0.00000
 205       74F+1        0.00003   0.00003   0.00000   0.00003
 206       74F-1        0.00003   0.00003   0.00000   0.00003
 207       74F+2        0.00007   0.00007   0.00000   0.00007
 208       74F-2        0.00018   0.00009   0.00009  -0.00000
 209       74F+3        0.00001   0.00000   0.00000   0.00000
 210       74F-3        0.00001   0.00000   0.00000   0.00000
 211       75F 0        0.00082   0.00041   0.00041   0.00000
 212       75F+1        0.00000   0.00000   0.00000   0.00000
 213       75F-1        0.00000   0.00000   0.00000   0.00000
 214       75F+2        0.00001   0.00001  -0.00000   0.00001
 215       75F-2        0.00006   0.00003   0.00003  -0.00000
 216       75F+3        0.00000   0.00000   0.00000   0.00000
 217       75F-3        0.00000   0.00000   0.00000   0.00000
 218       76G 0        0.00000   0.00000   0.00000   0.00000
 219       76G+1        0.00000   0.00000   0.00000   0.00000
 220       76G-1        0.00000   0.00000   0.00000   0.00000
 221       76G+2        0.00000   0.00000   0.00000   0.00000
 222       76G-2       -0.00000  -0.00000  -0.00000   0.00000
 223       76G+3        0.00000   0.00000   0.00000   0.00000
 224       76G-3        0.00000   0.00000   0.00000   0.00000
 225       76G+4        0.00000   0.00000   0.00000   0.00000
 226       76G-4        0.00000   0.00000   0.00000  -0.00000
 227       77G 0        0.00000   0.00000   0.00000   0.00000
 228       77G+1       -0.00000  -0.00000   0.00000  -0.00000
 229       77G-1       -0.00000  -0.00000   0.00000  -0.00000
 230       77G+2        0.00000   0.00000   0.00000   0.00000
 231       77G-2       -0.00000  -0.00000  -0.00000   0.00000
 232       77G+3        0.00000   0.00000   0.00000   0.00000
 233       77G-3        0.00000   0.00000   0.00000   0.00000
 234       77G+4        0.00000   0.00000   0.00000   0.00000
 235       77G-4        0.00000   0.00000   0.00000  -0.00000
 236       78G 0        0.00004   0.00002   0.00002   0.00000
 237       78G+1        0.00000   0.00000  -0.00000   0.00000
 238       78G-1        0.00000   0.00000  -0.00000   0.00000
 239       78G+2        0.00000   0.00000   0.00000   0.00000
 240       78G-2        0.00000   0.00000   0.00000  -0.00000
 241       78G+3        0.00000   0.00000   0.00000   0.00000
 242       78G-3        0.00000   0.00000   0.00000   0.00000
 243       78G+4        0.00000   0.00000   0.00000   0.00000
 244       78G-4        0.00000   0.00000   0.00000  -0.00000
 245       79G 0        0.00034   0.00017   0.00017  -0.00000
 246       79G+1        0.00001   0.00001   0.00000   0.00001
 247       79G-1        0.00001   0.00001   0.00000   0.00001
 248       79G+2        0.00001   0.00001   0.00000   0.00001
 249       79G-2        0.00000   0.00000   0.00000  -0.00000
 250       79G+3        0.00000   0.00000   0.00000   0.00000
 251       79G-3        0.00000   0.00000   0.00000   0.00000
 252       79G+4        0.00000   0.00000   0.00000   0.00000
 253       79G-4        0.00000   0.00000   0.00000  -0.00000
 254       80G 0        0.00030   0.00015   0.00015   0.00000
 255       80G+1        0.00000   0.00001  -0.00000   0.00001
 256       80G-1        0.00000   0.00001  -0.00000   0.00001
 257       80G+2        0.00000   0.00000   0.00000   0.00000
 258       80G-2        0.00000   0.00000   0.00000  -0.00000
 259       80G+3        0.00000   0.00000   0.00000   0.00000
 260       80G-3        0.00000   0.00000   0.00000   0.00000
 261       80G+4        0.00000   0.00000   0.00000   0.00000
 262       80G-4        0.00000   0.00000   0.00000  -0.00000
 263       81H 0        0.00000   0.00000   0.00000   0.00000
 264       81H+1        0.00000   0.00000   0.00000   0.00000
 265       81H-1        0.00000   0.00000   0.00000   0.00000
 266       81H+2        0.00000   0.00000   0.00000   0.00000
 267       81H-2        0.00000   0.00000   0.00000  -0.00000
 268       81H+3        0.00000   0.00000   0.00000   0.00000
 269       81H-3        0.00000   0.00000   0.00000   0.00000
 270       81H+4        0.00000   0.00000   0.00000  -0.00000
 271       81H-4        0.00000   0.00000   0.00000  -0.00000
 272       81H+5        0.00000   0.00000   0.00000   0.00000
 273       81H-5        0.00000   0.00000   0.00000   0.00000
 274       82H 0        0.00000   0.00000   0.00000  -0.00000
 275       82H+1        0.00000   0.00000   0.00000  -0.00000
 276       82H-1        0.00000   0.00000   0.00000  -0.00000
 277       82H+2        0.00000   0.00000   0.00000   0.00000
 278       82H-2        0.00000   0.00000   0.00000  -0.00000
 279       82H+3        0.00000   0.00000   0.00000   0.00000
 280       82H-3        0.00000   0.00000   0.00000   0.00000
 281       82H+4        0.00000   0.00000   0.00000  -0.00000
 282       82H-4       -0.00000  -0.00000  -0.00000   0.00000
 283       82H+5        0.00000   0.00000   0.00000   0.00000
 284       82H-5        0.00000   0.00000   0.00000   0.00000
 285       83H 0        0.00001   0.00000   0.00000   0.00000
 286       83H+1        0.00000   0.00000   0.00000   0.00000
 287       83H-1        0.00000   0.00000   0.00000   0.00000
 288       83H+2       -0.00000  -0.00000   0.00000  -0.00000
 289       83H-2        0.00000   0.00000   0.00000  -0.00000
 290       83H+3        0.00000   0.00000   0.00000   0.00000
 291       83H-3        0.00000   0.00000   0.00000   0.00000
 292       83H+4        0.00000   0.00000   0.00000   0.00000
 293       83H-4        0.00000   0.00000   0.00000  -0.00000
 294       83H+5        0.00000   0.00000   0.00000   0.00000
 295       83H-5        0.00000   0.00000   0.00000   0.00000
 296       84H 0        0.00002   0.00001   0.00001  -0.00000
 297       84H+1        0.00000   0.00000   0.00000   0.00000
 298       84H-1        0.00000   0.00000   0.00000   0.00000
 299       84H+2       -0.00000  -0.00000   0.00000  -0.00000
 300       84H-2       -0.00000  -0.00000  -0.00000   0.00000
 301       84H+3        0.00000  -0.00000   0.00000  -0.00000
 302       84H-3        0.00000  -0.00000   0.00000  -0.00000
 303       84H+4        0.00000   0.00000   0.00000   0.00000
 304       84H-4        0.00000   0.00000   0.00000  -0.00000
 305       84H+5        0.00000   0.00000   0.00000   0.00000
 306       84H-5        0.00000   0.00000   0.00000   0.00000
 307       85I 0        0.00000   0.00000   0.00000   0.00000
 308       85I+1        0.00000   0.00000  -0.00000   0.00000
 309       85I-1        0.00000   0.00000  -0.00000   0.00000
 310       85I+2        0.00000   0.00000   0.00000   0.00000
 311       85I-2        0.00000   0.00000   0.00000  -0.00000
 312       85I+3        0.00000   0.00000  -0.00000   0.00000
 313       85I-3        0.00000   0.00000  -0.00000   0.00000
 314       85I+4        0.00000   0.00000   0.00000   0.00000
 315       85I-4        0.00000   0.00000   0.00000  -0.00000
 316       85I+5        0.00000   0.00000   0.00000   0.00000
 317       85I-5        0.00000   0.00000   0.00000   0.00000
 318       85I+6        0.00000   0.00000   0.00000   0.00000
 319       85I-6        0.00000   0.00000   0.00000  -0.00000
 320       86I 0       -0.00000  -0.00000  -0.00000   0.00000
 321       86I+1       -0.00000  -0.00000   0.00000  -0.00000
 322       86I-1       -0.00000  -0.00000   0.00000  -0.00000
 323       86I+2        0.00000   0.00000   0.00000   0.00000
 324       86I-2        0.00000   0.00000   0.00000  -0.00000
 325       86I+3        0.00000   0.00000   0.00000   0.00000
 326       86I-3        0.00000   0.00000   0.00000   0.00000
 327       86I+4        0.00000   0.00000   0.00000   0.00000
 328       86I-4        0.00000   0.00000   0.00000  -0.00000
 329       86I+5        0.00000   0.00000   0.00000   0.00000
 330       86I-5        0.00000   0.00000   0.00000   0.00000
 331       86I+6        0.00000   0.00000   0.00000   0.00000
 332       86I-6        0.00000   0.00000   0.00000  -0.00000
 333 2   H  1S         -0.00000  -0.00000  -0.00000   0.00000
 334        2S          0.00007   0.00004   0.00004  -0.00000
 335        3S          0.00391   0.00195   0.00195  -0.00000
 336        4S          0.02792   0.01396   0.01396  -0.00000
 337        5S          0.13819   0.06910   0.06910   0.00000
 338        6S          0.38665   0.19333   0.19333  -0.00000
 339        7S          0.49834   0.24917   0.24917   0.00000
 340        8S          0.19992   0.09996   0.09996  -0.00000
 341        9S          0.01305   0.00652   0.00652   0.00000
 342       10PX         0.00001   0.00001   0.00000   0.00001
 343       10PY         0.00001   0.00001   0.00000   0.00001
 344       10PZ         0.00009   0.00004   0.00004   0.00000
 345       11PX         0.00014   0.00014   0.00000   0.00014
 346       11PY         0.00014   0.00014   0.00000   0.00014
 347       11PZ         0.00105   0.00053   0.00053   0.00000
 348       12PX         0.00124   0.00120   0.00003   0.00117
 349       12PY         0.00124   0.00120   0.00003   0.00117
 350       12PZ         0.00769   0.00385   0.00385   0.00000
 351       13PX         0.00137   0.00125   0.00012   0.00113
 352       13PY         0.00137   0.00125   0.00012   0.00113
 353       13PZ         0.00214   0.00107   0.00107  -0.00000
 354       14PX         0.00030   0.00026   0.00005   0.00021
 355       14PY         0.00030   0.00026   0.00005   0.00021
 356       14PZ        -0.00105  -0.00052  -0.00052   0.00000
 357       15D 0        0.00004   0.00002   0.00002   0.00000
 358       15D+1        0.00001   0.00001   0.00000   0.00001
 359       15D-1        0.00001   0.00001   0.00000   0.00001
 360       15D+2        0.00000   0.00000   0.00000   0.00000
 361       15D-2        0.00000   0.00000   0.00000  -0.00000
 362       16D 0        0.00064   0.00032   0.00032   0.00000
 363       16D+1        0.00020   0.00020   0.00001   0.00019
 364       16D-1        0.00020   0.00020   0.00001   0.00019
 365       16D+2        0.00001   0.00001  -0.00000   0.00001
 366       16D-2        0.00003   0.00002   0.00002  -0.00000
 367       17D 0        0.00273   0.00137   0.00137  -0.00000
 368       17D+1        0.00039   0.00032   0.00008   0.00024
 369       17D-1        0.00039   0.00032   0.00008   0.00024
 370       17D+2        0.00006   0.00006  -0.00000   0.00006
 371       17D-2        0.00015   0.00008   0.00008  -0.00000
 372       18D 0        0.00205   0.00102   0.00102   0.00000
 373       18D+1        0.00008   0.00002   0.00005  -0.00003
 374       18D-1        0.00008   0.00002   0.00005  -0.00003
 375       18D+2        0.00005   0.00005  -0.00000   0.00005
 376       18D-2        0.00008   0.00004   0.00004   0.00000
 377       19F 0        0.00003   0.00001   0.00001   0.00000
 378       19F+1        0.00001   0.00001   0.00000   0.00001
 379       19F-1        0.00001   0.00001   0.00000   0.00001
 380       19F+2        0.00000   0.00000   0.00000   0.00000
 381       19F-2        0.00000   0.00000   0.00000  -0.00000
 382       19F+3       -0.00000  -0.00000  -0.00000   0.00000
 383       19F-3       -0.00000  -0.00000  -0.00000   0.00000
 384       20F 0        0.00056   0.00028   0.00028  -0.00000
 385       20F+1        0.00007   0.00006   0.00000   0.00006
 386       20F-1        0.00007   0.00006   0.00000   0.00006
 387       20F+2        0.00002   0.00002   0.00000   0.00002
 388       20F-2        0.00005   0.00002   0.00002  -0.00000
 389       20F+3        0.00000   0.00000   0.00000  -0.00000
 390       20F-3        0.00000   0.00000   0.00000  -0.00000
 391       21F 0        0.00224   0.00112   0.00112  -0.00000
 392       21F+1        0.00000  -0.00003   0.00003  -0.00005
 393       21F-1        0.00000  -0.00003   0.00003  -0.00005
 394       21F+2        0.00000   0.00000  -0.00000   0.00000
 395       21F-2       -0.00001  -0.00000  -0.00000   0.00000
 396       21F+3       -0.00000  -0.00000  -0.00000  -0.00000
 397       21F-3       -0.00000  -0.00000  -0.00000  -0.00000
 398       22G 0        0.00001   0.00001   0.00001  -0.00000
 399       22G+1        0.00001   0.00001   0.00000   0.00001
 400       22G-1        0.00001   0.00001   0.00000   0.00001
 401       22G+2        0.00000   0.00000   0.00000   0.00000
 402       22G-2        0.00000   0.00000   0.00000  -0.00000
 403       22G+3        0.00000   0.00000   0.00000   0.00000
 404       22G-3        0.00000   0.00000   0.00000   0.00000
 405       22G+4       -0.00000  -0.00000  -0.00000   0.00000
 406       22G-4        0.00000   0.00000   0.00000  -0.00000
 407       23G 0        0.00033   0.00017   0.00017  -0.00000
 408       23G+1       -0.00008  -0.00006  -0.00002  -0.00003
 409       23G-1       -0.00008  -0.00006  -0.00002  -0.00003
 410       23G+2       -0.00002  -0.00002  -0.00000  -0.00002
 411       23G-2       -0.00002  -0.00001  -0.00001   0.00000
 412       23G+3       -0.00000  -0.00000   0.00000  -0.00000
 413       23G-3       -0.00000  -0.00000   0.00000  -0.00000
 414       23G+4        0.00000   0.00000   0.00000  -0.00000
 415       23G-4       -0.00000  -0.00000  -0.00000   0.00000
          Condensed to atoms (all electrons):
               1          2
     1  Fe  15.312694   0.392795
     2  H    0.392795   0.901716
          Atomic-Atomic Spin Densities.
               1          2
     1  Fe   2.987936   0.005851
     2  H    0.005851   0.000363
 Mulliken charges and spin densities:
               1          2
     1  Fe   0.294511   2.993787
     2  H   -0.294511   0.006213
 Sum of Mulliken charges =  -0.00000   3.00000
 Mulliken charges and spin densities with hydrogens summed into heavy atoms:
               1          2
     1  Fe  -0.000000   3.000000
 Electronic spatial extent (au):  <R**2>=             42.6795
 Charge=             -0.0000 electrons
 Dipole moment (field-independent basis, Debye):
    X=              0.0000    Y=              0.0000    Z=              3.7564  Tot=              3.7564
 Quadrupole moment (field-independent basis, Debye-Ang):
   XX=            -16.0720   YY=            -16.0720   ZZ=            -16.3250
   XY=              0.0000   XZ=              0.0000   YZ=              0.0000
 Traceless Quadrupole moment (field-independent basis, Debye-Ang):
   XX=              0.0843   YY=              0.0843   ZZ=             -0.1687
   XY=              0.0000   XZ=              0.0000   YZ=              0.0000
 Octapole moment (field-independent basis, Debye-Ang**2):
  XXX=              0.0000  YYY=              0.0000  ZZZ=             12.9314  XYY=              0.0000
  XXY=              0.0000  XXZ=              3.1663  XZZ=              0.0000  YZZ=              0.0000
  YYZ=              3.1663  XYZ=              0.0000
 Hexadecapole moment (field-independent basis, Debye-Ang**3):
 XXXX=            -26.7136 YYYY=            -26.7136 ZZZZ=            -43.2288 XXXY=              0.0000
 XXXZ=              0.0000 YYYX=              0.0000 YYYZ=              0.0000 ZZZX=              0.0000
 ZZZY=              0.0000 XXYY=             -9.2214 XXZZ=            -11.2191 YYZZ=            -11.2191
 XXYZ=              0.0000 YYXZ=              0.0000 ZZXY=              0.0000
 N-N= 6.047739553371D+00 E-N=-3.019002796971D+02  KE= 7.033087845696D+01
 Symmetry A1   KE= 2.943688259431D+01
 Symmetry A2   KE= 1.227775059766D+01
 Symmetry B1   KE= 1.430812261713D+01
 Symmetry B2   KE= 1.430812264767D+01
 Symmetry A1   SP= 1.000000000000D+00
 Symmetry A2   SP=-1.138909812508D-16
 Symmetry B1   SP= 1.000000000000D+00
 Symmetry B2   SP= 1.000000000000D+00
 Orbital energies and kinetic energies (alpha):
                                 1                 2
   3         O                -2.773163          3.949573
   4         O                -2.773163          3.949573
   5         O                -0.521984          2.899799
   6         O                -0.521984          6.138875
   7         O                -0.506488          2.542928
   8         O                -0.484866          6.408977
   9         O                -0.455848          6.408977
  10         O                -0.312991          6.441675
  11         V                -0.000965          0.244890
  12         V                 0.021689          0.038178
  13         V                 0.021689          0.038178
  14         V                 0.024756          0.027505
  15         V                 0.036127          0.264654
 Total kinetic energy from orbitals= 8.959050707127D+01
                          Isotropic Fermi Contact Couplings
        Atom                 a.u.       MegaHertz       Gauss      10(-4) cm-1
     1  Fe(57)             0.00000       0.00000       0.00000       0.00000
     2  H(1)              -0.00000      -0.00000      -0.00000      -0.00000
 --------------------------------------------------------
       Center         ----  Spin Dipole Couplings  ----
                      3XX-RR        3YY-RR        3ZZ-RR
 --------------------------------------------------------
     1   Atom        0.002843      0.002846     -0.005689
     2   Atom       -0.135305     -0.135305      0.270610
 --------------------------------------------------------
                        XY            XZ            YZ
 --------------------------------------------------------
     1   Atom        0.000000      0.000000      0.000000
     2   Atom        0.000000      0.000000      0.000000
 --------------------------------------------------------


 ---------------------------------------------------------------------------------
              Anisotropic Spin Dipole Couplings in Principal Axis System
 ---------------------------------------------------------------------------------

       Atom             a.u.   MegaHertz   Gauss  10(-4) cm-1        Axes

              Baa    -0.0057    -0.098    -0.035    -0.033  0.0000  0.0000  1.0000
     1 Fe(57) Bbb     0.0028     0.049     0.018     0.016  1.0000  0.0000  0.0000
              Bcc     0.0028     0.049     0.018     0.016 -0.0000  1.0000  0.0000
 
              Baa    -0.1353   -72.192   -25.760   -24.081  1.0000  0.0000  0.0000
     2 H(1)   Bbb    -0.1353   -72.192   -25.760   -24.081 -0.0000  1.0000  0.0000
              Bcc     0.2706   144.384    51.520    48.161  0.0000  0.0000  1.0000
 

 ---------------------------------------------------------------------------------

 No NMR shielding tensors so no spin-rotation constants.
 Leave Link  601 at Mon Feb 12 22:41:18 2018, MaxMem= 10737418240 cpu:             447.6 elap:              14.5
 (Enter /home1/apps/gaussian/16rA.03/g16/l9999.exe)

 Test job not archived.
 1\1\GINC-C448-011\SP\ROCCSD(T)-Full\Gen\Fe1H1(4)\GWANG18\12-Feb-2018\2
 \\#P ROCCSD(T)=(maxcyc=100, Full)/Gen SCF=(maxcycle=400, symm) Pseudo=
 Read Integral(NoXCTest) Pop=Regular MaxDisk=500GB Guess=Permute IOp(5/
 15=2)\\FeH\\0,4\Fe,0,0.,0.,0.\H,0,0.,0.,1.4\\1,2,3,4,5,10,9,8,6,7\\Ver
 sion=ES64L-G16RevA.03\HF=-123.5796334\MP2=-124.4126457\MP3=-124.355012
 5\PUHF=-123.5796334\PMP2-0=-124.4126457\MP4SDQ=-124.3885226\CCSD=-124.
 3798765\CCSD(T)=-124.4112495\RMSD=3.058e-09\PG=C*V [C*(H1Fe1)]\\@


 ERROR IS THE FORCE THAT WELDS MEN TOGETHER....
 TRUTH IS COMMUNICATED TO MEN ONLY BY DEEDS OF TRUTH.
           TOLSTOI,MY RELIGION
 Job cpu time:       2 days  5 hours 14 minutes  8.4 seconds.
 Elapsed time:       0 days  1 hours 40 minutes 30.9 seconds.
 File lengths (MBytes):  RWF=  20905 Int=      0 D2E=      0 Chk=     18 Scr=      1
 Normal termination of Gaussian 16 at Mon Feb 12 22:41:26 2018.
