 Entering Gaussian System, Link 0=g16
 Initial command:
 /home1/apps/gaussian/16rA.03/g16/l1.exe "/tmp/Gau-145755.inp" -scrdir="/tmp/"
 Entering Link 1 = /home1/apps/gaussian/16rA.03/g16/l1.exe PID=    145756.
  
 Copyright (c) 1988,1990,1992,1993,1995,1998,2003,2009,2016,
            Gaussian, Inc.  All Rights Reserved.
  
 This is part of the Gaussian(R) 16 program.  It is based on
 the Gaussian(R) 09 system (copyright 2009, Gaussian, Inc.),
 the Gaussian(R) 03 system (copyright 2003, Gaussian, Inc.),
 the Gaussian(R) 98 system (copyright 1998, Gaussian, Inc.),
 the Gaussian(R) 94 system (copyright 1995, Gaussian, Inc.),
 the Gaussian 92(TM) system (copyright 1992, Gaussian, Inc.),
 the Gaussian 90(TM) system (copyright 1990, Gaussian, Inc.),
 the Gaussian 88(TM) system (copyright 1988, Gaussian, Inc.),
 the Gaussian 86(TM) system (copyright 1986, Carnegie Mellon
 University), and the Gaussian 82(TM) system (copyright 1983,
 Carnegie Mellon University). Gaussian is a federally registered
 trademark of Gaussian, Inc.
  
 This software contains proprietary and confidential information,
 including trade secrets, belonging to Gaussian, Inc.
  
 This software is provided under written license and may be
 used, copied, transmitted, or stored only in accord with that
 written license.
  
 The following legend is applicable only to US Government
 contracts under FAR:
  
                    RESTRICTED RIGHTS LEGEND
  
 Use, reproduction and disclosure by the US Government is
 subject to restrictions as set forth in subparagraphs (a)
 and (c) of the Commercial Computer Software - Restricted
 Rights clause in FAR 52.227-19.
  
 Gaussian, Inc.
 340 Quinnipiac St., Bldg. 40, Wallingford CT 06492
  
  
 ---------------------------------------------------------------
 Warning -- This program may not be used in any manner that
 competes with the business of Gaussian, Inc. or will provide
 assistance to any competitor of Gaussian, Inc.  The licensee
 of this program is prohibited from giving any competitor of
 Gaussian, Inc. access to this program.  By using this program,
 the user acknowledges that Gaussian, Inc. is engaged in the
 business of creating and licensing software in the field of
 computational chemistry and represents and warrants to the
 licensee that it is not a competitor of Gaussian, Inc. and that
 it will not use this program in any manner prohibited above.
 ---------------------------------------------------------------
  

 Cite this work as:
 Gaussian 16, Revision A.03,
 M. J. Frisch, G. W. Trucks, H. B. Schlegel, G. E. Scuseria, 
 M. A. Robb, J. R. Cheeseman, G. Scalmani, V. Barone, 
 G. A. Petersson, H. Nakatsuji, X. Li, M. Caricato, A. V. Marenich, 
 J. Bloino, B. G. Janesko, R. Gomperts, B. Mennucci, H. P. Hratchian, 
 J. V. Ortiz, A. F. Izmaylov, J. L. Sonnenberg, D. Williams-Young, 
 F. Ding, F. Lipparini, F. Egidi, J. Goings, B. Peng, A. Petrone, 
 T. Henderson, D. Ranasinghe, V. G. Zakrzewski, J. Gao, N. Rega, 
 G. Zheng, W. Liang, M. Hada, M. Ehara, K. Toyota, R. Fukuda, 
 J. Hasegawa, M. Ishida, T. Nakajima, Y. Honda, O. Kitao, H. Nakai, 
 T. Vreven, K. Throssell, J. A. Montgomery, Jr., J. E. Peralta, 
 F. Ogliaro, M. J. Bearpark, J. J. Heyd, E. N. Brothers, K. N. Kudin, 
 V. N. Staroverov, T. A. Keith, R. Kobayashi, J. Normand, 
 K. Raghavachari, A. P. Rendell, J. C. Burant, S. S. Iyengar, 
 J. Tomasi, M. Cossi, J. M. Millam, M. Klene, C. Adamo, R. Cammi, 
 J. W. Ochterski, R. L. Martin, K. Morokuma, O. Farkas, 
 J. B. Foresman, and D. J. Fox, Gaussian, Inc., Wallingford CT, 2016.
 
 ******************************************
 Gaussian 16:  ES64L-G16RevA.03 25-Dec-2016
                27-Feb-2018 
 ******************************************
 %MEM=80GB
 %CPU=0-15
 SetSPE:  set environment variable "MP_BIND" = "yes"
 SetSPE:  set environment variable "MP_BLIST" = "0,1,2,3,4,5,6,7,8,9,10,11,12,13,14,15"
 Will use up to   16 processors via shared memory.
 %RWF=/scratch/04843/aannabe/gaussian/
 %Int=/scratch/04843/aannabe/gaussian/
 %D2E=/scratch/04843/aannabe/gaussian/
 %NoSave
 %CHK=ScO
 ----------------------------------------------------------------------
 #P ROCCSD(T)=(maxcyc=150, Full, SaveAmplitudes, ReadAmplitudes)/Gen 5d
  7f SCF=(maxcycles=300) Integral(NoXCTest) MaxDisk=500GB Pop=Regular P
 seudo=Read Guess=Read
 ----------------------------------------------------------------------
 1/38=1,172=1/1;
 2/12=2,17=6,18=5,40=1/2;
 3/5=7,8=11,11=2,16=1,17=8,25=1,30=1,47=8,116=101/1,2,3;
 4/5=1/1;
 5/5=2,7=300,38=6/2;
 8/5=-1,6=4,9=120000,10=90,24=1/1,4;
 9/5=7,6=150,14=2,77=1/13;
 6//1;
 99/5=1,9=1/99;
 Leave Link    1 at Tue Feb 27 13:06:10 2018, MaxMem= 10737418240 cpu:               3.9 elap:               0.3
 (Enter /home1/apps/gaussian/16rA.03/g16/l101.exe)
 ---
 ScO
 ---
 Symbolic Z-matrix:
 Charge =  0 Multiplicity = 2
 Sc                    0.        0.        0. 
 O                     0.        0.        1.4 
 
 ITRead=  0  0
 MicOpt= -1 -1
 NAtoms=      2 NQM=        2 NQMF=       0 NMMI=      0 NMMIF=      0
                NMic=       0 NMicF=      0.
                    Isotopes and Nuclear Properties:
 (Nuclear quadrupole moments (NQMom) in fm**2, nuclear magnetic moments (NMagM)
  in nuclear magnetons)

  Atom         1           2
 IAtWgt=          45          16
 AtmWgt=  44.9559136  15.9949146
 NucSpn=           7           0
 AtZEff=  -0.0000000  -0.0000000
 NQMom=  -22.0000000   0.0000000
 NMagM=    4.7564830   0.0000000
 AtZNuc=  21.0000000   8.0000000
 Leave Link  101 at Tue Feb 27 13:06:10 2018, MaxMem= 10737418240 cpu:               1.6 elap:               0.2
 (Enter /home1/apps/gaussian/16rA.03/g16/l202.exe)
                          Input orientation:                          
 ---------------------------------------------------------------------
 Center     Atomic      Atomic             Coordinates (Angstroms)
 Number     Number       Type             X           Y           Z
 ---------------------------------------------------------------------
      1         21           0        0.000000    0.000000    0.000000
      2          8           0        0.000000    0.000000    1.400000
 ---------------------------------------------------------------------
 Stoichiometry    OSc(2)
 Framework group  C*V[C*(OSc)]
 Deg. of freedom     1
 Full point group                 C*V     NOp   4
 Largest Abelian subgroup         C2V     NOp   4
 Largest concise Abelian subgroup C1      NOp   1
                         Standard orientation:                         
 ---------------------------------------------------------------------
 Center     Atomic      Atomic             Coordinates (Angstroms)
 Number     Number       Type             X           Y           Z
 ---------------------------------------------------------------------
      1         21           0        0.000000    0.000000    0.386207
      2          8           0        0.000000    0.000000   -1.013793
 ---------------------------------------------------------------------
 Rotational constants (GHZ):           0.0000000          21.8560656          21.8560656
 Leave Link  202 at Tue Feb 27 13:06:10 2018, MaxMem= 10737418240 cpu:               0.3 elap:               0.1
 (Enter /home1/apps/gaussian/16rA.03/g16/l301.exe)
 General basis read from cards:  (5D, 7F)
 Centers:       1
 S 1 1.00
     Exponent=  8.4179090000D+06 Coefficients=  1.0000000000D+00
 S 1 1.00
     Exponent=  1.2603120000D+06 Coefficients=  1.0000000000D+00
 S 1 1.00
     Exponent=  2.8679840000D+05 Coefficients=  1.0000000000D+00
 S 1 1.00
     Exponent=  8.1234690000D+04 Coefficients=  1.0000000000D+00
 S 1 1.00
     Exponent=  2.6503110000D+04 Coefficients=  1.0000000000D+00
 S 1 1.00
     Exponent=  9.5687010000D+03 Coefficients=  1.0000000000D+00
 S 1 1.00
     Exponent=  3.7324970000D+03 Coefficients=  1.0000000000D+00
 S 1 1.00
     Exponent=  1.5484220000D+03 Coefficients=  1.0000000000D+00
 S 1 1.00
     Exponent=  6.7554200000D+02 Coefficients=  1.0000000000D+00
 S 1 1.00
     Exponent=  3.0725220000D+02 Coefficients=  1.0000000000D+00
 S 1 1.00
     Exponent=  1.4466720000D+02 Coefficients=  1.0000000000D+00
 S 1 1.00
     Exponent=  7.0043870000D+01 Coefficients=  1.0000000000D+00
 S 1 1.00
     Exponent=  3.4322500000D+01 Coefficients=  1.0000000000D+00
 S 1 1.00
     Exponent=  1.5612240000D+01 Coefficients=  1.0000000000D+00
 S 1 1.00
     Exponent=  7.7437220000D+00 Coefficients=  1.0000000000D+00
 S 1 1.00
     Exponent=  3.8442600000D+00 Coefficients=  1.0000000000D+00
 S 1 1.00
     Exponent=  1.7197660000D+00 Coefficients=  1.0000000000D+00
 S 1 1.00
     Exponent=  8.3252300000D-01 Coefficients=  1.0000000000D+00
 S 1 1.00
     Exponent=  3.8556400000D-01 Coefficients=  1.0000000000D+00
 S 1 1.00
     Exponent=  9.6700000000D-02 Coefficients=  1.0000000000D+00
 S 1 1.00
     Exponent=  4.7778000000D-02 Coefficients=  1.0000000000D+00
 S 1 1.00
     Exponent=  2.2363000000D-02 Coefficients=  1.0000000000D+00
 S 1 1.00
     Exponent=  3.1672000000D+00 Coefficients=  1.0000000000D+00
 S 1 1.00
     Exponent=  1.6879000000D+00 Coefficients=  1.0000000000D+00
 S 1 1.00
     Exponent=  1.0470000000D-02 Coefficients=  1.0000000000D+00
 P 1 1.00
     Exponent=  2.2640970000D+04 Coefficients=  1.0000000000D+00
 P 1 1.00
     Exponent=  5.3575450000D+03 Coefficients=  1.0000000000D+00
 P 1 1.00
     Exponent=  1.7403730000D+03 Coefficients=  1.0000000000D+00
 P 1 1.00
     Exponent=  6.6661630000D+02 Coefficients=  1.0000000000D+00
 P 1 1.00
     Exponent=  2.8363840000D+02 Coefficients=  1.0000000000D+00
 P 1 1.00
     Exponent=  1.2979760000D+02 Coefficients=  1.0000000000D+00
 P 1 1.00
     Exponent=  6.2679560000D+01 Coefficients=  1.0000000000D+00
 P 1 1.00
     Exponent=  3.1504410000D+01 Coefficients=  1.0000000000D+00
 P 1 1.00
     Exponent=  1.6235250000D+01 Coefficients=  1.0000000000D+00
 P 1 1.00
     Exponent=  8.5183240000D+00 Coefficients=  1.0000000000D+00
 P 1 1.00
     Exponent=  4.5190050000D+00 Coefficients=  1.0000000000D+00
 P 1 1.00
     Exponent=  2.3665910000D+00 Coefficients=  1.0000000000D+00
 P 1 1.00
     Exponent=  1.2152350000D+00 Coefficients=  1.0000000000D+00
 P 1 1.00
     Exponent=  6.1434800000D-01 Coefficients=  1.0000000000D+00
 P 1 1.00
     Exponent=  3.0074500000D-01 Coefficients=  1.0000000000D+00
 P 1 1.00
     Exponent=  1.2583400000D-01 Coefficients=  1.0000000000D+00
 P 1 1.00
     Exponent=  5.4719000000D-02 Coefficients=  1.0000000000D+00
 P 1 1.00
     Exponent=  2.3488000000D-02 Coefficients=  1.0000000000D+00
 P 1 1.00
     Exponent=  4.0719000000D+00 Coefficients=  1.0000000000D+00
 P 1 1.00
     Exponent=  9.9940000000D-01 Coefficients=  1.0000000000D+00
 P 1 1.00
     Exponent=  1.0080000000D-02 Coefficients=  1.0000000000D+00
 D 1 1.00
     Exponent=  1.4802800000D+02 Coefficients=  1.0000000000D+00
 D 1 1.00
     Exponent=  4.3852800000D+01 Coefficients=  1.0000000000D+00
 D 1 1.00
     Exponent=  1.6664600000D+01 Coefficients=  1.0000000000D+00
 D 1 1.00
     Exponent=  6.9789300000D+00 Coefficients=  1.0000000000D+00
 D 1 1.00
     Exponent=  3.1236900000D+00 Coefficients=  1.0000000000D+00
 D 1 1.00
     Exponent=  1.4468700000D+00 Coefficients=  1.0000000000D+00
 D 1 1.00
     Exponent=  6.6740700000D-01 Coefficients=  1.0000000000D+00
 D 1 1.00
     Exponent=  3.0163300000D-01 Coefficients=  1.0000000000D+00
 D 1 1.00
     Exponent=  1.3267400000D-01 Coefficients=  1.0000000000D+00
 D 1 1.00
     Exponent=  5.6739000000D-02 Coefficients=  1.0000000000D+00
 D 1 1.00
     Exponent=  2.3175000000D-02 Coefficients=  1.0000000000D+00
 D 1 1.00
     Exponent=  2.1282000000D+00 Coefficients=  1.0000000000D+00
 D 1 1.00
     Exponent=  9.6910000000D-01 Coefficients=  1.0000000000D+00
 D 1 1.00
     Exponent=  9.4700000000D-03 Coefficients=  1.0000000000D+00
 F 1 1.00
     Exponent=  2.7590000000D+00 Coefficients=  1.0000000000D+00
 F 1 1.00
     Exponent=  1.0490000000D+00 Coefficients=  1.0000000000D+00
 F 1 1.00
     Exponent=  3.9890000000D-01 Coefficients=  1.0000000000D+00
 F 1 1.00
     Exponent=  1.1060000000D-01 Coefficients=  1.0000000000D+00
 F 1 1.00
     Exponent=  3.0670000000D-02 Coefficients=  1.0000000000D+00
 G 1 1.00
     Exponent=  2.4852000000D+00 Coefficients=  1.0000000000D+00
 G 1 1.00
     Exponent=  9.0670000000D-01 Coefficients=  1.0000000000D+00
 G 1 1.00
     Exponent=  2.5300000000D-01 Coefficients=  1.0000000000D+00
 G 1 1.00
     Exponent=  7.0600000000D-02 Coefficients=  1.0000000000D+00
 H 1 1.00
     Exponent=  2.0405000000D+00 Coefficients=  1.0000000000D+00
 H 1 1.00
     Exponent=  4.9340000000D-01 Coefficients=  1.0000000000D+00
 H 1 1.00
     Exponent=  1.1931000000D-01 Coefficients=  1.0000000000D+00
 ****
 Centers:       2
 S 1 1.00
     Exponent=  6.1420000000D+04 Coefficients=  1.0000000000D+00
 S 1 1.00
     Exponent=  9.1990000000D+03 Coefficients=  1.0000000000D+00
 S 1 1.00
     Exponent=  2.0910000000D+03 Coefficients=  1.0000000000D+00
 S 1 1.00
     Exponent=  5.9090000000D+02 Coefficients=  1.0000000000D+00
 S 1 1.00
     Exponent=  1.9230000000D+02 Coefficients=  1.0000000000D+00
 S 1 1.00
     Exponent=  6.9320000000D+01 Coefficients=  1.0000000000D+00
 S 1 1.00
     Exponent=  2.6970000000D+01 Coefficients=  1.0000000000D+00
 S 1 1.00
     Exponent=  1.1100000000D+01 Coefficients=  1.0000000000D+00
 S 1 1.00
     Exponent=  4.6820000000D+00 Coefficients=  1.0000000000D+00
 S 1 1.00
     Exponent=  1.4280000000D+00 Coefficients=  1.0000000000D+00
 S 1 1.00
     Exponent=  5.5470000000D-01 Coefficients=  1.0000000000D+00
 S 1 1.00
     Exponent=  2.0670000000D-01 Coefficients=  1.0000000000D+00
 S 1 1.00
     Exponent=  1.2974000000D+01 Coefficients=  1.0000000000D+00
 S 1 1.00
     Exponent=  3.4900000000D+01 Coefficients=  1.0000000000D+00
 S 1 1.00
     Exponent=  9.3881000000D+01 Coefficients=  1.0000000000D+00
 S 1 1.00
     Exponent=  6.9590000000D-02 Coefficients=  1.0000000000D+00
 P 1 1.00
     Exponent=  6.3420000000D+01 Coefficients=  1.0000000000D+00
 P 1 1.00
     Exponent=  1.4660000000D+01 Coefficients=  1.0000000000D+00
 P 1 1.00
     Exponent=  4.4590000000D+00 Coefficients=  1.0000000000D+00
 P 1 1.00
     Exponent=  1.5310000000D+00 Coefficients=  1.0000000000D+00
 P 1 1.00
     Exponent=  5.3020000000D-01 Coefficients=  1.0000000000D+00
 P 1 1.00
     Exponent=  1.7500000000D-01 Coefficients=  1.0000000000D+00
 P 1 1.00
     Exponent=  1.4475000000D+01 Coefficients=  1.0000000000D+00
 P 1 1.00
     Exponent=  4.2730000000D+01 Coefficients=  1.0000000000D+00
 P 1 1.00
     Exponent=  1.2614000000D+02 Coefficients=  1.0000000000D+00
 P 1 1.00
     Exponent=  5.3480000000D-02 Coefficients=  1.0000000000D+00
 D 1 1.00
     Exponent=  3.7750000000D+00 Coefficients=  1.0000000000D+00
 D 1 1.00
     Exponent=  1.3000000000D+00 Coefficients=  1.0000000000D+00
 D 1 1.00
     Exponent=  4.4400000000D-01 Coefficients=  1.0000000000D+00
 D 1 1.00
     Exponent=  1.4927000000D+01 Coefficients=  1.0000000000D+00
 D 1 1.00
     Exponent=  5.7544000000D+01 Coefficients=  1.0000000000D+00
 D 1 1.00
     Exponent=  1.5400000000D-01 Coefficients=  1.0000000000D+00
 F 1 1.00
     Exponent=  2.6660000000D+00 Coefficients=  1.0000000000D+00
 F 1 1.00
     Exponent=  8.5900000000D-01 Coefficients=  1.0000000000D+00
 F 1 1.00
     Exponent=  2.6483000000D+01 Coefficients=  1.0000000000D+00
 F 1 1.00
     Exponent=  3.2400000000D-01 Coefficients=  1.0000000000D+00
 G 1 1.00
     Exponent=  1.8460000000D+00 Coefficients=  1.0000000000D+00
 G 1 1.00
     Exponent=  7.1400000000D-01 Coefficients=  1.0000000000D+00
 ****
 ======================================================================================================
                                       Pseudopotential Parameters
 ======================================================================================================
  Center     Atomic      Valence      Angular      Power
  Number     Number     Electrons     Momentum     of R      Exponent        Coefficient   SO-Coeffient
 ======================================================================================================
    1         21           11
                                      F and up 
                                                     2        1.0000000        0.00000000    0.00000000
                                      S - F
                                                     2       11.5000000      138.53815200    0.00000000
                                                     2        5.1840000       14.83404200    0.00000000
                                      P - F
                                                     2       10.9300000       82.45861400    0.00000000
                                                     2        4.5810000        8.56520600    0.00000000
                                      D - F
                                                     2       13.4700000      -16.12986200    0.00000000
                                                     2        4.3750000       -0.53469000    0.00000000
    2          8            6
                                      P and up 
                                                     1       12.3099700        6.00000000    0.00000000
                                                     3       14.7696200       73.85984000    0.00000000
                                                     2       13.7141900      -47.87600000    0.00000000
                                      S - P
                                                     2       13.6551200       85.86406000    0.00000000
 ======================================================================================================
 Ernie: Thresh=  0.10000D-02 Tol=  0.10000D-05 Strict=F.
 There are   213 symmetry adapted cartesian basis functions of A1  symmetry.
 There are    56 symmetry adapted cartesian basis functions of A2  symmetry.
 There are   114 symmetry adapted cartesian basis functions of B1  symmetry.
 There are   114 symmetry adapted cartesian basis functions of B2  symmetry.
 There are   157 symmetry adapted basis functions of A1  symmetry.
 There are    47 symmetry adapted basis functions of A2  symmetry.
 There are    90 symmetry adapted basis functions of B1  symmetry.
 There are    90 symmetry adapted basis functions of B2  symmetry.
   384 basis functions,   497 primitive gaussians,   497 cartesian basis functions
     9 alpha electrons        8 beta electrons
       nuclear repulsion energy        24.9469256577 Hartrees.
 IExCor=    0 DFT=F Ex=HF Corr=None ExCW=0 ScaHFX=  1.000000
 ScaDFX=  1.000000  1.000000  1.000000  1.000000 ScalE2=  1.000000  1.000000
 IRadAn=      5 IRanWt=     -1 IRanGd=            0 ICorTp=0 IEmpDi=  4
 NAtoms=    2 NActive=    2 NUniq=    2 SFac= 1.00D+00 NAtFMM=   60 NAOKFM=F Big=F
 Integral buffers will be    131072 words long.
 Raffenetti 2 integral format.
 Two-electron integral symmetry is turned on.
 Leave Link  301 at Tue Feb 27 13:06:11 2018, MaxMem= 10737418240 cpu:               4.5 elap:               0.3
 (Enter /home1/apps/gaussian/16rA.03/g16/l302.exe)
 NPDir=0 NMtPBC=     1 NCelOv=     1 NCel=       1 NClECP=     1 NCelD=      1
         NCelK=      1 NCelE2=     1 NClLst=     1 CellRange=     0.0.
 One-electron integrals computed using PRISM.
 One-electron integral symmetry used in STVInt
   4 Symmetry operations used in ECPInt.
 ECPInt:  NShTT=    6105 NPrTT=    6105 LenC2=    5654 LenP2D=    5653.
 LDataN:  DoStor=T MaxTD1=10 Len=  848
 NBasis=   384 RedAO= T EigKep=  1.18D-06  NBF=   157    47    90    90
 NBsUse=   383 1.00D-06 EigRej=  7.44D-09 NBFU=   156    47    90    90
 Leave Link  302 at Tue Feb 27 13:06:14 2018, MaxMem= 10737418240 cpu:              50.3 elap:               3.2
 (Enter /home1/apps/gaussian/16rA.03/g16/l303.exe)
 DipDrv:  MaxL=1.
 Leave Link  303 at Tue Feb 27 13:06:14 2018, MaxMem= 10737418240 cpu:               1.9 elap:               0.2
 (Enter /home1/apps/gaussian/16rA.03/g16/l401.exe)
 Initial guess from the checkpoint file:  "ScO.chk"
 B after Tr=     0.000000    0.000000    0.000000
         Rot=    1.000000    0.000000    0.000000    0.000000 Ang=   0.00 deg.
 Guess basis will be translated and rotated to current coordinates.
 JPrj=2 DoOrth=T DoCkMO=T.
 Initial guess orbital symmetries:
       Occupied  (SG) (SG) (PI) (PI) (SG) (PI) (PI) (SG) (SG)
       Virtual   (PI) (PI) (SG) (SG) (DLTA) (DLTA) (PI) (PI) (SG)
                 (PI) (PI) (SG) (DLTA) (DLTA) (SG) (PI) (PI) (SG)
                 (PI) (PI) (SG) (PHI) (PHI) (DLTA) (DLTA) (PI)
                 (PI) (SG) (DLTA) (DLTA) (SG) (PI) (PI) (PI) (PI)
                 (SG) (SG) (SG) (DLTA) (DLTA) (PI) (PI) (?A) (?A)
                 (PHI) (PHI) (DLTA) (DLTA) (PI) (PI) (SG) (SG)
                 (PI) (PI) (DLTA) (DLTA) (PHI) (PHI) (SG) (PI)
                 (PI) (SG) (PI) (PI) (DLTA) (DLTA) (SG) (SG) (DLTA)
                 (DLTA) (PI) (PI) (SG) (SG) (PI) (PI) (PI) (PI)
                 (SG) (PHI) (PHI) (DLTA) (DLTA) (?A) (?A) (PI)
                 (PI) (SG) (DLTA) (DLTA) (PHI) (PHI) (PI) (PI)
                 (SG) (PHI) (PHI) (DLTA) (DLTA) (SG) (PI) (PI)
                 (DLTA) (DLTA) (SG) (DLTA) (DLTA) (PI) (PI) (SG)
                 (PI) (PI) (SG) (PI) (PI) (SG) (SG) (PI) (PI) (SG)
                 (DLTA) (DLTA) (PI) (PI) (SG) (SG) (PHI) (PHI)
                 (DLTA) (DLTA) (PI) (PI) (PHI) (PHI) (DLTA) (DLTA)
                 (DLTA) (DLTA) (PI) (PI) (SG) (PI) (PI) (?A) (?A)
                 (PHI) (PHI) (DLTA) (DLTA) (SG) (SG) (PI) (PI)
                 (PI) (PI) (SG) (SG) (SG) (DLTA) (DLTA) (PI) (PI)
                 (PI) (PI) (SG) (SG) (SG) (PI) (PI) (SG) (SG) (DLTA)
                 (DLTA) (PI) (PI) (SG) (PI) (PI) (SG) (SG) (DLTA)
                 (DLTA) (PI) (PI) (SG) (SG) (PI) (PI) (DLTA) (DLTA)
                 (PI) (PI) (SG) (SG) (PI) (PI) (SG) (SG) (SG) (PI)
                 (PI) (SG) (SG) (PI) (PI) (SG) (SG) (DLTA) (DLTA)
                 (PI) (PI) (SG) (SG) (PI) (PI) (SG) (PI) (PI) (SG)
                 (SG) (SG) (PI) (PI) (SG) (SG) (PI) (PI) (SG) (SG)
                 (SG) (PI) (PI) (SG) (SG) (SG) (PI) (PI) (SG) (SG)
                 (SG) (SG) (PI) (PI) (SG) (SG) (SG) (SG) (SG) (SG)
                 (DLTA) (SG) (SG) (DLTA) (SG) (SG) (SG) (SG) (SG)
                 (DLTA) (DLTA) (SG) (SG) (SG) (DLTA) (SG) (SG)
                 (DLTA) (SG) (SG) (DLTA) (?A) (SG) (DLTA) (?A)
                 (DLTA) (SG) (DLTA) (SG) (SG) (DLTA) (SG) (?A)
                 (SG) (DLTA) (?A) (SG) (DLTA) (SG) (DLTA) (SG)
                 (?A) (?A) (DLTA) (DLTA) (DLTA) (DLTA) (DLTA) (DLTA)
                 (DLTA) (?A) (DLTA) (?A) (DLTA) (DLTA) (DLTA) (?A)
                 (DLTA) (?A) (DLTA) (DLTA) (?A) (?A) (PI) (PI)
                 (PI) (PI) (PI) (PI) (PHI) (PI) (PI) (PI) (PI)
                 (PHI) (PI) (PI) (PHI) (PI) (PI) (PHI) (PI) (PHI)
                 (PI) (PI) (?B) (PHI) (PHI) (PI) (PHI) (PI) (?B)
                 (PHI) (?B) (PI) (PI) (PI) (PI) (PI) (PI) (PHI)
                 (PI) (PI) (PI) (PI) (PHI) (PI) (PI) (PHI) (PI)
                 (PI) (PHI) (PI) (PHI) (PI) (PI) (?B) (PHI) (PHI)
                 (PI) (PHI) (PI) (?B) (PHI) (?B)
 The electronic state of the initial guess is 2-SG.
 Leave Link  401 at Tue Feb 27 13:06:15 2018, MaxMem= 10737418240 cpu:              12.2 elap:               0.9
 (Enter /home1/apps/gaussian/16rA.03/g16/l502.exe)
 Keep R1 and R2 ints in memory in symmetry-blocked form, NReq=3425113631.
 FoFCou: FMM=F IPFlag=           8 FMFlag=           0 FMFlg1=           0
         NFxFlg=           0 DoJE=F BraDBF=F KetDBF=F FulRan=T
         wScrn=  0.000000 ICntrl=       600 IOpCl=  0 I1Cent=           0 NGrid=           0
         NMat0=    1 NMatS0=  73920 NMatT0=    0 NMatD0=    1 NMtDS0=    0 NMtDT0=    0
 Petite list used in FoFCou.
 Restricted open shell SCF:
 Using DIIS extrapolation, IDIIS=  1040.
 NGot= 10737418240 LenX=  9351093905 LenY=  9350846399
 Requested convergence on RMS density matrix=1.00D-08 within 300 cycles.
 Requested convergence on MAX density matrix=1.00D-06.
 Requested convergence on             energy=1.00D-06.
 No special actions if energy rises.

 Cycle   1  Pass 1  IDiag  1:
 E= -61.9957949512888    
 DIIS: error= 3.98D-01 at cycle   1 NSaved=   1.
 NSaved= 1 IEnMin= 1 EnMin= -61.9957949512888     IErMin= 1 ErrMin= 3.98D-01
 ErrMax= 3.98D-01  0.00D+00 EMaxC= 1.00D-01 BMatC= 4.46D+01 BMatP= 4.46D+01
 IDIUse=3 WtCom= 0.00D+00 WtEn= 1.00D+00
 Coeff-Com:  0.100D+01
 Coeff-En:   0.100D+01
 Coeff:      0.100D+01
 Gap=     0.076 Goal=   None    Shift=    0.000
 GapD=    0.076 DampG=0.500 DampE=0.125 DampFc=0.1250 IDamp=-1.
 Damping current iteration by 1.25D-01
 RMSDP=3.36D-03 MaxDP=1.69D-01              OVMax= 4.65D-03

 Cycle   2  Pass 1  IDiag  1:
 E= -61.9959724439277     Delta-E=       -0.000177492639 Rises=F Damp=T
 DIIS: error= 3.48D-01 at cycle   2 NSaved=   2.
 NSaved= 2 IEnMin= 2 EnMin= -61.9959724439277     IErMin= 2 ErrMin= 3.48D-01
 ErrMax= 3.48D-01  0.00D+00 EMaxC= 1.00D-01 BMatC= 3.41D+01 BMatP= 4.46D+01
 IDIUse=3 WtCom= 0.00D+00 WtEn= 1.00D+00
 Coeff-Com: -0.700D+01 0.800D+01
 Coeff-En:   0.000D+00 0.100D+01
 Coeff:      0.000D+00 0.100D+01
 Gap=     0.075 Goal=   None    Shift=    0.000
 RMSDP=2.95D-03 MaxDP=1.48D-01 DE=-1.77D-04 OVMax= 1.59D-03

 Cycle   3  Pass 1  IDiag  1:
 E= -61.9972606813305     Delta-E=       -0.001288237403 Rises=F Damp=F
 DIIS: error= 1.70D-04 at cycle   3 NSaved=   3.
 NSaved= 3 IEnMin= 3 EnMin= -61.9972606813305     IErMin= 3 ErrMin= 1.70D-04
 ErrMax= 1.70D-04  0.00D+00 EMaxC= 1.00D-01 BMatC= 9.99D-06 BMatP= 3.41D+01
 IDIUse=3 WtCom= 9.98D-01 WtEn= 1.70D-03
 Coeff-Com:  0.771D+00-0.881D+00 0.111D+01
 Coeff-En:   0.000D+00 0.000D+00 0.100D+01
 Coeff:      0.770D+00-0.880D+00 0.111D+01
 Gap=     0.075 Goal=   None    Shift=    0.000
 RMSDP=1.54D-04 MaxDP=2.62D-02 DE=-1.29D-03 OVMax= 3.25D-03

 Cycle   4  Pass 1  IDiag  1:
 E= -61.9972635264667     Delta-E=       -0.000002845136 Rises=F Damp=F
 DIIS: error= 7.25D-05 at cycle   4 NSaved=   4.
 NSaved= 4 IEnMin= 4 EnMin= -61.9972635264667     IErMin= 4 ErrMin= 7.25D-05
 ErrMax= 7.25D-05  0.00D+00 EMaxC= 1.00D-01 BMatC= 6.87D-07 BMatP= 9.99D-06
 IDIUse=1 WtCom= 1.00D+00 WtEn= 0.00D+00
 Coeff-Com:  0.106D+01-0.121D+01 0.212D+00 0.940D+00
 Coeff:      0.106D+01-0.121D+01 0.212D+00 0.940D+00
 Gap=     0.075 Goal=   None    Shift=    0.000
 RMSDP=4.50D-05 MaxDP=1.12D-02 DE=-2.85D-06 OVMax= 1.98D-03

 Cycle   5  Pass 1  IDiag  1:
 E= -61.9972643813211     Delta-E=       -0.000000854854 Rises=F Damp=F
 DIIS: error= 6.35D-05 at cycle   5 NSaved=   5.
 NSaved= 5 IEnMin= 5 EnMin= -61.9972643813211     IErMin= 5 ErrMin= 6.35D-05
 ErrMax= 6.35D-05  0.00D+00 EMaxC= 1.00D-01 BMatC= 4.19D-07 BMatP= 6.87D-07
 IDIUse=1 WtCom= 1.00D+00 WtEn= 0.00D+00
 Coeff-Com:  0.951D+00-0.109D+01 0.120D+00 0.438D+00 0.578D+00
 Coeff:      0.951D+00-0.109D+01 0.120D+00 0.438D+00 0.578D+00
 Gap=     0.075 Goal=   None    Shift=    0.000
 RMSDP=7.62D-06 MaxDP=1.79D-03 DE=-8.55D-07 OVMax= 6.65D-04

 Cycle   6  Pass 1  IDiag  1:
 E= -61.9972645823426     Delta-E=       -0.000000201021 Rises=F Damp=F
 DIIS: error= 2.52D-05 at cycle   6 NSaved=   6.
 NSaved= 6 IEnMin= 6 EnMin= -61.9972645823426     IErMin= 6 ErrMin= 2.52D-05
 ErrMax= 2.52D-05  0.00D+00 EMaxC= 1.00D-01 BMatC= 7.47D-08 BMatP= 4.19D-07
 IDIUse=1 WtCom= 1.00D+00 WtEn= 0.00D+00
 Coeff-Com:  0.785D+00-0.897D+00 0.121D+00 0.372D-01 0.101D+00 0.852D+00
 Coeff:      0.785D+00-0.897D+00 0.121D+00 0.372D-01 0.101D+00 0.852D+00
 Gap=     0.075 Goal=   None    Shift=    0.000
 RMSDP=5.82D-06 MaxDP=1.32D-03 DE=-2.01D-07 OVMax= 1.55D-04

 Cycle   7  Pass 1  IDiag  1:
 E= -61.9972646369808     Delta-E=       -0.000000054638 Rises=F Damp=F
 DIIS: error= 2.16D-05 at cycle   7 NSaved=   7.
 NSaved= 7 IEnMin= 7 EnMin= -61.9972646369808     IErMin= 7 ErrMin= 2.16D-05
 ErrMax= 2.16D-05  0.00D+00 EMaxC= 1.00D-01 BMatC= 5.42D-08 BMatP= 7.47D-08
 IDIUse=1 WtCom= 1.00D+00 WtEn= 0.00D+00
 Coeff-Com:  0.620D+00-0.708D+00 0.105D+00-0.705D-01-0.750D-01-0.359D-01
 Coeff-Com:  0.116D+01
 Coeff:      0.620D+00-0.708D+00 0.105D+00-0.705D-01-0.750D-01-0.359D-01
 Coeff:      0.116D+01
 Gap=     0.075 Goal=   None    Shift=    0.000
 RMSDP=6.53D-06 MaxDP=1.19D-03 DE=-5.46D-08 OVMax= 2.35D-04

 Cycle   8  Pass 1  IDiag  1:
 E= -61.9972647160281     Delta-E=       -0.000000079047 Rises=F Damp=F
 DIIS: error= 1.67D-05 at cycle   8 NSaved=   8.
 NSaved= 8 IEnMin= 8 EnMin= -61.9972647160281     IErMin= 8 ErrMin= 1.67D-05
 ErrMax= 1.67D-05  0.00D+00 EMaxC= 1.00D-01 BMatC= 3.19D-08 BMatP= 5.42D-08
 IDIUse=1 WtCom= 1.00D+00 WtEn= 0.00D+00
 Coeff-Com:  0.475D+00-0.542D+00 0.786D-01-0.170D-01-0.125D-01-0.182D+00
 Coeff-Com:  0.144D+00 0.106D+01
 Coeff:      0.475D+00-0.542D+00 0.786D-01-0.170D-01-0.125D-01-0.182D+00
 Coeff:      0.144D+00 0.106D+01
 Gap=     0.075 Goal=   None    Shift=    0.000
 RMSDP=6.87D-06 MaxDP=1.62D-03 DE=-7.90D-08 OVMax= 1.44D-04

 Cycle   9  Pass 1  IDiag  1:
 E= -61.9972647564255     Delta-E=       -0.000000040397 Rises=F Damp=F
 DIIS: error= 1.30D-05 at cycle   9 NSaved=   9.
 NSaved= 9 IEnMin= 9 EnMin= -61.9972647564255     IErMin= 9 ErrMin= 1.30D-05
 ErrMax= 1.30D-05  0.00D+00 EMaxC= 1.00D-01 BMatC= 1.93D-08 BMatP= 3.19D-08
 IDIUse=1 WtCom= 1.00D+00 WtEn= 0.00D+00
 Coeff-Com:  0.326D+00-0.373D+00 0.522D-01 0.853D-02 0.188D-01-0.360D-01
 Coeff-Com: -0.185D+00-0.222D+00 0.141D+01
 Coeff:      0.326D+00-0.373D+00 0.522D-01 0.853D-02 0.188D-01-0.360D-01
 Coeff:     -0.185D+00-0.222D+00 0.141D+01
 Gap=     0.075 Goal=   None    Shift=    0.000
 RMSDP=5.93D-06 MaxDP=1.11D-03 DE=-4.04D-08 OVMax= 1.76D-04

 Cycle  10  Pass 1  IDiag  1:
 E= -61.9972647917902     Delta-E=       -0.000000035365 Rises=F Damp=F
 DIIS: error= 8.76D-06 at cycle  10 NSaved=  10.
 NSaved=10 IEnMin=10 EnMin= -61.9972647917902     IErMin=10 ErrMin= 8.76D-06
 ErrMax= 8.76D-06  0.00D+00 EMaxC= 1.00D-01 BMatC= 8.84D-09 BMatP= 1.93D-08
 IDIUse=1 WtCom= 1.00D+00 WtEn= 0.00D+00
 Coeff-Com:  0.239D+00-0.273D+00 0.389D-01-0.469D-02 0.263D-03 0.184D-01
 Coeff-Com:  0.912D-01-0.528D+00 0.414D+00 0.100D+01
 Coeff:      0.239D+00-0.273D+00 0.389D-01-0.469D-02 0.263D-03 0.184D-01
 Coeff:      0.912D-01-0.528D+00 0.414D+00 0.100D+01
 Gap=     0.075 Goal=   None    Shift=    0.000
 RMSDP=3.89D-06 MaxDP=8.59D-04 DE=-3.54D-08 OVMax= 9.44D-05

 Cycle  11  Pass 1  IDiag  1:
 E= -61.9972648052637     Delta-E=       -0.000000013474 Rises=F Damp=F
 DIIS: error= 6.47D-06 at cycle  11 NSaved=  11.
 NSaved=11 IEnMin=11 EnMin= -61.9972648052637     IErMin=11 ErrMin= 6.47D-06
 ErrMax= 6.47D-06  0.00D+00 EMaxC= 1.00D-01 BMatC= 4.75D-09 BMatP= 8.84D-09
 IDIUse=1 WtCom= 1.00D+00 WtEn= 0.00D+00
 Coeff-Com:  0.182D+00-0.208D+00 0.298D-01-0.579D-02-0.291D-02 0.115D-01
 Coeff-Com:  0.108D+00-0.365D+00 0.169D+00 0.179D+00 0.903D+00
 Coeff:      0.182D+00-0.208D+00 0.298D-01-0.579D-02-0.291D-02 0.115D-01
 Coeff:      0.108D+00-0.365D+00 0.169D+00 0.179D+00 0.903D+00
 Gap=     0.075 Goal=   None    Shift=    0.000
 RMSDP=2.36D-06 MaxDP=4.79D-04 DE=-1.35D-08 OVMax= 6.11D-05

 Cycle  12  Pass 1  IDiag  1:
 E= -61.9972648117880     Delta-E=       -0.000000006524 Rises=F Damp=F
 DIIS: error= 4.90D-06 at cycle  12 NSaved=  12.
 NSaved=12 IEnMin=12 EnMin= -61.9972648117880     IErMin=12 ErrMin= 4.90D-06
 ErrMax= 4.90D-06  0.00D+00 EMaxC= 1.00D-01 BMatC= 2.76D-09 BMatP= 4.75D-09
 IDIUse=1 WtCom= 1.00D+00 WtEn= 0.00D+00
 Coeff-Com:  0.825D-01-0.943D-01 0.132D-01 0.309D-02 0.542D-02-0.305D-01
 Coeff-Com: -0.773D-01 0.162D+00 0.396D+00-0.107D+01-0.978D+00 0.259D+01
 Coeff:      0.825D-01-0.943D-01 0.132D-01 0.309D-02 0.542D-02-0.305D-01
 Coeff:     -0.773D-01 0.162D+00 0.396D+00-0.107D+01-0.978D+00 0.259D+01
 Gap=     0.075 Goal=   None    Shift=    0.000
 RMSDP=4.39D-06 MaxDP=9.48D-04 DE=-6.52D-09 OVMax= 1.09D-04

 Cycle  13  Pass 1  IDiag  1:
 E= -61.9972648190683     Delta-E=       -0.000000007280 Rises=F Damp=F
 DIIS: error= 2.23D-06 at cycle  13 NSaved=  13.
 NSaved=13 IEnMin=13 EnMin= -61.9972648190683     IErMin=13 ErrMin= 2.23D-06
 ErrMax= 2.23D-06  0.00D+00 EMaxC= 1.00D-01 BMatC= 5.61D-10 BMatP= 2.76D-09
 IDIUse=1 WtCom= 1.00D+00 WtEn= 0.00D+00
 Coeff-Com:  0.589D-02-0.673D-02 0.885D-03 0.106D-02 0.158D-02-0.126D-02
 Coeff-Com: -0.204D-01-0.435D-02 0.744D-01 0.565D-01-0.785D+00 0.200D+00
 Coeff-Com:  0.148D+01
 Coeff:      0.589D-02-0.673D-02 0.885D-03 0.106D-02 0.158D-02-0.126D-02
 Coeff:     -0.204D-01-0.435D-02 0.744D-01 0.565D-01-0.785D+00 0.200D+00
 Coeff:      0.148D+01
 Gap=     0.075 Goal=   None    Shift=    0.000
 RMSDP=3.24D-06 MaxDP=6.75D-04 DE=-7.28D-09 OVMax= 8.22D-05

 Cycle  14  Pass 1  IDiag  1:
 E= -61.9972648209011     Delta-E=       -0.000000001833 Rises=F Damp=F
 DIIS: error= 1.55D-07 at cycle  14 NSaved=  14.
 NSaved=14 IEnMin=14 EnMin= -61.9972648209011     IErMin=14 ErrMin= 1.55D-07
 ErrMax= 1.55D-07  0.00D+00 EMaxC= 1.00D-01 BMatC= 2.94D-12 BMatP= 5.61D-10
 IDIUse=1 WtCom= 1.00D+00 WtEn= 0.00D+00
 Coeff-Com:  0.106D-02-0.121D-02 0.169D-03-0.167D-04 0.693D-04 0.197D-02
 Coeff-Com:  0.102D-02-0.213D-01 0.321D-02 0.122D+00-0.124D+00-0.160D+00
 Coeff-Com:  0.291D+00 0.886D+00
 Coeff:      0.106D-02-0.121D-02 0.169D-03-0.167D-04 0.693D-04 0.197D-02
 Coeff:      0.102D-02-0.213D-01 0.321D-02 0.122D+00-0.124D+00-0.160D+00
 Coeff:      0.291D+00 0.886D+00
 Gap=     0.075 Goal=   None    Shift=    0.000
 RMSDP=2.12D-07 MaxDP=4.76D-05 DE=-1.83D-09 OVMax= 5.36D-06

 Cycle  15  Pass 1  IDiag  1:
 E= -61.9972648209104     Delta-E=       -0.000000000009 Rises=F Damp=F
 DIIS: error= 3.12D-08 at cycle  15 NSaved=  15.
 NSaved=15 IEnMin=15 EnMin= -61.9972648209104     IErMin=15 ErrMin= 3.12D-08
 ErrMax= 3.12D-08  0.00D+00 EMaxC= 1.00D-01 BMatC= 9.58D-14 BMatP= 2.94D-12
 IDIUse=1 WtCom= 1.00D+00 WtEn= 0.00D+00
 Coeff-Com:  0.311D-03-0.355D-03 0.588D-04-0.136D-03-0.184D-03 0.418D-03
 Coeff-Com:  0.234D-02-0.281D-02-0.631D-02 0.120D-01 0.820D-01-0.472D-01
 Coeff-Com: -0.169D+00 0.203D+00 0.925D+00
 Coeff:      0.311D-03-0.355D-03 0.588D-04-0.136D-03-0.184D-03 0.418D-03
 Coeff:      0.234D-02-0.281D-02-0.631D-02 0.120D-01 0.820D-01-0.472D-01
 Coeff:     -0.169D+00 0.203D+00 0.925D+00
 Gap=     0.075 Goal=   None    Shift=    0.000
 RMSDP=3.19D-08 MaxDP=5.95D-06 DE=-9.39D-12 OVMax= 8.73D-07

 Cycle  16  Pass 1  IDiag  1:
 E= -61.9972648209109     Delta-E=       -0.000000000000 Rises=F Damp=F
 DIIS: error= 8.07D-09 at cycle  16 NSaved=  16.
 NSaved=16 IEnMin=16 EnMin= -61.9972648209109     IErMin=16 ErrMin= 8.07D-09
 ErrMax= 8.07D-09  0.00D+00 EMaxC= 1.00D-01 BMatC= 8.14D-15 BMatP= 9.58D-14
 IDIUse=1 WtCom= 1.00D+00 WtEn= 0.00D+00
 Large coefficients: NSaved= 16 BigCof=    0.00 CofMax=   10.00 Det=-1.02D-15
 Inversion failed.  Reducing to 15 matrices.
 Coeff-Com:  0.174D-11 0.459D-06-0.151D-05-0.161D-04-0.171D-03-0.286D-04
 Coeff-Com:  0.197D-02-0.292D-03-0.118D-01 0.130D-01 0.155D-01-0.344D-01
 Coeff-Com: -0.833D-01 0.149D-01 0.108D+01
 Coeff:      0.174D-11 0.459D-06-0.151D-05-0.161D-04-0.171D-03-0.286D-04
 Coeff:      0.197D-02-0.292D-03-0.118D-01 0.130D-01 0.155D-01-0.344D-01
 Coeff:     -0.833D-01 0.149D-01 0.108D+01
 Gap=     0.075 Goal=   None    Shift=    0.000
 RMSDP=1.35D-08 MaxDP=3.02D-06 DE=-4.41D-13 OVMax= 3.35D-07

 Cycle  17  Pass 1  IDiag  1:
 E= -61.9972648209109     Delta-E=       -0.000000000000 Rises=F Damp=F
 DIIS: error= 1.90D-10 at cycle  17 NSaved=  16.
 NSaved=16 IEnMin=16 EnMin= -61.9972648209109     IErMin=16 ErrMin= 1.90D-10
 ErrMax= 1.90D-10  0.00D+00 EMaxC= 1.00D-01 BMatC= 1.09D-17 BMatP= 8.14D-15
 IDIUse=1 WtCom= 1.00D+00 WtEn= 0.00D+00
 Large coefficients: NSaved= 16 BigCof=    0.00 CofMax=   10.00 Det=-4.80D-17
 Inversion failed.  Reducing to 15 matrices.
 Coeff-Com: -0.448D-06 0.812D-05 0.102D-04-0.313D-04-0.174D-03 0.303D-03
 Coeff-Com:  0.407D-03-0.128D-02-0.417D-02 0.357D-02 0.811D-02-0.152D-01
 Coeff-Com: -0.533D-01 0.278D-01 0.103D+01
 Coeff:     -0.448D-06 0.812D-05 0.102D-04-0.313D-04-0.174D-03 0.303D-03
 Coeff:      0.407D-03-0.128D-02-0.417D-02 0.357D-02 0.811D-02-0.152D-01
 Coeff:     -0.533D-01 0.278D-01 0.103D+01
 Gap=     0.075 Goal=   None    Shift=    0.000
 RMSDP=4.79D-10 MaxDP=1.52D-07 DE=-5.68D-14 OVMax= 1.03D-08

 SCF Done:  E(ROHF) =  -61.9972648209     A.U. after   17 cycles
            NFock= 17  Conv=0.48D-09     -V/T= 2.9412
 <Sx>= 0.0000 <Sy>= 0.0000 <Sz>= 0.5000 <S**2>= 0.7500 S= 0.5000
 <L.S>=  0.00000000000    
 KE= 3.193799159690D+01 PE=-1.855545682644D+02 EE= 6.667238618894D+01
 Annihilation of the first spin contaminant:
 S**2 before annihilation     0.7500,   after     0.7500
 Leave Link  502 at Tue Feb 27 13:08:25 2018, MaxMem= 10737418240 cpu:            1845.2 elap:             129.6
 (Enter /home1/apps/gaussian/16rA.03/g16/l801.exe)
 Windowed orbitals will be sorted by symmetry type.
 GenMOA:  NOpAll=  4 NOp2=4 NOpUse=  4 JSym2X=1
 FoFJK:  IHMeth= 1 ICntrl=       0 DoSepK=F KAlg= 0 I1Cent=           0 FoldK=F
 IRaf=         0 NMat=       1 IRICut=       1 DoRegI=T DoRafI=F ISym2E= 1 IDoP0=0 IntGTp=1.
 FoFCou: FMM=F IPFlag=           8 FMFlag=      100000 FMFlg1=           0
         NFxFlg=           0 DoJE=F BraDBF=F KetDBF=F FulRan=T
         wScrn=  0.000000 ICntrl=         0 IOpCl=  1 I1Cent=           0 NGrid=           0
         NMat0=    1 NMatS0=      1 NMatT0=    0 NMatD0=    1 NMtDS0=    0 NMtDT0=    0
 Petite list used in FoFCou.
 <Sx>= 0.0000 <Sy>= 0.0000 <Sz>= 0.5000 <S**2>= 0.7500 S= 0.5000
 Range of M.O.s used for correlation:     1   383
 NBasis=   384 NAE=     9 NBE=     8 NFC=     0 NFV=     0
 NROrb=    383 NOA=     9 NOB=     8 NVA=   374 NVB=   375

 **** Warning!!: The largest alpha MO coefficient is  0.31192073D+03


 **** Warning!!: The largest beta MO coefficient is  0.31192042D+03

 Singles contribution to E2=   -0.1471565846D-03
 Leave Link  801 at Tue Feb 27 13:09:00 2018, MaxMem= 10737418240 cpu:             561.6 elap:              35.1
 (Enter /home1/apps/gaussian/16rA.03/g16/l804.exe)
 Open-shell transformation, MDV= 10737418240 ITran=4 ISComp=2.
 Unit  1 TFree=       4459702 TCopy=       3230129.
 Semi-Direct transformation.
 ModeAB=           4 MOrb=             9 LenV=   10733046573
 LASXX=     63702177 LTotXX=    63702177 LenRXX=   128059521
 LTotAB=    64357344 MaxLAS=   423753498 LenRXY=           0
 NonZer=   191761698 LenScr=   288771072 LnRSAI=   423753498
 LnScr1=   638123008 LExtra=    17918606 Total=   1496625705
 MaxDsk= 67108864000 SrtSym=           T ITran=            4
 DoSDTr:  NPSUse= 16
 JobTyp=1 Pass  1:  I=   1 to   9.
 (rs|ai) integrals will be sorted in core.
 Complete sort for first half transformation.
 First half transformation complete.
 Complete sort for second half transformation.
 Second half transformation complete.
 ModeAB=           4 MOrb=             8 LenV=   10733046573
 LASXX=     56573606 LTotXX=    56573606 LenRXX=   111007430
 LTotAB=    54433824 MaxLAS=   376669776 LenRXY=           0
 NonZer=   167581036 LenScr=   252357632 LnRSAI=   376669776
 LnScr1=   567221248 LExtra=   145978127 Total=   1453234213
 MaxDsk= 67108864000 SrtSym=           T ITran=            4
 DoSDTr:  NPSUse= 16
 JobTyp=2 Pass  1:  I=   1 to   8.
 (rs|ai) integrals will be sorted in core.
 Complete sort for first half transformation.
 First half transformation complete.
 Complete sort for second half transformation.
 Second half transformation complete.
 Spin components of T(2) and E(2):
     alpha-alpha T2 =       0.2664679301D-01 E2=     -0.9765914058D-01
     alpha-beta  T2 =       0.1137530935D+00 E2=     -0.5149913128D+00
     beta-beta   T2 =       0.2275492052D-01 E2=     -0.8918331352D-01
 ANorm=    0.1078556804D+01
 E2 =    -0.7019809235D+00 EUMP2 =    -0.62699245744371D+02
 (S**2,0)=  0.75000D+00           (S**2,1)=  0.75000D+00
 E(PUHF)=      -0.61997264821D+02        E(PMP2)=      -0.62699245744D+02
 Recovering and transforming amplitudes from chk file.
 B after Tr=     0.000000    0.000000    0.000000
         Rot=    1.000000    0.000000    0.000000    0.000000 Ang=   0.00 deg.
 Alpha occ  Sing. vals= 9.999995D-01 9.999987D-01 9.999987D-01 9.999978D-01 9.999969D-01 9.999954D-01 9.999704D-01 9.999665D-01 9.999665D-01
 Alpha occ  NOrbO=     9 NOrbN=     9 NSVal=     9 ThrEig=  0.900000.
 TrMax= 1.000000D+00 PrMax= 1.000000D+00 Trace(Pr)= 9.000000D+00
 B after Tr=     0.000000    0.000000    0.000000
         Rot=    1.000000    0.000000    0.000000    0.000000 Ang=   0.00 deg.
 Alpha virt Sing. vals= 1.000000D+00 1.000000D+00 1.000000D+00 1.000000D+00 1.000000D+00 1.000000D+00 1.000000D+00 1.000000D+00 1.000000D+00 1.000000D+00
 Alpha virt Sing. vals= 1.000000D+00 1.000000D+00 1.000000D+00 1.000000D+00 1.000000D+00 1.000000D+00 1.000000D+00 1.000000D+00 1.000000D+00 1.000000D+00
 Alpha virt Sing. vals= 1.000000D+00 1.000000D+00 1.000000D+00 1.000000D+00 1.000000D+00 1.000000D+00 1.000000D+00 1.000000D+00 1.000000D+00 1.000000D+00
 Alpha virt Sing. vals= 1.000000D+00 1.000000D+00 1.000000D+00 1.000000D+00 1.000000D+00 1.000000D+00 9.999999D-01 9.999999D-01 9.999999D-01 9.999999D-01
 Alpha virt Sing. vals= 9.999999D-01 9.999999D-01 9.999999D-01 9.999997D-01 9.999997D-01 9.999996D-01 9.999995D-01 9.999992D-01 9.999991D-01 9.999991D-01
 Alpha virt Sing. vals= 9.999991D-01 9.999990D-01 9.999990D-01 9.999990D-01 9.999987D-01 9.999978D-01 9.999976D-01 9.999976D-01 9.999973D-01 9.999965D-01
 Alpha virt Sing. vals= 9.999965D-01 9.999950D-01 9.999950D-01 9.999950D-01 9.999938D-01 9.999927D-01 9.999925D-01 9.999925D-01 9.999920D-01 9.999920D-01
 Alpha virt Sing. vals= 9.999908D-01 9.999906D-01 9.999906D-01 9.999894D-01 9.999893D-01 9.999893D-01 9.999870D-01 9.999862D-01 9.999862D-01 9.999856D-01
 Alpha virt Sing. vals= 9.999804D-01 9.999731D-01 9.999731D-01 9.999677D-01 9.999643D-01 9.999622D-01 9.999622D-01 9.999585D-01 9.999444D-01 9.999444D-01
 Alpha virt Sing. vals= 9.999409D-01 9.999280D-01 9.999221D-01 9.998895D-01 9.998895D-01 9.998861D-01 9.998861D-01 9.998428D-01 9.998361D-01 9.998361D-01
 Alpha virt Sing. vals= 9.998217D-01 9.997941D-01 9.997941D-01 9.997919D-01 9.997919D-01 9.997869D-01 9.997527D-01 9.997407D-01 9.997407D-01 9.997407D-01
 Alpha virt Sing. vals= 9.996615D-01 9.996615D-01 9.996064D-01 9.995820D-01 9.995542D-01 9.995542D-01 9.995310D-01 9.995307D-01 9.995307D-01 9.994320D-01
 Alpha virt Sing. vals= 9.993648D-01 9.993439D-01 9.993439D-01 9.992672D-01 9.992672D-01 9.992017D-01 9.992017D-01 9.991212D-01 9.991212D-01 9.990585D-01
 Alpha virt Sing. vals= 9.990585D-01 9.988967D-01 9.988967D-01 9.988778D-01 9.988145D-01 9.987761D-01 9.987761D-01 9.987657D-01 9.987657D-01 9.984152D-01
 Alpha virt Sing. vals= 9.983762D-01 9.983762D-01 9.983658D-01 9.983287D-01 9.983287D-01 9.981637D-01 9.981637D-01 9.980799D-01 9.980799D-01 9.979371D-01
 Alpha virt Sing. vals= 9.978052D-01 9.978052D-01 9.974976D-01 9.973141D-01 9.972335D-01 9.972335D-01 9.972143D-01 9.972143D-01 9.971642D-01 9.965029D-01
 Alpha virt Sing. vals= 9.963862D-01 9.951491D-01 9.951491D-01 9.950540D-01 9.950412D-01 9.950412D-01 9.947380D-01 9.947379D-01 9.947379D-01 9.946550D-01
 Alpha virt Sing. vals= 9.946550D-01 9.944441D-01 9.944441D-01 9.944271D-01 9.934974D-01 9.934974D-01 9.926667D-01 9.926667D-01 9.922570D-01 9.922570D-01
 Alpha virt Sing. vals= 9.910250D-01 9.910250D-01 9.907191D-01 9.903428D-01 9.903428D-01 9.883818D-01 9.867834D-01 9.867834D-01 9.864745D-01 9.864745D-01
 Alpha virt Sing. vals= 9.848593D-01 9.838535D-01 9.835106D-01 9.835106D-01 9.800773D-01 9.783354D-01 9.783354D-01 9.778240D-01 9.778240D-01 9.776276D-01
 Alpha virt Sing. vals= 9.776276D-01 9.771870D-01 9.771870D-01 9.770593D-01 9.770593D-01 9.767654D-01 9.767654D-01 9.759311D-01 9.755262D-01 9.755262D-01
 Alpha virt Sing. vals= 9.657756D-01 9.617099D-01 9.609763D-01 9.609763D-01 9.600147D-01 9.600147D-01 9.430294D-01 9.385439D-01 9.385439D-01 9.381672D-01
 Alpha virt Sing. vals= 9.381672D-01 9.364990D-01 9.364990D-01 9.351008D-01 9.350964D-01 9.350964D-01 9.326176D-01 9.204949D-01 9.204949D-01 9.183019D-01
 Alpha virt Sing. vals= 9.119175D-01 9.119175D-01 9.106397D-01 9.106397D-01 9.104401D-01 9.041669D-01 9.041669D-01 9.032568D-01 9.032568D-01 8.979037D-01
 Alpha virt Sing. vals= 8.931833D-01 8.931833D-01 8.924266D-01 8.924266D-01 8.853284D-01 8.853284D-01 8.631300D-01 5.498379D-01
 Alpha virt NOrbO=   248 NOrbN=   374 NSVal=   239 ThrEig=  0.900000.
 TrMax= 9.986299D-01 PrMax= 9.995393D-01 Trace(Pr)= 2.390000D+02
 B after Tr=     0.000000    0.000000    0.000000
         Rot=    1.000000    0.000000    0.000000    0.000000 Ang=   0.00 deg.
 Beta  occ  Sing. vals= 9.999995D-01 9.999987D-01 9.999987D-01 9.999976D-01 9.999955D-01 9.999704D-01 9.999665D-01 9.999665D-01
 Beta  occ  NOrbO=     8 NOrbN=     8 NSVal=     8 ThrEig=  0.900000.
 TrMax= 1.000000D+00 PrMax= 1.000000D+00 Trace(Pr)= 8.000000D+00
 B after Tr=     0.000000    0.000000    0.000000
         Rot=    1.000000    0.000000    0.000000    0.000000 Ang=   0.00 deg.
 Beta  virt Sing. vals= 1.000000D+00 1.000000D+00 1.000000D+00 1.000000D+00 1.000000D+00 1.000000D+00 1.000000D+00 1.000000D+00 1.000000D+00 1.000000D+00
 Beta  virt Sing. vals= 1.000000D+00 1.000000D+00 1.000000D+00 1.000000D+00 1.000000D+00 1.000000D+00 1.000000D+00 1.000000D+00 1.000000D+00 1.000000D+00
 Beta  virt Sing. vals= 1.000000D+00 1.000000D+00 1.000000D+00 1.000000D+00 1.000000D+00 1.000000D+00 1.000000D+00 1.000000D+00 1.000000D+00 1.000000D+00
 Beta  virt Sing. vals= 1.000000D+00 1.000000D+00 1.000000D+00 1.000000D+00 1.000000D+00 1.000000D+00 1.000000D+00 9.999999D-01 9.999999D-01 9.999999D-01
 Beta  virt Sing. vals= 9.999999D-01 9.999999D-01 9.999999D-01 9.999999D-01 9.999997D-01 9.999997D-01 9.999996D-01 9.999995D-01 9.999992D-01 9.999991D-01
 Beta  virt Sing. vals= 9.999991D-01 9.999991D-01 9.999990D-01 9.999990D-01 9.999990D-01 9.999987D-01 9.999978D-01 9.999976D-01 9.999976D-01 9.999973D-01
 Beta  virt Sing. vals= 9.999965D-01 9.999965D-01 9.999950D-01 9.999950D-01 9.999950D-01 9.999938D-01 9.999927D-01 9.999925D-01 9.999925D-01 9.999920D-01
 Beta  virt Sing. vals= 9.999920D-01 9.999908D-01 9.999906D-01 9.999906D-01 9.999894D-01 9.999893D-01 9.999893D-01 9.999870D-01 9.999862D-01 9.999862D-01
 Beta  virt Sing. vals= 9.999856D-01 9.999804D-01 9.999731D-01 9.999731D-01 9.999677D-01 9.999643D-01 9.999622D-01 9.999622D-01 9.999585D-01 9.999444D-01
 Beta  virt Sing. vals= 9.999444D-01 9.999409D-01 9.999280D-01 9.999221D-01 9.998895D-01 9.998895D-01 9.998861D-01 9.998861D-01 9.998426D-01 9.998361D-01
 Beta  virt Sing. vals= 9.998361D-01 9.998217D-01 9.997941D-01 9.997941D-01 9.997919D-01 9.997919D-01 9.997869D-01 9.997525D-01 9.997407D-01 9.997407D-01
 Beta  virt Sing. vals= 9.997407D-01 9.996615D-01 9.996615D-01 9.996064D-01 9.995820D-01 9.995542D-01 9.995542D-01 9.995310D-01 9.995307D-01 9.995307D-01
 Beta  virt Sing. vals= 9.994320D-01 9.993648D-01 9.993439D-01 9.993439D-01 9.992672D-01 9.992672D-01 9.992017D-01 9.992017D-01 9.991212D-01 9.991212D-01
 Beta  virt Sing. vals= 9.990585D-01 9.990585D-01 9.988967D-01 9.988967D-01 9.988778D-01 9.988145D-01 9.987761D-01 9.987761D-01 9.987657D-01 9.987657D-01
 Beta  virt Sing. vals= 9.984152D-01 9.983762D-01 9.983762D-01 9.983658D-01 9.983287D-01 9.983287D-01 9.981637D-01 9.981637D-01 9.980799D-01 9.980799D-01
 Beta  virt Sing. vals= 9.979371D-01 9.978052D-01 9.978052D-01 9.974976D-01 9.973141D-01 9.972335D-01 9.972335D-01 9.972143D-01 9.972143D-01 9.971642D-01
 Beta  virt Sing. vals= 9.965029D-01 9.963862D-01 9.951491D-01 9.951491D-01 9.950540D-01 9.950412D-01 9.950412D-01 9.947380D-01 9.947379D-01 9.947379D-01
 Beta  virt Sing. vals= 9.946550D-01 9.946550D-01 9.944441D-01 9.944441D-01 9.944270D-01 9.934974D-01 9.934974D-01 9.926667D-01 9.926667D-01 9.922570D-01
 Beta  virt Sing. vals= 9.922570D-01 9.910250D-01 9.910250D-01 9.907190D-01 9.903428D-01 9.903428D-01 9.883818D-01 9.867834D-01 9.867834D-01 9.864745D-01
 Beta  virt Sing. vals= 9.864745D-01 9.848593D-01 9.838533D-01 9.835106D-01 9.835106D-01 9.800773D-01 9.783354D-01 9.783354D-01 9.778240D-01 9.778240D-01
 Beta  virt Sing. vals= 9.776276D-01 9.776276D-01 9.771870D-01 9.771870D-01 9.770593D-01 9.770593D-01 9.767654D-01 9.767654D-01 9.759311D-01 9.755262D-01
 Beta  virt Sing. vals= 9.755262D-01 9.657753D-01 9.617100D-01 9.609763D-01 9.609763D-01 9.600147D-01 9.600147D-01 9.430294D-01 9.385439D-01 9.385439D-01
 Beta  virt Sing. vals= 9.381672D-01 9.381672D-01 9.364990D-01 9.364990D-01 9.351008D-01 9.350964D-01 9.350964D-01 9.326176D-01 9.204949D-01 9.204949D-01
 Beta  virt Sing. vals= 9.183020D-01 9.119175D-01 9.119175D-01 9.106397D-01 9.106397D-01 9.104401D-01 9.041669D-01 9.041669D-01 9.032568D-01 9.032568D-01
 Beta  virt Sing. vals= 8.979037D-01 8.931833D-01 8.931833D-01 8.924266D-01 8.924266D-01 8.853284D-01 8.853284D-01 8.631300D-01 5.498379D-01
 Beta  virt NOrbO=   249 NOrbN=   375 NSVal=   240 ThrEig=  0.900000.
 TrMax= 9.995754D-01 PrMax= 9.998823D-01 Trace(Pr)= 2.400000D+02
 Leave Link  804 at Tue Feb 27 13:21:43 2018, MaxMem= 10737418240 cpu:           12185.7 elap:             762.4
 (Enter /home1/apps/gaussian/16rA.03/g16/l913.exe)
 CIDS:  MDV= 10737418240.
 IFCWin=0 IBDFC=1 NFBD=     0     0 NFCmp=     0     0 NFFFC=     0     0
 Amplitudes recovered.
 Using DD4UQ or CC4UQ for all iterations.
 Keep R2 and R3 ints in memory in symmetry-blocked form, NReq=3425131966.
 FoFCou: FMM=F IPFlag=           8 FMFlag=           0 FMFlg1=           0
         NFxFlg=           0 DoJE=F BraDBF=F KetDBF=F FulRan=T
         wScrn=  0.000000 ICntrl=       600 IOpCl=  0 I1Cent=           0 NGrid=           0
         NMat0=    1 NMatS0=  73920 NMatT0=    0 NMatD0=    1 NMtDS0=    0 NMtDT0=    0
 Petite list used in FoFCou.
 CIDS: In Core Option IDoMem=           1.
 CCSD(T)
 =======
 Iterations= 150 Convergence= 0.100D-06
 Produce multiple copies of IABC intergrals
 Iteration Nr.   1
 **********************
 DD1Dir will call FoFMem   1 times, MxPair=       208
 NAB=    72 NAA=    36 NBB=    28.
 Maximum subspace dimension=  5
 A-vector RMS=  1.2058180D-04 Max=  1.0310972D-03 conv= 1.00D-05.
 RLE energy=       -0.6921822736
 DE(Corr)= -0.69205310     E(Corr)=     -62.689317920    
 NORM(A)=   0.10842200D+01
 Iteration Nr.   2
 **********************
 DD1Dir will call FoFMem   1 times, MxPair=       208
 NAB=    72 NAA=    36 NBB=    28.
 A-vector RMS=  5.3866110D-05 Max=  4.3381407D-04 conv= 1.00D-05.
 RLE energy=       -0.6921989005
 DE(Corr)= -0.69220330     E(CORR)=     -62.689468117     Delta=-1.50D-04
 NORM(A)=   0.10843729D+01
 Iteration Nr.   3
 **********************
 DD1Dir will call FoFMem   1 times, MxPair=       208
 NAB=    72 NAA=    36 NBB=    28.
 A-vector RMS=  2.3986251D-05 Max=  2.7972514D-04 conv= 1.00D-05.
 RLE energy=       -0.6925114530
 DE(Corr)= -0.69252477     E(CORR)=     -62.689789592     Delta=-3.21D-04
 NORM(A)=   0.10844726D+01
 Iteration Nr.   4
 **********************
 DD1Dir will call FoFMem   1 times, MxPair=       208
 NAB=    72 NAA=    36 NBB=    28.
 A-vector RMS=  1.6636057D-05 Max=  1.6502275D-04 conv= 1.00D-05.
 RLE energy=       -0.6924513970
 DE(Corr)= -0.69241092     E(CORR)=     -62.689675736     Delta= 1.14D-04
 NORM(A)=   0.10845168D+01
 Iteration Nr.   5
 **********************
 DD1Dir will call FoFMem   1 times, MxPair=       208
 NAB=    72 NAA=    36 NBB=    28.
 A-vector RMS=  5.6119927D-06 Max=  1.2607705D-04 conv= 1.00D-05.
 RLE energy=       -0.6924634778
 DE(Corr)= -0.69246901     E(CORR)=     -62.689733833     Delta=-5.81D-05
 NORM(A)=   0.10845526D+01
 Iteration Nr.   6
 **********************
 DD1Dir will call FoFMem   1 times, MxPair=       208
 NAB=    72 NAA=    36 NBB=    28.
 A-vector RMS=  2.7487913D-06 Max=  5.3455937D-05 conv= 1.00D-05.
 RLE energy=       -0.6924645460
 DE(Corr)= -0.69246274     E(CORR)=     -62.689727566     Delta= 6.27D-06
 NORM(A)=   0.10845723D+01
 Iteration Nr.   7
 **********************
 DD1Dir will call FoFMem   1 times, MxPair=       208
 NAB=    72 NAA=    36 NBB=    28.
 A-vector RMS=  1.0294803D-06 Max=  2.5448573D-05 conv= 1.00D-05.
 RLE energy=       -0.6924679486
 DE(Corr)= -0.69246759     E(CORR)=     -62.689732414     Delta=-4.85D-06
 NORM(A)=   0.10845790D+01
 Iteration Nr.   8
 **********************
 DD1Dir will call FoFMem   1 times, MxPair=       208
 NAB=    72 NAA=    36 NBB=    28.
 A-vector RMS=  4.1110582D-07 Max=  9.9601736D-06 conv= 1.00D-05.
 RLE energy=       -0.6924670778
 DE(Corr)= -0.69246709     E(CORR)=     -62.689731912     Delta= 5.02D-07
 NORM(A)=   0.10845816D+01
 Iteration Nr.   9
 **********************
 DD1Dir will call FoFMem   1 times, MxPair=       208
 NAB=    72 NAA=    36 NBB=    28.
 A-vector RMS=  1.7812733D-07 Max=  3.1097730D-06 conv= 1.00D-05.
 RLE energy=       -0.6924679745
 DE(Corr)= -0.69246796     E(CORR)=     -62.689732777     Delta=-8.65D-07
 NORM(A)=   0.10845826D+01
 Iteration Nr.  10
 **********************
 DD1Dir will call FoFMem   1 times, MxPair=       208
 NAB=    72 NAA=    36 NBB=    28.
 A-vector RMS=  7.6420654D-08 Max=  1.0494754D-06 conv= 1.00D-05.
 RLE energy=       -0.6924678384
 DE(Corr)= -0.69246779     E(CORR)=     -62.689732612     Delta= 1.65D-07
 NORM(A)=   0.10845829D+01
 Iteration Nr.  11
 **********************
 DD1Dir will call FoFMem   1 times, MxPair=       208
 NAB=    72 NAA=    36 NBB=    28.
 A-vector RMS=  3.8205103D-08 Max=  5.2709567D-07 conv= 1.00D-05.
 RLE energy=       -0.6924678886
 DE(Corr)= -0.69246790     E(CORR)=     -62.689732718     Delta=-1.06D-07
 NORM(A)=   0.10845830D+01
 Iteration Nr.  12
 **********************
 DD1Dir will call FoFMem   1 times, MxPair=       208
 NAB=    72 NAA=    36 NBB=    28.
 A-vector RMS=  1.6513780D-08 Max=  2.9108524D-07 conv= 1.00D-05.
 RLE energy=       -0.6924679087
 DE(Corr)= -0.69246790     E(CORR)=     -62.689732721     Delta=-3.23D-09
 NORM(A)=   0.10845831D+01
 CI/CC converged in   12 iterations to DelEn=-3.23D-09 Conv= 1.00D-07 ErrA1= 1.65D-08 Conv= 1.00D-05
 Wavefunction amplitudes converged. E(Corr)=     -62.689732721    
 Largest amplitude= 5.74D-02
 Time for triples=    43304.02 seconds.
 T4(CCSD)= -0.37701585D-01
 T5(CCSD)=  0.35090873D-02
 CCSD(T)= -0.62723925218D+02
 Discarding MO integrals.
 Leave Link  913 at Tue Feb 27 14:17:22 2018, MaxMem= 10737418240 cpu:           53387.0 elap:            3339.7
 (Enter /home1/apps/gaussian/16rA.03/g16/l601.exe)
 Copying SCF densities to generalized density rwf, IOpCl= 0 IROHF=1.

 **********************************************************************

            Population analysis using the SCF density.

 **********************************************************************

 Orbital symmetries:
       Occupied  (SG) (SG) (PI) (PI) (SG) (PI) (PI) (SG) (SG)
       Virtual   (PI) (PI) (SG) (SG) (DLTA) (DLTA) (PI) (PI) (SG)
                 (PI) (PI) (SG) (DLTA) (DLTA) (SG) (PI) (PI) (SG)
                 (PI) (PI) (SG) (PHI) (PHI) (DLTA) (DLTA) (PI)
                 (PI) (DLTA) (DLTA) (SG) (SG) (PI) (PI) (PI) (PI)
                 (SG) (DLTA) (DLTA) (SG) (PI) (PI) (SG) (DLTA)
                 (DLTA) (PI) (PI) (?A) (?A) (PHI) (PHI) (SG) (SG)
                 (DLTA) (DLTA) (PHI) (PHI) (PI) (PI) (SG) (PI)
                 (PI) (PI) (PI) (DLTA) (DLTA) (SG) (PHI) (PHI)
                 (DLTA) (DLTA) (?B) (?B) (SG) (PI) (PI) (?A) (?A)
                 (SG) (PI) (PI) (DLTA) (DLTA) (SG) (SG) (PI) (PI)
                 (PI) (PI) (SG) (DLTA) (DLTA) (PHI) (PHI) (?A)
                 (?A) (SG) (PI) (PI) (PHI) (PHI) (DLTA) (DLTA)
                 (SG) (PI) (PI) (DLTA) (DLTA) (PI) (PI) (SG) (SG)
                 (PHI) (PHI) (DLTA) (DLTA) (PI) (PI) (SG) (DLTA)
                 (DLTA) (SG) (PI) (PI) (SG) (PI) (PI) (SG) (?A)
                 (?A) (?B) (?B) (DLTA) (DLTA) (PI) (PI) (PHI) (PHI)
                 (DLTA) (DLTA) (PI) (PI) (SG) (SG) (PI) (PI) (DLTA)
                 (DLTA) (SG) (PHI) (PHI) (?A) (?A) (PI) (PI) (PHI)
                 (PHI) (SG) (?A) (?A) (SG) (DLTA) (DLTA) (PHI)
                 (PHI) (PI) (PI) (DLTA) (DLTA) (DLTA) (DLTA) (SG)
                 (PHI) (PHI) (PI) (PI) (SG) (SG) (PI) (PI) (DLTA)
                 (DLTA) (SG) (PI) (PI) (DLTA) (DLTA) (SG) (PI)
                 (PI) (PI) (PI) (SG) (SG) (SG) (PI) (PI) (PHI)
                 (PHI) (DLTA) (DLTA) (DLTA) (DLTA) (PI) (PI) (SG)
                 (PI) (PI) (SG) (?A) (?A) (PI) (PI) (DLTA) (DLTA)
                 (PHI) (PHI) (SG) (PI) (PI) (?B) (?B) (?A) (?A)
                 (PHI) (PHI) (SG) (DLTA) (DLTA) (?A) (?A) (PHI)
                 (PHI) (SG) (DLTA) (DLTA) (PHI) (PHI) (PI) (PI)
                 (PI) (PI) (DLTA) (DLTA) (SG) (PI) (PI) (DLTA)
                 (DLTA) (SG) (SG) (PI) (PI) (SG) (SG) (DLTA) (DLTA)
                 (PI) (PI) (SG) (PI) (PI) (SG) (PI) (PI) (SG) (SG)
                 (DLTA) (DLTA) (PI) (PI) (SG) (PI) (PI) (SG) (SG)
                 (DLTA) (DLTA) (PI) (PI) (SG) (SG) (PI) (PI) (SG)
                 (DLTA) (DLTA) (PI) (PI) (SG) (SG) (PI) (PI) (SG)
                 (SG) (PI) (PI) (SG) (PHI) (PHI) (DLTA) (DLTA)
                 (PI) (PI) (SG) (SG) (SG) (PI) (PI) (SG) (DLTA)
                 (DLTA) (PI) (PI) (SG) (PI) (PI) (SG) (DLTA) (DLTA)
                 (PI) (PI) (SG) (SG) (SG) (PI) (PI) (SG) (PI) (PI)
                 (SG) (SG) (DLTA) (DLTA) (PI) (PI) (SG) (SG) (PI)
                 (PI) (SG) (SG) (PI) (PI) (SG) (SG) (SG) (PI) (PI)
                 (SG) (SG) (SG) (PI) (PI) (SG) (SG) (SG) (PI) (PI)
                 (SG) (SG) (PI) (PI) (SG) (SG) (SG) (PI) (PI) (SG)
                 (SG) (SG) (SG) (SG) (SG) (SG)
 The electronic state is 2-SG.
 Alpha  occ. eigenvalues --   -2.62151  -1.71863  -1.55249  -1.55249  -1.09379
 Alpha  occ. eigenvalues --   -0.52359  -0.52359  -0.46070  -0.21144
 Alpha virt. eigenvalues --    0.00822   0.00822   0.02006   0.02047   0.02791
 Alpha virt. eigenvalues --    0.02791   0.02945   0.02945   0.02979   0.03939
 Alpha virt. eigenvalues --    0.03939   0.06231   0.07914   0.07914   0.08913
 Alpha virt. eigenvalues --    0.09142   0.09142   0.10410   0.11331   0.11331
 Alpha virt. eigenvalues --    0.11387   0.12657   0.12657   0.13007   0.13007
 Alpha virt. eigenvalues --    0.14019   0.14019   0.15094   0.15094   0.16036
 Alpha virt. eigenvalues --    0.20838   0.23470   0.23470   0.26502   0.26502
 Alpha virt. eigenvalues --    0.27588   0.28993   0.28993   0.32160   0.33253
 Alpha virt. eigenvalues --    0.33253   0.33541   0.33740   0.33740   0.33868
 Alpha virt. eigenvalues --    0.33868   0.35945   0.35945   0.36566   0.36566
 Alpha virt. eigenvalues --    0.41267   0.44192   0.44366   0.44366   0.45094
 Alpha virt. eigenvalues --    0.45094   0.46949   0.46949   0.57435   0.57693
 Alpha virt. eigenvalues --    0.57693   0.63705   0.63705   0.64233   0.64233
 Alpha virt. eigenvalues --    0.69780   0.72808   0.72808   0.72833   0.72833
 Alpha virt. eigenvalues --    0.73101   0.73101   0.73758   0.73758   0.73795
 Alpha virt. eigenvalues --    0.73972   0.73972   0.76788   0.78673   0.78673
 Alpha virt. eigenvalues --    0.78915   0.78915   0.87569   1.04249   1.19927
 Alpha virt. eigenvalues --    1.19927   1.21970   1.21970   1.22016   1.26131
 Alpha virt. eigenvalues --    1.26131   1.27626   1.27626   1.27699   1.27699
 Alpha virt. eigenvalues --    1.37598   1.40718   1.40718   1.41190   1.41190
 Alpha virt. eigenvalues --    1.43704   1.43704   1.50925   1.51116   1.51116
 Alpha virt. eigenvalues --    1.52739   1.52739   1.60426   1.60426   1.64976
 Alpha virt. eigenvalues --    1.77925   1.79074   1.79074   1.79406   1.79406
 Alpha virt. eigenvalues --    2.10391   2.10391   2.12338   2.28115   2.28115
 Alpha virt. eigenvalues --    2.31674   2.51092   2.51092   2.57919   2.84296
 Alpha virt. eigenvalues --    2.84296   2.92892   2.93000   2.93000   2.93482
 Alpha virt. eigenvalues --    2.93482   3.03352   3.03352   3.06864   3.06864
 Alpha virt. eigenvalues --    3.08531   3.08531   3.12125   3.12125   3.16745
 Alpha virt. eigenvalues --    3.16745   3.18431   3.39390   3.50968   3.50968
 Alpha virt. eigenvalues --    3.76609   3.76609   3.84953   3.85322   3.85322
 Alpha virt. eigenvalues --    3.85465   3.85465   3.91379   3.91379   3.92591
 Alpha virt. eigenvalues --    3.92591   4.16325   4.25216   4.25216   4.26607
 Alpha virt. eigenvalues --    4.32213   4.32213   4.33381   4.33381   4.34657
 Alpha virt. eigenvalues --    4.34657   4.48268   4.48268   4.71755   4.71755
 Alpha virt. eigenvalues --    4.78174   4.79471   4.79471   4.91929   4.91929
 Alpha virt. eigenvalues --    5.15356   5.49772   5.67731   5.67731   5.78910
 Alpha virt. eigenvalues --    5.78910   5.84257   5.87621   5.87621   5.94019
 Alpha virt. eigenvalues --    5.94019   6.01683   6.04974   6.04974   6.56492
 Alpha virt. eigenvalues --    6.56492   6.89187   7.69855   9.90680   9.93248
 Alpha virt. eigenvalues --    9.93248  10.02924  10.02924  10.22270  10.22270
 Alpha virt. eigenvalues --   10.31321  10.31321  10.35337  10.35337  10.40576
 Alpha virt. eigenvalues --   10.53133  10.53133  10.71183  10.71793  10.71793
 Alpha virt. eigenvalues --   10.76619  10.76619  10.78993  10.78993  10.86423
 Alpha virt. eigenvalues --   10.86423  11.16483  11.18466  11.18466  11.48329
 Alpha virt. eigenvalues --   11.48329  11.49871  11.49871  11.55992  11.55992
 Alpha virt. eigenvalues --   11.70899  11.84590  11.84590  11.88634  11.88634
 Alpha virt. eigenvalues --   11.90291  11.90291  11.92840  12.04704  12.04704
 Alpha virt. eigenvalues --   12.09765  12.09765  12.42735  12.42735  12.70873
 Alpha virt. eigenvalues --   12.70873  12.72506  12.72506  12.75273  12.85303
 Alpha virt. eigenvalues --   12.85303  12.88049  12.88049  13.40716  14.00945
 Alpha virt. eigenvalues --   14.45552  14.45552  14.97103  16.28699  17.74731
 Alpha virt. eigenvalues --   17.74731  17.82782  17.82782  18.19736  20.12194
 Alpha virt. eigenvalues --   20.12194  20.57568  28.40977  28.40977  28.53980
 Alpha virt. eigenvalues --   29.46002  31.12763  31.12763  31.19289  31.19289
 Alpha virt. eigenvalues --   31.47352  34.66623  34.66623  34.85773  35.05941
 Alpha virt. eigenvalues --   46.82012  46.82012  47.22064  47.22064  48.28893
 Alpha virt. eigenvalues --   54.84225  58.24805  58.24805  58.53695  62.95591
 Alpha virt. eigenvalues --   62.95591  63.00916  63.00916  63.24173  68.19503
 Alpha virt. eigenvalues --   69.81951  69.81951  70.74885  85.22166  98.29701
 Alpha virt. eigenvalues --   98.29701  98.55944 102.97852 102.97852 103.00367
 Alpha virt. eigenvalues --  103.00367 103.05679 103.05679 103.09154 121.59748
 Alpha virt. eigenvalues --  148.13559 154.58093 154.58093 155.34760 160.44754
 Alpha virt. eigenvalues --  160.44754 160.48755 160.48755 160.64825 171.52068
 Alpha virt. eigenvalues --  171.52068 171.77618 206.77560 206.77560 206.98948
 Alpha virt. eigenvalues --  206.98948 207.50814 210.08684 279.89458 313.38902
 Alpha virt. eigenvalues --  313.38902 313.63033 324.80064 324.80064 325.49145
 Alpha virt. eigenvalues --  358.06554 538.24669 538.24669 538.27246 538.27246
 Alpha virt. eigenvalues --  538.37323 546.67649 603.64336 603.64336 603.87048
 Alpha virt. eigenvalues --  612.22027 691.04631 691.04631 691.683731090.11186
 Alpha virt. eigenvalues -- 1112.258681241.158961241.158961241.366372262.44570
 Alpha virt. eigenvalues -- 2369.140362762.933662762.933662763.118335286.70229
 Alpha virt. eigenvalues -- 6141.112556800.844346800.844346801.00360**********
 Alpha virt. eigenvalues -- **************************************************
 Alpha virt. eigenvalues -- **************************************************
 Alpha virt. eigenvalues -- ****************************************
     Molecular Orbital Coefficients:
                           4         5         6         7         8
                           O         O         O         O         O
     Eigenvalues --    -1.55249  -1.09379  -0.52359  -0.52359  -0.46070
   1 1   Sc 1S          0.00000  -0.00000   0.00000   0.00000  -0.00000
   2        2S          0.00000  -0.00000   0.00000   0.00000  -0.00000
   3        3S          0.00000  -0.00000   0.00000   0.00000  -0.00000
   4        4S          0.00000  -0.00000   0.00000   0.00000  -0.00000
   5        5S          0.00000   0.00000   0.00000   0.00000   0.00000
   6        6S          0.00000  -0.00000   0.00000   0.00000  -0.00000
   7        7S          0.00000   0.00000   0.00000   0.00000   0.00000
   8        8S          0.00000  -0.00002   0.00000   0.00000  -0.00002
   9        9S          0.00000   0.00002   0.00000   0.00000   0.00002
  10       10S          0.00000  -0.00014   0.00000   0.00000  -0.00014
  11       11S          0.00000   0.00023   0.00000   0.00000   0.00023
  12       12S          0.00000  -0.00093   0.00000   0.00000  -0.00089
  13       13S          0.00000   0.00253   0.00000   0.00000   0.00241
  14       14S          0.00000  -0.01325   0.00000   0.00000  -0.01255
  15       15S          0.00000   0.01735   0.00000   0.00000   0.01790
  16       16S          0.00000   0.09279   0.00000   0.00000   0.07099
  17       17S          0.00000  -0.02129   0.00000   0.00000  -0.02588
  18       18S          0.00000  -0.13990   0.00000   0.00000  -0.12407
  19       19S          0.00000  -0.07100   0.00000   0.00000  -0.10080
  20       20S          0.00000  -0.03510   0.00000   0.00000  -0.08176
  21       21S          0.00000  -0.02938   0.00000   0.00000  -0.04692
  22       22S          0.00000   0.00391   0.00000   0.00000   0.01459
  23       23S          0.00000  -0.03831   0.00000   0.00000  -0.01435
  24       24S          0.00000  -0.01118   0.00000   0.00000  -0.02205
  25       25S          0.00000  -0.00043   0.00000   0.00000  -0.00116
  26       26PX         0.00000   0.00000  -0.00000   0.00000   0.00000
  27       26PY         0.00000   0.00000   0.00000  -0.00000   0.00000
  28       26PZ         0.00000   0.00000   0.00000   0.00000   0.00000
  29       27PX         0.00000   0.00000  -0.00000   0.00000   0.00000
  30       27PY         0.00000   0.00000   0.00000  -0.00000   0.00000
  31       27PZ         0.00000   0.00000   0.00000   0.00000   0.00000
  32       28PX         0.00000   0.00000  -0.00000   0.00000   0.00000
  33       28PY         0.00000   0.00000   0.00000  -0.00000   0.00000
  34       28PZ         0.00000   0.00000   0.00000   0.00000   0.00000
  35       29PX         0.00000   0.00000  -0.00000   0.00000   0.00000
  36       29PY         0.00001   0.00000   0.00000  -0.00000   0.00000
  37       29PZ         0.00000   0.00001   0.00000   0.00000   0.00000
  38       30PX         0.00000   0.00000  -0.00001   0.00000   0.00000
  39       30PY         0.00005   0.00000   0.00000  -0.00001   0.00000
  40       30PZ         0.00000   0.00003   0.00000   0.00000   0.00001
  41       31PX         0.00000   0.00000  -0.00003   0.00000   0.00000
  42       31PY         0.00014   0.00000   0.00000  -0.00003   0.00000
  43       31PZ         0.00000   0.00008   0.00000   0.00000   0.00004
  44       32PX         0.00000   0.00000  -0.00007   0.00000   0.00000
  45       32PY         0.00042   0.00000   0.00000  -0.00007   0.00000
  46       32PZ         0.00000   0.00022   0.00000   0.00000   0.00010
  47       33PX         0.00000   0.00000  -0.00008   0.00000   0.00000
  48       33PY         0.00033   0.00000   0.00000  -0.00008   0.00000
  49       33PZ         0.00000   0.00020   0.00000   0.00000   0.00013
  50       34PX         0.00000   0.00000  -0.00207   0.00000   0.00000
  51       34PY         0.01185   0.00000   0.00000  -0.00207   0.00000
  52       34PZ         0.00000   0.00636   0.00000   0.00000   0.00309
  53       35PX         0.00000   0.00000   0.01150   0.00000   0.00000
  54       35PY        -0.06354   0.00000   0.00000   0.01150   0.00000
  55       35PZ         0.00000  -0.03468   0.00000   0.00000  -0.01743
  56       36PX         0.00000   0.00000   0.01016   0.00000   0.00000
  57       36PY        -0.04935   0.00000   0.00000   0.01016   0.00000
  58       36PZ         0.00000  -0.02368   0.00000   0.00000  -0.00953
  59       37PX         0.00000   0.00000  -0.03120   0.00000   0.00000
  60       37PY         0.17339   0.00000   0.00000  -0.03120   0.00000
  61       37PZ         0.00000   0.09770   0.00000   0.00000   0.05189
  62       38PX         0.00000   0.00000  -0.08950   0.00000   0.00000
  63       38PY         0.40021   0.00000   0.00000  -0.08950   0.00000
  64       38PZ         0.00000   0.22440   0.00000   0.00000   0.14137
  65       39PX         0.00000   0.00000  -0.08564   0.00000   0.00000
  66       39PY         0.39647   0.00000   0.00000  -0.08564   0.00000
  67       39PZ         0.00000   0.22177   0.00000   0.00000   0.12713
  68       40PX         0.00000   0.00000  -0.04515   0.00000   0.00000
  69       40PY         0.16129   0.00000   0.00000  -0.04515   0.00000
  70       40PZ         0.00000   0.10242   0.00000   0.00000   0.06413
  71       41PX         0.00000   0.00000  -0.05417   0.00000   0.00000
  72       41PY         0.00875   0.00000   0.00000  -0.05417   0.00000
  73       41PZ         0.00000   0.03856   0.00000   0.00000   0.08321
  74       42PX         0.00000   0.00000  -0.01433   0.00000   0.00000
  75       42PY        -0.00384   0.00000   0.00000  -0.01433   0.00000
  76       42PZ         0.00000   0.01300   0.00000   0.00000   0.02078
  77       43PX         0.00000   0.00000  -0.01233   0.00000   0.00000
  78       43PY        -0.00019   0.00000   0.00000  -0.01233   0.00000
  79       43PZ         0.00000  -0.00171   0.00000   0.00000  -0.01150
  80       44PX         0.00000   0.00000  -0.00365   0.00000   0.00000
  81       44PY         0.00776   0.00000   0.00000  -0.00365   0.00000
  82       44PZ         0.00000   0.00139   0.00000   0.00000  -0.00198
  83       45PX         0.00000   0.00000   0.01797   0.00000   0.00000
  84       45PY        -0.00630   0.00000   0.00000   0.01797   0.00000
  85       45PZ         0.00000  -0.00792   0.00000   0.00000  -0.03784
  86       46PX         0.00000   0.00000   0.00273   0.00000   0.00000
  87       46PY         0.00002   0.00000   0.00000   0.00273   0.00000
  88       46PZ         0.00000   0.00011   0.00000   0.00000   0.00175
  89       47D 0        0.00000   0.00004   0.00000   0.00000   0.00012
  90       47D+1        0.00000   0.00000  -0.00006   0.00000   0.00000
  91       47D-1       -0.00001   0.00000   0.00000  -0.00006   0.00000
  92       47D+2        0.00000  -0.00000   0.00000   0.00000   0.00000
  93       47D-2        0.00000   0.00000   0.00000   0.00000   0.00000
  94       48D 0        0.00000   0.00039   0.00000   0.00000   0.00132
  95       48D+1        0.00000   0.00000  -0.00064   0.00000   0.00000
  96       48D-1       -0.00006   0.00000   0.00000  -0.00064   0.00000
  97       48D+2        0.00000   0.00000   0.00000   0.00000   0.00000
  98       48D-2        0.00000   0.00000   0.00000   0.00000   0.00000
  99       49D 0        0.00000   0.00328   0.00000   0.00000   0.01101
 100       49D+1        0.00000   0.00000  -0.00535   0.00000   0.00000
 101       49D-1       -0.00050   0.00000   0.00000  -0.00535   0.00000
 102       49D+2        0.00000   0.00000   0.00000   0.00000   0.00000
 103       49D-2        0.00000   0.00000   0.00000   0.00000   0.00000
 104       50D 0        0.00000   0.01077   0.00000   0.00000   0.03625
 105       50D+1        0.00000   0.00000  -0.01761   0.00000   0.00000
 106       50D-1       -0.00156   0.00000   0.00000  -0.01761   0.00000
 107       50D+2        0.00000   0.00000   0.00000   0.00000   0.00000
 108       50D-2        0.00000   0.00000   0.00000   0.00000   0.00000
 109       51D 0        0.00000   0.02370   0.00000   0.00000   0.07967
 110       51D+1        0.00000   0.00000  -0.03767   0.00000   0.00000
 111       51D-1       -0.00359   0.00000   0.00000  -0.03767   0.00000
 112       51D+2        0.00000  -0.00000   0.00000   0.00000  -0.00000
 113       51D-2        0.00000   0.00000   0.00000   0.00000   0.00000
 114       52D 0        0.00000   0.04056   0.00000   0.00000   0.13086
 115       52D+1        0.00000   0.00000  -0.05689   0.00000   0.00000
 116       52D-1       -0.00343   0.00000   0.00000  -0.05689   0.00000
 117       52D+2        0.00000  -0.00000   0.00000   0.00000  -0.00000
 118       52D-2        0.00000   0.00000   0.00000   0.00000   0.00000
 119       53D 0        0.00000   0.05409   0.00000   0.00000   0.17000
 120       53D+1        0.00000   0.00000  -0.08010   0.00000   0.00000
 121       53D-1        0.00031   0.00000   0.00000  -0.08010   0.00000
 122       53D+2        0.00000  -0.00000   0.00000   0.00000  -0.00000
 123       53D-2        0.00000   0.00000   0.00000   0.00000   0.00000
 124       54D 0        0.00000   0.03993   0.00000   0.00000   0.15665
 125       54D+1        0.00000   0.00000  -0.08208   0.00000   0.00000
 126       54D-1        0.00389   0.00000   0.00000  -0.08208   0.00000
 127       54D+2        0.00000  -0.00000   0.00000   0.00000  -0.00000
 128       54D-2        0.00000   0.00000   0.00000   0.00000   0.00000
 129       55D 0        0.00000  -0.00269   0.00000   0.00000   0.04683
 130       55D+1        0.00000   0.00000   0.00551   0.00000   0.00000
 131       55D-1        0.00474   0.00000   0.00000   0.00551   0.00000
 132       55D+2        0.00000  -0.00000   0.00000   0.00000  -0.00000
 133       55D-2        0.00000   0.00000   0.00000   0.00000   0.00000
 134       56D 0        0.00000  -0.00180   0.00000   0.00000   0.01141
 135       56D+1        0.00000   0.00000   0.00469   0.00000   0.00000
 136       56D-1        0.00224   0.00000   0.00000   0.00469   0.00000
 137       56D+2        0.00000  -0.00000   0.00000   0.00000  -0.00000
 138       56D-2        0.00000   0.00000   0.00000   0.00000   0.00000
 139       57D 0        0.00000   0.00094   0.00000   0.00000   0.00584
 140       57D+1        0.00000   0.00000   0.00758   0.00000   0.00000
 141       57D-1        0.00030   0.00000   0.00000   0.00758   0.00000
 142       57D+2        0.00000   0.00000   0.00000   0.00000   0.00000
 143       57D-2        0.00000   0.00000   0.00000   0.00000   0.00000
 144       58D 0        0.00000  -0.00018   0.00000   0.00000   0.00256
 145       58D+1        0.00000   0.00000  -0.00502   0.00000   0.00000
 146       58D-1       -0.00235   0.00000   0.00000  -0.00502   0.00000
 147       58D+2        0.00000   0.00000   0.00000   0.00000   0.00000
 148       58D-2        0.00000   0.00000   0.00000   0.00000   0.00000
 149       59D 0        0.00000   0.00042   0.00000   0.00000   0.01482
 150       59D+1        0.00000   0.00000  -0.01457   0.00000   0.00000
 151       59D-1       -0.00704   0.00000   0.00000  -0.01457   0.00000
 152       59D+2        0.00000   0.00000   0.00000   0.00000   0.00000
 153       59D-2        0.00000   0.00000   0.00000   0.00000   0.00000
 154       60D 0        0.00000  -0.00015   0.00000   0.00000  -0.00112
 155       60D+1        0.00000   0.00000  -0.00184   0.00000   0.00000
 156       60D-1       -0.00006   0.00000   0.00000  -0.00184   0.00000
 157       60D+2        0.00000  -0.00000   0.00000   0.00000  -0.00000
 158       60D-2        0.00000   0.00000   0.00000   0.00000   0.00000
 159       61F 0        0.00000  -0.00174   0.00000   0.00000  -0.00457
 160       61F+1        0.00000   0.00000   0.00325   0.00000   0.00000
 161       61F-1       -0.00079   0.00000   0.00000   0.00325   0.00000
 162       61F+2        0.00000   0.00000   0.00000   0.00000   0.00000
 163       61F-2        0.00000   0.00000   0.00000   0.00000   0.00000
 164       61F+3        0.00000   0.00000   0.00000   0.00000   0.00000
 165       61F-3       -0.00000   0.00000   0.00000  -0.00000   0.00000
 166       62F 0        0.00000  -0.00731   0.00000   0.00000  -0.02020
 167       62F+1        0.00000   0.00000   0.01379   0.00000   0.00000
 168       62F-1       -0.00211   0.00000   0.00000   0.01379   0.00000
 169       62F+2        0.00000  -0.00000   0.00000   0.00000  -0.00000
 170       62F-2        0.00000   0.00000   0.00000   0.00000   0.00000
 171       62F+3        0.00000   0.00000  -0.00000   0.00000   0.00000
 172       62F-3        0.00000   0.00000   0.00000   0.00000   0.00000
 173       63F 0        0.00000  -0.00726   0.00000   0.00000  -0.02041
 174       63F+1        0.00000   0.00000   0.01668   0.00000   0.00000
 175       63F-1       -0.00467   0.00000   0.00000   0.01668   0.00000
 176       63F+2        0.00000   0.00000   0.00000   0.00000   0.00000
 177       63F-2        0.00000   0.00000   0.00000   0.00000   0.00000
 178       63F+3        0.00000   0.00000   0.00000   0.00000   0.00000
 179       63F-3        0.00000   0.00000   0.00000  -0.00000   0.00000
 180       64F 0        0.00000   0.00149   0.00000   0.00000  -0.00734
 181       64F+1        0.00000   0.00000  -0.00916   0.00000   0.00000
 182       64F-1       -0.00240   0.00000   0.00000  -0.00916   0.00000
 183       64F+2        0.00000   0.00000   0.00000   0.00000   0.00000
 184       64F-2        0.00000   0.00000   0.00000   0.00000   0.00000
 185       64F+3        0.00000   0.00000  -0.00000   0.00000   0.00000
 186       64F-3        0.00000   0.00000   0.00000   0.00000   0.00000
 187       65F 0        0.00000  -0.00042   0.00000   0.00000  -0.00313
 188       65F+1        0.00000   0.00000  -0.00310   0.00000   0.00000
 189       65F-1       -0.00035   0.00000   0.00000  -0.00310   0.00000
 190       65F+2        0.00000  -0.00000   0.00000   0.00000  -0.00000
 191       65F-2        0.00000   0.00000   0.00000   0.00000   0.00000
 192       65F+3        0.00000   0.00000  -0.00000   0.00000   0.00000
 193       65F-3        0.00000   0.00000   0.00000   0.00000   0.00000
 194       66G 0        0.00000   0.00022   0.00000   0.00000   0.00113
 195       66G+1        0.00000   0.00000  -0.00078   0.00000   0.00000
 196       66G-1       -0.00032   0.00000   0.00000  -0.00078   0.00000
 197       66G+2        0.00000  -0.00000   0.00000   0.00000  -0.00000
 198       66G-2        0.00000   0.00000   0.00000   0.00000   0.00000
 199       66G+3        0.00000   0.00000   0.00000   0.00000   0.00000
 200       66G-3       -0.00000   0.00000   0.00000  -0.00000   0.00000
 201       66G+4        0.00000  -0.00000   0.00000   0.00000  -0.00000
 202       66G-4        0.00000   0.00000   0.00000   0.00000   0.00000
 203       67G 0        0.00000   0.00076   0.00000   0.00000   0.00504
 204       67G+1        0.00000   0.00000  -0.00399   0.00000   0.00000
 205       67G-1       -0.00072   0.00000   0.00000  -0.00399   0.00000
 206       67G+2        0.00000  -0.00000   0.00000   0.00000  -0.00000
 207       67G-2        0.00000   0.00000   0.00000   0.00000   0.00000
 208       67G+3        0.00000   0.00000  -0.00000   0.00000   0.00000
 209       67G-3       -0.00000   0.00000   0.00000   0.00000   0.00000
 210       67G+4        0.00000   0.00000   0.00000   0.00000   0.00000
 211       67G-4        0.00000   0.00000   0.00000   0.00000   0.00000
 212       68G 0        0.00000  -0.00005   0.00000   0.00000   0.00045
 213       68G+1        0.00000   0.00000  -0.00088   0.00000   0.00000
 214       68G-1        0.00066   0.00000   0.00000  -0.00088   0.00000
 215       68G+2        0.00000  -0.00000   0.00000   0.00000  -0.00000
 216       68G-2        0.00000   0.00000   0.00000   0.00000   0.00000
 217       68G+3        0.00000   0.00000  -0.00000   0.00000   0.00000
 218       68G-3       -0.00000   0.00000   0.00000  -0.00000   0.00000
 219       68G+4        0.00000  -0.00000   0.00000   0.00000  -0.00000
 220       68G-4        0.00000   0.00000   0.00000   0.00000   0.00000
 221       69G 0        0.00000   0.00001   0.00000   0.00000   0.00261
 222       69G+1        0.00000   0.00000   0.00202   0.00000   0.00000
 223       69G-1        0.00048   0.00000   0.00000   0.00202   0.00000
 224       69G+2        0.00000  -0.00000   0.00000   0.00000  -0.00000
 225       69G-2        0.00000   0.00000   0.00000   0.00000   0.00000
 226       69G+3        0.00000   0.00000   0.00000   0.00000   0.00000
[...]
 164       61F+3        0.00000   0.00000   0.00000   0.00000
 165       61F-3        0.00000   0.00000   0.00000   0.00000
 166       62F 0        0.00815   0.00408   0.00407   0.00001
 167       62F+1        0.00388   0.00194   0.00194   0.00000
 168       62F-1        0.00388   0.00194   0.00194   0.00000
 169       62F+2       -0.00000  -0.00000  -0.00000   0.00000
 170       62F-2       -0.00000  -0.00000  -0.00000  -0.00000
 171       62F+3       -0.00000  -0.00000  -0.00000   0.00000
 172       62F-3        0.00000   0.00000   0.00000   0.00000
 173       63F 0        0.00836   0.00416   0.00420  -0.00004
 174       63F+1        0.01242   0.00621   0.00621   0.00000
 175       63F-1        0.01242   0.00621   0.00621   0.00000
 176       63F+2        0.00000   0.00000   0.00000  -0.00000
 177       63F-2        0.00000   0.00000   0.00000  -0.00000
 178       63F+3        0.00000   0.00000   0.00000   0.00000
 179       63F-3        0.00000  -0.00000   0.00000  -0.00000
 180       64F 0       -0.00382  -0.00196  -0.00186  -0.00010
 181       64F+1       -0.00557  -0.00279  -0.00279   0.00000
 182       64F-1       -0.00557  -0.00279  -0.00279   0.00000
 183       64F+2       -0.00000  -0.00000  -0.00000   0.00000
 184       64F-2       -0.00000  -0.00000  -0.00000  -0.00000
 185       64F+3        0.00000   0.00000   0.00000   0.00000
 186       64F-3       -0.00000  -0.00000  -0.00000  -0.00000
 187       65F 0       -0.00037  -0.00019  -0.00019  -0.00000
 188       65F+1       -0.00040  -0.00020  -0.00020  -0.00000
 189       65F-1       -0.00040  -0.00020  -0.00020   0.00000
 190       65F+2        0.00000   0.00000   0.00000   0.00000
 191       65F-2        0.00000   0.00000   0.00000  -0.00000
 192       65F+3        0.00000   0.00000   0.00000   0.00000
 193       65F-3        0.00000   0.00000   0.00000   0.00000
 194       66G 0        0.00008   0.00004   0.00004   0.00000
 195       66G+1        0.00003   0.00002   0.00002   0.00000
 196       66G-1        0.00003   0.00002   0.00002   0.00000
 197       66G+2        0.00000   0.00000   0.00000   0.00000
 198       66G-2        0.00000   0.00000   0.00000   0.00000
 199       66G+3       -0.00000  -0.00000  -0.00000   0.00000
 200       66G-3        0.00000   0.00000  -0.00000   0.00000
 201       66G+4       -0.00000  -0.00000  -0.00000  -0.00000
 202       66G-4       -0.00000  -0.00000  -0.00000  -0.00000
 203       67G 0        0.00160   0.00080   0.00080  -0.00000
 204       67G+1        0.00118   0.00059   0.00059   0.00000
 205       67G-1        0.00118   0.00059   0.00059   0.00000
 206       67G+2        0.00000   0.00000  -0.00000   0.00000
 207       67G-2        0.00000   0.00000   0.00000   0.00000
 208       67G+3       -0.00000  -0.00000  -0.00000   0.00000
 209       67G-3       -0.00000  -0.00000  -0.00000   0.00000
 210       67G+4        0.00000   0.00000   0.00000  -0.00000
 211       67G-4        0.00000   0.00000   0.00000  -0.00000
 212       68G 0       -0.00004  -0.00002  -0.00002  -0.00000
 213       68G+1        0.00056   0.00028   0.00028   0.00000
 214       68G-1        0.00056   0.00028   0.00028   0.00000
 215       68G+2        0.00000   0.00000   0.00000  -0.00000
 216       68G-2        0.00000   0.00000   0.00000  -0.00000
 217       68G+3        0.00000   0.00000  -0.00000   0.00000
 218       68G-3        0.00000   0.00000   0.00000  -0.00000
 219       68G+4       -0.00000  -0.00000  -0.00000   0.00000
 220       68G-4       -0.00000  -0.00000  -0.00000   0.00000
 221       69G 0       -0.00050  -0.00024  -0.00026   0.00001
 222       69G+1       -0.00041  -0.00020  -0.00020   0.00000
 223       69G-1       -0.00041  -0.00020  -0.00020   0.00000
 224       69G+2       -0.00000  -0.00000  -0.00000  -0.00000
 225       69G-2       -0.00000  -0.00000  -0.00000  -0.00000
 226       69G+3        0.00000   0.00000   0.00000   0.00000
 227       69G-3        0.00000   0.00000   0.00000  -0.00000
 228       69G+4        0.00000   0.00000   0.00000  -0.00000
 229       69G-4        0.00000   0.00000   0.00000  -0.00000
 230       70H 0        0.00009   0.00004   0.00004   0.00000
 231       70H+1        0.00005   0.00002   0.00002   0.00000
 232       70H-1        0.00005   0.00002   0.00002   0.00000
 233       70H+2        0.00000   0.00000   0.00000   0.00000
 234       70H-2        0.00000   0.00000   0.00000   0.00000
 235       70H+3        0.00000   0.00000   0.00000  -0.00000
 236       70H-3        0.00000   0.00000   0.00000  -0.00000
 237       70H+4        0.00000   0.00000  -0.00000   0.00000
 238       70H-4        0.00000   0.00000  -0.00000   0.00000
 239       70H+5        0.00000   0.00000   0.00000   0.00000
 240       70H-5       -0.00000  -0.00000  -0.00000   0.00000
 241       71H 0        0.00001   0.00001   0.00000   0.00000
 242       71H+1        0.00051   0.00025   0.00025   0.00000
 243       71H-1        0.00051   0.00025   0.00025   0.00000
 244       71H+2       -0.00000  -0.00000  -0.00000  -0.00000
 245       71H-2       -0.00000  -0.00000  -0.00000   0.00000
 246       71H+3        0.00000   0.00000   0.00000   0.00000
 247       71H-3       -0.00000  -0.00000  -0.00000  -0.00000
 248       71H+4        0.00000   0.00000   0.00000   0.00000
 249       71H-4       -0.00000   0.00000  -0.00000   0.00000
 250       71H+5        0.00000   0.00000   0.00000  -0.00000
 251       71H-5       -0.00000  -0.00000  -0.00000  -0.00000
 252       72H 0       -0.00009  -0.00004  -0.00004  -0.00000
 253       72H+1        0.00024   0.00012   0.00012  -0.00000
 254       72H-1        0.00024   0.00012   0.00012   0.00000
 255       72H+2       -0.00000  -0.00000  -0.00000   0.00000
 256       72H-2       -0.00000  -0.00000  -0.00000   0.00000
 257       72H+3       -0.00000  -0.00000  -0.00000   0.00000
 258       72H-3       -0.00000  -0.00000  -0.00000  -0.00000
 259       72H+4        0.00000   0.00000   0.00000   0.00000
 260       72H-4        0.00000   0.00000   0.00000   0.00000
 261       72H+5        0.00000   0.00000   0.00000  -0.00000
 262       72H-5        0.00000   0.00000   0.00000  -0.00000
 263 2   O  1S         -0.00000  -0.00000  -0.00000  -0.00000
 264        2S          0.00000   0.00000   0.00000   0.00000
 265        3S         -0.00000  -0.00000  -0.00000  -0.00000
 266        4S          0.00000   0.00000   0.00000   0.00000
 267        5S         -0.00000  -0.00000  -0.00000  -0.00000
 268        6S         -0.00006  -0.00003  -0.00003  -0.00000
 269        7S         -0.00050  -0.00025  -0.00025  -0.00000
 270        8S         -0.09265  -0.04643  -0.04622  -0.00021
 271        9S         -0.07826  -0.03922  -0.03904  -0.00018
 272       10S          0.43141   0.21615   0.21527   0.00088
 273       11S          1.06499   0.53306   0.53193   0.00113
 274       12S          0.59672   0.29645   0.30027  -0.00383
 275       13S          0.05579   0.02796   0.02783   0.00013
 276       14S          0.00030   0.00015   0.00015   0.00000
 277       15S          0.00003   0.00001   0.00001   0.00000
 278       16S          0.08466   0.04434   0.04032   0.00402
 279       17PX        -0.00017  -0.00008  -0.00008   0.00000
 280       17PY        -0.00017  -0.00008  -0.00008   0.00000
 281       17PZ        -0.00020  -0.00010  -0.00010  -0.00000
 282       18PX        -0.12122  -0.06061  -0.06061   0.00000
 283       18PY        -0.12122  -0.06061  -0.06061   0.00000
 284       18PZ        -0.13773  -0.06894  -0.06879  -0.00015
 285       19PX         0.13421   0.06711   0.06711  -0.00000
 286       19PY         0.13421   0.06711   0.06711   0.00000
 287       19PZ         0.13607   0.06811   0.06796   0.00015
 288       20PX         0.46297   0.23148   0.23148   0.00000
 289       20PY         0.46297   0.23148   0.23148   0.00000
 290       20PZ         0.47644   0.23849   0.23796   0.00053
 291       21PX         0.69885   0.34942   0.34942   0.00000
 292       21PY         0.69885   0.34942   0.34942   0.00000
 293       21PZ         0.57428   0.28757   0.28671   0.00086
 294       22PX         0.44346   0.22173   0.22173   0.00000
 295       22PY         0.44346   0.22173   0.22173   0.00000
 296       22PZ         0.17278   0.08614   0.08664  -0.00050
 297       23PX         0.13860   0.06930   0.06930   0.00000
 298       23PY         0.13860   0.06930   0.06930   0.00000
 299       23PZ         0.15580   0.07799   0.07782   0.00017
 300       24PX         0.00064   0.00032   0.00032   0.00000
 301       24PY         0.00064   0.00032   0.00032   0.00000
 302       24PZ         0.00071   0.00036   0.00036   0.00000
 303       25PX         0.00001   0.00000   0.00000   0.00000
 304       25PY         0.00001   0.00000   0.00000   0.00000
 305       25PZ         0.00001   0.00001   0.00001   0.00000
 306       26PX         0.04099   0.02049   0.02049   0.00000
 307       26PY         0.04099   0.02049   0.02049   0.00000
 308       26PZ         0.01621   0.00550   0.01071  -0.00521
 309       27D 0        0.00032   0.00016   0.00016   0.00000
 310       27D+1        0.00012   0.00006   0.00006   0.00000
 311       27D-1        0.00012   0.00006   0.00006   0.00000
 312       27D+2       -0.00000  -0.00000  -0.00000  -0.00000
 313       27D-2       -0.00000  -0.00000  -0.00000  -0.00000
 314       28D 0        0.00620   0.00314   0.00306   0.00008
 315       28D+1        0.00292   0.00146   0.00146   0.00000
 316       28D-1        0.00292   0.00146   0.00146   0.00000
 317       28D+2        0.00000   0.00000   0.00000   0.00000
 318       28D-2        0.00000   0.00000   0.00000   0.00000
 319       29D 0        0.00704   0.00383   0.00321   0.00062
 320       29D+1        0.01170   0.00585   0.00585   0.00000
 321       29D-1        0.01170   0.00585   0.00585   0.00000
 322       29D+2       -0.00000  -0.00000  -0.00000   0.00000
 323       29D-2       -0.00000  -0.00000  -0.00000  -0.00000
 324       30D 0        0.00001   0.00000   0.00000   0.00000
 325       30D+1        0.00000   0.00000   0.00000   0.00000
 326       30D-1        0.00000   0.00000   0.00000   0.00000
 327       30D+2        0.00000   0.00000   0.00000   0.00000
 328       30D-2        0.00000   0.00000   0.00000   0.00000
 329       31D 0       -0.00000  -0.00000  -0.00000  -0.00000
 330       31D+1       -0.00000  -0.00000  -0.00000   0.00000
 331       31D-1       -0.00000  -0.00000  -0.00000  -0.00000
 332       31D+2       -0.00000  -0.00000  -0.00000  -0.00000
 333       31D-2       -0.00000  -0.00000  -0.00000  -0.00000
 334       32D 0       -0.00062  -0.00028  -0.00034   0.00006
 335       32D+1        0.00103   0.00051   0.00051   0.00000
 336       32D-1        0.00103   0.00051   0.00051  -0.00000
 337       32D+2       -0.00000  -0.00000   0.00000  -0.00000
 338       32D-2       -0.00000  -0.00000  -0.00000  -0.00000
 339       33F 0        0.00018   0.00009   0.00009   0.00000
 340       33F+1        0.00006   0.00003   0.00003   0.00000
 341       33F-1        0.00006   0.00003   0.00003   0.00000
 342       33F+2       -0.00000  -0.00000  -0.00000   0.00000
 343       33F-2       -0.00000  -0.00000  -0.00000   0.00000
 344       33F+3       -0.00000  -0.00000  -0.00000   0.00000
 345       33F-3        0.00000   0.00000   0.00000  -0.00000
 346       34F 0        0.00216   0.00111   0.00105   0.00007
 347       34F+1        0.00161   0.00080   0.00080   0.00000
 348       34F-1        0.00161   0.00080   0.00080   0.00000
 349       34F+2        0.00000   0.00000   0.00000   0.00000
 350       34F-2        0.00000   0.00000   0.00000  -0.00000
 351       34F+3       -0.00000  -0.00000  -0.00000  -0.00000
 352       34F-3        0.00000   0.00000   0.00000   0.00000
 353       35F 0        0.00000   0.00000   0.00000   0.00000
 354       35F+1        0.00000   0.00000   0.00000   0.00000
 355       35F-1        0.00000   0.00000   0.00000   0.00000
 356       35F+2       -0.00000  -0.00000  -0.00000   0.00000
 357       35F-2       -0.00000  -0.00000  -0.00000  -0.00000
 358       35F+3        0.00000   0.00000   0.00000   0.00000
 359       35F-3       -0.00000  -0.00000  -0.00000   0.00000
 360       36F 0        0.00018   0.00020  -0.00001   0.00021
 361       36F+1        0.00026   0.00013   0.00013   0.00000
 362       36F-1        0.00026   0.00013   0.00013   0.00000
 363       36F+2       -0.00000  -0.00000  -0.00000  -0.00000
 364       36F-2       -0.00000  -0.00000  -0.00000  -0.00000
 365       36F+3        0.00000   0.00000   0.00000   0.00000
 366       36F-3       -0.00000  -0.00000   0.00000  -0.00000
 367       37G 0        0.00013   0.00006   0.00006   0.00000
 368       37G+1        0.00007   0.00004   0.00004   0.00000
 369       37G-1        0.00007   0.00004   0.00004   0.00000
 370       37G+2        0.00000   0.00000   0.00000   0.00000
 371       37G-2        0.00000   0.00000   0.00000  -0.00000
 372       37G+3       -0.00000  -0.00000  -0.00000  -0.00000
 373       37G-3       -0.00000  -0.00000  -0.00000  -0.00000
 374       37G+4       -0.00000  -0.00000  -0.00000  -0.00000
 375       37G-4       -0.00000  -0.00000  -0.00000  -0.00000
 376       38G 0        0.00024   0.00012   0.00012   0.00000
 377       38G+1        0.00028   0.00014   0.00014   0.00000
 378       38G-1        0.00028   0.00014   0.00014   0.00000
 379       38G+2       -0.00000  -0.00000  -0.00000  -0.00000
 380       38G-2       -0.00000  -0.00000  -0.00000  -0.00000
 381       38G+3       -0.00000   0.00000  -0.00000   0.00000
 382       38G-3       -0.00000   0.00000  -0.00000   0.00000
 383       38G+4        0.00000   0.00000   0.00000  -0.00000
 384       38G-4        0.00000   0.00000   0.00000  -0.00000
          Condensed to atoms (all electrons):
               1          2
     1  Sc  10.233020  -0.338426
     2  O   -0.338426   7.443833
          Atomic-Atomic Spin Densities.
               1          2
     1  Sc   1.010866  -0.009694
     2  O   -0.009694   0.008522
 Mulliken charges and spin densities:
               1          2
     1  Sc   1.105407   1.001172
     2  O   -1.105407  -0.001172
 Sum of Mulliken charges =  -0.00000   1.00000
 Mulliken charges and spin densities with hydrogens summed into heavy atoms:
               1          2
     1  Sc   1.105407   1.001172
     2  O   -1.105407  -0.001172
 Electronic spatial extent (au):  <R**2>=             83.2484
 Charge=             -0.0000 electrons
 Dipole moment (field-independent basis, Debye):
    X=              0.0000    Y=              0.0000    Z=              1.5980  Tot=              1.5980
 Quadrupole moment (field-independent basis, Debye-Ang):
   XX=            -22.2021   YY=            -22.2021   ZZ=            -30.0673
   XY=              0.0000   XZ=              0.0000   YZ=              0.0000
 Traceless Quadrupole moment (field-independent basis, Debye-Ang):
   XX=              2.6217   YY=              2.6217   ZZ=             -5.2434
   XY=              0.0000   XZ=              0.0000   YZ=              0.0000
 Octapole moment (field-independent basis, Debye-Ang**2):
  XXX=              0.0000  YYY=              0.0000  ZZZ=            -17.3007  XYY=              0.0000
  XXY=              0.0000  XXZ=             -5.6474  XZZ=              0.0000  YZZ=              0.0000
  YYZ=             -5.6474  XYZ=              0.0000
 Hexadecapole moment (field-independent basis, Debye-Ang**3):
 XXXX=            -56.4835 YYYY=            -56.4835 ZZZZ=           -151.7900 XXXY=              0.0000
 XXXZ=              0.0000 YYYX=              0.0000 YYYZ=              0.0000 ZZZX=              0.0000
 ZZZY=              0.0000 XXYY=            -18.8278 XXZZ=            -34.4914 YYZZ=            -34.4914
 XXYZ=              0.0000 YYXZ=              0.0000 ZZXY=              0.0000
 N-N= 2.494692565766D+01 E-N=-1.855545682723D+02  KE= 3.193799159690D+01
 Symmetry A1   KE= 1.488719309141D+01
 Symmetry A2   KE= 3.776572498062D-50
 Symmetry B1   KE= 8.525399253373D+00
 Symmetry B2   KE= 8.525399252811D+00
 Symmetry A1   SP= 1.000000000000D+00
 Symmetry A2   SP= 4.345314000720D-50
 Symmetry B1   SP= 8.587763637577D-19
 Symmetry B2   SP= 3.651662665740D-17
 Orbital energies and kinetic energies (alpha):
                                 1                 2
   4         O                -1.552487          2.076641
   5         O                -1.093791          1.494878
   6         O                -0.523586          2.186058
   7         O                -0.523586          2.186058
   8         O                -0.460700          2.859774
   9         O                -0.211443          0.263460
  10         V                 0.008217          0.049603
  11         V                 0.008217          0.049603
  12         V                 0.020055          0.030398
  13         V                 0.020471          0.035927
  14         V                 0.027908          0.030779
 Total kinetic energy from orbitals= 3.220145184181D+01
                          Isotropic Fermi Contact Couplings
        Atom                 a.u.       MegaHertz       Gauss      10(-4) cm-1
     1  Sc(45)             0.00054       0.58510       0.20878       0.19517
     2  O(17)              0.00006      -0.03502      -0.01250      -0.01168
 --------------------------------------------------------
       Center         ----  Spin Dipole Couplings  ----
                      3XX-RR        3YY-RR        3ZZ-RR
 --------------------------------------------------------
     1   Atom       -0.028826     -0.028826      0.057652
     2   Atom       -0.006792     -0.006792      0.013584
 --------------------------------------------------------
                        XY            XZ            YZ
 --------------------------------------------------------
     1   Atom        0.000000      0.000000      0.000000
     2   Atom        0.000000      0.000000      0.000000
 --------------------------------------------------------


 ---------------------------------------------------------------------------------
              Anisotropic Spin Dipole Couplings in Principal Axis System
 ---------------------------------------------------------------------------------

       Atom             a.u.   MegaHertz   Gauss  10(-4) cm-1        Axes

              Baa    -0.0288    -3.742    -1.335    -1.248 -0.0000  1.0000  0.0000
     1 Sc(45) Bbb    -0.0288    -3.742    -1.335    -1.248  1.0000  0.0000  0.0000
              Bcc     0.0577     7.484     2.670     2.496  0.0000  0.0000  1.0000
 
              Baa    -0.0068     0.491     0.175     0.164  1.0000  0.0000  0.0000
     2 O(17)  Bbb    -0.0068     0.491     0.175     0.164 -0.0000  1.0000  0.0000
              Bcc     0.0136    -0.983    -0.351    -0.328  0.0000  0.0000  1.0000
 

 ---------------------------------------------------------------------------------

 No NMR shielding tensors so no spin-rotation constants.
 Leave Link  601 at Tue Feb 27 14:17:31 2018, MaxMem= 10737418240 cpu:             115.4 elap:               7.5
 (Enter /home1/apps/gaussian/16rA.03/g16/l9999.exe)
 1\1\GINC-C465-062\SP\ROCCSD(T)-Full\Gen\O1Sc1(2)\AANNABE\27-Feb-2018\0
 \\#P ROCCSD(T)=(maxcyc=150, Full, SaveAmplitudes, ReadAmplitudes)/Gen 
 5d 7f SCF=(maxcycles=300) Integral(NoXCTest) MaxDisk=500GB Pop=Regular
  Pseudo=Read Guess=Read\\ScO\\0,2\Sc,0,0.,0.,0.\O,0,0.,0.,1.4\\Version
 =ES64L-G16RevA.03\State=2-SG\HF=-61.9972648\MP2=-62.6992457\PUHF=-61.9
 972648\PMP2-0=-62.6992457\CCSD=-62.6897327\CCSD(T)=-62.7239252\RMSD=4.
 789e-10\PG=C*V [C*(O1Sc1)]\\@


 LENDING MONEY TO FRIENDS CAUSES THEM TO LOSE THEIR MEMORIES.

    --  PETER'S THEORY OF RECIPROCAL INHIBITION OF FISCAL RECALL
 Job cpu time:       0 days 18 hours 56 minutes 15.6 seconds.
 Elapsed time:       0 days  1 hours 11 minutes 19.8 seconds.
 File lengths (MBytes):  RWF=  11423 Int=      0 D2E=      0 Chk=     61 Scr=      1
 Normal termination of Gaussian 16 at Tue Feb 27 14:17:31 2018.
