 Entering Gaussian System, Link 0=g16
 Initial command:
 /home1/apps/gaussian/16rA.03/g16/l1.exe "/tmp/Gau-155237.inp" -scrdir="/tmp/"
 Entering Link 1 = /home1/apps/gaussian/16rA.03/g16/l1.exe PID=    155238.
  
 Copyright (c) 1988,1990,1992,1993,1995,1998,2003,2009,2016,
            Gaussian, Inc.  All Rights Reserved.
  
 This is part of the Gaussian(R) 16 program.  It is based on
 the Gaussian(R) 09 system (copyright 2009, Gaussian, Inc.),
 the Gaussian(R) 03 system (copyright 2003, Gaussian, Inc.),
 the Gaussian(R) 98 system (copyright 1998, Gaussian, Inc.),
 the Gaussian(R) 94 system (copyright 1995, Gaussian, Inc.),
 the Gaussian 92(TM) system (copyright 1992, Gaussian, Inc.),
 the Gaussian 90(TM) system (copyright 1990, Gaussian, Inc.),
 the Gaussian 88(TM) system (copyright 1988, Gaussian, Inc.),
 the Gaussian 86(TM) system (copyright 1986, Carnegie Mellon
 University), and the Gaussian 82(TM) system (copyright 1983,
 Carnegie Mellon University). Gaussian is a federally registered
 trademark of Gaussian, Inc.
  
 This software contains proprietary and confidential information,
 including trade secrets, belonging to Gaussian, Inc.
  
 This software is provided under written license and may be
 used, copied, transmitted, or stored only in accord with that
 written license.
  
 The following legend is applicable only to US Government
 contracts under FAR:
  
                    RESTRICTED RIGHTS LEGEND
  
 Use, reproduction and disclosure by the US Government is
 subject to restrictions as set forth in subparagraphs (a)
 and (c) of the Commercial Computer Software - Restricted
 Rights clause in FAR 52.227-19.
  
 Gaussian, Inc.
 340 Quinnipiac St., Bldg. 40, Wallingford CT 06492
  
  
 ---------------------------------------------------------------
 Warning -- This program may not be used in any manner that
 competes with the business of Gaussian, Inc. or will provide
 assistance to any competitor of Gaussian, Inc.  The licensee
 of this program is prohibited from giving any competitor of
 Gaussian, Inc. access to this program.  By using this program,
 the user acknowledges that Gaussian, Inc. is engaged in the
 business of creating and licensing software in the field of
 computational chemistry and represents and warrants to the
 licensee that it is not a competitor of Gaussian, Inc. and that
 it will not use this program in any manner prohibited above.
 ---------------------------------------------------------------
  

 Cite this work as:
 Gaussian 16, Revision A.03,
 M. J. Frisch, G. W. Trucks, H. B. Schlegel, G. E. Scuseria, 
 M. A. Robb, J. R. Cheeseman, G. Scalmani, V. Barone, 
 G. A. Petersson, H. Nakatsuji, X. Li, M. Caricato, A. V. Marenich, 
 J. Bloino, B. G. Janesko, R. Gomperts, B. Mennucci, H. P. Hratchian, 
 J. V. Ortiz, A. F. Izmaylov, J. L. Sonnenberg, D. Williams-Young, 
 F. Ding, F. Lipparini, F. Egidi, J. Goings, B. Peng, A. Petrone, 
 T. Henderson, D. Ranasinghe, V. G. Zakrzewski, J. Gao, N. Rega, 
 G. Zheng, W. Liang, M. Hada, M. Ehara, K. Toyota, R. Fukuda, 
 J. Hasegawa, M. Ishida, T. Nakajima, Y. Honda, O. Kitao, H. Nakai, 
 T. Vreven, K. Throssell, J. A. Montgomery, Jr., J. E. Peralta, 
 F. Ogliaro, M. J. Bearpark, J. J. Heyd, E. N. Brothers, K. N. Kudin, 
 V. N. Staroverov, T. A. Keith, R. Kobayashi, J. Normand, 
 K. Raghavachari, A. P. Rendell, J. C. Burant, S. S. Iyengar, 
 J. Tomasi, M. Cossi, J. M. Millam, M. Klene, C. Adamo, R. Cammi, 
 J. W. Ochterski, R. L. Martin, K. Morokuma, O. Farkas, 
 J. B. Foresman, and D. J. Fox, Gaussian, Inc., Wallingford CT, 2016.
 
 ******************************************
 Gaussian 16:  ES64L-G16RevA.03 25-Dec-2016
                13-Apr-2018 
 ******************************************
 %mem=80GB
 %cpu=0-31
 SetSPE:  set environment variable "MP_BIND" = "yes"
 SetSPE:  set environment variable "MP_BLIST" = "0,1,2,3,4,5,6,7,8,9,10,11,12,13,14,15,16,17,18,19,20,21,22,23,24,25,26,27,28,29,30,31"
 Will use up to   32 processors via shared memory.
 %chk=tz.chk
 %rwf=/scratch/04843/gwang18/zno/
 ----------------------------------------------------------------------
 #P ROCCSD(T)=(MaxCyc=150, Full)/Gen SCF=(maxcycle=400, vshift=200) Pse
 udo=Read Integral(NoXCTest) Pop=Regular MaxDisk=500GB
 ----------------------------------------------------------------------
 1/38=1,172=1/1;
 2/12=2,17=6,18=5,40=1/2;
 3/5=7,11=2,16=1,17=8,25=1,30=1,47=8,116=101/1,2,3;
 4//1;
 5/5=2,7=400,10=200,38=5/2;
 8/5=-1,6=4,9=120000,10=90/1,4;
 9/5=7,6=150,14=2/13;
 6//1;
 99/5=1,9=1/99;
 Leave Link    1 at Fri Apr 13 18:32:46 2018, MaxMem= 10737418240 cpu:               8.4 elap:               0.3
 (Enter /home1/apps/gaussian/16rA.03/g16/l101.exe)
 ---
 ZnO
 ---
 Symbolic Z-matrix:
 Charge =  0 Multiplicity = 1
 Zn                    0.        0.        0. 
 O                     0.        0.        1.7 
 
 ITRead=  0  0
 MicOpt= -1 -1
 NAtoms=      2 NQM=        2 NQMF=       0 NMMI=      0 NMMIF=      0
                NMic=       0 NMicF=      0.
                    Isotopes and Nuclear Properties:
 (Nuclear quadrupole moments (NQMom) in fm**2, nuclear magnetic moments (NMagM)
  in nuclear magnetons)

  Atom         1           2
 IAtWgt=          64          16
 AtmWgt=  63.9291454  15.9949146
 NucSpn=           0           0
 AtZEff=  -0.0000000  -0.0000000
 NQMom=    0.0000000   0.0000000
 NMagM=    0.0000000   0.0000000
 AtZNuc=  30.0000000   8.0000000
 Leave Link  101 at Fri Apr 13 18:32:47 2018, MaxMem= 10737418240 cpu:               3.2 elap:               0.1
 (Enter /home1/apps/gaussian/16rA.03/g16/l202.exe)
                          Input orientation:                          
 ---------------------------------------------------------------------
 Center     Atomic      Atomic             Coordinates (Angstroms)
 Number     Number       Type             X           Y           Z
 ---------------------------------------------------------------------
      1         30           0        0.000000    0.000000    0.000000
      2          8           0        0.000000    0.000000    1.700000
 ---------------------------------------------------------------------
 Stoichiometry    OZn
 Framework group  C*V[C*(OZn)]
 Deg. of freedom     1
 Full point group                 C*V     NOp   4
 Largest Abelian subgroup         C2V     NOp   4
 Largest concise Abelian subgroup C1      NOp   1
                         Standard orientation:                         
 ---------------------------------------------------------------------
 Center     Atomic      Atomic             Coordinates (Angstroms)
 Number     Number       Type             X           Y           Z
 ---------------------------------------------------------------------
      1         30           0        0.000000    0.000000    0.357895
      2          8           0        0.000000    0.000000   -1.342105
 ---------------------------------------------------------------------
 Rotational constants (GHZ):           0.0000000          13.6683493          13.6683493
 Leave Link  202 at Fri Apr 13 18:32:47 2018, MaxMem= 10737418240 cpu:               0.8 elap:               0.1
 (Enter /home1/apps/gaussian/16rA.03/g16/l301.exe)
 General basis read from cards:  (5D, 7F)
 Centers:       1
 S 1 1.00
     Exponent=  5.8200210000D+06 Coefficients=  1.0000000000D+00
 S 1 1.00
     Exponent=  8.7152340000D+05 Coefficients=  1.0000000000D+00
 S 1 1.00
     Exponent=  1.9833500000D+05 Coefficients=  1.0000000000D+00
 S 1 1.00
     Exponent=  5.6176310000D+04 Coefficients=  1.0000000000D+00
 S 1 1.00
     Exponent=  1.8325820000D+04 Coefficients=  1.0000000000D+00
 S 1 1.00
     Exponent=  6.6149550000D+03 Coefficients=  1.0000000000D+00
 S 1 1.00
     Exponent=  2.5791990000D+03 Coefficients=  1.0000000000D+00
 S 1 1.00
     Exponent=  1.0688490000D+03 Coefficients=  1.0000000000D+00
 S 1 1.00
     Exponent=  4.6510450000D+02 Coefficients=  1.0000000000D+00
 S 1 1.00
     Exponent=  2.1041300000D+02 Coefficients=  1.0000000000D+00
 S 1 1.00
     Exponent=  9.7616290000D+01 Coefficients=  1.0000000000D+00
 S 1 1.00
     Exponent=  4.4380200000D+01 Coefficients=  1.0000000000D+00
 S 1 1.00
     Exponent=  2.1423080000D+01 Coefficients=  1.0000000000D+00
 S 1 1.00
     Exponent=  1.0308910000D+01 Coefficients=  1.0000000000D+00
 S 1 1.00
     Exponent=  4.5536450000D+00 Coefficients=  1.0000000000D+00
 S 1 1.00
     Exponent=  2.1328210000D+00 Coefficients=  1.0000000000D+00
 S 1 1.00
     Exponent=  9.2969700000D-01 Coefficients=  1.0000000000D+00
 S 1 1.00
     Exponent=  1.9214700000D-01 Coefficients=  1.0000000000D+00
 S 1 1.00
     Exponent=  8.7595000000D-02 Coefficients=  1.0000000000D+00
 S 1 1.00
     Exponent=  3.7702000000D-02 Coefficients=  1.0000000000D+00
 S 1 1.00
     Exponent=  7.0381000000D+00 Coefficients=  1.0000000000D+00
 S 1 1.00
     Exponent=  1.8099000000D+00 Coefficients=  1.0000000000D+00
 S 1 1.00
     Exponent=  1.6230000000D-02 Coefficients=  1.0000000000D+00
 P 1 1.00
     Exponent=  2.4411980000D+04 Coefficients=  1.0000000000D+00
 P 1 1.00
     Exponent=  5.7785180000D+03 Coefficients=  1.0000000000D+00
 P 1 1.00
     Exponent=  1.8768620000D+03 Coefficients=  1.0000000000D+00
 P 1 1.00
     Exponent=  7.1823610000D+02 Coefficients=  1.0000000000D+00
 P 1 1.00
     Exponent=  3.0483270000D+02 Coefficients=  1.0000000000D+00
 P 1 1.00
     Exponent=  1.3904530000D+02 Coefficients=  1.0000000000D+00
 P 1 1.00
     Exponent=  6.6804170000D+01 Coefficients=  1.0000000000D+00
 P 1 1.00
     Exponent=  3.3206990000D+01 Coefficients=  1.0000000000D+00
 P 1 1.00
     Exponent=  1.6928160000D+01 Coefficients=  1.0000000000D+00
 P 1 1.00
     Exponent=  8.6962290000D+00 Coefficients=  1.0000000000D+00
 P 1 1.00
     Exponent=  4.3505100000D+00 Coefficients=  1.0000000000D+00
 P 1 1.00
     Exponent=  2.1165230000D+00 Coefficients=  1.0000000000D+00
 P 1 1.00
     Exponent=  9.9538700000D-01 Coefficients=  1.0000000000D+00
 P 1 1.00
     Exponent=  3.7811200000D-01 Coefficients=  1.0000000000D+00
 P 1 1.00
     Exponent=  1.3457900000D-01 Coefficients=  1.0000000000D+00
 P 1 1.00
     Exponent=  4.6282000000D-02 Coefficients=  1.0000000000D+00
 P 1 1.00
     Exponent=  1.0150100000D+01 Coefficients=  1.0000000000D+00
 P 1 1.00
     Exponent=  2.3451000000D+00 Coefficients=  1.0000000000D+00
 P 1 1.00
     Exponent=  1.5920000000D-02 Coefficients=  1.0000000000D+00
 D 1 1.00
     Exponent=  2.0561770000D+02 Coefficients=  1.0000000000D+00
 D 1 1.00
     Exponent=  6.1449810000D+01 Coefficients=  1.0000000000D+00
 D 1 1.00
     Exponent=  2.3056890000D+01 Coefficients=  1.0000000000D+00
 D 1 1.00
     Exponent=  9.5777390000D+00 Coefficients=  1.0000000000D+00
 D 1 1.00
     Exponent=  4.1337340000D+00 Coefficients=  1.0000000000D+00
 D 1 1.00
     Exponent=  1.7475180000D+00 Coefficients=  1.0000000000D+00
 D 1 1.00
     Exponent=  6.9956000000D-01 Coefficients=  1.0000000000D+00
 D 1 1.00
     Exponent=  2.5160800000D-01 Coefficients=  1.0000000000D+00
 D 1 1.00
     Exponent=  7.7440000000D+00 Coefficients=  1.0000000000D+00
 D 1 1.00
     Exponent=  3.9663000000D+00 Coefficients=  1.0000000000D+00
 D 1 1.00
     Exponent=  9.0490000000D-02 Coefficients=  1.0000000000D+00
 F 1 1.00
     Exponent=  1.0327000000D+01 Coefficients=  1.0000000000D+00
 F 1 1.00
     Exponent=  4.0202000000D+00 Coefficients=  1.0000000000D+00
 F 1 1.00
     Exponent=  1.4851000000D+00 Coefficients=  1.0000000000D+00
 F 1 1.00
     Exponent=  5.4861000000D-01 Coefficients=  1.0000000000D+00
 G 1 1.00
     Exponent=  9.2538000000D+00 Coefficients=  1.0000000000D+00
 G 1 1.00
     Exponent=  4.1144000000D+00 Coefficients=  1.0000000000D+00
 G 1 1.00
     Exponent=  1.8293300000D+00 Coefficients=  1.0000000000D+00
 ****
 Centers:       2
 S 1 1.00
     Exponent=  1.5330000000D+04 Coefficients=  1.0000000000D+00
 S 1 1.00
     Exponent=  2.2990000000D+03 Coefficients=  1.0000000000D+00
 S 1 1.00
     Exponent=  5.2240000000D+02 Coefficients=  1.0000000000D+00
 S 1 1.00
     Exponent=  1.4730000000D+02 Coefficients=  1.0000000000D+00
 S 1 1.00
     Exponent=  4.7550000000D+01 Coefficients=  1.0000000000D+00
 S 1 1.00
     Exponent=  1.6760000000D+01 Coefficients=  1.0000000000D+00
 S 1 1.00
     Exponent=  6.2070000000D+00 Coefficients=  1.0000000000D+00
 S 1 1.00
     Exponent=  6.8820000000D-01 Coefficients=  1.0000000000D+00
 S 1 1.00
     Exponent=  1.7520000000D+00 Coefficients=  1.0000000000D+00
 S 1 1.00
     Exponent=  2.3840000000D-01 Coefficients=  1.0000000000D+00
 S 1 1.00
     Exponent=  7.8450000000D+00 Coefficients=  1.0000000000D+00
 S 1 1.00
     Exponent=  2.1032000000D+01 Coefficients=  1.0000000000D+00
 S 1 1.00
     Exponent=  7.3760000000D-02 Coefficients=  1.0000000000D+00
 P 1 1.00
     Exponent=  3.4460000000D+01 Coefficients=  1.0000000000D+00
 P 1 1.00
     Exponent=  7.7490000000D+00 Coefficients=  1.0000000000D+00
 P 1 1.00
     Exponent=  2.2800000000D+00 Coefficients=  1.0000000000D+00
 P 1 1.00
     Exponent=  7.1560000000D-01 Coefficients=  1.0000000000D+00
 P 1 1.00
     Exponent=  2.1400000000D-01 Coefficients=  1.0000000000D+00
 P 1 1.00
     Exponent=  1.5159000000D+01 Coefficients=  1.0000000000D+00
 P 1 1.00
     Exponent=  5.7437000000D+01 Coefficients=  1.0000000000D+00
 P 1 1.00
     Exponent=  5.9740000000D-02 Coefficients=  1.0000000000D+00
 D 1 1.00
     Exponent=  2.3140000000D+00 Coefficients=  1.0000000000D+00
 D 1 1.00
     Exponent=  6.4500000000D-01 Coefficients=  1.0000000000D+00
 D 1 1.00
     Exponent=  1.5858000000D+01 Coefficients=  1.0000000000D+00
 D 1 1.00
     Exponent=  2.1400000000D-01 Coefficients=  1.0000000000D+00
 F 1 1.00
     Exponent=  1.4280000000D+00 Coefficients=  1.0000000000D+00
 F 1 1.00
     Exponent=  5.0000000000D-01 Coefficients=  1.0000000000D+00
 ****
 ======================================================================================================
                                       Pseudopotential Parameters
 ======================================================================================================
  Center     Atomic      Valence      Angular      Power
  Number     Number     Electrons     Momentum     of R      Exponent        Coefficient   SO-Coeffient
 ======================================================================================================
    1         30           20
                                      D and up 
                                                     1       35.8079762       20.00000000    0.00000000
                                                     3       34.5364608      716.15952324    0.00000000
                                                     2       28.6283018     -204.68393324    0.00000000
                                                     2        7.9623968        0.76026614    0.00000000
                                      S - D
                                                     2       14.6349869       95.87640437    0.00000000
                                                     2       35.0214136      431.70804303    0.00000000
                                      P - D
                                                     2       14.5742930       74.01270049    0.00000000
                                                     2       42.2297923      313.57770564    0.00000000
    2          8            6
                                      P and up 
                                                     1       12.3099744        6.00000000    0.00000000
                                                     3       14.7696229       73.85984616    0.00000000
                                                     2       13.7141954      -47.87600504    0.00000000
                                      S - P
                                                     2       13.6551200       85.86406526    0.00000000
 ======================================================================================================
 Ernie: Thresh=  0.10000D-02 Tol=  0.10000D-05 Strict=F.
 There are   144 symmetry adapted cartesian basis functions of A1  symmetry.
 There are    30 symmetry adapted cartesian basis functions of A2  symmetry.
 There are    69 symmetry adapted cartesian basis functions of B1  symmetry.
 There are    69 symmetry adapted cartesian basis functions of B2  symmetry.
 There are   114 symmetry adapted basis functions of A1  symmetry.
 There are    27 symmetry adapted basis functions of A2  symmetry.
 There are    60 symmetry adapted basis functions of B1  symmetry.
 There are    60 symmetry adapted basis functions of B2  symmetry.
   261 basis functions,   312 primitive gaussians,   312 cartesian basis functions
    13 alpha electrons       13 beta electrons
       nuclear repulsion energy        37.3536854767 Hartrees.
 IExCor=    0 DFT=F Ex=HF Corr=None ExCW=0 ScaHFX=  1.000000
 ScaDFX=  1.000000  1.000000  1.000000  1.000000 ScalE2=  1.000000  1.000000
 IRadAn=      5 IRanWt=     -1 IRanGd=            0 ICorTp=0 IEmpDi=  4
 NAtoms=    2 NActive=    2 NUniq=    2 SFac= 1.00D+00 NAtFMM=   60 NAOKFM=F Big=F
 Integral buffers will be    131072 words long.
 Raffenetti 2 integral format.
 Two-electron integral symmetry is turned on.
 Leave Link  301 at Fri Apr 13 18:32:48 2018, MaxMem= 10737418240 cpu:               8.2 elap:               0.3
 (Enter /home1/apps/gaussian/16rA.03/g16/l302.exe)
 NPDir=0 NMtPBC=     1 NCelOv=     1 NCel=       1 NClECP=     1 NCelD=      1
         NCelK=      1 NCelE2=     1 NClLst=     1 CellRange=     0.0.
 One-electron integrals computed using PRISM.
 One-electron integral symmetry used in STVInt
   4 Symmetry operations used in ECPInt.
 ECPInt:  NShTT=    3828 NPrTT=    3828 LenC2=    3464 LenP2D=    3463.
 LDataN:  DoStor=T MaxTD1= 8 Len=  415
 NBasis=   261 RedAO= T EigKep=  3.36D-06  NBF=   114    27    60    60
 NBsUse=   261 1.00D-06 EigRej= -1.00D+00 NBFU=   114    27    60    60
 Leave Link  302 at Fri Apr 13 18:32:49 2018, MaxMem= 10737418240 cpu:              30.9 elap:               1.1
 (Enter /home1/apps/gaussian/16rA.03/g16/l303.exe)
 DipDrv:  MaxL=1.
 Leave Link  303 at Fri Apr 13 18:32:50 2018, MaxMem= 10737418240 cpu:               2.4 elap:               0.1
 (Enter /home1/apps/gaussian/16rA.03/g16/l401.exe)
 ExpMin= 1.59D-02 ExpMax= 5.82D+06 ExpMxC= 5.82D+06 IAcc=4 IRadAn=    199590 AccDes= 0.00D+00
 Harris functional with IExCor=  205 and IRadAn=  199590 diagonalized for initial guess.
 HarFok:  IExCor=  205 AccDes= 0.00D+00 IRadAn=    199590 IDoV= 1 UseB2=F ITyADJ=14
 ICtDFT=  3500011 ScaDFX=  1.000000  1.000000  1.000000  1.000000
 FoFCou: FMM=F IPFlag=           8 FMFlag=      100000 FMFlg1=           0
         NFxFlg=           0 DoJE=T BraDBF=F KetDBF=T FulRan=T
         wScrn=  0.000000 ICntrl=       500 IOpCl=  0 I1Cent=   200000004 NGrid=           0
         NMat0=    1 NMatS0=      1 NMatT0=    0 NMatD0=    1 NMtDS0=    0 NMtDT0=    0
 Petite list used in FoFCou.
 Harris En= -242.705843042069    
 JPrj=0 DoOrth=F DoCkMO=F.
 Initial guess orbital symmetries:
       Occupied  (SG) (SG) (PI) (PI) (SG) (SG) (PI) (PI) (DLTA)
                 (DLTA) (SG) (PI) (PI)
       Virtual   (SG) (PI) (PI) (SG) (SG) (PI) (PI) (SG) (PI) (PI)
                 (SG) (SG) (DLTA) (DLTA) (PI) (PI) (SG) (PI) (PI)
                 (SG) (SG) (SG) (DLTA) (DLTA) (SG) (PI) (PI) (PI)
                 (PI) (DLTA) (DLTA) (SG) (PI) (PI) (PI) (PI) (SG)
                 (SG) (SG) (DLTA) (DLTA) (PHI) (PHI) (PI) (PI)
                 (SG) (PHI) (PHI) (DLTA) (DLTA) (PI) (PI) (SG)
                 (DLTA) (DLTA) (SG) (PI) (PI) (DLTA) (DLTA) (SG)
                 (PI) (PI) (SG) (PI) (PI) (PI) (PI) (SG) (SG) (SG)
                 (PHI) (PHI) (DLTA) (DLTA) (PI) (PI) (SG) (PHI)
                 (PHI) (DLTA) (DLTA) (SG) (PI) (PI) (DLTA) (DLTA)
                 (PI) (PI) (DLTA) (DLTA) (PI) (PI) (SG) (SG) (?A)
                 (?A) (PHI) (PHI) (DLTA) (DLTA) (SG) (PI) (PI)
                 (PI) (PI) (SG) (SG) (PHI) (PHI) (DLTA) (DLTA)
                 (PI) (PI) (SG) (PI) (PI) (SG) (SG) (DLTA) (DLTA)
                 (PI) (PI) (SG) (PI) (PI) (SG) (SG) (?A) (PHI)
                 (PHI) (?A) (DLTA) (DLTA) (PI) (PI) (SG) (DLTA)
                 (DLTA) (PI) (PI) (SG) (PHI) (PHI) (DLTA) (DLTA)
                 (PI) (PI) (SG) (PI) (PI) (SG) (SG) (SG) (DLTA)
                 (DLTA) (PI) (PI) (SG) (PI) (PI) (SG) (?A) (?A)
                 (PHI) (PHI) (DLTA) (DLTA) (PI) (PI) (SG) (DLTA)
                 (DLTA) (PI) (PI) (SG) (PI) (PI) (SG) (SG) (SG)
                 (DLTA) (DLTA) (PI) (PI) (SG) (PI) (PI) (SG) (PI)
                 (PI) (SG) (SG) (SG) (PI) (PI) (SG) (DLTA) (DLTA)
                 (PI) (PI) (SG) (SG) (PI) (PI) (SG) (SG) (PI) (PI)
                 (SG) (SG) (SG) (DLTA) (DLTA) (PI) (PI) (SG) (PI)
                 (PI) (SG) (SG) (SG) (PI) (PI) (SG) (SG) (PI) (PI)
                 (SG) (SG) (SG) (PI) (PI) (SG) (SG) (PI) (PI) (SG)
                 (SG) (SG) (SG) (PI) (PI) (SG) (SG) (SG) (SG) (SG)
 The electronic state of the initial guess is 1-SG.
 Leave Link  401 at Fri Apr 13 18:32:52 2018, MaxMem= 10737418240 cpu:              43.1 elap:               1.4
 (Enter /home1/apps/gaussian/16rA.03/g16/l502.exe)
 Keep R1 and R2 ints in memory in symmetry-blocked form, NReq=734602573.
 FoFCou: FMM=F IPFlag=           8 FMFlag=           0 FMFlg1=           0
         NFxFlg=           0 DoJE=F BraDBF=F KetDBF=F FulRan=T
         wScrn=  0.000000 ICntrl=       600 IOpCl=  0 I1Cent=           0 NGrid=           0
         NMat0=    1 NMatS0=  34191 NMatT0=    0 NMatD0=    1 NMtDS0=    0 NMtDT0=    0
 Petite list used in FoFCou.
 Restricted open shell SCF:
 Using DIIS extrapolation, IDIIS=  1040.
 NGot= 10737418240 LenX= 10437146893 LenY= 10437049108
 Requested convergence on RMS density matrix=1.00D-08 within 400 cycles.
 Requested convergence on MAX density matrix=1.00D-06.
 Requested convergence on             energy=1.00D-06.
 Virtual orbitals will be shifted by   0.200 hartree.
 No special actions if energy rises.

 Cycle   1  Pass 1  IDiag  1:
 E= -240.416619219522    
 DIIS: error= 1.19D-01 at cycle   1 NSaved=   1.
 NSaved= 1 IEnMin= 1 EnMin= -240.416619219522     IErMin= 1 ErrMin= 1.19D-01
 ErrMax= 1.19D-01  0.00D+00 EMaxC= 1.00D-01 BMatC= 1.01D+00 BMatP= 1.01D+00
 IDIUse=3 WtCom= 0.00D+00 WtEn= 1.00D+00
 Coeff-Com:  0.100D+01
 Coeff-En:   0.100D+01
 Coeff:      0.100D+01
 Gap=     0.625 Goal=   None    Shift=    0.200
 GapD=    0.625 DampG=2.000 DampE=0.125 DampFc=0.2500 IDamp=-1.
 Damping current iteration by 2.50D-01
 RMSDP=2.58D-03 MaxDP=1.49D-01              OVMax= 3.87D-01

 Cycle   2  Pass 1  IDiag  1:
 E= -240.608815922225     Delta-E=       -0.192196702704 Rises=F Damp=T
 DIIS: error= 5.68D-02 at cycle   2 NSaved=   2.
 NSaved= 2 IEnMin= 2 EnMin= -240.608815922225     IErMin= 2 ErrMin= 5.68D-02
 ErrMax= 5.68D-02  0.00D+00 EMaxC= 1.00D-01 BMatC= 2.70D-01 BMatP= 1.01D+00
 IDIUse=3 WtCom= 4.32D-01 WtEn= 5.68D-01
 Coeff-Com: -0.892D+00 0.189D+01
 Coeff-En:   0.000D+00 0.100D+01
 Coeff:     -0.385D+00 0.138D+01
 Gap=     0.219 Goal=   None    Shift=    0.200
 RMSDP=1.43D-03 MaxDP=6.01D-02 DE=-1.92D-01 OVMax= 6.24D-02

 Cycle   3  Pass 1  IDiag  1:
 E= -240.786084430154     Delta-E=       -0.177268507929 Rises=F Damp=F
 DIIS: error= 4.78D-02 at cycle   3 NSaved=   3.
 NSaved= 3 IEnMin= 3 EnMin= -240.786084430154     IErMin= 3 ErrMin= 4.78D-02
 ErrMax= 4.78D-02  0.00D+00 EMaxC= 1.00D-01 BMatC= 2.38D-01 BMatP= 2.70D-01
 IDIUse=3 WtCom= 5.22D-01 WtEn= 4.78D-01
 EnCoef did   100 forward-backward iterations
 Coeff-Com:  0.570D+00-0.393D+00 0.823D+00
 Coeff-En:   0.154D+00 0.252D-02 0.843D+00
 Coeff:      0.371D+00-0.204D+00 0.833D+00
 Gap=     0.352 Goal=   None    Shift=    0.200
 RMSDP=8.97D-04 MaxDP=5.97D-02 DE=-1.77D-01 OVMax= 1.11D-01

 Cycle   4  Pass 1  IDiag  1:
 E= -240.894747898903     Delta-E=       -0.108663468749 Rises=F Damp=F
 DIIS: error= 9.11D-03 at cycle   4 NSaved=   4.
 NSaved= 4 IEnMin= 4 EnMin= -240.894747898903     IErMin= 4 ErrMin= 9.11D-03
 ErrMax= 9.11D-03  0.00D+00 EMaxC= 1.00D-01 BMatC= 8.68D-03 BMatP= 2.38D-01
 IDIUse=3 WtCom= 9.09D-01 WtEn= 9.11D-02
 Coeff-Com: -0.131D+00 0.185D+00 0.635D-01 0.883D+00
 Coeff-En:   0.000D+00 0.000D+00 0.000D+00 0.100D+01
 Coeff:     -0.119D+00 0.168D+00 0.577D-01 0.894D+00
 Gap=     0.329 Goal=   None    Shift=    0.200
 RMSDP=1.90D-04 MaxDP=9.41D-03 DE=-1.09D-01 OVMax= 2.12D-02

 Cycle   5  Pass 1  IDiag  1:
 E= -240.899452282841     Delta-E=       -0.004704383939 Rises=F Damp=F
 DIIS: error= 2.15D-03 at cycle   5 NSaved=   5.
 NSaved= 5 IEnMin= 5 EnMin= -240.899452282841     IErMin= 5 ErrMin= 2.15D-03
 ErrMax= 2.15D-03  0.00D+00 EMaxC= 1.00D-01 BMatC= 2.81D-04 BMatP= 8.68D-03
 IDIUse=3 WtCom= 9.79D-01 WtEn= 2.15D-02
 Coeff-Com: -0.819D-01 0.108D+00-0.413D-01 0.532D-01 0.962D+00
 Coeff-En:   0.000D+00 0.000D+00 0.000D+00 0.000D+00 0.100D+01
 Coeff:     -0.802D-01 0.105D+00-0.404D-01 0.521D-01 0.963D+00
 Gap=     0.329 Goal=   None    Shift=    0.200
 RMSDP=6.32D-05 MaxDP=4.11D-03 DE=-4.70D-03 OVMax= 7.22D-03

 Cycle   6  Pass 1  IDiag  1:
 E= -240.900047114774     Delta-E=       -0.000594831933 Rises=F Damp=F
 DIIS: error= 7.60D-04 at cycle   6 NSaved=   6.
 NSaved= 6 IEnMin= 6 EnMin= -240.900047114774     IErMin= 6 ErrMin= 7.60D-04
 ErrMax= 7.60D-04  0.00D+00 EMaxC= 1.00D-01 BMatC= 9.08D-05 BMatP= 2.81D-04
 IDIUse=3 WtCom= 9.92D-01 WtEn= 7.60D-03
 Coeff-Com:  0.681D-01-0.969D-01-0.281D-02-0.183D+00-0.503D+00 0.172D+01
 Coeff-En:   0.000D+00 0.000D+00 0.000D+00 0.000D+00 0.000D+00 0.100D+01
 Coeff:      0.675D-01-0.961D-01-0.279D-02-0.182D+00-0.500D+00 0.171D+01
 Gap=     0.326 Goal=   None    Shift=    0.200
 RMSDP=8.31D-05 MaxDP=6.04D-03 DE=-5.95D-04 OVMax= 1.25D-02

 Cycle   7  Pass 1  IDiag  1:
 E= -240.900465303073     Delta-E=       -0.000418188299 Rises=F Damp=F
 DIIS: error= 7.75D-04 at cycle   7 NSaved=   7.
 NSaved= 7 IEnMin= 7 EnMin= -240.900465303073     IErMin= 6 ErrMin= 7.60D-04
 ErrMax= 7.75D-04  0.00D+00 EMaxC= 1.00D-01 BMatC= 4.83D-05 BMatP= 9.08D-05
 IDIUse=3 WtCom= 9.92D-01 WtEn= 7.60D-03
 Coeff-Com:  0.268D-02-0.143D-02-0.489D-02 0.108D-01-0.343D+00 0.436D+00
 Coeff-Com:  0.900D+00
 Coeff-En:   0.000D+00 0.000D+00 0.000D+00 0.000D+00 0.000D+00 0.000D+00
 Coeff-En:   0.100D+01
 Coeff:      0.266D-02-0.142D-02-0.485D-02 0.108D-01-0.340D+00 0.433D+00
 Coeff:      0.901D+00
 Gap=     0.327 Goal=   None    Shift=    0.200
 RMSDP=2.76D-05 MaxDP=1.51D-03 DE=-4.18D-04 OVMax= 5.19D-03

 Cycle   8  Pass 1  IDiag  1:
 E= -240.900603616912     Delta-E=       -0.000138313838 Rises=F Damp=F
 DIIS: error= 4.20D-04 at cycle   8 NSaved=   8.
 NSaved= 8 IEnMin= 8 EnMin= -240.900603616912     IErMin= 8 ErrMin= 4.20D-04
 ErrMax= 4.20D-04  0.00D+00 EMaxC= 1.00D-01 BMatC= 1.78D-05 BMatP= 4.83D-05
 IDIUse=3 WtCom= 9.96D-01 WtEn= 4.20D-03
 Coeff-Com:  0.124D-01-0.180D-01 0.380D-02-0.351D-01 0.176D+00-0.298D+00
 Coeff-Com: -0.150D+01 0.266D+01
 Coeff-En:   0.000D+00 0.000D+00 0.000D+00 0.000D+00 0.000D+00 0.000D+00
 Coeff-En:   0.000D+00 0.100D+01
 Coeff:      0.124D-01-0.179D-01 0.378D-02-0.350D-01 0.175D+00-0.297D+00
 Coeff:     -0.150D+01 0.266D+01
 Gap=     0.326 Goal=   None    Shift=    0.200
 RMSDP=4.76D-05 MaxDP=3.12D-03 DE=-1.38D-04 OVMax= 9.91D-03

 Cycle   9  Pass 1  IDiag  1:
 E= -240.900747559284     Delta-E=       -0.000143942372 Rises=F Damp=F
 DIIS: error= 2.15D-04 at cycle   9 NSaved=   9.
 NSaved= 9 IEnMin= 9 EnMin= -240.900747559284     IErMin= 9 ErrMin= 2.15D-04
 ErrMax= 2.15D-04  0.00D+00 EMaxC= 1.00D-01 BMatC= 5.58D-06 BMatP= 1.78D-05
 IDIUse=3 WtCom= 9.98D-01 WtEn= 2.15D-03
 Coeff-Com:  0.760D-02-0.110D-01 0.253D-02-0.154D-01-0.961D-02 0.142D+00
 Coeff-Com: -0.258D+00-0.404D+00 0.155D+01
 Coeff-En:   0.000D+00 0.000D+00 0.000D+00 0.000D+00 0.000D+00 0.000D+00
 Coeff-En:   0.000D+00 0.000D+00 0.100D+01
 Coeff:      0.758D-02-0.110D-01 0.253D-02-0.154D-01-0.959D-02 0.142D+00
 Coeff:     -0.258D+00-0.403D+00 0.154D+01
 Gap=     0.326 Goal=   None    Shift=    0.200
 RMSDP=2.38D-05 MaxDP=1.69D-03 DE=-1.44D-04 OVMax= 5.68D-03

 Cycle  10  Pass 1  IDiag  1:
 E= -240.900795931395     Delta-E=       -0.000048372111 Rises=F Damp=F
 DIIS: error= 1.33D-04 at cycle  10 NSaved=  10.
 NSaved=10 IEnMin=10 EnMin= -240.900795931395     IErMin=10 ErrMin= 1.33D-04
 ErrMax= 1.33D-04  0.00D+00 EMaxC= 1.00D-01 BMatC= 2.52D-06 BMatP= 5.58D-06
 IDIUse=3 WtCom= 9.99D-01 WtEn= 1.33D-03
 Coeff-Com:  0.127D-02-0.184D-02 0.167D-04-0.296D-02-0.584D-01 0.181D+00
 Coeff-Com:  0.239D+00-0.691D+00-0.819D+00 0.215D+01
 Coeff-En:   0.000D+00 0.000D+00 0.000D+00 0.000D+00 0.000D+00 0.000D+00
 Coeff-En:   0.000D+00 0.000D+00 0.000D+00 0.100D+01
 Coeff:      0.126D-02-0.183D-02 0.167D-04-0.295D-02-0.583D-01 0.180D+00
 Coeff:      0.239D+00-0.691D+00-0.818D+00 0.215D+01
 Gap=     0.326 Goal=   None    Shift=    0.200
 RMSDP=2.21D-05 MaxDP=1.61D-03 DE=-4.84D-05 OVMax= 5.33D-03

 Cycle  11  Pass 1  IDiag  1:
 E= -240.900823580256     Delta-E=       -0.000027648861 Rises=F Damp=F
 DIIS: error= 1.06D-04 at cycle  11 NSaved=  11.
 NSaved=11 IEnMin=11 EnMin= -240.900823580256     IErMin=11 ErrMin= 1.06D-04
 ErrMax= 1.06D-04  0.00D+00 EMaxC= 1.00D-01 BMatC= 9.33D-07 BMatP= 2.52D-06
 IDIUse=3 WtCom= 9.99D-01 WtEn= 1.06D-03
 Coeff-Com:  0.122D-02-0.155D-02 0.138D-02-0.419D-03 0.648D-02-0.966D-01
 Coeff-Com:  0.532D-01 0.437D+00-0.122D+01 0.441D+00 0.137D+01
 Coeff-En:   0.000D+00 0.000D+00 0.000D+00 0.000D+00 0.000D+00 0.000D+00
 Coeff-En:   0.000D+00 0.000D+00 0.000D+00 0.000D+00 0.100D+01
 Coeff:      0.122D-02-0.155D-02 0.138D-02-0.419D-03 0.648D-02-0.964D-01
 Coeff:      0.532D-01 0.436D+00-0.121D+01 0.441D+00 0.137D+01
 Gap=     0.327 Goal=   None    Shift=    0.200
 RMSDP=1.14D-05 MaxDP=9.03D-04 DE=-2.76D-05 OVMax= 2.94D-03

 Cycle  12  Pass 1  IDiag  1:
 E= -240.900831251987     Delta-E=       -0.000007671731 Rises=F Damp=F
 DIIS: error= 6.18D-05 at cycle  12 NSaved=  12.
 NSaved=12 IEnMin=12 EnMin= -240.900831251987     IErMin=12 ErrMin= 6.18D-05
 ErrMax= 6.18D-05  0.00D+00 EMaxC= 1.00D-01 BMatC= 3.24D-07 BMatP= 9.33D-07
 IDIUse=1 WtCom= 1.00D+00 WtEn= 0.00D+00
 Coeff-Com:  0.171D-02-0.241D-02 0.119D-02-0.403D-02 0.226D-01-0.449D-01
 Coeff-Com: -0.101D+00 0.240D+00 0.112D-02-0.191D+00-0.875D+00 0.195D+01
 Coeff:      0.171D-02-0.241D-02 0.119D-02-0.403D-02 0.226D-01-0.449D-01
 Coeff:     -0.101D+00 0.240D+00 0.112D-02-0.191D+00-0.875D+00 0.195D+01
 Gap=     0.327 Goal=   None    Shift=    0.200
 RMSDP=6.32D-06 MaxDP=4.69D-04 DE=-7.67D-06 OVMax= 1.73D-03

 Cycle  13  Pass 1  IDiag  1:
 E= -240.900833422539     Delta-E=       -0.000002170552 Rises=F Damp=F
 DIIS: error= 3.06D-05 at cycle  13 NSaved=  13.
 NSaved=13 IEnMin=13 EnMin= -240.900833422539     IErMin=13 ErrMin= 3.06D-05
 ErrMax= 3.06D-05  0.00D+00 EMaxC= 1.00D-01 BMatC= 9.02D-08 BMatP= 3.24D-07
 IDIUse=1 WtCom= 1.00D+00 WtEn= 0.00D+00
 Coeff-Com:  0.544D-03-0.782D-03 0.277D-03-0.246D-03-0.925D-02 0.354D-01
 Coeff-Com: -0.505D-02-0.945D-01 0.514D-01 0.230D+00-0.194D+00-0.982D+00
 Coeff-Com:  0.197D+01
 Coeff:      0.544D-03-0.782D-03 0.277D-03-0.246D-03-0.925D-02 0.354D-01
 Coeff:     -0.505D-02-0.945D-01 0.514D-01 0.230D+00-0.194D+00-0.982D+00
 Coeff:      0.197D+01
 Gap=     0.327 Goal=   None    Shift=    0.200
 RMSDP=2.54D-06 MaxDP=1.43D-04 DE=-2.17D-06 OVMax= 7.41D-04

 Cycle  14  Pass 1  IDiag  1:
 E= -240.900833834341     Delta-E=       -0.000000411802 Rises=F Damp=F
 DIIS: error= 1.43D-05 at cycle  14 NSaved=  14.
 NSaved=14 IEnMin=14 EnMin= -240.900833834341     IErMin=14 ErrMin= 1.43D-05
 ErrMax= 1.43D-05  0.00D+00 EMaxC= 1.00D-01 BMatC= 2.11D-08 BMatP= 9.02D-08
 IDIUse=1 WtCom= 1.00D+00 WtEn= 0.00D+00
 Coeff-Com: -0.201D-04 0.426D-04 0.644D-04 0.108D-03 0.382D-02-0.195D-01
 Coeff-Com:  0.170D-01 0.460D-01-0.117D+00-0.630D-02 0.153D+00 0.302D+00
 Coeff-Com: -0.163D+01 0.226D+01
 Coeff:     -0.201D-04 0.426D-04 0.644D-04 0.108D-03 0.382D-02-0.195D-01
 Coeff:      0.170D-01 0.460D-01-0.117D+00-0.630D-02 0.153D+00 0.302D+00
 Coeff:     -0.163D+01 0.226D+01
 Gap=     0.327 Goal=   None    Shift=    0.200
 RMSDP=1.15D-06 MaxDP=6.15D-05 DE=-4.12D-07 OVMax= 3.38D-04

 Cycle  15  Pass 1  IDiag  1:
 E= -240.900833913333     Delta-E=       -0.000000078992 Rises=F Damp=F
 DIIS: error= 8.93D-06 at cycle  15 NSaved=  15.
 NSaved=15 IEnMin=15 EnMin= -240.900833913333     IErMin=15 ErrMin= 8.93D-06
 ErrMax= 8.93D-06  0.00D+00 EMaxC= 1.00D-01 BMatC= 7.82D-09 BMatP= 2.11D-08
 IDIUse=1 WtCom= 1.00D+00 WtEn= 0.00D+00
 Coeff-Com:  0.603D-04-0.801D-04 0.103D-03-0.628D-04-0.195D-03 0.776D-03
 Coeff-Com: -0.607D-03-0.665D-02 0.203D-01 0.318D-01-0.994D-01-0.108D+00
 Coeff-Com:  0.746D+00-0.189D+01 0.231D+01
 Coeff:      0.603D-04-0.801D-04 0.103D-03-0.628D-04-0.195D-03 0.776D-03
 Coeff:     -0.607D-03-0.665D-02 0.203D-01 0.318D-01-0.994D-01-0.108D+00
 Coeff:      0.746D+00-0.189D+01 0.231D+01
 Gap=     0.327 Goal=   None    Shift=    0.200
 RMSDP=4.33D-07 MaxDP=2.43D-05 DE=-7.90D-08 OVMax= 1.29D-04

 Cycle  16  Pass 1  IDiag  1:
 E= -240.900833928596     Delta-E=       -0.000000015263 Rises=F Damp=F
 DIIS: error= 3.40D-06 at cycle  16 NSaved=  16.
 NSaved=16 IEnMin=16 EnMin= -240.900833928596     IErMin=16 ErrMin= 3.40D-06
 ErrMax= 3.40D-06  0.00D+00 EMaxC= 1.00D-01 BMatC= 1.24D-09 BMatP= 7.82D-09
 IDIUse=1 WtCom= 1.00D+00 WtEn= 0.00D+00
 Coeff-Com:  0.406D-04-0.583D-04 0.235D-04-0.484D-04-0.158D-03 0.132D-03
 Coeff-Com: -0.825D-03 0.337D-02-0.828D-02-0.642D-02 0.299D-01 0.302D-01
 Coeff-Com: -0.248D+00 0.627D+00-0.137D+01 0.195D+01
 Coeff:      0.406D-04-0.583D-04 0.235D-04-0.484D-04-0.158D-03 0.132D-03
 Coeff:     -0.825D-03 0.337D-02-0.828D-02-0.642D-02 0.299D-01 0.302D-01
 Coeff:     -0.248D+00 0.627D+00-0.137D+01 0.195D+01
 Gap=     0.327 Goal=   None    Shift=    0.200
 RMSDP=1.59D-07 MaxDP=8.44D-06 DE=-1.53D-08 OVMax= 4.91D-05

 Cycle  17  Pass 1  IDiag  1:
 E= -240.900833931018     Delta-E=       -0.000000002423 Rises=F Damp=F
 DIIS: error= 1.03D-06 at cycle  17 NSaved=  17.
 NSaved=17 IEnMin=17 EnMin= -240.900833931018     IErMin=17 ErrMin= 1.03D-06
 ErrMax= 1.03D-06  0.00D+00 EMaxC= 1.00D-01 BMatC= 1.32D-10 BMatP= 1.24D-09
 IDIUse=1 WtCom= 1.00D+00 WtEn= 0.00D+00
 Coeff-Com:  0.571D-05-0.872D-05 0.174D-05-0.691D-06-0.988D-04 0.441D-03
 Coeff-Com: -0.180D-03-0.139D-02 0.519D-02 0.678D-03-0.113D-01-0.182D-01
 Coeff-Com:  0.104D+00-0.268D+00 0.567D+00-0.134D+01 0.196D+01
 Coeff:      0.571D-05-0.872D-05 0.174D-05-0.691D-06-0.988D-04 0.441D-03
 Coeff:     -0.180D-03-0.139D-02 0.519D-02 0.678D-03-0.113D-01-0.182D-01
 Coeff:      0.104D+00-0.268D+00 0.567D+00-0.134D+01 0.196D+01
 Gap=     0.327 Goal=   None    Shift=    0.200
 RMSDP=5.78D-08 MaxDP=3.04D-06 DE=-2.42D-09 OVMax= 1.85D-05

 Cycle  18  Pass 1  IDiag  1:
 E= -240.900833931342     Delta-E=       -0.000000000324 Rises=F Damp=F
 DIIS: error= 4.33D-07 at cycle  18 NSaved=  18.
 NSaved=18 IEnMin=18 EnMin= -240.900833931342     IErMin=18 ErrMin= 4.33D-07
 ErrMax= 4.33D-07  0.00D+00 EMaxC= 1.00D-01 BMatC= 2.52D-11 BMatP= 1.32D-10
 IDIUse=1 WtCom= 1.00D+00 WtEn= 0.00D+00
 Coeff-Com:  0.148D-05-0.118D-05 0.322D-05 0.306D-05 0.320D-04-0.311D-03
 Coeff-Com:  0.607D-03 0.166D-03-0.255D-02 0.123D-02 0.410D-02 0.147D-02
 Coeff-Com: -0.292D-01 0.785D-01-0.191D+00 0.499D+00-0.134D+01 0.198D+01
 Coeff:      0.148D-05-0.118D-05 0.322D-05 0.306D-05 0.320D-04-0.311D-03
 Coeff:      0.607D-03 0.166D-03-0.255D-02 0.123D-02 0.410D-02 0.147D-02
 Coeff:     -0.292D-01 0.785D-01-0.191D+00 0.499D+00-0.134D+01 0.198D+01
 Gap=     0.327 Goal=   None    Shift=    0.200
 RMSDP=2.35D-08 MaxDP=1.12D-06 DE=-3.24D-10 OVMax= 7.72D-06

 Cycle  19  Pass 1  IDiag  1:
 E= -240.900833931397     Delta-E=       -0.000000000054 Rises=F Damp=F
 DIIS: error= 1.74D-07 at cycle  19 NSaved=  19.
 NSaved=19 IEnMin=19 EnMin= -240.900833931397     IErMin=19 ErrMin= 1.74D-07
 ErrMax= 1.74D-07  0.00D+00 EMaxC= 1.00D-01 BMatC= 4.44D-12 BMatP= 2.52D-11
 IDIUse=1 WtCom= 1.00D+00 WtEn= 0.00D+00
 Coeff-Com:  0.108D-05-0.166D-05 0.466D-06-0.224D-05-0.182D-04 0.969D-04
 Coeff-Com: -0.147D-03-0.962D-05 0.682D-03-0.355D-03-0.970D-03-0.122D-02
 Coeff-Com:  0.948D-02-0.270D-01 0.657D-01-0.186D+00 0.506D+00-0.139D+01
 Coeff-Com:  0.202D+01
 Coeff:      0.108D-05-0.166D-05 0.466D-06-0.224D-05-0.182D-04 0.969D-04
 Coeff:     -0.147D-03-0.962D-05 0.682D-03-0.355D-03-0.970D-03-0.122D-02
 Coeff:      0.948D-02-0.270D-01 0.657D-01-0.186D+00 0.506D+00-0.139D+01
 Coeff:      0.202D+01
 Gap=     0.327 Goal=   None    Shift=    0.200
 RMSDP=8.52D-09 MaxDP=3.80D-07 DE=-5.44D-11 OVMax= 2.82D-06

 SCF Done:  E(ROHF) =  -240.900833931     A.U. after   19 cycles
            NFock= 19  Conv=0.85D-08     -V/T= 2.4858
 <Sx>= 0.0000 <Sy>= 0.0000 <Sz>= 0.0000 <S**2>=-0.0000 S=-0.0000
 <L.S>=  0.00000000000    
 KE= 1.621362662892D+02 PE=-6.700369232894D+02 EE= 2.296461375920D+02
 Annihilation of the first spin contaminant:
 S**2 before annihilation    -0.0000,   after     0.0000
 Leave Link  502 at Fri Apr 13 18:33:11 2018, MaxMem= 10737418240 cpu:             545.2 elap:              19.0
 (Enter /home1/apps/gaussian/16rA.03/g16/l801.exe)
 Windowed orbitals will be sorted by symmetry type.
 GenMOA:  NOpAll=  4 NOp2=4 NOpUse=  4 JSym2X=1
 FoFJK:  IHMeth= 1 ICntrl=       0 DoSepK=F KAlg= 0 I1Cent=           0 FoldK=F
 IRaf=         0 NMat=       1 IRICut=       1 DoRegI=T DoRafI=F ISym2E= 1 IDoP0=0 IntGTp=1.
 FoFCou: FMM=F IPFlag=           8 FMFlag=      100000 FMFlg1=           0
         NFxFlg=           0 DoJE=F BraDBF=F KetDBF=F FulRan=T
         wScrn=  0.000000 ICntrl=         0 IOpCl=  1 I1Cent=           0 NGrid=           0
         NMat0=    1 NMatS0=      1 NMatT0=    0 NMatD0=    1 NMtDS0=    0 NMtDT0=    0
 Petite list used in FoFCou.
 <Sx>= 0.0000 <Sy>= 0.0000 <Sz>= 0.0000 <S**2>=-0.0000 S=-0.0000
 Range of M.O.s used for correlation:     1   261
 NBasis=   261 NAE=    13 NBE=    13 NFC=     0 NFV=     0
 NROrb=    261 NOA=    13 NOB=    13 NVA=   248 NVB=   248

 **** Warning!!: The largest alpha MO coefficient is  0.20534017D+03


 **** Warning!!: The largest beta MO coefficient is  0.20534017D+03

 Singles contribution to E2=   -0.2073379163D-11
 Leave Link  801 at Fri Apr 13 18:33:16 2018, MaxMem= 10737418240 cpu:             133.0 elap:               4.2
 (Enter /home1/apps/gaussian/16rA.03/g16/l804.exe)
 Open-shell transformation, MDV= 10737418240 ITran=4 ISComp=2.
 Unit  1 TFree=       2048359 TCopy=       1562353.
 Semi-Direct transformation.
 ModeAB=           4 MOrb=            13 LenV=   10735330934
 LASXX=     28704759 LTotXX=    28704759 LenRXX=    57882687
 LTotAB=    29177928 MaxLAS=   160186923 LenRXY=           0
 NonZer=    86587446 LenScr=   130658304 LnRSAI=   160186923
 LnScr1=   241223680 LExtra=    16850736 Total=    606802330
 MaxDsk= 67108864000 SrtSym=           T ITran=            4
 DoSDTr:  NPSUse= 32
 JobTyp=1 Pass  1:  I=   1 to  13.
 (rs|ai) integrals will be sorted in core.
 Complete sort for first half transformation.
 First half transformation complete.
 Begin second half transformation for I=  10.
 Complete sort for second half transformation.
 Second half transformation complete.
 ModeAB=           4 MOrb=            13 LenV=   10735330934
 LASXX=     28704759 LTotXX=    28704759 LenRXX=    55043178
 LTotAB=    26338419 MaxLAS=   160186923 LenRXY=           0
 NonZer=    83747937 LenScr=   126383104 LnRSAI=   160186923
 LnScr1=   241223680 LExtra=    74733423 Total=    657570308
 MaxDsk= 67108864000 SrtSym=           T ITran=            4
 DoSDTr:  NPSUse= 32
 JobTyp=2 Pass  1:  I=   1 to  13.
 (rs|ai) integrals will be sorted in core.
 Complete sort for first half transformation.
 First half transformation complete.
 Begin second half transformation for I=  10.
 Complete sort for second half transformation.
 Second half transformation complete.
 Spin components of T(2) and E(2):
     alpha-alpha T2 =       0.3345420281D-01 E2=     -0.1985545355D+00
     alpha-beta  T2 =       0.1652880392D+00 E2=     -0.9285153998D+00
     beta-beta   T2 =       0.3345420281D-01 E2=     -0.1985545355D+00
 ANorm=    0.1110043443D+01
 E2 =    -0.1325624471D+01 EUMP2 =    -0.24222645840230D+03
 (S**2,0)=  0.00000D+00           (S**2,1)=  0.00000D+00
 E(PUHF)=      -0.24090083393D+03        E(PMP2)=      -0.24222645840D+03
 Leave Link  804 at Fri Apr 13 18:35:29 2018, MaxMem= 10737418240 cpu:            4232.9 elap:             132.5
 (Enter /home1/apps/gaussian/16rA.03/g16/l913.exe)
 CIDS:  MDV= 10737418240.
 IFCWin=0 IBDFC=1 NFBD=     0     0 NFCmp=     0     0 NFFFC=     0     0
 Using original routines for 1st iteration.
 Using DD4UQ or CC4UQ for 2nd and later iterations.
 Keep R2 and R3 ints in memory in symmetry-blocked form, NReq=734620701.
 FoFCou: FMM=F IPFlag=           8 FMFlag=           0 FMFlg1=           0
         NFxFlg=           0 DoJE=F BraDBF=F KetDBF=F FulRan=T
         wScrn=  0.000000 ICntrl=       600 IOpCl=  0 I1Cent=           0 NGrid=           0
         NMat0=    1 NMatS0=  34191 NMatT0=    0 NMatD0=    1 NMtDS0=    0 NMtDT0=    0
 Petite list used in FoFCou.
 CIDS: In Core Option IDoMem=           1.
 CCSD(T)
 =======
 Iterations= 150 Convergence= 0.100D-06
 Produce multiple copies of IABC intergrals
 Iteration Nr.   1
 **********************
 DD1Dir will call FoFMem   1 times, MxPair=       494
 NAB=   169 NAA=    78 NBB=    78.
 DD1Dir will call FoFMem   1 times, MxPair=       494
 NAB=   169 NAA=    78 NBB=    78.
 MP4(R+Q)= -0.15608086D+00
 Maximum subspace dimension=  5
 A-vector RMS=  2.8340792D-05 Max=  3.3138808D-02 conv= 1.00D-05.
 RLE energy=       -1.3188415695
 E3=        0.16289864D+00        EROMP3=      -0.24206355976D+03
 E4(SDQ)=  -0.99994381D-01        ROMP4(SDQ)=  -0.24216355414D+03
 VARIATIONAL ENERGIES WITH THE FIRST-ORDER WAVEFUNCTION:
 DE(Corr)=  -1.3188067     E(Corr)=     -242.21964062    
 NORM(A)=   0.11010246D+01
 Iteration Nr.   2
 **********************
 DD1Dir will call FoFMem   1 times, MxPair=       494
 NAB=   169 NAA=    78 NBB=    78.
 A-vector RMS=  4.5496243D-03 Max=  4.8642583D-02 conv= 1.00D-05.
 RLE energy=       -1.2708082219
 DE(Corr)=  -1.1520412     E(CORR)=     -242.05287516     Delta= 1.67D-01
 NORM(A)=   0.10927621D+01
 Iteration Nr.   3
 **********************
 DD1Dir will call FoFMem   1 times, MxPair=       494
 NAB=   169 NAA=    78 NBB=    78.
 A-vector RMS=  2.6999510D-03 Max=  2.5936730D-02 conv= 1.00D-05.
 RLE energy=       -1.2541813013
 DE(Corr)=  -1.1769343     E(CORR)=     -242.07776825     Delta=-2.49D-02
 NORM(A)=   0.10960431D+01
 Iteration Nr.   4
 **********************
 DD1Dir will call FoFMem   1 times, MxPair=       494
 NAB=   169 NAA=    78 NBB=    78.
 A-vector RMS=  2.5060767D-03 Max=  3.1449244D-02 conv= 1.00D-05.
 RLE energy=       -1.1951277022
 DE(Corr)=  -1.1898716     E(CORR)=     -242.09070554     Delta=-1.29D-02
 NORM(A)=   0.11150307D+01
 Iteration Nr.   5
 **********************
 DD1Dir will call FoFMem   1 times, MxPair=       494
 NAB=   169 NAA=    78 NBB=    78.
 A-vector RMS=  1.4493635D-03 Max=  2.2596225D-02 conv= 1.00D-05.
 RLE energy=       -1.2282687092
 DE(Corr)=  -1.2379243     E(CORR)=     -242.13875827     Delta=-4.81D-02
 NORM(A)=   0.11100558D+01
 Iteration Nr.   6
 **********************
 DD1Dir will call FoFMem   1 times, MxPair=       494
 NAB=   169 NAA=    78 NBB=    78.
 A-vector RMS=  6.6509461D-04 Max=  1.0169416D-02 conv= 1.00D-05.
 RLE energy=       -1.2209545522
 DE(Corr)=  -1.2146296     E(CORR)=     -242.11546353     Delta= 2.33D-02
 NORM(A)=   0.11142952D+01
 Iteration Nr.   7
 **********************
 DD1Dir will call FoFMem   1 times, MxPair=       494
 NAB=   169 NAA=    78 NBB=    78.
 A-vector RMS=  6.5895722D-05 Max=  1.2191210D-03 conv= 1.00D-05.
 RLE energy=       -1.2205546000
 DE(Corr)=  -1.2204803     E(CORR)=     -242.12131426     Delta=-5.85D-03
 NORM(A)=   0.11147334D+01
 Iteration Nr.   8
 **********************
 DD1Dir will call FoFMem   1 times, MxPair=       494
 NAB=   169 NAA=    78 NBB=    78.
 A-vector RMS=  3.5469172D-05 Max=  4.1416735D-04 conv= 1.00D-05.
 RLE energy=       -1.2205957165
 DE(Corr)=  -1.2206408     E(CORR)=     -242.12147468     Delta=-1.60D-04
 NORM(A)=   0.11148816D+01
 Iteration Nr.   9
 **********************
 DD1Dir will call FoFMem   1 times, MxPair=       494
 NAB=   169 NAA=    78 NBB=    78.
 A-vector RMS=  1.8198900D-05 Max=  3.7548645D-04 conv= 1.00D-05.
 RLE energy=       -1.2206069352
 DE(Corr)=  -1.2205793     E(CORR)=     -242.12141322     Delta= 6.15D-05
 NORM(A)=   0.11149426D+01
 Iteration Nr.  10
 **********************
 DD1Dir will call FoFMem   1 times, MxPair=       494
 NAB=   169 NAA=    78 NBB=    78.
 A-vector RMS=  9.3958458D-06 Max=  1.9531236D-04 conv= 1.00D-05.
 RLE energy=       -1.2205699013
 DE(Corr)=  -1.2205954     E(CORR)=     -242.12142936     Delta=-1.61D-05
 NORM(A)=   0.11149337D+01
 Iteration Nr.  11
 **********************
 DD1Dir will call FoFMem   1 times, MxPair=       494
 NAB=   169 NAA=    78 NBB=    78.
 A-vector RMS=  3.7805038D-06 Max=  8.5562544D-05 conv= 1.00D-05.
 RLE energy=       -1.2205914172
 DE(Corr)=  -1.2205936     E(CORR)=     -242.12142752     Delta= 1.84D-06
 NORM(A)=   0.11149152D+01
 Iteration Nr.  12
 **********************
 DD1Dir will call FoFMem   1 times, MxPair=       494
 NAB=   169 NAA=    78 NBB=    78.
 A-vector RMS=  1.5017940D-06 Max=  2.1771084D-05 conv= 1.00D-05.
 RLE energy=       -1.2205848526
 DE(Corr)=  -1.2205847     E(CORR)=     -242.12141868     Delta= 8.84D-06
 NORM(A)=   0.11149134D+01
 Iteration Nr.  13
 **********************
 DD1Dir will call FoFMem   1 times, MxPair=       494
 NAB=   169 NAA=    78 NBB=    78.
 A-vector RMS=  9.5666835D-07 Max=  1.4208829D-05 conv= 1.00D-05.
 RLE energy=       -1.2205867012
 DE(Corr)=  -1.2205882     E(CORR)=     -242.12142209     Delta=-3.41D-06
 NORM(A)=   0.11149125D+01
 Iteration Nr.  14
 **********************
 DD1Dir will call FoFMem   1 times, MxPair=       494
 NAB=   169 NAA=    78 NBB=    78.
 A-vector RMS=  5.5846123D-07 Max=  9.0305174D-06 conv= 1.00D-05.
 RLE energy=       -1.2205870380
 DE(Corr)=  -1.2205865     E(CORR)=     -242.12142042     Delta= 1.68D-06
 NORM(A)=   0.11149139D+01
 Iteration Nr.  15
 **********************
 DD1Dir will call FoFMem   1 times, MxPair=       494
 NAB=   169 NAA=    78 NBB=    78.
 A-vector RMS=  2.7954518D-07 Max=  4.5426822D-06 conv= 1.00D-05.
 RLE energy=       -1.2205873789
 DE(Corr)=  -1.2205874     E(CORR)=     -242.12142131     Delta=-8.94D-07
 NORM(A)=   0.11149146D+01
 Iteration Nr.  16
 **********************
 DD1Dir will call FoFMem   1 times, MxPair=       494
 NAB=   169 NAA=    78 NBB=    78.
 A-vector RMS=  5.6803750D-08 Max=  8.4894040D-07 conv= 1.00D-05.
 RLE energy=       -1.2205874182
 DE(Corr)=  -1.2205874     E(CORR)=     -242.12142134     Delta=-3.24D-08
 NORM(A)=   0.11149149D+01
 CI/CC converged in   16 iterations to DelEn=-3.24D-08 Conv= 1.00D-07 ErrA1= 5.68D-08 Conv= 1.00D-05
 Wavefunction amplitudes converged. E(Corr)=     -242.12142134    
 Dominant configurations:
 ***********************
 Spin Case        I    J    A    B          Value
   ABAB          13   13   14   14      -0.129729D+00
 Largest amplitude= 1.30D-01
 Time for triples=    69698.66 seconds.
 T4(CCSD)= -0.56378708D-01
 T5(CCSD)=  0.83238726D-02
 CCSD(T)= -0.24216947618D+03
 Discarding MO integrals.
 Leave Link  913 at Fri Apr 13 19:20:37 2018, MaxMem= 10737418240 cpu:           85871.2 elap:            2708.1
 (Enter /home1/apps/gaussian/16rA.03/g16/l601.exe)
 Copying SCF densities to generalized density rwf, IOpCl= 0 IROHF=1.

 **********************************************************************

            Population analysis using the SCF density.

 **********************************************************************

 Orbital symmetries:
       Occupied  (SG) (SG) (PI) (PI) (SG) (PI) (PI) (DLTA) (DLTA)
                 (SG) (PI) (PI) (SG)
       Virtual   (SG) (PI) (PI) (SG) (SG) (PI) (PI) (SG) (SG) (SG)
                 (PI) (PI) (DLTA) (DLTA) (PI) (PI) (SG) (PI) (PI)
                 (SG) (SG) (SG) (DLTA) (DLTA) (SG) (PI) (PI) (DLTA)
                 (DLTA) (PI) (PI) (SG) (PI) (PI) (PI) (PI) (SG)
                 (SG) (SG) (DLTA) (DLTA) (PHI) (PHI) (PI) (PI)
                 (SG) (PHI) (PHI) (DLTA) (DLTA) (SG) (PI) (PI)
                 (DLTA) (DLTA) (SG) (PI) (PI) (DLTA) (DLTA) (SG)
                 (PI) (PI) (PI) (PI) (SG) (SG) (PI) (PI) (SG) (SG)
                 (PHI) (PHI) (DLTA) (DLTA) (PI) (PI) (SG) (PHI)
                 (PHI) (DLTA) (DLTA) (SG) (PI) (PI) (DLTA) (DLTA)
                 (PI) (PI) (DLTA) (DLTA) (PI) (PI) (SG) (SG) (?A)
                 (?A) (PHI) (PHI) (DLTA) (DLTA) (SG) (PI) (PI)
                 (PI) (PI) (SG) (SG) (PHI) (PHI) (DLTA) (DLTA)
                 (PI) (PI) (SG) (PI) (PI) (SG) (DLTA) (DLTA) (SG)
                 (PI) (PI) (SG) (PI) (PI) (SG) (SG) (?A) (?A) (PHI)
                 (PHI) (DLTA) (DLTA) (PI) (PI) (SG) (DLTA) (DLTA)
                 (PI) (PI) (SG) (PHI) (PHI) (DLTA) (DLTA) (PI)
                 (PI) (SG) (PI) (PI) (SG) (SG) (SG) (DLTA) (DLTA)
                 (PI) (PI) (SG) (PI) (PI) (SG) (?A) (?A) (PHI)
                 (PHI) (DLTA) (DLTA) (PI) (PI) (SG) (DLTA) (DLTA)
                 (PI) (PI) (SG) (PI) (PI) (SG) (SG) (SG) (DLTA)
                 (DLTA) (PI) (PI) (SG) (PI) (PI) (SG) (PI) (PI)
                 (SG) (SG) (SG) (PI) (PI) (SG) (DLTA) (DLTA) (PI)
                 (PI) (SG) (SG) (PI) (PI) (SG) (SG) (PI) (PI) (SG)
                 (SG) (SG) (DLTA) (DLTA) (PI) (PI) (SG) (PI) (PI)
                 (SG) (SG) (SG) (PI) (PI) (SG) (SG) (PI) (PI) (SG)
                 (SG) (SG) (PI) (PI) (SG) (SG) (PI) (PI) (SG) (SG)
                 (SG) (SG) (PI) (PI) (SG) (SG) (SG) (SG) (SG)
 The electronic state is 1-SG.
 Alpha  occ. eigenvalues --   -5.90335  -3.98325  -3.98211  -3.98211  -1.16650
 Alpha  occ. eigenvalues --   -0.82915  -0.82915  -0.82371  -0.82371  -0.80553
 Alpha  occ. eigenvalues --   -0.40050  -0.40050  -0.37461
 Alpha virt. eigenvalues --   -0.04802   0.02596   0.02596   0.02625   0.04677
 Alpha virt. eigenvalues --    0.08800   0.08800   0.13292   0.17527   0.22034
 Alpha virt. eigenvalues --    0.23655   0.23655   0.24631   0.24631   0.29976
 Alpha virt. eigenvalues --    0.29976   0.30519   0.33450   0.33450   0.38855
 Alpha virt. eigenvalues --    0.59780   0.63522   0.76487   0.76487   0.83344
 Alpha virt. eigenvalues --    0.88215   0.88215   0.88684   0.88684   0.97546
 Alpha virt. eigenvalues --    0.97546   1.01278   1.08325   1.08325   1.16303
 Alpha virt. eigenvalues --    1.16303   1.24743   1.33337   1.79519   1.80773
 Alpha virt. eigenvalues --    1.80773   1.82211   1.82211   1.98830   1.98830
 Alpha virt. eigenvalues --    2.16928   2.18918   2.18918   2.30118   2.30118
 Alpha virt. eigenvalues --    2.42340   2.47329   2.47329   2.47346   2.47346
 Alpha virt. eigenvalues --    2.57807   2.67153   2.67153   2.73405   2.73405
 Alpha virt. eigenvalues --    2.84582   3.16493   3.16493   3.49961   3.49961
 Alpha virt. eigenvalues --    3.50050   3.87829   4.04186   4.04186   4.80158
 Alpha virt. eigenvalues --    5.17922   5.32424   5.32424   5.41300   5.41300
 Alpha virt. eigenvalues --    5.60875   5.60875   5.68073   6.61610   6.61610
 Alpha virt. eigenvalues --    6.65065   6.65065   6.71206   6.76560   6.76560
 Alpha virt. eigenvalues --    7.12386   7.12386   7.13706   7.13706   7.21535
 Alpha virt. eigenvalues --    7.21535   7.34787   7.34787   7.44582   7.63284
 Alpha virt. eigenvalues --    7.73043   7.73043   7.73515   7.73515   7.78835
 Alpha virt. eigenvalues --    7.78835   8.00713   8.09069   8.09069   8.79311
 Alpha virt. eigenvalues --    8.79311   8.89292   9.31222  13.72738  13.72738
 Alpha virt. eigenvalues --   13.78772  13.78772  13.93507  13.93507  14.01809
 Alpha virt. eigenvalues --   14.76738  14.76738  15.32770  15.98511  15.98511
 Alpha virt. eigenvalues --   16.02693  16.08670  16.08670  16.43965  18.59614
 Alpha virt. eigenvalues --   18.59614  18.69048  19.19683  20.19192  20.19192
 Alpha virt. eigenvalues --   20.19490  20.19490  20.21858  20.21858  20.31669
 Alpha virt. eigenvalues --   20.31669  20.64864  31.31629  31.31629  31.40589
 Alpha virt. eigenvalues --   31.40589  31.68559  35.51873  35.51873  35.56254
 Alpha virt. eigenvalues --   35.56254  35.66632  35.66632  35.70931  36.13536
 Alpha virt. eigenvalues --   36.13536  36.45643  38.15870  39.92628  43.72905
 Alpha virt. eigenvalues --   43.72905  43.76378  43.76378  43.93213  45.44382
 Alpha virt. eigenvalues --   45.44382  45.90526  47.04966  47.04966  47.05457
 Alpha virt. eigenvalues --   47.05457  47.07088  47.07088  47.13700  47.13700
 Alpha virt. eigenvalues --   47.40805  57.02889  57.02889  57.11481  57.11481
 Alpha virt. eigenvalues --   57.38477  67.18854  67.18854  67.49211  74.35169
 Alpha virt. eigenvalues --   82.52918 104.24441 104.24441 104.32327 104.32327
 Alpha virt. eigenvalues --  104.56256 118.84322 118.84322 119.30049 122.31055
 Alpha virt. eigenvalues --  122.31055 122.59415 136.55883 175.39081 226.15775
 Alpha virt. eigenvalues --  226.15775 226.40709 237.69738 237.69738 237.75954
 Alpha virt. eigenvalues --  237.75954 237.95545 257.32093 286.14297 286.14297
 Alpha virt. eigenvalues --  286.55401 335.28747 421.64766 421.64766 421.86575
 Alpha virt. eigenvalues --  554.80562 578.29651 792.55814 792.55814 792.59712
 Alpha virt. eigenvalues --  792.59712 792.72599 794.93132 794.93132 795.13360
 Alpha virt. eigenvalues -- 1043.509291529.344201566.325091566.325091566.51424
 Alpha virt. eigenvalues -- 2015.121923328.415823328.415823328.587154172.93224
 Alpha virt. eigenvalues -- 5659.526427881.543147881.543147881.692549287.21742
 Alpha virt. eigenvalues -- **************************************************
 Alpha virt. eigenvalues -- **************************************************
 Alpha virt. eigenvalues -- ******************************
     Molecular Orbital Coefficients:
                           9        10        11        12        13
                           O         O         O         O         O
     Eigenvalues --    -0.82371  -0.80553  -0.40050  -0.40050  -0.37461
   1 1   Zn 1S          0.00000  -0.00000   0.00000   0.00000   0.00000
   2        2S          0.00000   0.00000   0.00000   0.00000  -0.00000
   3        3S          0.00000  -0.00000   0.00000   0.00000   0.00000
   4        4S          0.00000   0.00000   0.00000   0.00000  -0.00000
   5        5S          0.00000  -0.00000   0.00000   0.00000   0.00000
   6        6S          0.00000   0.00000   0.00000   0.00000  -0.00001
   7        7S          0.00000  -0.00000   0.00000   0.00000   0.00002
   8        8S          0.00000   0.00001   0.00000   0.00000  -0.00007
   9        9S          0.00000  -0.00002   0.00000   0.00000   0.00021
  10       10S          0.00000   0.00008   0.00000   0.00000  -0.00066
  11       11S          0.00000  -0.00028   0.00000   0.00000   0.00252
  12       12S          0.00000   0.00133   0.00000   0.00000  -0.01243
  13       13S          0.00000  -0.00147   0.00000   0.00000   0.01150
  14       14S          0.00000  -0.00698   0.00000   0.00000   0.08663
  15       15S          0.00000   0.01225   0.00000   0.00000  -0.06724
  16       16S          0.00000  -0.01375   0.00000   0.00000  -0.06810
  17       17S          0.00000   0.00454   0.00000   0.00000  -0.14642
  18       18S          0.00000  -0.05211   0.00000   0.00000   0.32535
  19       19S          0.00000   0.01595   0.00000   0.00000   0.28717
  20       20S          0.00000  -0.00186   0.00000   0.00000   0.06229
  21       21S          0.00000  -0.00516   0.00000   0.00000   0.01080
  22       22S          0.00000   0.03827   0.00000   0.00000  -0.13869
  23       23S          0.00000   0.00110   0.00000   0.00000  -0.00056
  24       24PX         0.00000   0.00000  -0.00000   0.00000   0.00000
  25       24PY         0.00000   0.00000   0.00000  -0.00000   0.00000
  26       24PZ         0.00000  -0.00000   0.00000   0.00000   0.00000
  27       25PX         0.00000   0.00000   0.00000   0.00000   0.00000
  28       25PY         0.00000   0.00000   0.00000   0.00000   0.00000
  29       25PZ         0.00000   0.00000   0.00000   0.00000  -0.00000
  30       26PX         0.00000   0.00000  -0.00000   0.00000   0.00000
  31       26PY         0.00000   0.00000   0.00000  -0.00000   0.00000
  32       26PZ         0.00000  -0.00000   0.00000   0.00000   0.00000
  33       27PX         0.00000   0.00000   0.00000   0.00000   0.00000
  34       27PY         0.00000   0.00000   0.00000   0.00000   0.00000
  35       27PZ         0.00000   0.00000   0.00000   0.00000  -0.00000
  36       28PX         0.00000   0.00000  -0.00001   0.00000   0.00000
  37       28PY         0.00000   0.00000   0.00000  -0.00001   0.00000
  38       28PZ         0.00000  -0.00001   0.00000   0.00000   0.00000
  39       29PX         0.00000   0.00000   0.00005   0.00000   0.00000
  40       29PY         0.00000   0.00000   0.00000   0.00005   0.00000
  41       29PZ         0.00000   0.00004   0.00000   0.00000  -0.00003
  42       30PX         0.00000   0.00000  -0.00039   0.00000   0.00000
  43       30PY         0.00000   0.00000   0.00000  -0.00039   0.00000
  44       30PZ         0.00000  -0.00019   0.00000   0.00000   0.00032
  45       31PX         0.00000   0.00000   0.00174   0.00000   0.00000
  46       31PY         0.00000   0.00000   0.00000   0.00174   0.00000
  47       31PZ         0.00000   0.00079   0.00000   0.00000  -0.00148
  48       32PX         0.00000   0.00000   0.00239   0.00000   0.00000
  49       32PY         0.00000   0.00000   0.00000   0.00239   0.00000
  50       32PZ         0.00000  -0.00067   0.00000   0.00000  -0.00321
  51       33PX         0.00000   0.00000  -0.01301   0.00000   0.00000
  52       33PY         0.00000   0.00000   0.00000  -0.01301   0.00000
  53       33PZ         0.00000  -0.01473   0.00000   0.00000   0.00514
  54       34PX         0.00000   0.00000  -0.01756   0.00000   0.00000
  55       34PY         0.00000   0.00000   0.00000  -0.01756   0.00000
  56       34PZ         0.00000   0.00201   0.00000   0.00000   0.02134
  57       35PX         0.00000   0.00000  -0.00483   0.00000   0.00000
  58       35PY         0.00000   0.00000   0.00000  -0.00483   0.00000
  59       35PZ         0.00000   0.04147   0.00000   0.00000   0.03685
  60       36PX         0.00000   0.00000  -0.02346   0.00000   0.00000
  61       36PY         0.00000   0.00000   0.00000  -0.02346   0.00000
  62       36PZ         0.00000  -0.01214   0.00000   0.00000   0.01472
  63       37PX         0.00000   0.00000   0.03931   0.00000   0.00000
  64       37PY         0.00000   0.00000   0.00000   0.03931   0.00000
  65       37PZ         0.00000   0.01628   0.00000   0.00000  -0.03961
  66       38PX         0.00000   0.00000   0.07581   0.00000   0.00000
  67       38PY         0.00000   0.00000   0.00000   0.07581   0.00000
  68       38PZ         0.00000  -0.00941   0.00000   0.00000   0.01369
  69       39PX         0.00000   0.00000   0.01871   0.00000   0.00000
  70       39PY         0.00000   0.00000   0.00000   0.01871   0.00000
  71       39PZ         0.00000  -0.00480   0.00000   0.00000   0.02723
  72       40PX         0.00000   0.00000   0.00970   0.00000   0.00000
  73       40PY         0.00000   0.00000   0.00000   0.00970   0.00000
  74       40PZ         0.00000   0.01260   0.00000   0.00000  -0.00278
  75       41PX         0.00000   0.00000  -0.02500   0.00000   0.00000
  76       41PY         0.00000   0.00000   0.00000  -0.02500   0.00000
  77       41PZ         0.00000  -0.05133   0.00000   0.00000  -0.00705
  78       42PX         0.00000   0.00000  -0.00435   0.00000   0.00000
  79       42PY         0.00000   0.00000   0.00000  -0.00435   0.00000
  80       42PZ         0.00000   0.00076   0.00000   0.00000  -0.00443
  81       43D 0        0.00000  -0.00009   0.00000   0.00000   0.00001
  82       43D+1        0.00000   0.00000  -0.00002   0.00000   0.00000
  83       43D-1        0.00000   0.00000   0.00000  -0.00002   0.00000
  84       43D+2        0.00000  -0.00000   0.00000   0.00000  -0.00000
  85       43D-2       -0.00009   0.00000   0.00000   0.00000   0.00000
  86       44D 0        0.00000   0.00640   0.00000   0.00000  -0.00069
  87       44D+1        0.00000   0.00000   0.00100   0.00000   0.00000
  88       44D-1        0.00000   0.00000   0.00000   0.00100   0.00000
  89       44D+2        0.00000   0.00000   0.00000   0.00000   0.00000
  90       44D-2        0.00661   0.00000   0.00000   0.00000   0.00000
  91       45D 0        0.00000   0.07328   0.00000   0.00000  -0.00754
  92       45D+1        0.00000   0.00000   0.01110   0.00000   0.00000
  93       45D-1        0.00000   0.00000   0.00000   0.01110   0.00000
  94       45D+2        0.00000   0.00000   0.00000   0.00000   0.00000
  95       45D-2        0.07588   0.00000   0.00000   0.00000   0.00000
  96       46D 0        0.00000   0.20746   0.00000   0.00000  -0.02438
  97       46D+1        0.00000   0.00000   0.03437   0.00000   0.00000
  98       46D-1        0.00000   0.00000   0.00000   0.03437   0.00000
  99       46D+2        0.00000   0.00000   0.00000   0.00000   0.00000
 100       46D-2        0.21340   0.00000   0.00000   0.00000   0.00000
 101       47D 0        0.00000   0.35701   0.00000   0.00000  -0.08344
 102       47D+1        0.00000   0.00000   0.10341   0.00000   0.00000
 103       47D-1        0.00000   0.00000   0.00000   0.10341   0.00000
 104       47D+2        0.00000   0.00000   0.00000   0.00000  -0.00000
 105       47D-2        0.34797   0.00000   0.00000   0.00000   0.00000
 106       48D 0        0.00000   0.35081   0.00000   0.00000  -0.03921
 107       48D+1        0.00000   0.00000   0.05674   0.00000   0.00000
 108       48D-1        0.00000   0.00000   0.00000   0.05674   0.00000
 109       48D+2        0.00000   0.00000   0.00000   0.00000  -0.00000
 110       48D-2        0.36088   0.00000   0.00000   0.00000   0.00000
 111       49D 0        0.00000   0.26752   0.00000   0.00000  -0.01694
 112       49D+1        0.00000   0.00000   0.03110   0.00000   0.00000
 113       49D-1        0.00000   0.00000   0.00000   0.03110   0.00000
 114       49D+2        0.00000  -0.00000   0.00000   0.00000  -0.00000
 115       49D-2        0.27531   0.00000   0.00000   0.00000   0.00000
 116       50D 0        0.00000   0.10451   0.00000   0.00000  -0.01377
 117       50D+1        0.00000   0.00000   0.00698   0.00000   0.00000
 118       50D-1        0.00000   0.00000   0.00000   0.00698   0.00000
 119       50D+2        0.00000   0.00000   0.00000   0.00000   0.00000
 120       50D-2        0.10182   0.00000   0.00000   0.00000   0.00000
 121       51D 0        0.00000  -0.01438   0.00000   0.00000   0.00632
 122       51D+1        0.00000   0.00000  -0.00695   0.00000   0.00000
 123       51D-1        0.00000   0.00000   0.00000  -0.00695   0.00000
 124       51D+2        0.00000  -0.00000   0.00000   0.00000   0.00000
 125       51D-2       -0.01258   0.00000   0.00000   0.00000   0.00000
 126       52D 0        0.00000  -0.03565   0.00000   0.00000   0.04945
 127       52D+1        0.00000   0.00000  -0.05411   0.00000   0.00000
 128       52D-1        0.00000   0.00000   0.00000  -0.05411   0.00000
 129       52D+2        0.00000   0.00000   0.00000   0.00000   0.00000
 130       52D-2       -0.01585   0.00000   0.00000   0.00000   0.00000
 131       53D 0        0.00000   0.00781   0.00000   0.00000  -0.01941
 132       53D+1        0.00000   0.00000  -0.00358   0.00000   0.00000
 133       53D-1        0.00000   0.00000   0.00000  -0.00358   0.00000
 134       53D+2        0.00000  -0.00000   0.00000   0.00000  -0.00000
 135       53D-2        0.00351   0.00000   0.00000   0.00000   0.00000
 136       54F 0        0.00000   0.00043   0.00000   0.00000  -0.00019
 137       54F+1        0.00000   0.00000   0.00018   0.00000   0.00000
 138       54F-1        0.00000   0.00000   0.00000   0.00018   0.00000
 139       54F+2        0.00000  -0.00000   0.00000   0.00000  -0.00000
 140       54F-2        0.00035   0.00000   0.00000   0.00000   0.00000
 141       54F+3        0.00000   0.00000  -0.00000   0.00000   0.00000
 142       54F-3        0.00000   0.00000   0.00000   0.00000   0.00000
 143       55F 0        0.00000   0.00133   0.00000   0.00000  -0.00073
 144       55F+1        0.00000   0.00000   0.00069   0.00000   0.00000
 145       55F-1        0.00000   0.00000   0.00000   0.00069   0.00000
 146       55F+2        0.00000   0.00000   0.00000   0.00000   0.00000
 147       55F-2        0.00104   0.00000   0.00000   0.00000   0.00000
 148       55F+3        0.00000   0.00000   0.00000   0.00000   0.00000
 149       55F-3        0.00000   0.00000   0.00000   0.00000   0.00000
 150       56F 0        0.00000   0.00266   0.00000   0.00000  -0.00247
 151       56F+1        0.00000   0.00000   0.00201   0.00000   0.00000
 152       56F-1        0.00000   0.00000   0.00000   0.00201   0.00000
 153       56F+2        0.00000  -0.00000   0.00000   0.00000  -0.00000
 154       56F-2        0.00228   0.00000   0.00000   0.00000   0.00000
 155       56F+3        0.00000   0.00000  -0.00000   0.00000   0.00000
 156       56F-3        0.00000   0.00000   0.00000  -0.00000   0.00000
 157       57F 0        0.00000   0.00706   0.00000   0.00000  -0.00708
 158       57F+1        0.00000   0.00000   0.01017   0.00000   0.00000
 159       57F-1        0.00000   0.00000   0.00000   0.01017   0.00000
 160       57F+2        0.00000   0.00000   0.00000   0.00000   0.00000
 161       57F-2        0.00641   0.00000   0.00000   0.00000   0.00000
 162       57F+3        0.00000   0.00000   0.00000   0.00000   0.00000
 163       57F-3        0.00000   0.00000   0.00000   0.00000   0.00000
 164       58G 0        0.00000  -0.00003   0.00000   0.00000   0.00002
 165       58G+1        0.00000   0.00000  -0.00012   0.00000   0.00000
 166       58G-1        0.00000   0.00000   0.00000  -0.00012   0.00000
 167       58G+2        0.00000  -0.00000   0.00000   0.00000  -0.00000
 168       58G-2       -0.00003   0.00000   0.00000   0.00000   0.00000
 169       58G+3        0.00000   0.00000   0.00000   0.00000   0.00000
 170       58G-3        0.00000   0.00000   0.00000  -0.00000   0.00000
 171       58G+4        0.00000  -0.00000   0.00000   0.00000  -0.00000
 172       58G-4        0.00000   0.00000   0.00000   0.00000   0.00000
 173       59G 0        0.00000  -0.00014   0.00000   0.00000   0.00003
 174       59G+1        0.00000   0.00000   0.00034   0.00000   0.00000
 175       59G-1        0.00000   0.00000   0.00000   0.00034   0.00000
 176       59G+2        0.00000   0.00000   0.00000   0.00000   0.00000
 177       59G-2       -0.00002   0.00000   0.00000   0.00000   0.00000
 178       59G+3        0.00000   0.00000   0.00000   0.00000   0.00000
 179       59G-3        0.00000   0.00000   0.00000   0.00000   0.00000
 180       59G+4        0.00000   0.00000   0.00000   0.00000   0.00000
 181       59G-4       -0.00000   0.00000   0.00000   0.00000   0.00000
 182       60G 0        0.00000   0.00037   0.00000   0.00000   0.00037
 183       60G+1        0.00000   0.00000  -0.00122   0.00000   0.00000
 184       60G-1        0.00000   0.00000   0.00000  -0.00122   0.00000
 185       60G+2        0.00000  -0.00000   0.00000   0.00000  -0.00000
 186       60G-2        0.00005   0.00000   0.00000   0.00000   0.00000
 187       60G+3        0.00000   0.00000  -0.00000   0.00000   0.00000
 188       60G-3        0.00000   0.00000   0.00000  -0.00000   0.00000
 189       60G+4        0.00000   0.00000   0.00000   0.00000   0.00000
 190       60G-4        0.00000   0.00000   0.00000   0.00000   0.00000
 191 2   O  1S          0.00000   0.00000   0.00000   0.00000   0.00000
 192        2S          0.00000  -0.00000   0.00000   0.00000  -0.00000
 193        3S          0.00000   0.00001   0.00000   0.00000   0.00001
 194        4S          0.00000  -0.00008   0.00000   0.00000  -0.00008
 195        5S          0.00000   0.00084   0.00000   0.00000   0.00078
 196        6S          0.00000   0.01364   0.00000   0.00000   0.01292
 197        7S          0.00000   0.04028   0.00000   0.00000   0.03743
 198        8S          0.00000  -0.11873   0.00000   0.00000  -0.11701
 199        9S          0.00000  -0.03816   0.00000   0.00000  -0.03623
 200       10S          0.00000  -0.12649   0.00000   0.00000  -0.11552
 201       11S          0.00000  -0.00438   0.00000   0.00000  -0.00548
 202       12S          0.00000  -0.01229   0.00000   0.00000  -0.01141
 203       13S          0.00000  -0.03151   0.00000   0.00000  -0.01900
 204       14PX         0.00000   0.00000   0.00816   0.00000   0.00000
 205       14PY         0.00000   0.00000   0.00000   0.00816   0.00000
 206       14PZ         0.00000   0.00104   0.00000   0.00000   0.00571
 207       15PX         0.00000   0.00000   0.08476   0.00000   0.00000
 208       15PY         0.00000   0.00000   0.00000   0.08476   0.00000
 209       15PZ         0.00000   0.01095   0.00000   0.00000   0.05909
 210       16PX         0.00000   0.00000   0.27297   0.00000   0.00000
 211       16PY         0.00000   0.00000   0.00000   0.27297   0.00000
 212       16PZ         0.00000   0.03523   0.00000   0.00000   0.18890
 213       17PX         0.00000   0.00000   0.43006   0.00000   0.00000
 214       17PY         0.00000   0.00000   0.00000   0.43006   0.00000
 215       17PZ         0.00000   0.05699   0.00000   0.00000   0.30679
 216       18PX         0.00000   0.00000   0.36804   0.00000   0.00000
 217       18PY         0.00000   0.00000   0.00000   0.36804   0.00000
 218       18PZ         0.00000   0.01408   0.00000   0.00000   0.25928
 219       19PX         0.00000   0.00000   0.00467   0.00000   0.00000
 220       19PY         0.00000   0.00000   0.00000   0.00467   0.00000
 221       19PZ         0.00000   0.00069   0.00000   0.00000   0.00329
 222       20PX         0.00000   0.00000  -0.00215   0.00000   0.00000
 223       20PY         0.00000   0.00000   0.00000  -0.00215   0.00000
 224       20PZ         0.00000  -0.00027   0.00000   0.00000  -0.00151
 225       21PX         0.00000   0.00000   0.06780   0.00000   0.00000
 226       21PY         0.00000   0.00000   0.00000   0.06780   0.00000
 227       21PZ         0.00000  -0.00447   0.00000   0.00000   0.05077
 228       22D 0        0.00000   0.00297   0.00000   0.00000   0.00410
 229       22D+1        0.00000   0.00000   0.00335   0.00000   0.00000
 230       22D-1        0.00000   0.00000   0.00000   0.00335   0.00000
 231       22D+2        0.00000   0.00000   0.00000   0.00000   0.00000
 232       22D-2        0.00028   0.00000   0.00000   0.00000   0.00000
 233       23D 0        0.00000   0.00901   0.00000   0.00000   0.01556
 234       23D+1        0.00000   0.00000   0.01671   0.00000   0.00000
 235       23D-1        0.00000   0.00000   0.00000   0.01671   0.00000
 236       23D+2        0.00000  -0.00000   0.00000   0.00000  -0.00000
 237       23D-2        0.00158   0.00000   0.00000   0.00000   0.00000
 238       24D 0        0.00000   0.00017   0.00000   0.00000   0.00024
 239       24D+1        0.00000   0.00000   0.00022   0.00000   0.00000
 240       24D-1        0.00000   0.00000   0.00000   0.00022   0.00000
 241       24D+2        0.00000  -0.00000   0.00000   0.00000  -0.00000
 242       24D-2        0.00002   0.00000   0.00000   0.00000   0.00000
 243       25D 0        0.00000   0.00050   0.00000   0.00000   0.01597
 244       25D+1        0.00000   0.00000   0.02436   0.00000   0.00000
 245       25D-1        0.00000   0.00000   0.00000   0.02436   0.00000
 246       25D+2        0.00000   0.00000   0.00000   0.00000   0.00000
 247       25D-2       -0.00124   0.00000   0.00000   0.00000   0.00000
 248       26F 0        0.00000   0.00168   0.00000   0.00000   0.00292
 249       26F+1        0.00000   0.00000   0.00288   0.00000   0.00000
 250       26F-1        0.00000   0.00000   0.00000   0.00288   0.00000
 251       26F+2        0.00000   0.00000   0.00000   0.00000   0.00000
 252       26F-2        0.00049   0.00000   0.00000   0.00000   0.00000
 253       26F+3        0.00000   0.00000   0.00000   0.00000   0.00000
 254       26F-3        0.00000   0.00000   0.00000   0.00000   0.00000
 255       27F 0        0.00000   0.00213   0.00000   0.00000   0.00430
 256       27F+1        0.00000   0.00000   0.00826   0.00000   0.00000
 257       27F-1        0.00000   0.00000   0.00000   0.00826   0.00000
 258       27F+2        0.00000  -0.00000   0.00000   0.00000  -0.00000
 259       27F-2       -0.00002   0.00000   0.00000   0.00000   0.00000
 260       27F+3        0.00000   0.00000   0.00000   0.00000   0.00000
 261       27F-3        0.00000   0.00000   0.00000   0.00000   0.00000
                          14        15        16        17        18
                           V         V         V         V         V
     Eigenvalues --    -0.04802   0.02596   0.02596   0.02625   0.04677
   1 1   Zn 1S          0.00000   0.00000   0.00000  -0.00000  -0.00000
   2        2S         -0.00000   0.00000   0.00000   0.00000   0.00000
   3        3S          0.00000   0.00000   0.00000  -0.00000  -0.00000
   4        4S         -0.00000   0.00000   0.00000   0.00000   0.00000
   5        5S          0.00000   0.00000   0.00000  -0.00000  -0.00000
   6        6S         -0.00000   0.00000   0.00000   0.00000   0.00000
   7        7S          0.00001   0.00000   0.00000  -0.00001  -0.00000
   8        8S         -0.00002   0.00000   0.00000   0.00002   0.00001
   9        9S          0.00006   0.00000   0.00000  -0.00006  -0.00002
  10       10S         -0.00018   0.00000   0.00000   0.00013   0.00005
  11       11S          0.00074   0.00000   0.00000  -0.00013  -0.00008
  12       12S         -0.00384   0.00000   0.00000  -0.00093   0.00001
  13       13S          0.00275   0.00000   0.00000  -0.00551  -0.00166
  14       14S          0.03549   0.00000   0.00000   0.07630   0.01815
  15       15S         -0.00378   0.00000   0.00000   0.12771   0.03598
  16       16S         -0.09999   0.00000   0.00000  -0.57493  -0.16641
  17       17S         -0.07049   0.00000   0.00000  -0.18700  -0.06523
  18       18S          0.02961   0.00000   0.00000   0.33233   0.13191
  19       19S          0.30757   0.00000   0.00000  -0.62507   0.66387
  20       20S          0.22411   0.00000   0.00000   1.70004   2.80657
  21       21S         -0.01153   0.00000   0.00000  -0.11751  -0.03130
  22       22S          0.03855   0.00000   0.00000   0.54959   0.17113
  23       23S          0.28853   0.00000   0.00000  -1.61333  -1.99423
  24       24PX         0.00000   0.00000   0.00000   0.00000   0.00000
  25       24PY         0.00000   0.00000   0.00000   0.00000   0.00000
  26       24PZ        -0.00000   0.00000   0.00000  -0.00000  -0.00000
  27       25PX         0.00000  -0.00000   0.00000   0.00000   0.00000
  28       25PY         0.00000   0.00000  -0.00000   0.00000   0.00000
  29       25PZ         0.00000   0.00000   0.00000   0.00000   0.00000
  30       26PX         0.00000   0.00000   0.00000   0.00000   0.00000
  31       26PY         0.00000   0.00000   0.00000   0.00000   0.00000
  32       26PZ        -0.00000   0.00000   0.00000  -0.00000  -0.00000
  33       27PX         0.00000  -0.00001   0.00000   0.00000   0.00000
  34       27PY         0.00000   0.00000  -0.00001   0.00000   0.00000
  35       27PZ         0.00000   0.00000   0.00000   0.00001   0.00000
  36       28PX         0.00000   0.00002   0.00000   0.00000   0.00000
  37       28PY         0.00000   0.00000   0.00002   0.00000   0.00000
  38       28PZ        -0.00002   0.00000   0.00000  -0.00002  -0.00001
  39       29PX         0.00000  -0.00006   0.00000   0.00000   0.00000
  40       29PY         0.00000   0.00000  -0.00006   0.00000   0.00000
  41       29PZ         0.00010   0.00000   0.00000   0.00008   0.00005
  42       30PX         0.00000   0.00004   0.00000   0.00000   0.00000
  43       30PY         0.00000   0.00000   0.00004   0.00000   0.00000
  44       30PZ        -0.00082   0.00000   0.00000  -0.00051  -0.00023
  45       31PX         0.00000   0.00011   0.00000   0.00000   0.00000
  46       31PY         0.00000   0.00000   0.00011   0.00000   0.00000
  47       31PZ         0.00374   0.00000   0.00000   0.00218   0.00090
  48       32PX         0.00000   0.00688   0.00000   0.00000   0.00000
  49       32PY         0.00000   0.00000   0.00688   0.00000   0.00000
  50       32PZ         0.00528   0.00000   0.00000   0.00023  -0.00148
  51       33PX         0.00000   0.03380   0.00000   0.00000   0.00000
  52       33PY         0.00000   0.00000   0.03380   0.00000   0.00000
  53       33PZ        -0.02734   0.00000   0.00000  -0.03031  -0.02045
  54       34PX         0.00000  -0.03935   0.00000   0.00000   0.00000
  55       34PY         0.00000   0.00000  -0.03935   0.00000   0.00000
  56       34PZ        -0.03832   0.00000   0.00000  -0.00671   0.00563
  57       35PX         0.00000  -0.17716   0.00000   0.00000   0.00000
  58       35PY         0.00000   0.00000  -0.17716   0.00000   0.00000
  59       35PZ        -0.01364   0.00000   0.00000   0.05775   0.05349
  60       36PX         0.00000   0.01375   0.00000   0.00000   0.00000
  61       36PY         0.00000   0.00000   0.01375   0.00000   0.00000
  62       36PZ        -0.04936   0.00000   0.00000  -0.03122  -0.00787
  63       37PX         0.00000  -0.01039   0.00000   0.00000   0.00000
  64       37PY         0.00000   0.00000  -0.01039   0.00000   0.00000
  65       37PZ         0.07693   0.00000   0.00000   0.03714  -0.01739
  66       38PX         0.00000   0.16423   0.00000   0.00000   0.00000
  67       38PY         0.00000   0.00000   0.16423   0.00000   0.00000
  68       38PZ         0.20912   0.00000   0.00000   0.10315  -0.33849
  69       39PX         0.00000   0.05353   0.00000   0.00000   0.00000
  70       39PY         0.00000   0.00000   0.05353   0.00000   0.00000
  71       39PZ         0.28882   0.00000   0.00000   0.49701  -1.10053
  72       40PX         0.00000  -0.03093   0.00000   0.00000   0.00000
  73       40PY         0.00000   0.00000  -0.03093   0.00000   0.00000
  74       40PZ         0.02023   0.00000   0.00000   0.02495   0.01759
  75       41PX         0.00000   0.15842   0.00000   0.00000   0.00000
  76       41PY         0.00000   0.00000   0.15842   0.00000   0.00000
  77       41PZ        -0.05130   0.00000   0.00000  -0.08952  -0.06463
  78       42PX         0.00000   1.01676   0.00000   0.00000   0.00000
  79       42PY         0.00000   0.00000   1.01676   0.00000   0.00000
  80       42PZ         0.11100   0.00000   0.00000  -0.93183   1.16950
  81       43D 0       -0.00001   0.00000   0.00000  -0.00000   0.00001
  82       43D+1        0.00000   0.00000   0.00000   0.00000   0.00000
  83       43D-1        0.00000   0.00000   0.00000   0.00000   0.00000
  84       43D+2       -0.00000   0.00000   0.00000  -0.00000   0.00000
  85       43D-2        0.00000   0.00000   0.00000   0.00000   0.00000
  86       44D 0        0.00065   0.00000   0.00000   0.00028  -0.00018
  87       44D+1        0.00000  -0.00025   0.00000   0.00000   0.00000
  88       44D-1        0.00000   0.00000  -0.00025   0.00000   0.00000
  89       44D+2        0.00000   0.00000   0.00000   0.00000  -0.00000
  90       44D-2        0.00000   0.00000   0.00000   0.00000   0.00000
  91       45D 0        0.00725   0.00000   0.00000   0.00345  -0.00098
  92       45D+1        0.00000  -0.00269   0.00000   0.00000   0.00000
  93       45D-1        0.00000   0.00000  -0.00269   0.00000   0.00000
  94       45D+2       -0.00000   0.00000   0.00000  -0.00000   0.00000
  95       45D-2        0.00000   0.00000   0.00000   0.00000   0.00000
  96       46D 0        0.02244   0.00000   0.00000   0.00793  -0.01373
[...]
  39       29PX        -0.00002  -0.00001  -0.00001   0.00000
  40       29PY        -0.00002  -0.00001  -0.00001   0.00000
  41       29PZ        -0.00002  -0.00001  -0.00001   0.00000
  42       30PX         0.00067   0.00034   0.00034   0.00000
  43       30PY         0.00067   0.00034   0.00034   0.00000
  44       30PZ         0.00068   0.00034   0.00034   0.00000
  45       31PX        -0.00842  -0.00421  -0.00421   0.00000
  46       31PY        -0.00842  -0.00421  -0.00421   0.00000
  47       31PZ        -0.00844  -0.00422  -0.00422   0.00000
  48       32PX        -0.03350  -0.01675  -0.01675   0.00000
  49       32PY        -0.03350  -0.01675  -0.01675   0.00000
  50       32PZ        -0.03377  -0.01688  -0.01688   0.00000
  51       33PX         0.15962   0.07981   0.07981   0.00000
  52       33PY         0.15962   0.07981   0.07981   0.00000
  53       33PZ         0.15845   0.07922   0.07922   0.00000
  54       34PX         0.58381   0.29190   0.29190   0.00000
  55       34PY         0.58381   0.29190   0.29190   0.00000
  56       34PZ         0.58699   0.29349   0.29349   0.00000
  57       35PX         0.74235   0.37117   0.37117   0.00000
  58       35PY         0.74235   0.37117   0.37117   0.00000
  59       35PZ         0.74911   0.37455   0.37455   0.00000
  60       36PX         0.45544   0.22772   0.22772   0.00000
  61       36PY         0.45544   0.22772   0.22772   0.00000
  62       36PZ         0.45382   0.22691   0.22691   0.00000
  63       37PX         0.05182   0.02591   0.02591   0.00000
  64       37PY         0.05182   0.02591   0.02591   0.00000
  65       37PZ         0.05510   0.02755   0.02755   0.00000
  66       38PX         0.05564   0.02782   0.02782   0.00000
  67       38PY         0.05564   0.02782   0.02782   0.00000
  68       38PZ        -0.00964  -0.00482  -0.00482   0.00000
  69       39PX         0.01180   0.00590   0.00590   0.00000
  70       39PY         0.01180   0.00590   0.00590   0.00000
  71       39PZ         0.00240   0.00120   0.00120   0.00000
  72       40PX        -0.10262  -0.05131  -0.05131   0.00000
  73       40PY        -0.10262  -0.05131  -0.05131   0.00000
  74       40PZ        -0.10152  -0.05076  -0.05076   0.00000
  75       41PX         0.16891   0.08445   0.08445   0.00000
  76       41PY         0.16891   0.08445   0.08445   0.00000
  77       41PZ         0.16349   0.08174   0.08174   0.00000
  78       42PX        -0.00130  -0.00065  -0.00065   0.00000
  79       42PY        -0.00130  -0.00065  -0.00065   0.00000
  80       42PZ        -0.00069  -0.00034  -0.00034   0.00000
  81       43D 0       -0.00001  -0.00000  -0.00000   0.00000
  82       43D+1       -0.00001  -0.00000  -0.00000   0.00000
  83       43D-1       -0.00001  -0.00000  -0.00000   0.00000
  84       43D+2       -0.00001  -0.00000  -0.00000   0.00000
  85       43D-2       -0.00001  -0.00000  -0.00000   0.00000
  86       44D 0        0.00188   0.00094   0.00094   0.00000
  87       44D+1        0.00194   0.00097   0.00097   0.00000
  88       44D-1        0.00194   0.00097   0.00097   0.00000
  89       44D+2        0.00193   0.00097   0.00097   0.00000
  90       44D-2        0.00193   0.00097   0.00097   0.00000
  91       45D 0        0.05485   0.02743   0.02743   0.00000
  92       45D+1        0.05674   0.02837   0.02837   0.00000
  93       45D-1        0.05674   0.02837   0.02837   0.00000
  94       45D+2        0.05647   0.02824   0.02824   0.00000
  95       45D-2        0.05647   0.02824   0.02824   0.00000
  96       46D 0        0.27012   0.13506   0.13506   0.00000
  97       46D+1        0.27791   0.13896   0.13896   0.00000
  98       46D-1        0.27791   0.13896   0.13896   0.00000
  99       46D+2        0.27584   0.13792   0.13792   0.00000
 100       46D-2        0.27584   0.13792   0.13792   0.00000
 101       47D 0        0.61910   0.30955   0.30955   0.00000
 102       47D+1        0.61305   0.30652   0.30652   0.00000
 103       47D-1        0.61305   0.30652   0.30652   0.00000
 104       47D+2        0.59490   0.29745   0.29745   0.00000
 105       47D-2        0.59490   0.29745   0.29745   0.00000
 106       48D 0        0.63208   0.31604   0.31604   0.00000
 107       48D+1        0.64546   0.32273   0.32273   0.00000
 108       48D-1        0.64546   0.32273   0.32273   0.00000
 109       48D+2        0.64318   0.32159   0.32159   0.00000
 110       48D-2        0.64318   0.32159   0.32159   0.00000
 111       49D 0        0.39121   0.19560   0.19560   0.00000
 112       49D+1        0.38865   0.19433   0.19433   0.00000
 113       49D-1        0.38865   0.19433   0.19433   0.00000
 114       49D+2        0.39156   0.19578   0.19578   0.00000
 115       49D-2        0.39156   0.19578   0.19578   0.00000
 116       50D 0        0.07721   0.03860   0.03860   0.00000
 117       50D+1        0.08172   0.04086   0.04086   0.00000
 118       50D-1        0.08172   0.04086   0.04086   0.00000
 119       50D+2        0.08018   0.04009   0.04009   0.00000
 120       50D-2        0.08018   0.04009   0.04009   0.00000
 121       51D 0       -0.02097  -0.01049  -0.01049   0.00000
 122       51D+1       -0.01938  -0.00969  -0.00969   0.00000
 123       51D-1       -0.01938  -0.00969  -0.00969   0.00000
 124       51D+2       -0.01785  -0.00892  -0.00892   0.00000
 125       51D-2       -0.01785  -0.00892  -0.00892   0.00000
 126       52D 0       -0.06576  -0.03288  -0.03288   0.00000
 127       52D+1       -0.04288  -0.02144  -0.02144   0.00000
 128       52D-1       -0.04288  -0.02144  -0.02144   0.00000
 129       52D+2       -0.02731  -0.01365  -0.01365   0.00000
 130       52D-2       -0.02731  -0.01365  -0.01365   0.00000
 131       53D 0        0.00567   0.00284   0.00284   0.00000
 132       53D+1        0.00416   0.00208   0.00208   0.00000
 133       53D-1        0.00416   0.00208   0.00208   0.00000
 134       53D+2        0.00105   0.00053   0.00053   0.00000
 135       53D-2        0.00105   0.00053   0.00053   0.00000
 136       54F 0        0.00000   0.00000   0.00000   0.00000
 137       54F+1        0.00000   0.00000   0.00000   0.00000
 138       54F-1        0.00000   0.00000   0.00000   0.00000
 139       54F+2        0.00000   0.00000   0.00000   0.00000
 140       54F-2        0.00000   0.00000   0.00000   0.00000
 141       54F+3       -0.00000  -0.00000  -0.00000   0.00000
 142       54F-3       -0.00000  -0.00000  -0.00000   0.00000
 143       55F 0        0.00002   0.00001   0.00001   0.00000
 144       55F+1        0.00002   0.00001   0.00001   0.00000
 145       55F-1        0.00002   0.00001   0.00001   0.00000
 146       55F+2        0.00001   0.00000   0.00000   0.00000
 147       55F-2        0.00001   0.00000   0.00000   0.00000
 148       55F+3        0.00000   0.00000   0.00000   0.00000
 149       55F-3       -0.00000  -0.00000  -0.00000   0.00000
 150       56F 0        0.00030   0.00015   0.00015   0.00000
 151       56F+1        0.00017   0.00008   0.00008   0.00000
 152       56F-1        0.00017   0.00008   0.00008   0.00000
 153       56F+2        0.00003   0.00002   0.00002   0.00000
 154       56F-2        0.00003   0.00002   0.00002   0.00000
 155       56F+3        0.00000   0.00000   0.00000   0.00000
 156       56F-3       -0.00000  -0.00000  -0.00000   0.00000
 157       57F 0        0.00256   0.00128   0.00128   0.00000
 158       57F+1        0.00365   0.00183   0.00183   0.00000
 159       57F-1        0.00365   0.00183   0.00183   0.00000
 160       57F+2        0.00010   0.00005   0.00005   0.00000
 161       57F-2        0.00010   0.00005   0.00005   0.00000
 162       57F+3        0.00000   0.00000   0.00000   0.00000
 163       57F-3        0.00000   0.00000   0.00000   0.00000
 164       58G 0        0.00000   0.00000   0.00000   0.00000
 165       58G+1        0.00000   0.00000   0.00000   0.00000
 166       58G-1        0.00000   0.00000   0.00000   0.00000
 167       58G+2        0.00000   0.00000   0.00000   0.00000
 168       58G-2        0.00000   0.00000   0.00000   0.00000
 169       58G+3        0.00000   0.00000   0.00000   0.00000
 170       58G-3        0.00000   0.00000   0.00000   0.00000
 171       58G+4       -0.00000  -0.00000  -0.00000   0.00000
 172       58G-4       -0.00000  -0.00000  -0.00000   0.00000
 173       59G 0       -0.00000  -0.00000  -0.00000   0.00000
 174       59G+1       -0.00000  -0.00000  -0.00000   0.00000
 175       59G-1       -0.00000  -0.00000  -0.00000   0.00000
 176       59G+2        0.00000   0.00000   0.00000   0.00000
 177       59G-2        0.00000   0.00000   0.00000   0.00000
 178       59G+3        0.00000   0.00000   0.00000   0.00000
 179       59G-3       -0.00000  -0.00000  -0.00000   0.00000
 180       59G+4        0.00000   0.00000   0.00000   0.00000
 181       59G-4       -0.00000  -0.00000  -0.00000   0.00000
 182       60G 0        0.00003   0.00002   0.00002   0.00000
 183       60G+1        0.00004   0.00002   0.00002   0.00000
 184       60G-1        0.00004   0.00002   0.00002   0.00000
 185       60G+2        0.00000   0.00000   0.00000   0.00000
 186       60G-2        0.00000   0.00000   0.00000   0.00000
 187       60G+3        0.00000   0.00000   0.00000   0.00000
 188       60G-3       -0.00000  -0.00000  -0.00000   0.00000
 189       60G+4        0.00000   0.00000   0.00000   0.00000
 190       60G-4        0.00000   0.00000   0.00000   0.00000
 191 2   O  1S         -0.00000  -0.00000  -0.00000   0.00000
 192        2S          0.00000   0.00000   0.00000   0.00000
 193        3S         -0.00000  -0.00000  -0.00000   0.00000
 194        4S          0.00001   0.00000   0.00000   0.00000
 195        5S         -0.00024  -0.00012  -0.00012   0.00000
 196        6S         -0.01125  -0.00563  -0.00563   0.00000
 197        7S         -0.10234  -0.05117  -0.05117   0.00000
 198        8S          1.08920   0.54460   0.54460   0.00000
 199        9S          0.23742   0.11871   0.11871   0.00000
 200       10S          0.74156   0.37078   0.37078   0.00000
 201       11S         -0.00117  -0.00058  -0.00058   0.00000
 202       12S          0.00843   0.00422   0.00422   0.00000
 203       13S          0.06734   0.03367   0.03367   0.00000
 204       14PX         0.00199   0.00100   0.00100   0.00000
 205       14PY         0.00199   0.00100   0.00100   0.00000
 206       14PZ         0.00102   0.00051   0.00051   0.00000
 207       15PX         0.06684   0.03342   0.03342   0.00000
 208       15PY         0.06684   0.03342   0.03342   0.00000
 209       15PZ         0.03448   0.01724   0.01724   0.00000
 210       16PX         0.39275   0.19637   0.19637   0.00000
 211       16PY         0.39275   0.19637   0.19637   0.00000
 212       16PZ         0.20820   0.10410   0.10410   0.00000
 213       17PX         0.78356   0.39178   0.39178   0.00000
 214       17PY         0.78356   0.39178   0.39178   0.00000
 215       17PZ         0.46811   0.23405   0.23405   0.00000
 216       18PX         0.58912   0.29456   0.29456   0.00000
 217       18PY         0.58912   0.29456   0.29456   0.00000
 218       18PZ         0.40075   0.20038   0.20038   0.00000
 219       19PX         0.00229   0.00115   0.00115   0.00000
 220       19PY         0.00229   0.00115   0.00115   0.00000
 221       19PZ         0.00119   0.00059   0.00059   0.00000
 222       20PX        -0.00032  -0.00016  -0.00016   0.00000
 223       20PY        -0.00032  -0.00016  -0.00016   0.00000
 224       20PZ        -0.00016  -0.00008  -0.00008   0.00000
 225       21PX         0.06212   0.03106   0.03106   0.00000
 226       21PY         0.06212   0.03106   0.03106   0.00000
 227       21PZ         0.06500   0.03250   0.03250   0.00000
 228       22D 0        0.00037   0.00019   0.00019   0.00000
 229       22D+1        0.00017   0.00009   0.00009   0.00000
 230       22D-1        0.00017   0.00009   0.00009   0.00000
 231       22D+2        0.00000   0.00000   0.00000   0.00000
 232       22D-2        0.00000   0.00000   0.00000   0.00000
 233       23D 0        0.00513   0.00256   0.00256   0.00000
 234       23D+1        0.00284   0.00142   0.00142   0.00000
 235       23D-1        0.00284   0.00142   0.00142   0.00000
 236       23D+2        0.00007   0.00003   0.00003   0.00000
 237       23D-2        0.00007   0.00003   0.00003   0.00000
 238       24D 0        0.00000   0.00000   0.00000   0.00000
 239       24D+1        0.00000   0.00000   0.00000   0.00000
 240       24D-1        0.00000   0.00000   0.00000   0.00000
 241       24D+2        0.00000   0.00000   0.00000   0.00000
 242       24D-2        0.00000   0.00000   0.00000   0.00000
 243       25D 0        0.00356   0.00178   0.00178   0.00000
 244       25D+1        0.00239   0.00119   0.00119   0.00000
 245       25D-1        0.00239   0.00119   0.00119   0.00000
 246       25D+2       -0.00018  -0.00009  -0.00009   0.00000
 247       25D-2       -0.00018  -0.00009  -0.00009   0.00000
 248       26F 0        0.00024   0.00012   0.00012   0.00000
 249       26F+1        0.00015   0.00008   0.00008   0.00000
 250       26F-1        0.00015   0.00008   0.00008   0.00000
 251       26F+2        0.00001   0.00000   0.00000   0.00000
 252       26F-2        0.00001   0.00000   0.00000   0.00000
 253       26F+3       -0.00000  -0.00000  -0.00000   0.00000
 254       26F-3       -0.00000  -0.00000  -0.00000   0.00000
 255       27F 0        0.00046   0.00023   0.00023   0.00000
 256       27F+1        0.00066   0.00033   0.00033   0.00000
 257       27F-1        0.00066   0.00033   0.00033   0.00000
 258       27F+2       -0.00000  -0.00000  -0.00000   0.00000
 259       27F-2       -0.00000  -0.00000  -0.00000   0.00000
 260       27F+3       -0.00000  -0.00000  -0.00000   0.00000
 261       27F-3       -0.00000  -0.00000  -0.00000   0.00000
          Condensed to atoms (all electrons):
               1          2
     1  Zn  18.738766   0.235011
     2  O    0.235011   6.791211
          Atomic-Atomic Spin Densities.
               1          2
     1  Zn   0.000000   0.000000
     2  O    0.000000   0.000000
 Mulliken charges and spin densities:
               1          2
     1  Zn   1.026222   0.000000
     2  O   -1.026222   0.000000
 Sum of Mulliken charges =  -0.00000   0.00000
 Mulliken charges and spin densities with hydrogens summed into heavy atoms:
               1          2
     1  Zn   1.026222   0.000000
     2  O   -1.026222   0.000000
 Electronic spatial extent (au):  <R**2>=             90.8894
 Charge=             -0.0000 electrons
 Dipole moment (field-independent basis, Debye):
    X=              0.0000    Y=              0.0000    Z=              7.1080  Tot=              7.1080
 Quadrupole moment (field-independent basis, Debye-Ang):
   XX=            -18.1641   YY=            -18.1641   ZZ=            -21.7058
   XY=              0.0000   XZ=              0.0000   YZ=              0.0000
 Traceless Quadrupole moment (field-independent basis, Debye-Ang):
   XX=              1.1806   YY=              1.1806   ZZ=             -2.3611
   XY=              0.0000   XZ=              0.0000   YZ=              0.0000
 Octapole moment (field-independent basis, Debye-Ang**2):
  XXX=              0.0000  YYY=              0.0000  ZZZ=             22.9046  XYY=              0.0000
  XXY=              0.0000  XXZ=              6.1912  XZZ=              0.0000  YZZ=              0.0000
  YYZ=              6.1912  XYZ=              0.0000
 Hexadecapole moment (field-independent basis, Debye-Ang**3):
 XXXX=            -19.5445 YYYY=            -19.5445 ZZZZ=            -97.8388 XXXY=              0.0000
 XXXZ=              0.0000 YYYX=              0.0000 YYYZ=              0.0000 ZZZX=              0.0000
 ZZZY=              0.0000 XXYY=             -6.5148 XXZZ=            -19.7580 YYZZ=            -19.7580
 XXYZ=              0.0000 YYXZ=              0.0000 ZZXY=              0.0000
 N-N= 3.735368547671D+01 E-N=-6.700369163810D+02  KE= 1.621362662892D+02
 Symmetry A1   KE= 6.560817006331D+01
 Symmetry A2   KE= 2.178120245926D+01
 Symmetry B1   KE= 3.737344688448D+01
 Symmetry B2   KE= 3.737344688470D+01
 Symmetry A1   SP= 0.000000000000D+00
 Symmetry A2   SP= 0.000000000000D+00
 Symmetry B1   SP= 0.000000000000D+00
 Symmetry B2   SP= 0.000000000000D+00
 Orbital energies and kinetic energies (alpha):
                                 1                 2
   9         O                -0.823708         10.890601
  10         O                -0.805533         10.279620
  11         O                -0.400498          2.280405
  12         O                -0.400498          2.280405
  13         O                -0.374613          1.510496
  14         V                -0.048017          0.765138
  15         V                 0.025964          0.101837
  16         V                 0.025964          0.101837
  17         V                 0.026253          0.201585
  18         V                 0.046767          0.045810
 Total kinetic energy from orbitals= 1.621362662892D+02
                          Isotropic Fermi Contact Couplings
        Atom                 a.u.       MegaHertz       Gauss      10(-4) cm-1
     1  Zn(67)             0.00000       0.00000       0.00000       0.00000
     2  O(17)              0.00000      -0.00000      -0.00000      -0.00000
 --------------------------------------------------------
       Center         ----  Spin Dipole Couplings  ----
                      3XX-RR        3YY-RR        3ZZ-RR
 --------------------------------------------------------
     1   Atom        0.000000      0.000000      0.000000
     2   Atom        0.000000      0.000000      0.000000
 --------------------------------------------------------
                        XY            XZ            YZ
 --------------------------------------------------------
     1   Atom        0.000000      0.000000      0.000000
     2   Atom        0.000000      0.000000      0.000000
 --------------------------------------------------------


 ---------------------------------------------------------------------------------
              Anisotropic Spin Dipole Couplings in Principal Axis System
 ---------------------------------------------------------------------------------

       Atom             a.u.   MegaHertz   Gauss  10(-4) cm-1        Axes

              Baa     0.0000     0.000     0.000     0.000  1.0000  0.0000  0.0000
     1 Zn(67) Bbb     0.0000     0.000     0.000     0.000 -0.0000  1.0000  0.0000
              Bcc     0.0000     0.000     0.000     0.000  0.0000  0.0000  1.0000
 
              Baa     0.0000    -0.000    -0.000    -0.000  1.0000  0.0000  0.0000
     2 O(17)  Bbb     0.0000    -0.000    -0.000    -0.000 -0.0000  1.0000  0.0000
              Bcc     0.0000    -0.000    -0.000    -0.000  0.0000  0.0000  1.0000
 

 ---------------------------------------------------------------------------------

 No NMR shielding tensors so no spin-rotation constants.
 Leave Link  601 at Fri Apr 13 19:20:41 2018, MaxMem= 10737418240 cpu:              92.3 elap:               3.0
 (Enter /home1/apps/gaussian/16rA.03/g16/l9999.exe)
 1\1\GINC-C402-014\SP\ROCCSD(T)-Full\Gen\O1Zn1\GWANG18\13-Apr-2018\0\\#
 P ROCCSD(T)=(MaxCyc=150, Full)/Gen SCF=(maxcycle=400, vshift=200) Pseu
 do=Read Integral(NoXCTest) Pop=Regular MaxDisk=500GB\\ZnO\\0,1\Zn,0,0.
 ,0.,0.\O,0,0.,0.,1.7\\Version=ES64L-G16RevA.03\State=1-SG\HF=-240.9008
 339\MP2=-242.2264584\MP3=-242.0635598\PUHF=-240.9008339\PMP2-0=-242.22
 64584\MP4SDQ=-242.1635541\CCSD=-242.1214213\CCSD(T)=-242.1694762\RMSD=
 8.524e-09\PG=C*V [C*(O1Zn1)]\\@


 A FOOL CAN ASK MORE QUESTIONS THAN
 A WISE MAN CAN ANSWER.
 Job cpu time:       1 days  1 hours 16 minutes 17.4 seconds.
 Elapsed time:       0 days  0 hours 47 minutes 50.4 seconds.
 File lengths (MBytes):  RWF=   5449 Int=      0 D2E=      0 Chk=      8 Scr=      1
 Normal termination of Gaussian 16 at Fri Apr 13 19:20:41 2018.
