 Entering Gaussian System, Link 0=g16
 Initial command:
 /home1/apps/gaussian/16rA.03/g16/l1.exe "/tmp/Gau-51928.inp" -scrdir="/tmp/"
 Entering Link 1 = /home1/apps/gaussian/16rA.03/g16/l1.exe PID=     51929.
  
 Copyright (c) 1988,1990,1992,1993,1995,1998,2003,2009,2016,
            Gaussian, Inc.  All Rights Reserved.
  
 This is part of the Gaussian(R) 16 program.  It is based on
 the Gaussian(R) 09 system (copyright 2009, Gaussian, Inc.),
 the Gaussian(R) 03 system (copyright 2003, Gaussian, Inc.),
 the Gaussian(R) 98 system (copyright 1998, Gaussian, Inc.),
 the Gaussian(R) 94 system (copyright 1995, Gaussian, Inc.),
 the Gaussian 92(TM) system (copyright 1992, Gaussian, Inc.),
 the Gaussian 90(TM) system (copyright 1990, Gaussian, Inc.),
 the Gaussian 88(TM) system (copyright 1988, Gaussian, Inc.),
 the Gaussian 86(TM) system (copyright 1986, Carnegie Mellon
 University), and the Gaussian 82(TM) system (copyright 1983,
 Carnegie Mellon University). Gaussian is a federally registered
 trademark of Gaussian, Inc.
  
 This software contains proprietary and confidential information,
 including trade secrets, belonging to Gaussian, Inc.
  
 This software is provided under written license and may be
 used, copied, transmitted, or stored only in accord with that
 written license.
  
 The following legend is applicable only to US Government
 contracts under FAR:
  
                    RESTRICTED RIGHTS LEGEND
  
 Use, reproduction and disclosure by the US Government is
 subject to restrictions as set forth in subparagraphs (a)
 and (c) of the Commercial Computer Software - Restricted
 Rights clause in FAR 52.227-19.
  
 Gaussian, Inc.
 340 Quinnipiac St., Bldg. 40, Wallingford CT 06492
  
  
 ---------------------------------------------------------------
 Warning -- This program may not be used in any manner that
 competes with the business of Gaussian, Inc. or will provide
 assistance to any competitor of Gaussian, Inc.  The licensee
 of this program is prohibited from giving any competitor of
 Gaussian, Inc. access to this program.  By using this program,
 the user acknowledges that Gaussian, Inc. is engaged in the
 business of creating and licensing software in the field of
 computational chemistry and represents and warrants to the
 licensee that it is not a competitor of Gaussian, Inc. and that
 it will not use this program in any manner prohibited above.
 ---------------------------------------------------------------
  

 Cite this work as:
 Gaussian 16, Revision A.03,
 M. J. Frisch, G. W. Trucks, H. B. Schlegel, G. E. Scuseria, 
 M. A. Robb, J. R. Cheeseman, G. Scalmani, V. Barone, 
 G. A. Petersson, H. Nakatsuji, X. Li, M. Caricato, A. V. Marenich, 
 J. Bloino, B. G. Janesko, R. Gomperts, B. Mennucci, H. P. Hratchian, 
 J. V. Ortiz, A. F. Izmaylov, J. L. Sonnenberg, D. Williams-Young, 
 F. Ding, F. Lipparini, F. Egidi, J. Goings, B. Peng, A. Petrone, 
 T. Henderson, D. Ranasinghe, V. G. Zakrzewski, J. Gao, N. Rega, 
 G. Zheng, W. Liang, M. Hada, M. Ehara, K. Toyota, R. Fukuda, 
 J. Hasegawa, M. Ishida, T. Nakajima, Y. Honda, O. Kitao, H. Nakai, 
 T. Vreven, K. Throssell, J. A. Montgomery, Jr., J. E. Peralta, 
 F. Ogliaro, M. J. Bearpark, J. J. Heyd, E. N. Brothers, K. N. Kudin, 
 V. N. Staroverov, T. A. Keith, R. Kobayashi, J. Normand, 
 K. Raghavachari, A. P. Rendell, J. C. Burant, S. S. Iyengar, 
 J. Tomasi, M. Cossi, J. M. Millam, M. Klene, C. Adamo, R. Cammi, 
 J. W. Ochterski, R. L. Martin, K. Morokuma, O. Farkas, 
 J. B. Foresman, and D. J. Fox, Gaussian, Inc., Wallingford CT, 2016.
 
 ******************************************
 Gaussian 16:  ES64L-G16RevA.03 25-Dec-2016
                21-Apr-2018 
 ******************************************
 %mem=80GB
 %cpu=0-31
 SetSPE:  set environment variable "MP_BIND" = "yes"
 SetSPE:  set environment variable "MP_BLIST" = "0,1,2,3,4,5,6,7,8,9,10,11,12,13,14,15,16,17,18,19,20,21,22,23,24,25,26,27,28,29,30,31"
 Will use up to   32 processors via shared memory.
 %chk=tz.chk
 %rwf=/scratch/04843/gwang18/znh/
 ----------------------------------------------------------------------
 #P ROCCSD(T)=(MaxCyc=150, Full)/Gen SCF=(maxcycle=400, vshift=200) Pse
 udo=Read Integral(NoXCTest) Pop=Regular MaxDisk=500GB Guess=Read IOp(5
 /15=2)
 ----------------------------------------------------------------------
 1/38=1,172=1/1;
 2/12=2,17=6,18=5,40=1/2;
 3/5=7,11=2,16=1,17=8,25=1,30=1,47=8,116=101/1,2,3;
 4/5=1/1;
 5/5=2,7=400,10=200,15=2,38=6/2;
 8/5=-1,6=4,9=120000,10=90/1,4;
 9/5=7,6=150,14=2/13;
 6//1;
 99/5=1,9=1/99;
 Leave Link    1 at Sat Apr 21 10:09:53 2018, MaxMem= 10737418240 cpu:               9.8 elap:               0.3
 (Enter /home1/apps/gaussian/16rA.03/g16/l101.exe)
 ---
 ZnH
 ---
 Symbolic Z-matrix:
 Charge =  0 Multiplicity = 2
 Zn                    0.        0.        0. 
 H                     0.        0.        1.5 
 
 ITRead=  0  0
 MicOpt= -1 -1
 NAtoms=      2 NQM=        2 NQMF=       0 NMMI=      0 NMMIF=      0
                NMic=       0 NMicF=      0.
                    Isotopes and Nuclear Properties:
 (Nuclear quadrupole moments (NQMom) in fm**2, nuclear magnetic moments (NMagM)
  in nuclear magnetons)

  Atom         1           2
 IAtWgt=          64           1
 AtmWgt=  63.9291454   1.0078250
 NucSpn=           0           1
 AtZEff=  -0.0000000  -0.0000000
 NQMom=    0.0000000   0.0000000
 NMagM=    0.0000000   2.7928460
 AtZNuc=  30.0000000   1.0000000
 Leave Link  101 at Sat Apr 21 10:09:53 2018, MaxMem= 10737418240 cpu:               3.0 elap:               0.1
 (Enter /home1/apps/gaussian/16rA.03/g16/l202.exe)
                          Input orientation:                          
 ---------------------------------------------------------------------
 Center     Atomic      Atomic             Coordinates (Angstroms)
 Number     Number       Type             X           Y           Z
 ---------------------------------------------------------------------
      1         30           0        0.000000    0.000000    0.000000
      2          1           0        0.000000    0.000000    1.500000
 ---------------------------------------------------------------------
 Stoichiometry    HZn(2)
 Framework group  C*V[C*(HZn)]
 Deg. of freedom     1
 Full point group                 C*V     NOp   4
 Largest Abelian subgroup         C2V     NOp   4
 Largest concise Abelian subgroup C1      NOp   1
                         Standard orientation:                         
 ---------------------------------------------------------------------
 Center     Atomic      Atomic             Coordinates (Angstroms)
 Number     Number       Type             X           Y           Z
 ---------------------------------------------------------------------
      1         30           0        0.000000    0.000000    0.048387
      2          1           0        0.000000    0.000000   -1.451613
 ---------------------------------------------------------------------
 Rotational constants (GHZ):           0.0000000         226.3824015         226.3824015
 Leave Link  202 at Sat Apr 21 10:09:53 2018, MaxMem= 10737418240 cpu:               0.8 elap:               0.1
 (Enter /home1/apps/gaussian/16rA.03/g16/l301.exe)
 General basis read from cards:  (5D, 7F)
 Centers:       1
 S 1 1.00
     Exponent=  5.8200210000D+06 Coefficients=  1.0000000000D+00
 S 1 1.00
     Exponent=  8.7152340000D+05 Coefficients=  1.0000000000D+00
 S 1 1.00
     Exponent=  1.9833500000D+05 Coefficients=  1.0000000000D+00
 S 1 1.00
     Exponent=  5.6176310000D+04 Coefficients=  1.0000000000D+00
 S 1 1.00
     Exponent=  1.8325820000D+04 Coefficients=  1.0000000000D+00
 S 1 1.00
     Exponent=  6.6149550000D+03 Coefficients=  1.0000000000D+00
 S 1 1.00
     Exponent=  2.5791990000D+03 Coefficients=  1.0000000000D+00
 S 1 1.00
     Exponent=  1.0688490000D+03 Coefficients=  1.0000000000D+00
 S 1 1.00
     Exponent=  4.6510450000D+02 Coefficients=  1.0000000000D+00
 S 1 1.00
     Exponent=  2.1041300000D+02 Coefficients=  1.0000000000D+00
 S 1 1.00
     Exponent=  9.7616290000D+01 Coefficients=  1.0000000000D+00
 S 1 1.00
     Exponent=  4.4380200000D+01 Coefficients=  1.0000000000D+00
 S 1 1.00
     Exponent=  2.1423080000D+01 Coefficients=  1.0000000000D+00
 S 1 1.00
     Exponent=  1.0308910000D+01 Coefficients=  1.0000000000D+00
 S 1 1.00
     Exponent=  4.5536450000D+00 Coefficients=  1.0000000000D+00
 S 1 1.00
     Exponent=  2.1328210000D+00 Coefficients=  1.0000000000D+00
 S 1 1.00
     Exponent=  9.2969700000D-01 Coefficients=  1.0000000000D+00
 S 1 1.00
     Exponent=  1.9214700000D-01 Coefficients=  1.0000000000D+00
 S 1 1.00
     Exponent=  8.7595000000D-02 Coefficients=  1.0000000000D+00
 S 1 1.00
     Exponent=  3.7702000000D-02 Coefficients=  1.0000000000D+00
 S 1 1.00
     Exponent=  7.0381000000D+00 Coefficients=  1.0000000000D+00
 S 1 1.00
     Exponent=  1.8099000000D+00 Coefficients=  1.0000000000D+00
 S 1 1.00
     Exponent=  1.6230000000D-02 Coefficients=  1.0000000000D+00
 P 1 1.00
     Exponent=  2.4411980000D+04 Coefficients=  1.0000000000D+00
 P 1 1.00
     Exponent=  5.7785180000D+03 Coefficients=  1.0000000000D+00
 P 1 1.00
     Exponent=  1.8768620000D+03 Coefficients=  1.0000000000D+00
 P 1 1.00
     Exponent=  7.1823610000D+02 Coefficients=  1.0000000000D+00
 P 1 1.00
     Exponent=  3.0483270000D+02 Coefficients=  1.0000000000D+00
 P 1 1.00
     Exponent=  1.3904530000D+02 Coefficients=  1.0000000000D+00
 P 1 1.00
     Exponent=  6.6804170000D+01 Coefficients=  1.0000000000D+00
 P 1 1.00
     Exponent=  3.3206990000D+01 Coefficients=  1.0000000000D+00
 P 1 1.00
     Exponent=  1.6928160000D+01 Coefficients=  1.0000000000D+00
 P 1 1.00
     Exponent=  8.6962290000D+00 Coefficients=  1.0000000000D+00
 P 1 1.00
     Exponent=  4.3505100000D+00 Coefficients=  1.0000000000D+00
 P 1 1.00
     Exponent=  2.1165230000D+00 Coefficients=  1.0000000000D+00
 P 1 1.00
     Exponent=  9.9538700000D-01 Coefficients=  1.0000000000D+00
 P 1 1.00
     Exponent=  3.7811200000D-01 Coefficients=  1.0000000000D+00
 P 1 1.00
     Exponent=  1.3457900000D-01 Coefficients=  1.0000000000D+00
 P 1 1.00
     Exponent=  4.6282000000D-02 Coefficients=  1.0000000000D+00
 P 1 1.00
     Exponent=  1.0150100000D+01 Coefficients=  1.0000000000D+00
 P 1 1.00
     Exponent=  2.3451000000D+00 Coefficients=  1.0000000000D+00
 P 1 1.00
     Exponent=  1.5920000000D-02 Coefficients=  1.0000000000D+00
 D 1 1.00
     Exponent=  2.0561770000D+02 Coefficients=  1.0000000000D+00
 D 1 1.00
     Exponent=  6.1449810000D+01 Coefficients=  1.0000000000D+00
 D 1 1.00
     Exponent=  2.3056890000D+01 Coefficients=  1.0000000000D+00
 D 1 1.00
     Exponent=  9.5777390000D+00 Coefficients=  1.0000000000D+00
 D 1 1.00
     Exponent=  4.1337340000D+00 Coefficients=  1.0000000000D+00
 D 1 1.00
     Exponent=  1.7475180000D+00 Coefficients=  1.0000000000D+00
 D 1 1.00
     Exponent=  6.9956000000D-01 Coefficients=  1.0000000000D+00
 D 1 1.00
     Exponent=  2.5160800000D-01 Coefficients=  1.0000000000D+00
 D 1 1.00
     Exponent=  7.7440000000D+00 Coefficients=  1.0000000000D+00
 D 1 1.00
     Exponent=  3.9663000000D+00 Coefficients=  1.0000000000D+00
 D 1 1.00
     Exponent=  9.0490000000D-02 Coefficients=  1.0000000000D+00
 F 1 1.00
     Exponent=  1.0327000000D+01 Coefficients=  1.0000000000D+00
 F 1 1.00
     Exponent=  4.0202000000D+00 Coefficients=  1.0000000000D+00
 F 1 1.00
     Exponent=  1.4851000000D+00 Coefficients=  1.0000000000D+00
 F 1 1.00
     Exponent=  5.4861000000D-01 Coefficients=  1.0000000000D+00
 G 1 1.00
     Exponent=  9.2538000000D+00 Coefficients=  1.0000000000D+00
 G 1 1.00
     Exponent=  4.1144000000D+00 Coefficients=  1.0000000000D+00
 G 1 1.00
     Exponent=  1.8293300000D+00 Coefficients=  1.0000000000D+00
 ****
 Centers:       2
 S 1 1.00
     Exponent=  3.3870000000D+01 Coefficients=  1.0000000000D+00
 S 1 1.00
     Exponent=  5.0950000000D+00 Coefficients=  1.0000000000D+00
 S 1 1.00
     Exponent=  1.1590000000D+00 Coefficients=  1.0000000000D+00
 S 1 1.00
     Exponent=  3.2580000000D-01 Coefficients=  1.0000000000D+00
 S 1 1.00
     Exponent=  1.0270000000D-01 Coefficients=  1.0000000000D+00
 S 1 1.00
     Exponent=  2.5260000000D-02 Coefficients=  1.0000000000D+00
 P 1 1.00
     Exponent=  1.4070000000D+00 Coefficients=  1.0000000000D+00
 P 1 1.00
     Exponent=  3.8800000000D-01 Coefficients=  1.0000000000D+00
 P 1 1.00
     Exponent=  1.0200000000D-01 Coefficients=  1.0000000000D+00
 D 1 1.00
     Exponent=  1.0570000000D+00 Coefficients=  1.0000000000D+00
 D 1 1.00
     Exponent=  2.4700000000D-01 Coefficients=  1.0000000000D+00
 ****
 ======================================================================================================
                                       Pseudopotential Parameters
 ======================================================================================================
  Center     Atomic      Valence      Angular      Power
  Number     Number     Electrons     Momentum     of R      Exponent        Coefficient   SO-Coeffient
 ======================================================================================================
    1         30           20
                                      D and up 
                                                     1        5.2528273       20.00000000    0.00000000
                                                     3        5.8543330      105.05654526    0.00000000
                                                     2        5.8045290     -105.08806248    0.00000000
                                      S - D
                                                     2       12.5217496      123.87006927    0.00000000
                                      P - D
                                                     2       11.5601905       72.33499364    0.00000000
    2          1            1
                                      P and up 
                                                     2       21.7769666      -10.85192405    0.00000000
                                                     1       21.2435951        1.00000000    0.00000000
                                                     3       21.2435951       21.24359508    0.00000000
                                      S - P
                                                     2        1.0000000        0.00000000    0.00000000
 ======================================================================================================
 Ernie: Thresh=  0.10000D-02 Tol=  0.10000D-05 Strict=F.
 There are   120 symmetry adapted cartesian basis functions of A1  symmetry.
 There are    26 symmetry adapted cartesian basis functions of A2  symmetry.
 There are    56 symmetry adapted cartesian basis functions of B1  symmetry.
 There are    56 symmetry adapted cartesian basis functions of B2  symmetry.
 There are    94 symmetry adapted basis functions of A1  symmetry.
 There are    23 symmetry adapted basis functions of A2  symmetry.
 There are    49 symmetry adapted basis functions of B1  symmetry.
 There are    49 symmetry adapted basis functions of B2  symmetry.
   215 basis functions,   258 primitive gaussians,   258 cartesian basis functions
    11 alpha electrons       10 beta electrons
       nuclear repulsion energy         7.0556961456 Hartrees.
 IExCor=    0 DFT=F Ex=HF Corr=None ExCW=0 ScaHFX=  1.000000
 ScaDFX=  1.000000  1.000000  1.000000  1.000000 ScalE2=  1.000000  1.000000
 IRadAn=      5 IRanWt=     -1 IRanGd=            0 ICorTp=0 IEmpDi=  4
 NAtoms=    2 NActive=    2 NUniq=    2 SFac= 1.00D+00 NAtFMM=   60 NAOKFM=F Big=F
 Integral buffers will be    131072 words long.
 Raffenetti 2 integral format.
 Two-electron integral symmetry is turned on.
 Leave Link  301 at Sat Apr 21 10:09:54 2018, MaxMem= 10737418240 cpu:               7.2 elap:               0.3
 (Enter /home1/apps/gaussian/16rA.03/g16/l302.exe)
 NPDir=0 NMtPBC=     1 NCelOv=     1 NCel=       1 NClECP=     1 NCelD=      1
         NCelK=      1 NCelE2=     1 NClLst=     1 CellRange=     0.0.
 One-electron integrals computed using PRISM.
 One-electron integral symmetry used in STVInt
   4 Symmetry operations used in ECPInt.
 ECPInt:  NShTT=    2556 NPrTT=    2556 LenC2=    2532 LenP2D=    2531.
 LDataN:  DoStor=T MaxTD1= 8 Len=  415
 NBasis=   215 RedAO= T EigKep=  3.40D-06  NBF=    94    23    49    49
 NBsUse=   215 1.00D-06 EigRej= -1.00D+00 NBFU=    94    23    49    49
 Leave Link  302 at Sat Apr 21 10:09:55 2018, MaxMem= 10737418240 cpu:              29.0 elap:               1.0
 (Enter /home1/apps/gaussian/16rA.03/g16/l303.exe)
 DipDrv:  MaxL=1.
 Leave Link  303 at Sat Apr 21 10:09:56 2018, MaxMem= 10737418240 cpu:               2.0 elap:               0.1
 (Enter /home1/apps/gaussian/16rA.03/g16/l401.exe)
 Initial guess from the checkpoint file:  "tz.chk"
 B after Tr=     0.000000    0.000000    0.000000
         Rot=    1.000000    0.000000    0.000000    0.000000 Ang=   0.00 deg.
 Guess basis will be translated and rotated to current coordinates.
 JPrj=2 DoOrth=T DoCkMO=T.
 Initial guess orbital symmetries:
       Occupied  (SG) (PI) (PI) (SG) (DLTA) (DLTA) (SG) (PI) (PI)
                 (SG) (SG)
       Virtual   (PI) (PI) (SG) (SG) (PI) (PI) (SG) (SG) (SG) (PI)
                 (PI) (DLTA) (DLTA) (SG) (PI) (PI) (SG) (PI) (PI)
                 (SG) (SG) (SG) (DLTA) (DLTA) (PI) (PI) (DLTA)
                 (DLTA) (SG) (PI) (PI) (PI) (PI) (SG) (PI) (PI)
                 (SG) (SG) (PHI) (PHI) (DLTA) (DLTA) (PI) (PI)
                 (SG) (SG) (SG) (DLTA) (DLTA) (PI) (PI) (SG) (PI)
                 (PI) (SG) (DLTA) (DLTA) (PI) (PI) (PI) (PI) (SG)
                 (SG) (PHI) (PHI) (DLTA) (DLTA) (PI) (PI) (SG)
                 (DLTA) (DLTA) (PI) (PI) (SG) (?A) (?A) (PHI) (PHI)
                 (DLTA) (DLTA) (PI) (PI) (SG) (SG) (PI) (PI) (SG)
                 (SG) (PHI) (PHI) (DLTA) (DLTA) (PI) (PI) (SG)
                 (DLTA) (DLTA) (PI) (PI) (SG) (PI) (PI) (SG) (SG)
                 (?A) (?A) (PHI) (PHI) (DLTA) (DLTA) (PI) (PI)
                 (SG) (DLTA) (DLTA) (PI) (PI) (SG) (PHI) (PHI)
                 (DLTA) (DLTA) (PI) (PI) (SG) (PI) (PI) (SG) (SG)
                 (?A) (?A) (PHI) (PHI) (DLTA) (DLTA) (PI) (PI)
                 (SG) (DLTA) (DLTA) (PI) (PI) (SG) (SG) (PI) (PI)
                 (SG) (SG) (DLTA) (DLTA) (PI) (PI) (SG) (PI) (PI)
                 (SG) (SG) (PI) (PI) (SG) (DLTA) (DLTA) (PI) (PI)
                 (SG) (SG) (PI) (PI) (SG) (SG) (DLTA) (DLTA) (PI)
                 (PI) (SG) (PI) (PI) (SG) (SG) (PI) (PI) (SG) (SG)
                 (PI) (PI) (SG) (SG) (PI) (PI) (SG) (SG) (PI) (PI)
                 (SG) (SG) (SG) (PI) (PI) (SG) (SG) (SG) (SG) (SG)
 The electronic state of the initial guess is 2-SG.
 Leave Link  401 at Sat Apr 21 10:09:56 2018, MaxMem= 10737418240 cpu:              10.3 elap:               0.4
 (Enter /home1/apps/gaussian/16rA.03/g16/l502.exe)
 Keep R1 and R2 ints in memory in symmetry-blocked form, NReq=338797193.
 FoFCou: FMM=F IPFlag=           8 FMFlag=           0 FMFlg1=           0
         NFxFlg=           0 DoJE=F BraDBF=F KetDBF=F FulRan=T
         wScrn=  0.000000 ICntrl=       600 IOpCl=  0 I1Cent=           0 NGrid=           0
         NMat0=    1 NMatS0=  23220 NMatT0=    0 NMatD0=    1 NMtDS0=    0 NMtDT0=    0
 Petite list used in FoFCou.
 Restricted open shell SCF:
 Using DIIS extrapolation, IDIIS=  1040.
 NGot= 10737418240 LenX= 10598929943 LenY= 10598862938
 Requested convergence on RMS density matrix=1.00D-08 within 400 cycles.
 Requested convergence on MAX density matrix=1.00D-06.
 Requested convergence on             energy=1.00D-06.
 Virtual orbitals will be shifted by   0.200 hartree.
 No special actions if energy rises.

 Cycle   1  Pass 1  IDiag  1:
 E= -224.223796356253    
 DIIS: error= 1.01D+00 at cycle   1 NSaved=   1.
 NSaved= 1 IEnMin= 1 EnMin= -224.223796356253     IErMin= 1 ErrMin= 1.01D+00
 ErrMax= 1.01D+00  0.00D+00 EMaxC= 1.00D-01 BMatC= 9.38D+01 BMatP= 9.38D+01
 IDIUse=3 WtCom= 0.00D+00 WtEn= 1.00D+00
 Coeff-Com:  0.100D+01
 Coeff-En:   0.100D+01
 Coeff:      0.100D+01
 Gap=     0.096 Goal=   None    Shift=    0.200
 GapD=    0.096 DampG=0.500 DampE=0.125 DampFc=0.1250 IDamp=-1.
 Damping current iteration by 1.25D-01
 RMSDP=6.60D-03 MaxDP=3.58D-01              OVMax= 7.01D-02

 Cycle   2  Pass 1  IDiag  1:
 E= -224.510128262047     Delta-E=       -0.286331905794 Rises=F Damp=T
 DIIS: error= 8.91D-01 at cycle   2 NSaved=   2.
 NSaved= 2 IEnMin= 2 EnMin= -224.510128262047     IErMin= 2 ErrMin= 8.91D-01
 ErrMax= 8.91D-01  0.00D+00 EMaxC= 1.00D-01 BMatC= 7.22D+01 BMatP= 9.38D+01
 IDIUse=3 WtCom= 0.00D+00 WtEn= 1.00D+00
 Coeff-Com: -0.716D+01 0.816D+01
 Coeff-En:   0.000D+00 0.100D+01
 Coeff:      0.000D+00 0.100D+01
 Gap=     0.099 Goal=   None    Shift=    0.200
 RMSDP=5.73D-03 MaxDP=3.11D-01 DE=-2.86D-01 OVMax= 2.97D-03

 Cycle   3  Pass 1  IDiag  1:
 E= -226.529291149901     Delta-E=       -2.019162887854 Rises=F Damp=F
 DIIS: error= 4.49D-02 at cycle   3 NSaved=   3.
 NSaved= 3 IEnMin= 3 EnMin= -226.529291149901     IErMin= 3 ErrMin= 4.49D-02
 ErrMax= 4.49D-02  0.00D+00 EMaxC= 1.00D-01 BMatC= 1.06D-01 BMatP= 7.22D+01
 IDIUse=3 WtCom= 5.51D-01 WtEn= 4.49D-01
 Large coefficients: NSaved=  3 BigCof=   26.83 CofMax=   10.00 Det=-9.99D-05
 Inversion failed.  Reducing to  2 matrices.
 Coeff-Com: -0.150D-01 0.102D+01
 Coeff-En:   0.000D+00 0.100D+01
 Coeff:     -0.829D-02 0.101D+01
 Gap=     0.094 Goal=   None    Shift=    0.200
 RMSDP=7.94D-04 MaxDP=3.84D-02 DE=-2.02D+00 OVMax= 3.48D-02

 Cycle   4  Pass 1  IDiag  1:
 E= -226.532880062958     Delta-E=       -0.003588913057 Rises=F Damp=F
 DIIS: error= 3.49D-02 at cycle   4 NSaved=   3.
 NSaved= 3 IEnMin= 3 EnMin= -226.532880062958     IErMin= 3 ErrMin= 3.49D-02
 ErrMax= 3.49D-02  0.00D+00 EMaxC= 1.00D-01 BMatC= 7.81D-02 BMatP= 1.06D-01
 IDIUse=3 WtCom= 6.51D-01 WtEn= 3.49D-01
 Coeff-Com: -0.919D-02 0.488D+00 0.521D+00
 Coeff-En:   0.000D+00 0.448D+00 0.552D+00
 Coeff:     -0.598D-02 0.474D+00 0.532D+00
 Gap=     0.099 Goal=   None    Shift=    0.200
 RMSDP=3.96D-04 MaxDP=2.48D-02 DE=-3.59D-03 OVMax= 1.42D-02

 Cycle   5  Pass 1  IDiag  1:
 E= -226.548827831103     Delta-E=       -0.015947768145 Rises=F Damp=F
 DIIS: error= 6.21D-04 at cycle   5 NSaved=   4.
 NSaved= 4 IEnMin= 4 EnMin= -226.548827831103     IErMin= 4 ErrMin= 6.21D-04
 ErrMax= 6.21D-04  0.00D+00 EMaxC= 1.00D-01 BMatC= 7.62D-05 BMatP= 7.81D-02
 IDIUse=3 WtCom= 9.94D-01 WtEn= 6.21D-03
 Coeff-Com:  0.359D-03-0.276D-01-0.492D-01 0.108D+01
 Coeff-En:   0.000D+00 0.000D+00 0.000D+00 0.100D+01
 Coeff:      0.357D-03-0.274D-01-0.489D-01 0.108D+01
 Gap=     0.099 Goal=   None    Shift=    0.200
 RMSDP=4.73D-05 MaxDP=3.33D-03 DE=-1.59D-02 OVMax= 2.66D-03

 Cycle   6  Pass 1  IDiag  1:
 E= -226.548862144566     Delta-E=       -0.000034313463 Rises=F Damp=F
 DIIS: error= 2.94D-04 at cycle   6 NSaved=   5.
 NSaved= 5 IEnMin= 5 EnMin= -226.548862144566     IErMin= 5 ErrMin= 2.94D-04
 ErrMax= 2.94D-04  0.00D+00 EMaxC= 1.00D-01 BMatC= 4.82D-06 BMatP= 7.62D-05
 IDIUse=3 WtCom= 9.97D-01 WtEn= 2.94D-03
 Coeff-Com:  0.284D-04-0.153D-02 0.685D-02-0.501D-01 0.104D+01
 Coeff-En:   0.000D+00 0.000D+00 0.000D+00 0.000D+00 0.100D+01
 Coeff:      0.283D-04-0.152D-02 0.683D-02-0.500D-01 0.104D+01
 Gap=     0.098 Goal=   None    Shift=    0.200
 RMSDP=1.26D-05 MaxDP=6.23D-04 DE=-3.43D-05 OVMax= 8.31D-04

 Cycle   7  Pass 1  IDiag  1:
 E= -226.548865159657     Delta-E=       -0.000003015091 Rises=F Damp=F
 DIIS: error= 3.59D-05 at cycle   7 NSaved=   6.
 NSaved= 6 IEnMin= 6 EnMin= -226.548865159657     IErMin= 6 ErrMin= 3.59D-05
 ErrMax= 3.59D-05  0.00D+00 EMaxC= 1.00D-01 BMatC= 1.92D-07 BMatP= 4.82D-06
 IDIUse=1 WtCom= 1.00D+00 WtEn= 0.00D+00
 Coeff-Com: -0.965D-05 0.639D-03-0.329D-02 0.345D-02-0.426D+00 0.143D+01
 Coeff:     -0.965D-05 0.639D-03-0.329D-02 0.345D-02-0.426D+00 0.143D+01
 Gap=     0.098 Goal=   None    Shift=    0.200
 RMSDP=6.32D-06 MaxDP=3.50D-04 DE=-3.02D-06 OVMax= 3.94D-04

 Cycle   8  Pass 1  IDiag  1:
 E= -226.548865643677     Delta-E=       -0.000000484020 Rises=F Damp=F
 DIIS: error= 1.35D-05 at cycle   8 NSaved=   7.
 NSaved= 7 IEnMin= 7 EnMin= -226.548865643677     IErMin= 7 ErrMin= 1.35D-05
 ErrMax= 1.35D-05  0.00D+00 EMaxC= 1.00D-01 BMatC= 3.28D-08 BMatP= 1.92D-07
 IDIUse=1 WtCom= 1.00D+00 WtEn= 0.00D+00
 Coeff-Com: -0.465D-05 0.320D-03 0.103D-03-0.530D-02-0.158D-01-0.370D+00
 Coeff-Com:  0.139D+01
 Coeff:     -0.465D-05 0.320D-03 0.103D-03-0.530D-02-0.158D-01-0.370D+00
 Coeff:      0.139D+01
 Gap=     0.098 Goal=   None    Shift=    0.200
 RMSDP=2.72D-06 MaxDP=2.20D-04 DE=-4.84D-07 OVMax= 2.21D-04

 Cycle   9  Pass 1  IDiag  1:
 E= -226.548865723517     Delta-E=       -0.000000079840 Rises=F Damp=F
 DIIS: error= 5.39D-06 at cycle   9 NSaved=   8.
 NSaved= 8 IEnMin= 8 EnMin= -226.548865723517     IErMin= 8 ErrMin= 5.39D-06
 ErrMax= 5.39D-06  0.00D+00 EMaxC= 1.00D-01 BMatC= 3.38D-09 BMatP= 3.28D-08
 IDIUse=1 WtCom= 1.00D+00 WtEn= 0.00D+00
 Coeff-Com: -0.364D-06 0.218D-04 0.423D-03-0.149D-02 0.305D-01-0.159D+00
 Coeff-Com: -0.403D-01 0.117D+01
 Coeff:     -0.364D-06 0.218D-04 0.423D-03-0.149D-02 0.305D-01-0.159D+00
 Coeff:     -0.403D-01 0.117D+01
 Gap=     0.098 Goal=   None    Shift=    0.200
 RMSDP=1.11D-06 MaxDP=1.64D-04 DE=-7.98D-08 OVMax= 9.85D-05

 Cycle  10  Pass 1  IDiag  1:
 E= -226.548865733214     Delta-E=       -0.000000009697 Rises=F Damp=F
 DIIS: error= 2.27D-06 at cycle  10 NSaved=   9.
 NSaved= 9 IEnMin= 9 EnMin= -226.548865733214     IErMin= 9 ErrMin= 2.27D-06
 ErrMax= 2.27D-06  0.00D+00 EMaxC= 1.00D-01 BMatC= 6.02D-10 BMatP= 3.38D-09
 IDIUse=1 WtCom= 1.00D+00 WtEn= 0.00D+00
 Coeff-Com:  0.305D-06-0.264D-04-0.171D-03 0.162D-02-0.200D-01 0.910D-01
 Coeff-Com: -0.115D+00-0.488D+00 0.153D+01
 Coeff:      0.305D-06-0.264D-04-0.171D-03 0.162D-02-0.200D-01 0.910D-01
 Coeff:     -0.115D+00-0.488D+00 0.153D+01
 Gap=     0.098 Goal=   None    Shift=    0.200
 RMSDP=4.93D-07 MaxDP=8.55D-05 DE=-9.70D-09 OVMax= 4.11D-05

 Cycle  11  Pass 1  IDiag  1:
 E= -226.548865734760     Delta-E=       -0.000000001546 Rises=F Damp=F
 DIIS: error= 1.07D-06 at cycle  11 NSaved=  10.
 NSaved=10 IEnMin=10 EnMin= -226.548865734760     IErMin=10 ErrMin= 1.07D-06
 ErrMax= 1.07D-06  0.00D+00 EMaxC= 1.00D-01 BMatC= 9.09D-11 BMatP= 6.02D-10
 IDIUse=1 WtCom= 1.00D+00 WtEn= 0.00D+00
 Coeff-Com: -0.135D-06 0.125D-04-0.166D-04-0.498D-03 0.724D-03-0.187D-02
 Coeff-Com:  0.206D-01 0.205D-01-0.761D+00 0.172D+01
 Coeff:     -0.135D-06 0.125D-04-0.166D-04-0.498D-03 0.724D-03-0.187D-02
 Coeff:      0.206D-01 0.205D-01-0.761D+00 0.172D+01
 Gap=     0.098 Goal=   None    Shift=    0.200
 RMSDP=2.37D-07 MaxDP=3.14D-05 DE=-1.55D-09 OVMax= 2.12D-05

 Cycle  12  Pass 1  IDiag  1:
 E= -226.548865735079     Delta-E=       -0.000000000319 Rises=F Damp=F
 DIIS: error= 4.93D-07 at cycle  12 NSaved=  11.
 NSaved=11 IEnMin=11 EnMin= -226.548865735079     IErMin=11 ErrMin= 4.93D-07
 ErrMax= 4.93D-07  0.00D+00 EMaxC= 1.00D-01 BMatC= 1.86D-11 BMatP= 9.09D-11
 IDIUse=1 WtCom= 1.00D+00 WtEn= 0.00D+00
 Coeff-Com: -0.237D-08-0.281D-06-0.632D-05 0.647D-04-0.109D-02 0.514D-02
 Coeff-Com: -0.680D-02-0.256D-01 0.160D+00-0.947D+00 0.182D+01
 Coeff:     -0.237D-08-0.281D-06-0.632D-05 0.647D-04-0.109D-02 0.514D-02
 Coeff:     -0.680D-02-0.256D-01 0.160D+00-0.947D+00 0.182D+01
 Gap=     0.098 Goal=   None    Shift=    0.200
 RMSDP=1.18D-07 MaxDP=2.02D-05 DE=-3.19D-10 OVMax= 9.38D-06

 Cycle  13  Pass 1  IDiag  1:
 E= -226.548865735138     Delta-E=       -0.000000000059 Rises=F Damp=F
 DIIS: error= 2.68D-07 at cycle  13 NSaved=  12.
 NSaved=12 IEnMin=12 EnMin= -226.548865735138     IErMin=12 ErrMin= 2.68D-07
 ErrMax= 2.68D-07  0.00D+00 EMaxC= 1.00D-01 BMatC= 4.96D-12 BMatP= 1.86D-11
 IDIUse=1 WtCom= 1.00D+00 WtEn= 0.00D+00
 Coeff-Com:  0.320D-07-0.307D-05-0.137D-04 0.190D-03-0.199D-02 0.920D-02
 Coeff-Com: -0.192D-01-0.295D-01 0.195D+00-0.268D+00-0.557D+00 0.167D+01
 Coeff:      0.320D-07-0.307D-05-0.137D-04 0.190D-03-0.199D-02 0.920D-02
 Coeff:     -0.192D-01-0.295D-01 0.195D+00-0.268D+00-0.557D+00 0.167D+01
 Gap=     0.098 Goal=   None    Shift=    0.200
 RMSDP=5.79D-08 MaxDP=6.13D-06 DE=-5.90D-11 OVMax= 5.10D-06

 Cycle  14  Pass 1  IDiag  1:
 E= -226.548865735155     Delta-E=       -0.000000000017 Rises=F Damp=F
 DIIS: error= 1.35D-07 at cycle  14 NSaved=  13.
 NSaved=13 IEnMin=13 EnMin= -226.548865735155     IErMin=13 ErrMin= 1.35D-07
 ErrMax= 1.35D-07  0.00D+00 EMaxC= 1.00D-01 BMatC= 1.27D-12 BMatP= 4.96D-12
 IDIUse=1 WtCom= 1.00D+00 WtEn= 0.00D+00
 Coeff-Com: -0.216D-07 0.207D-05 0.372D-05-0.110D-03 0.765D-03-0.315D-02
 Coeff-Com:  0.106D-01 0.332D-02-0.118D+00 0.221D+00 0.277D+00-0.209D+01
 Coeff-Com:  0.270D+01
 Coeff:     -0.216D-07 0.207D-05 0.372D-05-0.110D-03 0.765D-03-0.315D-02
 Coeff:      0.106D-01 0.332D-02-0.118D+00 0.221D+00 0.277D+00-0.209D+01
 Coeff:      0.270D+01
 Gap=     0.098 Goal=   None    Shift=    0.200
 RMSDP=2.90D-08 MaxDP=4.04D-06 DE=-1.67D-11 OVMax= 2.45D-06

 Cycle  15  Pass 1  IDiag  1:
 E= -226.548865735160     Delta-E=       -0.000000000005 Rises=F Damp=F
 DIIS: error= 7.02D-08 at cycle  15 NSaved=  14.
 NSaved=14 IEnMin=14 EnMin= -226.548865735160     IErMin=14 ErrMin= 7.02D-08
 ErrMax= 7.02D-08  0.00D+00 EMaxC= 1.00D-01 BMatC= 3.91D-13 BMatP= 1.27D-12
 IDIUse=1 WtCom= 1.00D+00 WtEn= 0.00D+00
 Coeff-Com: -0.384D-08 0.288D-06 0.297D-06-0.862D-05 0.350D-05 0.219D-04
 Coeff-Com:  0.643D-03 0.316D-02-0.145D-01-0.813D-02 0.108D+00-0.461D+00
 Coeff-Com: -0.287D-01 0.140D+01
 Coeff:     -0.384D-08 0.288D-06 0.297D-06-0.862D-05 0.350D-05 0.219D-04
 Coeff:      0.643D-03 0.316D-02-0.145D-01-0.813D-02 0.108D+00-0.461D+00
 Coeff:     -0.287D-01 0.140D+01
 Gap=     0.098 Goal=   None    Shift=    0.200
 RMSDP=1.67D-08 MaxDP=1.62D-06 DE=-4.83D-12 OVMax= 1.44D-06

 Cycle  16  Pass 1  IDiag  1:
 E= -226.548865735161     Delta-E=       -0.000000000001 Rises=F Damp=F
 DIIS: error= 3.54D-08 at cycle  16 NSaved=  15.
 NSaved=15 IEnMin=15 EnMin= -226.548865735161     IErMin=15 ErrMin= 3.54D-08
 ErrMax= 3.54D-08  0.00D+00 EMaxC= 1.00D-01 BMatC= 1.28D-13 BMatP= 3.91D-13
 IDIUse=1 WtCom= 1.00D+00 WtEn= 0.00D+00
 Coeff-Com: -0.827D-09 0.124D-06 0.261D-06-0.958D-05 0.801D-04-0.302D-03
 Coeff-Com:  0.102D-02-0.188D-03-0.132D-01 0.444D-01 0.520D-02-0.309D+00
 Coeff-Com:  0.991D+00-0.256D+01 0.284D+01
 Coeff:     -0.827D-09 0.124D-06 0.261D-06-0.958D-05 0.801D-04-0.302D-03
 Coeff:      0.102D-02-0.188D-03-0.132D-01 0.444D-01 0.520D-02-0.309D+00
 Coeff:      0.991D+00-0.256D+01 0.284D+01
 Gap=     0.098 Goal=   None    Shift=    0.200
 RMSDP=8.01D-09 MaxDP=1.10D-06 DE=-9.38D-13 OVMax= 6.26D-07

 Cycle  17  Pass 1  IDiag  1:
 E= -226.548865735161     Delta-E=       -0.000000000001 Rises=F Damp=F
 DIIS: error= 2.16D-08 at cycle  17 NSaved=  16.
 NSaved=16 IEnMin=16 EnMin= -226.548865735161     IErMin=16 ErrMin= 2.16D-08
 ErrMax= 2.16D-08  0.00D+00 EMaxC= 1.00D-01 BMatC= 4.37D-14 BMatP= 1.28D-13
 IDIUse=1 WtCom= 1.00D+00 WtEn= 0.00D+00
 Large coefficients: NSaved= 16 BigCof=    0.00 CofMax=   10.00 Det=-1.51D-15
 Inversion failed.  Reducing to 15 matrices.
 Coeff-Com:  0.127D-06 0.429D-06-0.128D-04 0.121D-03-0.494D-03 0.157D-02
 Coeff-Com: -0.105D-02-0.127D-01 0.403D-01 0.219D-01-0.296D+00 0.765D+00
 Coeff-Com: -0.171D+01 0.125D+01 0.944D+00
 Coeff:      0.127D-06 0.429D-06-0.128D-04 0.121D-03-0.494D-03 0.157D-02
 Coeff:     -0.105D-02-0.127D-01 0.403D-01 0.219D-01-0.296D+00 0.765D+00
 Coeff:     -0.171D+01 0.125D+01 0.944D+00
 Gap=     0.098 Goal=   None    Shift=    0.200
 RMSDP=4.78D-09 MaxDP=5.05D-07 DE=-5.40D-13 OVMax= 3.96D-07

 SCF Done:  E(ROHF) =  -226.548865735     A.U. after   17 cycles
            NFock= 17  Conv=0.48D-08     -V/T= 2.5557
 <Sx>= 0.0000 <Sy>= 0.0000 <Sz>= 0.5000 <S**2>= 0.7500 S= 0.5000
 <L.S>=  0.00000000000    
 KE= 1.456246985441D+02 PE=-5.694509737662D+02 EE= 1.902217133414D+02
 Annihilation of the first spin contaminant:
 S**2 before annihilation     0.7500,   after     0.7500
 Leave Link  502 at Sat Apr 21 10:10:09 2018, MaxMem= 10737418240 cpu:             324.7 elap:              11.8
 (Enter /home1/apps/gaussian/16rA.03/g16/l801.exe)
 Windowed orbitals will be sorted by symmetry type.
 GenMOA:  NOpAll=  4 NOp2=4 NOpUse=  4 JSym2X=1
 FoFJK:  IHMeth= 1 ICntrl=       0 DoSepK=F KAlg= 0 I1Cent=           0 FoldK=F
 IRaf=         0 NMat=       1 IRICut=       1 DoRegI=T DoRafI=F ISym2E= 1 IDoP0=0 IntGTp=1.
 FoFCou: FMM=F IPFlag=           8 FMFlag=      100000 FMFlg1=           0
         NFxFlg=           0 DoJE=F BraDBF=F KetDBF=F FulRan=T
         wScrn=  0.000000 ICntrl=         0 IOpCl=  1 I1Cent=           0 NGrid=           0
         NMat0=    1 NMatS0=      1 NMatT0=    0 NMatD0=    1 NMtDS0=    0 NMtDT0=    0
 Petite list used in FoFCou.
 <Sx>= 0.0000 <Sy>= 0.0000 <Sz>= 0.5000 <S**2>= 0.7500 S= 0.5000
 Range of M.O.s used for correlation:     1   215
 NBasis=   215 NAE=    11 NBE=    10 NFC=     0 NFV=     0
 NROrb=    215 NOA=    11 NOB=    10 NVA=   204 NVB=   205

 **** Warning!!: The largest alpha MO coefficient is  0.20042004D+03


 **** Warning!!: The largest beta MO coefficient is  0.20041063D+03

 Singles contribution to E2=   -0.9321818903D-03
 Leave Link  801 at Sat Apr 21 10:10:12 2018, MaxMem= 10737418240 cpu:              98.1 elap:               3.1
 (Enter /home1/apps/gaussian/16rA.03/g16/l804.exe)
 Open-shell transformation, MDV= 10737418240 ITran=4 ISComp=2.
 Unit  1 TFree=       1390970 TCopy=       1099022.
 Semi-Direct transformation.
 ModeAB=           2 MOrb=            11 LenV=   10735913448
 LASXX=     13597211 LTotXX=    13597211 LenRXX=    13597211
 LTotAB=    13870998 MaxLAS=    79017015 LenRXY=    79017015
 NonZer=    80563725 LenScr=   121595904 LnRSAI=           0
 LnScr1=           0 LExtra=     7890913 Total=    222101043
 MaxDsk= 67108864000 SrtSym=           F ITran=            4
 DoSDTr:  NPSUse= 32
 JobTyp=1 Pass  1:  I=   1 to  11.
 (rs|ai) integrals will be sorted in core.
 Complete sort for first half transformation.
 First half transformation complete.
 Begin second half transformation for I=  10.
 Begin second half transformation for I=  10.
 Complete sort for second half transformation.
 Second half transformation complete.
 ModeAB=           2 MOrb=            10 LenV=   10735913448
 LASXX=     12352723 LTotXX=    12352723 LenRXX=    71833650
 LTotAB=    11326585 MaxLAS=    71833650 LenRXY=    11326585
 NonZer=    73239750 LenScr=   110629376 LnRSAI=           0
 LnScr1=           0 LExtra=   100505139 Total=    294294750
 MaxDsk= 67108864000 SrtSym=           F ITran=            4
 DoSDTr:  NPSUse= 32
 JobTyp=2 Pass  1:  I=   1 to  10.
 (rs|ai) integrals will be sorted in core.
 Complete sort for first half transformation.
 First half transformation complete.
 Begin second half transformation for I=  10.
 Begin second half transformation for I=  10.
 Complete sort for second half transformation.
 Second half transformation complete.
 Spin components of T(2) and E(2):
     alpha-alpha T2 =       0.1812744140D-01 E2=     -0.1633540273D+00
     alpha-beta  T2 =       0.7738260349D-01 E2=     -0.7285374123D+00
     beta-beta   T2 =       0.1548170528D-01 E2=     -0.1545375305D+00
 ANorm=    0.1054484617D+01
 E2 =    -0.1047361152D+01 EUMP2 =    -0.22759622688707D+03
 (S**2,0)=  0.75000D+00           (S**2,1)=  0.75000D+00
 E(PUHF)=      -0.22654886574D+03        E(PMP2)=      -0.22759622689D+03
 Leave Link  804 at Sat Apr 21 10:12:08 2018, MaxMem= 10737418240 cpu:            3689.1 elap:             115.4
 (Enter /home1/apps/gaussian/16rA.03/g16/l913.exe)
 CIDS:  MDV= 10737418240.
 IFCWin=0 IBDFC=1 NFBD=     0     0 NFCmp=     0     0 NFFFC=     0     0
 Using original routines for 1st iteration.
 Using DD4UQ or CC4UQ for 2nd and later iterations.
 Keep R2 and R3 ints in memory in symmetry-blocked form, NReq=338810218.
 FoFCou: FMM=F IPFlag=           8 FMFlag=           0 FMFlg1=           0
         NFxFlg=           0 DoJE=F BraDBF=F KetDBF=F FulRan=T
         wScrn=  0.000000 ICntrl=       600 IOpCl=  0 I1Cent=           0 NGrid=           0
         NMat0=    1 NMatS0=  23220 NMatT0=    0 NMatD0=    1 NMtDS0=    0 NMtDT0=    0
 Petite list used in FoFCou.
 CIDS: In Core Option IDoMem=           1.
 CCSD(T)
 =======
 Iterations= 150 Convergence= 0.100D-06
 Produce multiple copies of IABC intergrals
 Iteration Nr.   1
 **********************
 DD1Dir will call FoFMem   1 times, MxPair=       320
 NAB=   110 NAA=    55 NBB=    45.
 DD1Dir will call FoFMem   1 times, MxPair=       320
 NAB=   110 NAA=    55 NBB=    45.
 MP4(R+Q)= -0.12481897D+00
 Maximum subspace dimension=  5
 A-vector RMS=  1.0820086D-04 Max=  1.1249374D-03 conv= 1.00D-05.
 RLE energy=       -1.0530124922
 E3=        0.11915533D+00        EROMP3=      -0.22747707155D+03
 E4(SDQ)=  -0.76927564D-01        ROMP4(SDQ)=  -0.22755399912D+03
 VARIATIONAL ENERGIES WITH THE FIRST-ORDER WAVEFUNCTION:
 DE(Corr)=  -1.0529825     E(Corr)=     -227.60184821    
 NORM(A)=   0.10546186D+01
 Iteration Nr.   2
 **********************
 DD1Dir will call FoFMem   1 times, MxPair=       320
 NAB=   110 NAA=    55 NBB=    45.
 A-vector RMS=  3.4287420D-03 Max=  2.5338261D-02 conv= 1.00D-05.
 RLE energy=       -1.0350112347
 DE(Corr)= -0.92801922     E(CORR)=     -227.47688496     Delta= 1.25D-01
 NORM(A)=   0.10525089D+01
 Iteration Nr.   3
 **********************
 DD1Dir will call FoFMem   1 times, MxPair=       320
 NAB=   110 NAA=    55 NBB=    45.
 A-vector RMS=  2.8039434D-03 Max=  2.3107945D-02 conv= 1.00D-05.
 RLE energy=       -0.9974981211
 DE(Corr)= -0.93617137     E(CORR)=     -227.48503710     Delta=-8.15D-03
 NORM(A)=   0.10525260D+01
 Iteration Nr.   4
 **********************
 DD1Dir will call FoFMem   1 times, MxPair=       320
 NAB=   110 NAA=    55 NBB=    45.
 A-vector RMS=  1.6016760D-03 Max=  1.5455192D-02 conv= 1.00D-05.
 RLE energy=       -0.9020434879
 DE(Corr)= -0.95758241     E(CORR)=     -227.50644815     Delta=-2.14D-02
 NORM(A)=   0.10838696D+01
 Iteration Nr.   5
 **********************
 DD1Dir will call FoFMem   1 times, MxPair=       320
 NAB=   110 NAA=    55 NBB=    45.
 A-vector RMS=  3.2618906D-03 Max=  2.0623489D-02 conv= 1.00D-05.
 RLE energy=       -0.9778413674
 DE(Corr)=  -1.0257249     E(CORR)=     -227.57459065     Delta=-6.81D-02
 NORM(A)=   0.10638652D+01
 Iteration Nr.   6
 **********************
 DD1Dir will call FoFMem   1 times, MxPair=       320
 NAB=   110 NAA=    55 NBB=    45.
 A-vector RMS=  2.1753719D-04 Max=  2.8331236D-03 conv= 1.00D-05.
 RLE energy=       -0.9768435195
 DE(Corr)= -0.97611974     E(CORR)=     -227.52498547     Delta= 4.96D-02
 NORM(A)=   0.10637362D+01
 Iteration Nr.   7
 **********************
 DD1Dir will call FoFMem   1 times, MxPair=       320
 NAB=   110 NAA=    55 NBB=    45.
 A-vector RMS=  8.9871340D-05 Max=  1.6435015D-03 conv= 1.00D-05.
 RLE energy=       -0.9761708653
 DE(Corr)= -0.97618288     E(CORR)=     -227.52504862     Delta=-6.31D-05
 NORM(A)=   0.10645638D+01
 Iteration Nr.   8
 **********************
 DD1Dir will call FoFMem   1 times, MxPair=       320
 NAB=   110 NAA=    55 NBB=    45.
 A-vector RMS=  5.3016266D-05 Max=  7.1507834D-04 conv= 1.00D-05.
 RLE energy=       -0.9764052965
 DE(Corr)= -0.97657747     E(CORR)=     -227.52544321     Delta=-3.95D-04
 NORM(A)=   0.10647614D+01
 Iteration Nr.   9
 **********************
 DD1Dir will call FoFMem   1 times, MxPair=       320
 NAB=   110 NAA=    55 NBB=    45.
 A-vector RMS=  2.1738540D-05 Max=  1.8363261D-04 conv= 1.00D-05.
 RLE energy=       -0.9764600289
 DE(Corr)= -0.97643093     E(CORR)=     -227.52529667     Delta= 1.47D-04
 NORM(A)=   0.10649116D+01
 Iteration Nr.  10
 **********************
 DD1Dir will call FoFMem   1 times, MxPair=       320
 NAB=   110 NAA=    55 NBB=    45.
 A-vector RMS=  1.0282660D-05 Max=  1.6445364D-04 conv= 1.00D-05.
 RLE energy=       -0.9764487775
 DE(Corr)= -0.97646799     E(CORR)=     -227.52533372     Delta=-3.71D-05
 NORM(A)=   0.10648884D+01
 Iteration Nr.  11
 **********************
 DD1Dir will call FoFMem   1 times, MxPair=       320
 NAB=   110 NAA=    55 NBB=    45.
 A-vector RMS=  5.2536641D-06 Max=  5.9234264D-05 conv= 1.00D-05.
 RLE energy=       -0.9764492845
 DE(Corr)= -0.97646036     E(CORR)=     -227.52532610     Delta= 7.62D-06
 NORM(A)=   0.10648637D+01
 Iteration Nr.  12
 **********************
 DD1Dir will call FoFMem   1 times, MxPair=       320
 NAB=   110 NAA=    55 NBB=    45.
 A-vector RMS=  1.8860677D-06 Max=  4.1796762D-05 conv= 1.00D-05.
 RLE energy=       -0.9764513529
 DE(Corr)= -0.97645231     E(CORR)=     -227.52531805     Delta= 8.05D-06
 NORM(A)=   0.10648567D+01
 Iteration Nr.  13
 **********************
 DD1Dir will call FoFMem   1 times, MxPair=       320
 NAB=   110 NAA=    55 NBB=    45.
 A-vector RMS=  7.9651076D-07 Max=  1.4394867D-05 conv= 1.00D-05.
 RLE energy=       -0.9764490468
 DE(Corr)= -0.97644990     E(CORR)=     -227.52531564     Delta= 2.41D-06
 NORM(A)=   0.10648551D+01
 Iteration Nr.  14
 **********************
 DD1Dir will call FoFMem   1 times, MxPair=       320
 NAB=   110 NAA=    55 NBB=    45.
 A-vector RMS=  5.4008894D-07 Max=  7.3169501D-06 conv= 1.00D-05.
 RLE energy=       -0.9764488397
 DE(Corr)= -0.97644926     E(CORR)=     -227.52531500     Delta= 6.40D-07
 NORM(A)=   0.10648554D+01
 Iteration Nr.  15
 **********************
 DD1Dir will call FoFMem   1 times, MxPair=       320
 NAB=   110 NAA=    55 NBB=    45.
 A-vector RMS=  2.2896936D-07 Max=  3.4793521D-06 conv= 1.00D-05.
 RLE energy=       -0.9764496932
 DE(Corr)= -0.97644975     E(CORR)=     -227.52531549     Delta=-4.90D-07
 NORM(A)=   0.10648566D+01
 Iteration Nr.  16
 **********************
 DD1Dir will call FoFMem   1 times, MxPair=       320
 NAB=   110 NAA=    55 NBB=    45.
 A-vector RMS=  1.2958582D-07 Max=  2.1152703D-06 conv= 1.00D-05.
 RLE energy=       -0.9764499311
 DE(Corr)= -0.97644980     E(CORR)=     -227.52531554     Delta=-5.03D-08
 NORM(A)=   0.10648576D+01
 CI/CC converged in   16 iterations to DelEn=-5.03D-08 Conv= 1.00D-07 ErrA1= 1.30D-07 Conv= 1.00D-05
 Wavefunction amplitudes converged. E(Corr)=     -227.52531554    
 Largest amplitude= 7.06D-02
 Time for triples=    18695.60 seconds.
 T4(CCSD)= -0.30342183D-01
 T5(CCSD)=  0.34434359D-02
 CCSD(T)= -0.22755221428D+03
 Discarding MO integrals.
 Leave Link  913 at Sat Apr 21 10:25:40 2018, MaxMem= 10737418240 cpu:           25947.7 elap:             811.7
 (Enter /home1/apps/gaussian/16rA.03/g16/l601.exe)
 Copying SCF densities to generalized density rwf, IOpCl= 0 IROHF=1.

 **********************************************************************

            Population analysis using the SCF density.

 **********************************************************************

 Orbital symmetries:
       Occupied  (SG) (PI) (PI) (SG) (DLTA) (DLTA) (SG) (PI) (PI)
                 (SG) (SG)
       Virtual   (PI) (PI) (SG) (SG) (PI) (PI) (SG) (SG) (SG) (PI)
                 (PI) (DLTA) (DLTA) (SG) (PI) (PI) (SG) (PI) (PI)
                 (SG) (SG) (SG) (DLTA) (DLTA) (PI) (PI) (DLTA)
                 (DLTA) (SG) (PI) (PI) (PI) (PI) (SG) (PI) (PI)
                 (SG) (SG) (PHI) (PHI) (DLTA) (DLTA) (PI) (PI)
                 (SG) (SG) (SG) (DLTA) (DLTA) (PI) (PI) (SG) (PI)
                 (PI) (SG) (DLTA) (DLTA) (PI) (PI) (PI) (PI) (SG)
                 (SG) (PHI) (PHI) (DLTA) (DLTA) (PI) (PI) (SG)
                 (DLTA) (DLTA) (PI) (PI) (SG) (SG) (?A) (?A) (PHI)
                 (PHI) (DLTA) (DLTA) (PI) (PI) (PI) (PI) (SG) (SG)
                 (SG) (PHI) (PHI) (DLTA) (DLTA) (PI) (PI) (SG)
                 (DLTA) (DLTA) (PI) (PI) (SG) (SG) (PI) (PI) (SG)
                 (?A) (?A) (PHI) (PHI) (DLTA) (DLTA) (PI) (PI)
                 (SG) (DLTA) (DLTA) (PI) (PI) (SG) (PI) (PI) (SG)
                 (SG) (PHI) (PHI) (DLTA) (DLTA) (PI) (PI) (SG)
                 (?A) (?A) (PHI) (PHI) (DLTA) (DLTA) (PI) (PI)
                 (SG) (DLTA) (DLTA) (PI) (PI) (SG) (PI) (PI) (SG)
                 (SG) (SG) (PI) (PI) (SG) (DLTA) (DLTA) (PI) (PI)
                 (SG) (SG) (PI) (PI) (SG) (SG) (DLTA) (DLTA) (PI)
                 (PI) (SG) (PI) (PI) (SG) (SG) (PI) (PI) (SG) (SG)
                 (DLTA) (DLTA) (PI) (PI) (SG) (PI) (PI) (SG) (SG)
                 (PI) (PI) (SG) (SG) (PI) (PI) (SG) (SG) (PI) (PI)
                 (SG) (SG) (SG) (PI) (PI) (SG) (SG) (SG) (SG) (SG)
 The electronic state is 2-SG.
 Alpha  occ. eigenvalues --   -5.57532  -3.86869  -3.86869  -3.86855  -0.79429
 Alpha  occ. eigenvalues --   -0.79235  -0.79235  -0.78751  -0.78751  -0.46626
 Alpha  occ. eigenvalues --   -0.27716
 Alpha virt. eigenvalues --    0.02090   0.02090   0.02845   0.03967   0.07652
 Alpha virt. eigenvalues --    0.07652   0.08860   0.15855   0.18576   0.24300
 Alpha virt. eigenvalues --    0.24300   0.25051   0.25051   0.25641   0.29048
 Alpha virt. eigenvalues --    0.29048   0.35325   0.38301   0.38301   0.56381
 Alpha virt. eigenvalues --    0.58836   0.64894   0.85621   0.85621   0.85627
 Alpha virt. eigenvalues --    0.85627   0.91646   0.91646   0.97110   1.04415
 Alpha virt. eigenvalues --    1.04415   1.11168   1.11168   1.13667   1.28467
 Alpha virt. eigenvalues --    1.28467   1.29964   1.71410   1.85907   1.85907
 Alpha virt. eigenvalues --    1.97544   1.97544   2.32687   2.32687   2.42330
 Alpha virt. eigenvalues --    2.57670   2.64011   2.75949   2.75949   2.76141
 Alpha virt. eigenvalues --    2.76141   2.98991   3.43410   3.43410   3.87684
 Alpha virt. eigenvalues --    3.93237   3.93237   4.16442   4.16442   4.32337
 Alpha virt. eigenvalues --    4.32337   4.61707   5.13179   5.40097   5.40097
 Alpha virt. eigenvalues --    5.46555   5.46555   5.66559   5.66559   5.83688
 Alpha virt. eigenvalues --    7.40663   7.40663   7.46992   7.46992   7.61387
 Alpha virt. eigenvalues --    7.75447   7.79619   7.79619   7.80229   7.80229
 Alpha virt. eigenvalues --    7.81582   7.81582   7.98429   7.98429   8.58149
 Alpha virt. eigenvalues --    8.58149   8.67953   8.92007  10.32571  13.49991
 Alpha virt. eigenvalues --   13.49991  13.54243  13.54243  13.67964  13.67964
 Alpha virt. eigenvalues --   13.78449  16.72683  16.72683  16.77458  16.77458
 Alpha virt. eigenvalues --   17.08216  17.71216  17.89406  17.89406  18.23106
 Alpha virt. eigenvalues --   20.31016  20.31016  20.31479  20.31479  20.32227
 Alpha virt. eigenvalues --   20.32227  20.39377  20.39377  20.64510  33.23925
 Alpha virt. eigenvalues --   33.23925  33.28054  33.28054  33.56799  33.86163
 Alpha virt. eigenvalues --   33.86163  34.13708  34.97631  35.09498  35.09498
 Alpha virt. eigenvalues --   35.12827  35.12827  35.23438  35.23438  35.33903
 Alpha virt. eigenvalues --   46.01555  46.01555  46.02110  46.02110  46.02734
 Alpha virt. eigenvalues --   46.02734  46.07152  46.07152  46.21766  60.29705
 Alpha virt. eigenvalues --   60.29705  60.33563  60.33563  60.59916  60.66402
 Alpha virt. eigenvalues --   60.66402  60.92751  63.79939  63.98040 105.86533
 Alpha virt. eigenvalues --  105.86533 106.11179 112.89587 112.89587 112.93107
 Alpha virt. eigenvalues --  112.93107 113.18108 114.96822 187.69287 187.69287
 Alpha virt. eigenvalues --  187.92262 213.67286 267.32028 267.32028 267.34655
 Alpha virt. eigenvalues --  267.34655 267.54468 348.23520 348.23520 348.44742
 Alpha virt. eigenvalues --  414.87397 681.85530 681.85530 682.04932 840.55112
 Alpha virt. eigenvalues --  857.12591 857.12591 857.14190 857.14190 857.27344
 Alpha virt. eigenvalues -- 1414.902781414.902781415.077991773.705893146.58390
 Alpha virt. eigenvalues -- 3146.583903146.739353902.684587680.528857680.52885
 Alpha virt. eigenvalues -- 7680.662978999.31312******************************
 Alpha virt. eigenvalues -- **************************************************
 Alpha virt. eigenvalues -- ****************************************
     Molecular Orbital Coefficients:
                           6         7         8         9        10
                           O         O         O         O         O
     Eigenvalues --    -0.79235  -0.79235  -0.78751  -0.78751  -0.46626
   1 1   Zn 1S          0.00000  -0.00000   0.00000   0.00000   0.00000
   2        2S          0.00000   0.00000   0.00000   0.00000  -0.00000
   3        3S          0.00000  -0.00000   0.00000   0.00000   0.00000
   4        4S          0.00000   0.00000   0.00000   0.00000  -0.00000
   5        5S          0.00000  -0.00000   0.00000   0.00000   0.00000
   6        6S          0.00000   0.00000   0.00000   0.00000  -0.00000
   7        7S          0.00000  -0.00000   0.00000   0.00000   0.00001
   8        8S          0.00000   0.00000   0.00000   0.00000  -0.00002
   9        9S          0.00000  -0.00000   0.00000   0.00000   0.00005
  10       10S          0.00000   0.00001   0.00000   0.00000  -0.00014
  11       11S          0.00000  -0.00003   0.00000   0.00000   0.00036
  12       12S          0.00000   0.00009   0.00000   0.00000  -0.00070
  13       13S          0.00000  -0.00029   0.00000   0.00000  -0.00829
  14       14S          0.00000   0.00108   0.00000   0.00000   0.07774
  15       15S          0.00000   0.00460   0.00000   0.00000  -0.04302
  16       16S          0.00000  -0.01625   0.00000   0.00000  -0.06332
  17       17S          0.00000  -0.00787   0.00000   0.00000  -0.11699
  18       18S          0.00000  -0.02751   0.00000   0.00000   0.24494
  19       19S          0.00000   0.00013   0.00000   0.00000   0.19699
  20       20S          0.00000  -0.01521   0.00000   0.00000   0.03642
  21       21S          0.00000  -0.00316   0.00000   0.00000  -0.01161
  22       22S          0.00000   0.02134   0.00000   0.00000  -0.10600
  23       23S          0.00000  -0.00097   0.00000   0.00000  -0.00994
  24       24PX         0.00000   0.00000   0.00000   0.00000   0.00000
  25       24PY         0.00000   0.00000   0.00000   0.00000   0.00000
  26       24PZ         0.00000  -0.00000   0.00000   0.00000   0.00000
  27       25PX         0.00000   0.00000  -0.00000   0.00000   0.00000
  28       25PY         0.00000   0.00000   0.00000  -0.00000   0.00000
  29       25PZ         0.00000   0.00000   0.00000   0.00000  -0.00000
  30       26PX         0.00000   0.00000   0.00000   0.00000   0.00000
  31       26PY         0.00000   0.00000   0.00000   0.00000   0.00000
  32       26PZ         0.00000  -0.00000   0.00000   0.00000   0.00000
  33       27PX         0.00000   0.00000  -0.00000   0.00000   0.00000
  34       27PY         0.00000   0.00000   0.00000  -0.00000   0.00000
  35       27PZ         0.00000   0.00000   0.00000   0.00000  -0.00000
  36       28PX         0.00000   0.00000   0.00000   0.00000   0.00000
  37       28PY         0.00000   0.00000   0.00000   0.00000   0.00000
  38       28PZ         0.00000  -0.00000   0.00000   0.00000   0.00000
  39       29PX         0.00000   0.00000  -0.00000   0.00000   0.00000
  40       29PY         0.00000   0.00000   0.00000  -0.00000   0.00000
  41       29PZ         0.00000   0.00002   0.00000   0.00000  -0.00000
  42       30PX         0.00000   0.00000   0.00001   0.00000   0.00000
  43       30PY         0.00000   0.00000   0.00000   0.00001   0.00000
  44       30PZ         0.00000  -0.00006   0.00000   0.00000   0.00001
  45       31PX         0.00000   0.00000  -0.00003   0.00000   0.00000
  46       31PY         0.00000   0.00000   0.00000  -0.00003   0.00000
  47       31PZ         0.00000   0.00022   0.00000   0.00000   0.00012
  48       32PX         0.00000   0.00000   0.00015   0.00000   0.00000
  49       32PY         0.00000   0.00000   0.00000   0.00015   0.00000
  50       32PZ         0.00000  -0.00129   0.00000   0.00000  -0.00207
  51       33PX         0.00000   0.00000   0.00047   0.00000   0.00000
  52       33PY         0.00000   0.00000   0.00000   0.00047   0.00000
  53       33PZ         0.00000  -0.00469   0.00000   0.00000   0.02965
  54       34PX         0.00000   0.00000  -0.00116   0.00000   0.00000
  55       34PY         0.00000   0.00000   0.00000  -0.00116   0.00000
  56       34PZ         0.00000   0.00871   0.00000   0.00000   0.02635
  57       35PX         0.00000   0.00000  -0.00524   0.00000   0.00000
  58       35PY         0.00000   0.00000   0.00000  -0.00524   0.00000
  59       35PZ         0.00000   0.03663   0.00000   0.00000   0.01187
  60       36PX         0.00000   0.00000   0.00061   0.00000   0.00000
  61       36PY         0.00000   0.00000   0.00000   0.00061   0.00000
  62       36PZ         0.00000  -0.00038   0.00000   0.00000   0.03283
  63       37PX         0.00000   0.00000  -0.00029   0.00000   0.00000
  64       37PY         0.00000   0.00000   0.00000  -0.00029   0.00000
  65       37PZ         0.00000   0.00023   0.00000   0.00000  -0.05854
  66       38PX         0.00000   0.00000  -0.00032   0.00000   0.00000
  67       38PY         0.00000   0.00000   0.00000  -0.00032   0.00000
  68       38PZ         0.00000  -0.00802   0.00000   0.00000  -0.10047
  69       39PX         0.00000   0.00000   0.00139   0.00000   0.00000
  70       39PY         0.00000   0.00000   0.00000   0.00139   0.00000
  71       39PZ         0.00000   0.00161   0.00000   0.00000  -0.02138
  72       40PX         0.00000   0.00000  -0.00047   0.00000   0.00000
  73       40PY         0.00000   0.00000   0.00000  -0.00047   0.00000
  74       40PZ         0.00000   0.00477   0.00000   0.00000  -0.02041
  75       41PX         0.00000   0.00000   0.00414   0.00000   0.00000
  76       41PY         0.00000   0.00000   0.00000   0.00414   0.00000
  77       41PZ         0.00000  -0.03103   0.00000   0.00000   0.03710
  78       42PX         0.00000   0.00000  -0.00027   0.00000   0.00000
  79       42PY         0.00000   0.00000   0.00000  -0.00027   0.00000
  80       42PZ         0.00000   0.00081   0.00000   0.00000   0.00170
  81       43D 0        0.00000   0.00013   0.00000   0.00000  -0.00002
  82       43D+1        0.00000   0.00000   0.00013   0.00000   0.00000
  83       43D-1        0.00000   0.00000   0.00000   0.00013   0.00000
  84       43D+2        0.00000  -0.00000   0.00000   0.00000  -0.00000
  85       43D-2        0.00013   0.00000   0.00000   0.00000   0.00000
  86       44D 0        0.00000  -0.00109   0.00000   0.00000   0.00019
  87       44D+1        0.00000   0.00000  -0.00112   0.00000   0.00000
  88       44D-1        0.00000   0.00000   0.00000  -0.00112   0.00000
  89       44D+2        0.00000   0.00000   0.00000   0.00000   0.00000
  90       44D-2       -0.00112   0.00000   0.00000   0.00000   0.00000
  91       45D 0        0.00000   0.02438   0.00000   0.00000  -0.00429
  92       45D+1        0.00000   0.00000   0.02498   0.00000   0.00000
  93       45D-1        0.00000   0.00000   0.00000   0.02498   0.00000
  94       45D+2        0.00000  -0.00000   0.00000   0.00000  -0.00000
  95       45D-2        0.02500   0.00000   0.00000   0.00000   0.00000
  96       46D 0        0.00000   0.27550   0.00000   0.00000  -0.04857
  97       46D+1        0.00000   0.00000   0.28149   0.00000   0.00000
  98       46D-1        0.00000   0.00000   0.00000   0.28149   0.00000
  99       46D+2        0.00000  -0.00000   0.00000   0.00000   0.00000
 100       46D-2        0.28152   0.00000   0.00000   0.00000   0.00000
 101       47D 0        0.00000   0.66126   0.00000   0.00000  -0.11773
 102       47D+1        0.00000   0.00000   0.66852   0.00000   0.00000
 103       47D-1        0.00000   0.00000   0.00000   0.66852   0.00000
 104       47D+2        0.00000  -0.00000   0.00000   0.00000   0.00000
 105       47D-2        0.66768   0.00000   0.00000   0.00000   0.00000
 106       48D 0        0.00000   0.35529   0.00000   0.00000  -0.06292
 107       48D+1        0.00000   0.00000   0.36317   0.00000   0.00000
 108       48D-1        0.00000   0.00000   0.00000   0.36317   0.00000
 109       48D+2        0.00000  -0.00000   0.00000   0.00000   0.00000
 110       48D-2        0.36332   0.00000   0.00000   0.00000   0.00000
 111       49D 0        0.00000   0.26462   0.00000   0.00000  -0.03952
 112       49D+1        0.00000   0.00000   0.26890   0.00000   0.00000
 113       49D-1        0.00000   0.00000   0.00000   0.26890   0.00000
 114       49D+2        0.00000  -0.00000   0.00000   0.00000  -0.00000
 115       49D-2        0.27031   0.00000   0.00000   0.00000   0.00000
 116       50D 0        0.00000   0.10401   0.00000   0.00000  -0.00856
 117       50D+1        0.00000   0.00000   0.10548   0.00000   0.00000
 118       50D-1        0.00000   0.00000   0.00000   0.10548   0.00000
 119       50D+2        0.00000  -0.00000   0.00000   0.00000   0.00000
 120       50D-2        0.10370   0.00000   0.00000   0.00000   0.00000
 121       51D 0        0.00000  -0.06429   0.00000   0.00000   0.01165
 122       51D+1        0.00000   0.00000  -0.06492   0.00000   0.00000
 123       51D-1        0.00000   0.00000   0.00000  -0.06492   0.00000
 124       51D+2        0.00000   0.00000   0.00000   0.00000  -0.00000
 125       51D-2       -0.06476   0.00000   0.00000   0.00000   0.00000
 126       52D 0        0.00000  -0.31959   0.00000   0.00000   0.05787
 127       52D+1        0.00000   0.00000  -0.31903   0.00000   0.00000
 128       52D-1        0.00000   0.00000   0.00000  -0.31903   0.00000
 129       52D+2        0.00000   0.00000   0.00000   0.00000  -0.00000
 130       52D-2       -0.31809   0.00000   0.00000   0.00000   0.00000
 131       53D 0        0.00000   0.00495   0.00000   0.00000   0.00877
 132       53D+1        0.00000   0.00000   0.00371   0.00000   0.00000
 133       53D-1        0.00000   0.00000   0.00000   0.00371   0.00000
 134       53D+2        0.00000  -0.00000   0.00000   0.00000  -0.00000
 135       53D-2        0.00337   0.00000   0.00000   0.00000   0.00000
 136       54F 0        0.00000   0.00010   0.00000   0.00000  -0.00019
 137       54F+1        0.00000   0.00000   0.00015   0.00000   0.00000
 138       54F-1        0.00000   0.00000   0.00000   0.00015   0.00000
 139       54F+2        0.00000  -0.00000   0.00000   0.00000  -0.00000
 140       54F-2        0.00012   0.00000   0.00000   0.00000   0.00000
 141       54F+3        0.00000   0.00000   0.00000   0.00000   0.00000
 142       54F-3        0.00000   0.00000   0.00000  -0.00000   0.00000
 143       55F 0        0.00000   0.00030   0.00000   0.00000  -0.00022
 144       55F+1        0.00000   0.00000   0.00026   0.00000   0.00000
 145       55F-1        0.00000   0.00000   0.00000   0.00026   0.00000
 146       55F+2        0.00000  -0.00000   0.00000   0.00000   0.00000
 147       55F-2        0.00024   0.00000   0.00000   0.00000   0.00000
 148       55F+3        0.00000   0.00000   0.00000   0.00000   0.00000
 149       55F-3        0.00000   0.00000   0.00000   0.00000   0.00000
 150       56F 0        0.00000   0.00025   0.00000   0.00000  -0.00194
 151       56F+1        0.00000   0.00000   0.00092   0.00000   0.00000
 152       56F-1        0.00000   0.00000   0.00000   0.00092   0.00000
 153       56F+2        0.00000  -0.00000   0.00000   0.00000  -0.00000
 154       56F-2        0.00060   0.00000   0.00000   0.00000   0.00000
 155       56F+3        0.00000   0.00000   0.00000   0.00000   0.00000
 156       56F-3        0.00000   0.00000   0.00000  -0.00000   0.00000
 157       57F 0        0.00000  -0.00057   0.00000   0.00000  -0.00392
 158       57F+1        0.00000   0.00000  -0.00011   0.00000   0.00000
 159       57F-1        0.00000   0.00000   0.00000  -0.00011   0.00000
 160       57F+2        0.00000  -0.00000   0.00000   0.00000   0.00000
 161       57F-2        0.00072   0.00000   0.00000   0.00000   0.00000
 162       57F+3        0.00000   0.00000   0.00000   0.00000   0.00000
 163       57F-3        0.00000   0.00000   0.00000  -0.00000   0.00000
 164       58G 0        0.00000  -0.00009   0.00000   0.00000   0.00009
 165       58G+1        0.00000   0.00000  -0.00010   0.00000   0.00000
 166       58G-1        0.00000   0.00000   0.00000  -0.00010   0.00000
 167       58G+2        0.00000   0.00000   0.00000   0.00000   0.00000
 168       58G-2       -0.00009   0.00000   0.00000   0.00000   0.00000
 169       58G+3        0.00000   0.00000   0.00000   0.00000   0.00000
 170       58G-3        0.00000   0.00000   0.00000   0.00000   0.00000
 171       58G+4        0.00000  -0.00000   0.00000   0.00000  -0.00000
 172       58G-4       -0.00000   0.00000   0.00000   0.00000   0.00000
 173       59G 0        0.00000  -0.00005   0.00000   0.00000  -0.00024
 174       59G+1        0.00000   0.00000   0.00003   0.00000   0.00000
 175       59G-1        0.00000   0.00000   0.00000   0.00003   0.00000
 176       59G+2        0.00000  -0.00000   0.00000   0.00000  -0.00000
 177       59G-2        0.00007   0.00000   0.00000   0.00000   0.00000
 178       59G+3        0.00000   0.00000  -0.00000   0.00000   0.00000
 179       59G-3        0.00000   0.00000   0.00000  -0.00000   0.00000
 180       59G+4        0.00000  -0.00000   0.00000   0.00000   0.00000
 181       59G-4       -0.00000   0.00000   0.00000   0.00000   0.00000
 182       60G 0        0.00000  -0.00033   0.00000   0.00000   0.00091
 183       60G+1        0.00000   0.00000  -0.00055   0.00000   0.00000
 184       60G-1        0.00000   0.00000   0.00000  -0.00055   0.00000
 185       60G+2        0.00000   0.00000   0.00000   0.00000   0.00000
 186       60G-2       -0.00051   0.00000   0.00000   0.00000   0.00000
 187       60G+3        0.00000   0.00000   0.00000   0.00000   0.00000
 188       60G-3        0.00000   0.00000   0.00000   0.00000   0.00000
 189       60G+4        0.00000  -0.00000   0.00000   0.00000  -0.00000
 190       60G-4       -0.00000   0.00000   0.00000   0.00000   0.00000
 191 2   H  1S          0.00000   0.00086   0.00000   0.00000   0.00316
 192        2S          0.00000   0.00906   0.00000   0.00000   0.03417
 193        3S          0.00000   0.03558   0.00000   0.00000   0.13156
 194        4S          0.00000   0.06147   0.00000   0.00000   0.31605
 195        5S          0.00000   0.03396   0.00000   0.00000   0.24694
 196        6S          0.00000   0.00669   0.00000   0.00000   0.01923
 197        7PX         0.00000   0.00000  -0.00233   0.00000   0.00000
 198        7PY         0.00000   0.00000   0.00000  -0.00233   0.00000
 199        7PZ         0.00000   0.00468   0.00000   0.00000   0.00526
 200        8PX         0.00000   0.00000  -0.00199   0.00000   0.00000
 201        8PY         0.00000   0.00000   0.00000  -0.00199   0.00000
 202        8PZ         0.00000   0.01209   0.00000   0.00000   0.02735
 203        9PX         0.00000   0.00000  -0.00217   0.00000   0.00000
 204        9PY         0.00000   0.00000   0.00000  -0.00217   0.00000
 205        9PZ         0.00000   0.00514   0.00000   0.00000   0.01340
 206       10D 0        0.00000   0.00152   0.00000   0.00000   0.00228
 207       10D+1        0.00000   0.00000  -0.00131   0.00000   0.00000
 208       10D-1        0.00000   0.00000   0.00000  -0.00131   0.00000
 209       10D+2        0.00000  -0.00000   0.00000   0.00000   0.00000
 210       10D-2        0.00033   0.00000   0.00000   0.00000   0.00000
 211       11D 0        0.00000   0.00404   0.00000   0.00000   0.00172
 212       11D+1        0.00000   0.00000   0.00058   0.00000   0.00000
 213       11D-1        0.00000   0.00000   0.00000   0.00058   0.00000
 214       11D+2        0.00000   0.00000   0.00000   0.00000  -0.00000
 215       11D-2       -0.00064   0.00000   0.00000   0.00000   0.00000
                          11        12        13        14        15
                           O         V         V         V         V
     Eigenvalues --    -0.27716   0.02090   0.02090   0.02845   0.03967
   1 1   Zn 1S          0.00000   0.00000   0.00000   0.00000   0.00000
   2        2S         -0.00000   0.00000   0.00000  -0.00000  -0.00000
   3        3S          0.00000   0.00000   0.00000   0.00000   0.00000
   4        4S         -0.00000   0.00000   0.00000  -0.00000  -0.00000
   5        5S          0.00000   0.00000   0.00000   0.00000   0.00000
   6        6S         -0.00000   0.00000   0.00000  -0.00000  -0.00000
   7        7S          0.00000   0.00000   0.00000   0.00001   0.00001
   8        8S         -0.00001   0.00000   0.00000  -0.00002  -0.00003
   9        9S          0.00002   0.00000   0.00000   0.00006   0.00008
  10       10S         -0.00007   0.00000   0.00000  -0.00017  -0.00023
  11       11S          0.00016   0.00000   0.00000   0.00046   0.00060
  12       12S         -0.00014   0.00000   0.00000  -0.00148  -0.00188
  13       13S         -0.00932   0.00000   0.00000   0.00730   0.00822
  14       14S          0.08214   0.00000   0.00000  -0.04953  -0.05387
  15       15S         -0.00714   0.00000   0.00000  -0.08333  -0.10622
  16       16S         -0.19422   0.00000   0.00000   0.35898   0.43827
  17       17S         -0.15577   0.00000   0.00000   0.11304   0.13046
  18       18S          0.22780   0.00000   0.00000  -0.21939  -0.25295
  19       19S          0.56537   0.00000   0.00000   0.83448   0.80424
  20       20S          0.22663   0.00000   0.00000  -0.80982  -1.58992
  21       21S         -0.03656   0.00000   0.00000   0.07886   0.09568
  22       22S          0.05062   0.00000   0.00000  -0.34044  -0.43197
  23       23S          0.00895   0.00000   0.00000   3.35987  -0.16383
  24       24PX         0.00000   0.00000   0.00000   0.00000   0.00000
  25       24PY         0.00000   0.00000   0.00000   0.00000   0.00000
  26       24PZ        -0.00000   0.00000   0.00000  -0.00000   0.00000
  27       25PX         0.00000  -0.00000   0.00000   0.00000   0.00000
  28       25PY         0.00000   0.00000  -0.00000   0.00000   0.00000
  29       25PZ         0.00000   0.00000   0.00000   0.00000  -0.00000
  30       26PX         0.00000   0.00000   0.00000   0.00000   0.00000
  31       26PY         0.00000   0.00000   0.00000   0.00000   0.00000
  32       26PZ        -0.00000   0.00000   0.00000  -0.00000   0.00000
  33       27PX         0.00000  -0.00001   0.00000   0.00000   0.00000
  34       27PY         0.00000   0.00000  -0.00001   0.00000   0.00000
  35       27PZ         0.00000   0.00000   0.00000   0.00000  -0.00000
  36       28PX         0.00000   0.00003   0.00000   0.00000   0.00000
  37       28PY         0.00000   0.00000   0.00003   0.00000   0.00000
  38       28PZ        -0.00000   0.00000   0.00000  -0.00001   0.00001
  39       29PX         0.00000  -0.00009   0.00000   0.00000   0.00000
  40       29PY         0.00000   0.00000  -0.00009   0.00000   0.00000
  41       29PZ         0.00001   0.00000   0.00000   0.00003  -0.00003
  42       30PX         0.00000   0.00031   0.00000   0.00000   0.00000
  43       30PY         0.00000   0.00000   0.00031   0.00000   0.00000
  44       30PZ        -0.00002   0.00000   0.00000  -0.00011   0.00011
  45       31PX         0.00000  -0.00116   0.00000   0.00000   0.00000
  46       31PY         0.00000   0.00000  -0.00116   0.00000   0.00000
  47       31PZ        -0.00013   0.00000   0.00000   0.00040  -0.00034
  48       32PX         0.00000   0.00680   0.00000   0.00000   0.00000
  49       32PY         0.00000   0.00000   0.00680   0.00000   0.00000
  50       32PZ         0.00269   0.00000   0.00000  -0.00207   0.00141
  51       33PX         0.00000   0.02665   0.00000   0.00000   0.00000
  52       33PY         0.00000   0.00000   0.02665   0.00000   0.00000
  53       33PZ        -0.04407   0.00000   0.00000  -0.01576   0.02163
  54       34PX         0.00000  -0.04437   0.00000   0.00000   0.00000
  55       34PY         0.00000   0.00000  -0.04437   0.00000   0.00000
  56       34PZ        -0.03507   0.00000   0.00000   0.01130  -0.00368
  57       35PX         0.00000  -0.18291   0.00000   0.00000   0.00000
  58       35PY         0.00000   0.00000  -0.18291   0.00000   0.00000
  59       35PZ         0.00467   0.00000   0.00000   0.06971  -0.05546
  60       36PX         0.00000   0.00913   0.00000   0.00000   0.00000
  61       36PY         0.00000   0.00000   0.00913   0.00000   0.00000
  62       36PZ        -0.05256   0.00000   0.00000  -0.01150   0.01613
  63       37PX         0.00000  -0.00050   0.00000   0.00000   0.00000
  64       37PY         0.00000   0.00000  -0.00050   0.00000   0.00000
  65       37PZ         0.09081   0.00000   0.00000   0.01404  -0.02065
  66       38PX         0.00000   0.19898   0.00000   0.00000   0.00000
  67       38PY         0.00000   0.00000   0.19898   0.00000   0.00000
  68       38PZ         0.29363   0.00000   0.00000  -0.19018  -0.11948
  69       39PX         0.00000  -0.04296   0.00000   0.00000   0.00000
  70       39PY         0.00000   0.00000  -0.04296   0.00000   0.00000
  71       39PZ         0.19015   0.00000   0.00000  -0.31767  -0.44288
  72       40PX         0.00000  -0.02690   0.00000   0.00000   0.00000
  73       40PY         0.00000   0.00000  -0.02690   0.00000   0.00000
  74       40PZ         0.03057   0.00000   0.00000   0.01396  -0.01775
  75       41PX         0.00000   0.15546   0.00000   0.00000   0.00000
  76       41PY         0.00000   0.00000   0.15546   0.00000   0.00000
  77       41PZ        -0.07255   0.00000   0.00000  -0.06884   0.06740
  78       42PX         0.00000   0.95631   0.00000   0.00000   0.00000
  79       42PY         0.00000   0.00000   0.95631   0.00000   0.00000
  80       42PZ         0.00043   0.00000   0.00000  -1.00332   1.75441
  81       43D 0        0.00001   0.00000   0.00000   0.00000  -0.00000
  82       43D+1        0.00000   0.00000   0.00000   0.00000   0.00000
  83       43D-1        0.00000   0.00000   0.00000   0.00000   0.00000
  84       43D+2       -0.00000   0.00000   0.00000   0.00000   0.00000
  85       43D-2        0.00000   0.00000   0.00000   0.00000   0.00000
  86       44D 0       -0.00009   0.00000   0.00000  -0.00001   0.00004
  87       44D+1        0.00000  -0.00001   0.00000   0.00000   0.00000
  88       44D-1        0.00000   0.00000  -0.00001   0.00000   0.00000
  89       44D+2        0.00000   0.00000   0.00000  -0.00000  -0.00000
  90       44D-2        0.00000   0.00000   0.00000   0.00000   0.00000
  91       45D 0        0.00199   0.00000   0.00000   0.00027  -0.00067
  92       45D+1        0.00000   0.00003   0.00000   0.00000   0.00000
  93       45D-1        0.00000   0.00000   0.00003   0.00000   0.00000
  94       45D+2       -0.00000   0.00000   0.00000   0.00000   0.00000
  95       45D-2        0.00000   0.00000   0.00000   0.00000   0.00000
  96       46D 0        0.02247   0.00000   0.00000   0.00426  -0.00331
  97       46D+1        0.00000  -0.00141   0.00000   0.00000   0.00000
  98       46D-1        0.00000   0.00000  -0.00141   0.00000   0.00000
  99       46D+2        0.00000   0.00000   0.00000   0.00000   0.00000
 100       46D-2        0.00000   0.00000   0.00000   0.00000   0.00000
 101       47D 0        0.05392   0.00000   0.00000   0.02245   0.03591
 102       47D+1        0.00000  -0.02102   0.00000   0.00000   0.00000
 103       47D-1        0.00000   0.00000  -0.02102   0.00000   0.00000
 104       47D+2        0.00000   0.00000   0.00000   0.00000   0.00000
 105       47D-2        0.00000   0.00000   0.00000   0.00000   0.00000
 106       48D 0        0.02884   0.00000   0.00000   0.00545  -0.00433
 107       48D+1        0.00000  -0.00176   0.00000   0.00000   0.00000
 108       48D-1        0.00000   0.00000  -0.00176   0.00000   0.00000
 109       48D+2        0.00000   0.00000   0.00000   0.00000   0.00000
 110       48D-2        0.00000   0.00000   0.00000   0.00000   0.00000
 111       49D 0        0.01995   0.00000   0.00000   0.00139  -0.00928
 112       49D+1        0.00000   0.00163   0.00000   0.00000   0.00000
 113       49D-1        0.00000   0.00000   0.00163   0.00000   0.00000
 114       49D+2       -0.00000   0.00000   0.00000   0.00000   0.00000
 115       49D-2        0.00000   0.00000   0.00000   0.00000   0.00000
 116       50D 0        0.02195   0.00000   0.00000   0.01084   0.01102
 117       50D+1        0.00000  -0.00509   0.00000   0.00000   0.00000
 118       50D-1        0.00000   0.00000  -0.00509   0.00000   0.00000
 119       50D+2        0.00000   0.00000   0.00000   0.00000   0.00000
 120       50D-2        0.00000   0.00000   0.00000   0.00000   0.00000
 121       51D 0       -0.00528   0.00000   0.00000  -0.00227  -0.00363
 122       51D+1        0.00000   0.00213   0.00000   0.00000   0.00000
 123       51D-1        0.00000   0.00000   0.00213   0.00000   0.00000
 124       51D+2       -0.00000   0.00000   0.00000  -0.00000  -0.00000
 125       51D-2        0.00000   0.00000   0.00000   0.00000   0.00000
 126       52D 0       -0.02615   0.00000   0.00000  -0.01804  -0.04298
 127       52D+1        0.00000   0.02048   0.00000   0.00000   0.00000
 128       52D-1        0.00000   0.00000   0.02048   0.00000   0.00000
 129       52D+2       -0.00000   0.00000   0.00000  -0.00000  -0.00000
 130       52D-2        0.00000   0.00000   0.00000   0.00000   0.00000
 131       53D 0        0.03292   0.00000   0.00000   0.06804   0.06550
 132       53D+1        0.00000   0.01748   0.00000   0.00000   0.00000
 133       53D-1        0.00000   0.00000   0.01748   0.00000   0.00000
 134       53D+2        0.00000   0.00000   0.00000  -0.00000  -0.00000
 135       53D-2        0.00000   0.00000   0.00000   0.00000   0.00000
 136       54F 0        0.00012   0.00000   0.00000   0.00005  -0.00001
 137       54F+1        0.00000  -0.00002   0.00000   0.00000   0.00000
 138       54F-1        0.00000   0.00000  -0.00002   0.00000   0.00000
 139       54F+2       -0.00000   0.00000   0.00000   0.00000   0.00000
 140       54F-2        0.00000   0.00000   0.00000   0.00000   0.00000
 141       54F+3        0.00000   0.00000   0.00000   0.00000   0.00000
 142       54F-3        0.00000   0.00000   0.00000   0.00000   0.00000
 143       55F 0        0.00016   0.00000   0.00000  -0.00012  -0.00007
 144       55F+1        0.00000   0.00004   0.00000   0.00000   0.00000
 145       55F-1        0.00000   0.00000   0.00004   0.00000   0.00000
 146       55F+2        0.00000   0.00000   0.00000  -0.00000  -0.00000
 147       55F-2        0.00000   0.00000   0.00000   0.00000   0.00000
 148       55F+3        0.00000  -0.00000   0.00000   0.00000   0.00000
 149       55F-3        0.00000   0.00000  -0.00000   0.00000   0.00000
 150       56F 0        0.00111   0.00000   0.00000   0.00068  -0.00014
 151       56F+1        0.00000  -0.00026   0.00000   0.00000   0.00000
 152       56F-1        0.00000   0.00000  -0.00026   0.00000   0.00000
 153       56F+2       -0.00000   0.00000   0.00000   0.00000   0.00000
 154       56F-2        0.00000   0.00000   0.00000   0.00000   0.00000
 155       56F+3        0.00000   0.00000   0.00000   0.00000   0.00000
 156       56F-3        0.00000   0.00000   0.00000   0.00000   0.00000
 157       57F 0        0.00206   0.00000   0.00000  -0.00163  -0.00053
 158       57F+1        0.00000   0.00099   0.00000   0.00000   0.00000
 159       57F-1        0.00000   0.00000   0.00099   0.00000   0.00000
 160       57F+2        0.00000   0.00000   0.00000  -0.00000  -0.00000
 161       57F-2        0.00000   0.00000   0.00000   0.00000   0.00000
 162       57F+3        0.00000  -0.00000   0.00000   0.00000   0.00000
 163       57F-3        0.00000   0.00000  -0.00000   0.00000   0.00000
 164       58G 0       -0.00003   0.00000   0.00000  -0.00001  -0.00000
 165       58G+1        0.00000  -0.00001   0.00000   0.00000   0.00000
 166       58G-1        0.00000   0.00000  -0.00001   0.00000   0.00000
 167       58G+2       -0.00000   0.00000   0.00000   0.00000   0.00000
 168       58G-2        0.00000   0.00000   0.00000   0.00000   0.00000
 169       58G+3        0.00000   0.00000   0.00000   0.00000   0.00000
 170       58G-3        0.00000   0.00000   0.00000   0.00000   0.00000
 171       58G+4       -0.00000   0.00000   0.00000   0.00000   0.00000
 172       58G-4        0.00000   0.00000   0.00000   0.00000   0.00000
 173       59G 0        0.00006   0.00000   0.00000   0.00001   0.00002
 174       59G+1        0.00000   0.00003   0.00000   0.00000   0.00000
 175       59G-1        0.00000   0.00000   0.00003   0.00000   0.00000
 176       59G+2       -0.00000   0.00000   0.00000   0.00000   0.00000
 177       59G-2        0.00000   0.00000   0.00000   0.00000   0.00000
 178       59G+3        0.00000  -0.00000   0.00000   0.00000   0.00000
 179       59G-3        0.00000   0.00000  -0.00000   0.00000   0.00000
 180       59G+4        0.00000   0.00000   0.00000  -0.00000  -0.00000
 181       59G-4        0.00000   0.00000   0.00000   0.00000   0.00000
 182       60G 0       -0.00027   0.00000   0.00000  -0.00005   0.00000
 183       60G+1        0.00000  -0.00007   0.00000   0.00000   0.00000
 184       60G-1        0.00000   0.00000  -0.00007   0.00000   0.00000
 185       60G+2        0.00000   0.00000   0.00000  -0.00000  -0.00000
 186       60G-2        0.00000   0.00000   0.00000   0.00000   0.00000
 187       60G+3        0.00000   0.00000   0.00000   0.00000   0.00000
 188       60G-3        0.00000   0.00000   0.00000   0.00000   0.00000
 189       60G+4       -0.00000   0.00000   0.00000   0.00000   0.00000
 190       60G-4        0.00000   0.00000   0.00000   0.00000   0.00000
 191 2   H  1S         -0.00136   0.00000   0.00000  -0.00016   0.00026
 192        2S         -0.01481   0.00000   0.00000  -0.00279   0.00448
 193        3S         -0.05854   0.00000   0.00000  -0.00484   0.00749
 194        4S         -0.14925   0.00000   0.00000  -0.04142   0.07206
 195        5S         -0.25537   0.00000   0.00000  -0.42093  -0.40949
 196        6S         -0.02401   0.00000   0.00000  -2.43972   1.76258
 197        7PX         0.00000   0.00208   0.00000   0.00000   0.00000
 198        7PY         0.00000   0.00000   0.00208   0.00000   0.00000
 199        7PZ         0.00044   0.00000   0.00000  -0.00054   0.00125
 200        8PX         0.00000   0.00356   0.00000   0.00000   0.00000
 201        8PY         0.00000   0.00000   0.00356   0.00000   0.00000
 202        8PZ        -0.01022   0.00000   0.00000  -0.00830  -0.00636
 203        9PX         0.00000   0.00229   0.00000   0.00000   0.00000
 204        9PY         0.00000   0.00000   0.00229   0.00000   0.00000
 205        9PZ        -0.02937   0.00000   0.00000  -0.24729  -0.11175
 206       10D 0       -0.00044   0.00000   0.00000   0.00091   0.00083
 207       10D+1        0.00000   0.00066   0.00000   0.00000   0.00000
 208       10D-1        0.00000   0.00000   0.00066   0.00000   0.00000
 209       10D+2        0.00000   0.00000   0.00000  -0.00000  -0.00000
 210       10D-2        0.00000   0.00000   0.00000   0.00000   0.00000
 211       11D 0       -0.00401   0.00000   0.00000  -0.01236  -0.00206
 212       11D+1        0.00000  -0.00519   0.00000   0.00000   0.00000
 213       11D-1        0.00000   0.00000  -0.00519   0.00000   0.00000
 214       11D+2       -0.00000   0.00000   0.00000   0.00000   0.00000
 215       11D-2        0.00000   0.00000   0.00000   0.00000   0.00000
                          16
                           V
     Eigenvalues --     0.07652
   1 1   Zn 1S          0.00000
   2        2S          0.00000
   3        3S          0.00000
   4        4S          0.00000
   5        5S          0.00000
   6        6S          0.00000
   7        7S          0.00000
   8        8S          0.00000
   9        9S          0.00000
  10       10S          0.00000
  11       11S          0.00000
  12       12S          0.00000
  13       13S          0.00000
  14       14S          0.00000
  15       15S          0.00000
  16       16S          0.00000
  17       17S          0.00000
  18       18S          0.00000
  19       19S          0.00000
  20       20S          0.00000
  21       21S          0.00000
  22       22S          0.00000
[...]
 211       11D 0        0.00005
 212       11D+1        0.00000   0.00000
 213       11D-1        0.00000   0.00000   0.00000
 214       11D+2       -0.00000   0.00000   0.00000   0.00000
 215       11D-2        0.00000   0.00000   0.00000   0.00000   0.00000
     Gross orbital populations:
                         Total     Alpha     Beta      Spin
   1 1   Zn 1S         -0.00000  -0.00000  -0.00000  -0.00000
   2        2S          0.00000   0.00000   0.00000   0.00000
   3        3S         -0.00000  -0.00000  -0.00000  -0.00000
   4        4S          0.00000   0.00000   0.00000   0.00000
   5        5S         -0.00000  -0.00000  -0.00000  -0.00000
   6        6S          0.00000   0.00000   0.00000   0.00000
   7        7S         -0.00000  -0.00000  -0.00000  -0.00000
   8        8S          0.00000   0.00000   0.00000   0.00000
   9        9S         -0.00000  -0.00000  -0.00000  -0.00000
  10       10S          0.00001   0.00001   0.00000   0.00000
  11       11S         -0.00004  -0.00002  -0.00002  -0.00000
  12       12S         -0.00035  -0.00017  -0.00017   0.00000
  13       13S          0.02950   0.01490   0.01460   0.00030
  14       14S         -0.40443  -0.20463  -0.19980  -0.00484
  15       15S          0.23694   0.11877   0.11817   0.00059
  16       16S          1.29423   0.65255   0.64168   0.01087
  17       17S          0.67267   0.33038   0.34229  -0.01192
  18       18S          0.41354   0.26234   0.15120   0.11113
  19       19S          0.60471   0.46943   0.13528   0.33415
  20       20S          0.17238   0.14908   0.02330   0.12578
  21       21S          0.10133   0.05201   0.04932   0.00268
  22       22S          0.05107   0.02455   0.02652  -0.00198
  23       23S         -0.00533  -0.00079  -0.00454   0.00375
  24       24PX        -0.00000  -0.00000  -0.00000  -0.00000
  25       24PY        -0.00000  -0.00000  -0.00000  -0.00000
  26       24PZ        -0.00000  -0.00000  -0.00000   0.00000
  27       25PX         0.00000   0.00000   0.00000   0.00000
  28       25PY         0.00000   0.00000   0.00000   0.00000
  29       25PZ         0.00000   0.00000   0.00000  -0.00000
  30       26PX        -0.00000  -0.00000  -0.00000   0.00000
  31       26PY        -0.00000  -0.00000  -0.00000   0.00000
  32       26PZ        -0.00000  -0.00000  -0.00000   0.00000
  33       27PX         0.00000   0.00000   0.00000   0.00000
  34       27PY         0.00000   0.00000   0.00000  -0.00000
  35       27PZ         0.00000   0.00000   0.00000  -0.00000
  36       28PX        -0.00000  -0.00000  -0.00000   0.00000
  37       28PY        -0.00000  -0.00000  -0.00000  -0.00000
  38       28PZ        -0.00000  -0.00000  -0.00000   0.00000
  39       29PX         0.00001   0.00000   0.00000  -0.00000
  40       29PY         0.00001   0.00000   0.00000  -0.00000
  41       29PZ         0.00001   0.00000   0.00001  -0.00000
  42       30PX        -0.00009  -0.00004  -0.00004  -0.00000
  43       30PY        -0.00009  -0.00004  -0.00004   0.00000
  44       30PZ        -0.00009  -0.00005  -0.00005   0.00000
  45       31PX         0.00123   0.00062   0.00062  -0.00000
  46       31PY         0.00123   0.00062   0.00062   0.00000
  47       31PZ         0.00128   0.00064   0.00064   0.00000
  48       32PX        -0.02139  -0.01070  -0.01070   0.00000
  49       32PY        -0.02139  -0.01070  -0.01070   0.00000
  50       32PZ        -0.02215  -0.01114  -0.01101  -0.00013
  51       33PX         0.30566   0.15283   0.15283   0.00000
  52       33PY         0.30566   0.15283   0.15283  -0.00000
  53       33PZ         0.30855   0.15591   0.15264   0.00327
  54       34PX         0.55362   0.27681   0.27681   0.00000
  55       34PY         0.55362   0.27681   0.27681  -0.00000
  56       34PZ         0.56587   0.28437   0.28150   0.00288
  57       35PX         0.67916   0.33958   0.33958   0.00000
  58       35PY         0.67916   0.33958   0.33958  -0.00000
  59       35PZ         0.70763   0.35374   0.35389  -0.00015
  60       36PX         0.44823   0.22412   0.22412  -0.00000
  61       36PY         0.44823   0.22412   0.22412  -0.00000
  62       36PZ         0.42957   0.21168   0.21789  -0.00621
  63       37PX         0.03570   0.01785   0.01785  -0.00000
  64       37PY         0.03570   0.01785   0.01785  -0.00000
  65       37PZ         0.11383   0.07698   0.03685   0.04013
  66       38PX        -0.00087  -0.00044  -0.00044   0.00000
  67       38PY        -0.00087  -0.00044  -0.00044   0.00000
  68       38PZ         0.31507   0.26348   0.05159   0.21190
  69       39PX         0.00012   0.00006   0.00006   0.00000
  70       39PY         0.00012   0.00006   0.00006   0.00000
  71       39PZ         0.13843   0.12990   0.00853   0.12137
  72       40PX        -0.19330  -0.09665  -0.09665   0.00000
  73       40PY        -0.19330  -0.09665  -0.09665   0.00000
  74       40PZ        -0.19422  -0.09816  -0.09606  -0.00210
  75       41PX         0.19192   0.09596   0.09596   0.00000
  76       41PY         0.19192   0.09596   0.09596   0.00000
  77       41PZ         0.17200   0.08760   0.08440   0.00320
  78       42PX        -0.00001  -0.00001  -0.00001   0.00000
  79       42PY        -0.00001  -0.00001  -0.00001   0.00000
  80       42PZ        -0.00054  -0.00020  -0.00034   0.00014
  81       43D 0        0.00000   0.00000   0.00000   0.00000
  82       43D+1        0.00001   0.00000   0.00000   0.00000
  83       43D-1        0.00001   0.00000   0.00000  -0.00000
  84       43D+2        0.00001   0.00000   0.00000  -0.00000
  85       43D-2        0.00001   0.00000   0.00000  -0.00000
  86       44D 0       -0.00025  -0.00013  -0.00013  -0.00000
  87       44D+1       -0.00026  -0.00013  -0.00013   0.00000
  88       44D-1       -0.00026  -0.00013  -0.00013   0.00000
  89       44D+2       -0.00026  -0.00013  -0.00013   0.00000
  90       44D-2       -0.00026  -0.00013  -0.00013   0.00000
  91       45D 0        0.01693   0.00849   0.00844   0.00005
  92       45D+1        0.01717   0.00858   0.00858   0.00000
  93       45D-1        0.01717   0.00858   0.00858   0.00000
  94       45D+2        0.01719   0.00859   0.00859   0.00000
  95       45D-2        0.01719   0.00859   0.00859   0.00000
  96       46D 0        0.35865   0.17989   0.17876   0.00114
  97       46D+1        0.36253   0.18126   0.18126  -0.00000
  98       46D-1        0.36253   0.18126   0.18126  -0.00000
  99       46D+2        0.36278   0.18139   0.18139   0.00000
 100       46D-2        0.36278   0.18139   0.18139  -0.00000
 101       47D 0        1.15332   0.57844   0.57488   0.00356
 102       47D+1        1.15279   0.57639   0.57639  -0.00000
 103       47D-1        1.15279   0.57639   0.57639  -0.00000
 104       47D+2        1.15217   0.57608   0.57608   0.00000
 105       47D-2        1.15217   0.57608   0.57608   0.00000
 106       48D 0        0.64130   0.32153   0.31977   0.00176
 107       48D+1        0.64758   0.32379   0.32379   0.00000
 108       48D-1        0.64758   0.32379   0.32379  -0.00000
 109       48D+2        0.64834   0.32417   0.32417  -0.00000
 110       48D-2        0.64834   0.32417   0.32417   0.00000
 111       49D 0        0.38051   0.19041   0.19010   0.00032
 112       49D+1        0.38108   0.19054   0.19054  -0.00000
 113       49D-1        0.38108   0.19054   0.19054  -0.00000
 114       49D+2        0.38277   0.19138   0.19138  -0.00000
 115       49D-2        0.38277   0.19138   0.19138  -0.00000
 116       50D 0        0.08626   0.04230   0.04395  -0.00165
 117       50D+1        0.08350   0.04175   0.04175   0.00000
 118       50D-1        0.08350   0.04175   0.04175   0.00000
 119       50D+2        0.08137   0.04069   0.04069   0.00000
 120       50D-2        0.08137   0.04069   0.04069  -0.00000
 121       51D 0       -0.09264  -0.04647  -0.04617  -0.00029
 122       51D+1       -0.09246  -0.04623  -0.04623  -0.00000
 123       51D-1       -0.09246  -0.04623  -0.04623   0.00000
 124       51D+2       -0.09229  -0.04614  -0.04614  -0.00000
 125       51D-2       -0.09229  -0.04614  -0.04614   0.00000
 126       52D 0       -0.56183  -0.28179  -0.28005  -0.00174
 127       52D+1       -0.55423  -0.27711  -0.27711   0.00000
 128       52D-1       -0.55423  -0.27711  -0.27711   0.00000
 129       52D+2       -0.55298  -0.27649  -0.27649   0.00000
 130       52D-2       -0.55298  -0.27649  -0.27649   0.00000
 131       53D 0        0.00286  -0.00019   0.00304  -0.00323
 132       53D+1        0.00114   0.00057   0.00057   0.00000
 133       53D-1        0.00114   0.00057   0.00057  -0.00000
 134       53D+2        0.00101   0.00051   0.00051   0.00000
 135       53D-2        0.00101   0.00051   0.00051   0.00000
 136       54F 0        0.00000   0.00000   0.00000   0.00000
 137       54F+1        0.00000   0.00000   0.00000   0.00000
 138       54F-1        0.00000   0.00000   0.00000  -0.00000
 139       54F+2        0.00000   0.00000   0.00000   0.00000
 140       54F-2        0.00000   0.00000   0.00000   0.00000
 141       54F+3        0.00000   0.00000   0.00000  -0.00000
 142       54F-3       -0.00000  -0.00000  -0.00000   0.00000
 143       55F 0        0.00000   0.00000   0.00000   0.00000
 144       55F+1        0.00000   0.00000   0.00000   0.00000
 145       55F-1        0.00000   0.00000   0.00000   0.00000
 146       55F+2        0.00000   0.00000   0.00000   0.00000
 147       55F-2        0.00000   0.00000   0.00000   0.00000
 148       55F+3       -0.00000  -0.00000  -0.00000  -0.00000
 149       55F-3       -0.00000  -0.00000  -0.00000  -0.00000
 150       56F 0        0.00011   0.00006   0.00005   0.00001
 151       56F+1        0.00000   0.00000   0.00000   0.00000
 152       56F-1        0.00000   0.00000   0.00000   0.00000
 153       56F+2        0.00000   0.00000   0.00000  -0.00000
 154       56F-2        0.00000   0.00000   0.00000   0.00000
 155       56F+3        0.00000   0.00000   0.00000  -0.00000
 156       56F-3        0.00000   0.00000   0.00000   0.00000
 157       57F 0        0.00101   0.00056   0.00045   0.00011
 158       57F+1        0.00000   0.00000   0.00000  -0.00000
 159       57F-1        0.00000   0.00000   0.00000   0.00000
 160       57F+2        0.00000   0.00000   0.00000   0.00000
 161       57F-2        0.00000   0.00000   0.00000   0.00000
 162       57F+3        0.00000   0.00000   0.00000   0.00000
 163       57F-3        0.00000   0.00000   0.00000   0.00000
 164       58G 0        0.00000   0.00000   0.00000   0.00000
 165       58G+1        0.00000   0.00000   0.00000  -0.00000
 166       58G-1        0.00000   0.00000   0.00000   0.00000
 167       58G+2        0.00000   0.00000   0.00000  -0.00000
 168       58G-2        0.00000   0.00000   0.00000   0.00000
 169       58G+3        0.00000   0.00000   0.00000   0.00000
 170       58G-3       -0.00000  -0.00000  -0.00000   0.00000
 171       58G+4        0.00000   0.00000   0.00000   0.00000
 172       58G-4       -0.00000  -0.00000  -0.00000   0.00000
 173       59G 0       -0.00000  -0.00000  -0.00000  -0.00000
 174       59G+1       -0.00000  -0.00000  -0.00000   0.00000
 175       59G-1       -0.00000  -0.00000  -0.00000   0.00000
 176       59G+2       -0.00000  -0.00000  -0.00000   0.00000
 177       59G-2       -0.00000  -0.00000  -0.00000   0.00000
 178       59G+3       -0.00000  -0.00000  -0.00000   0.00000
 179       59G-3       -0.00000  -0.00000  -0.00000   0.00000
 180       59G+4       -0.00000  -0.00000  -0.00000  -0.00000
 181       59G-4       -0.00000  -0.00000  -0.00000   0.00000
 182       60G 0        0.00002   0.00001   0.00001   0.00000
 183       60G+1        0.00000   0.00000   0.00000  -0.00000
 184       60G-1        0.00000   0.00000   0.00000  -0.00000
 185       60G+2        0.00000   0.00000   0.00000   0.00000
 186       60G-2        0.00000   0.00000   0.00000   0.00000
 187       60G+3       -0.00000  -0.00000  -0.00000   0.00000
 188       60G-3       -0.00000  -0.00000  -0.00000   0.00000
 189       60G+4        0.00000   0.00000   0.00000   0.00000
 190       60G-4       -0.00000  -0.00000  -0.00000   0.00000
 191 2   H  1S          0.00072   0.00039   0.00033   0.00006
 192        2S          0.02471   0.01333   0.01139   0.00194
 193        3S          0.18985   0.10209   0.08776   0.01433
 194        4S          0.61186   0.32639   0.28548   0.04091
 195        5S          0.46485   0.24213   0.22273   0.01940
 196        6S          0.01698   0.00557   0.01141  -0.00585
 197        7PX         0.00021   0.00010   0.00010   0.00000
 198        7PY         0.00021   0.00010   0.00010  -0.00000
 199        7PZ         0.00166   0.00083   0.00083   0.00001
 200        8PX         0.00056   0.00028   0.00028  -0.00000
 201        8PY         0.00056   0.00028   0.00028   0.00000
 202        8PZ         0.00970   0.00426   0.00544  -0.00118
 203        9PX         0.00040   0.00020   0.00020  -0.00000
 204        9PY         0.00040   0.00020   0.00020  -0.00000
 205        9PZ        -0.00796  -0.01095   0.00299  -0.01394
 206       10D 0        0.00040   0.00020   0.00021  -0.00001
 207       10D+1        0.00024   0.00012   0.00012   0.00000
 208       10D-1        0.00024   0.00012   0.00012  -0.00000
 209       10D+2        0.00001   0.00001   0.00001   0.00000
 210       10D-2        0.00001   0.00001   0.00001   0.00000
 211       11D 0       -0.00047  -0.00051   0.00004  -0.00056
 212       11D+1       -0.00022  -0.00011  -0.00011   0.00000
 213       11D-1       -0.00022  -0.00011  -0.00011   0.00000
 214       11D+2       -0.00012  -0.00006  -0.00006   0.00000
 215       11D-2       -0.00012  -0.00006  -0.00006   0.00000
          Condensed to atoms (all electrons):
               1          2
     1  Zn  19.440825   0.244731
     2  H    0.244731   1.069713
          Atomic-Atomic Spin Densities.
               1          2
     1  Zn   1.083900  -0.139019
     2  H   -0.139019   0.194138
 Mulliken charges and spin densities:
               1          2
     1  Zn   0.314444   0.944881
     2  H   -0.314444   0.055119
 Sum of Mulliken charges =  -0.00000   1.00000
 Mulliken charges and spin densities with hydrogens summed into heavy atoms:
               1          2
     1  Zn  -0.000000   1.000000
 Electronic spatial extent (au):  <R**2>=             44.5606
 Charge=             -0.0000 electrons
 Dipole moment (field-independent basis, Debye):
    X=              0.0000    Y=              0.0000    Z=              0.4872  Tot=              0.4872
 Quadrupole moment (field-independent basis, Debye-Ang):
   XX=            -14.4084   YY=            -14.4084   ZZ=            -20.7725
   XY=              0.0000   XZ=              0.0000   YZ=              0.0000
 Traceless Quadrupole moment (field-independent basis, Debye-Ang):
   XX=              2.1214   YY=              2.1214   ZZ=             -4.2427
   XY=              0.0000   XZ=              0.0000   YZ=              0.0000
 Octapole moment (field-independent basis, Debye-Ang**2):
  XXX=              0.0000  YYY=              0.0000  ZZZ=              2.3492  XYY=              0.0000
  XXY=              0.0000  XXZ=              0.0739  XZZ=              0.0000  YZZ=              0.0000
  YYZ=              0.0739  XYZ=              0.0000
 Hexadecapole moment (field-independent basis, Debye-Ang**3):
 XXXX=            -19.8866 YYYY=            -19.8866 ZZZZ=            -64.8375 XXXY=              0.0000
 XXXZ=              0.0000 YYYX=              0.0000 YYYZ=              0.0000 ZZZX=              0.0000
 ZZZY=              0.0000 XXYY=             -6.6289 XXZZ=            -13.7308 YYZZ=            -13.7308
 XXYZ=              0.0000 YYXZ=              0.0000 ZZXY=              0.0000
 N-N= 7.055696145600D+00 E-N=-5.694509744395D+02  KE= 1.456246985441D+02
 Symmetry A1   KE= 5.995900171799D+01
 Symmetry A2   KE= 2.074237258914D+01
 Symmetry B1   KE= 3.246166211901D+01
 Symmetry B2   KE= 3.246166211820D+01
 Symmetry A1   SP= 1.000000000000D+00
 Symmetry A2   SP=-1.836409234151D-16
 Symmetry B1   SP=-2.626068660643D-16
 Symmetry B2   SP=-2.158470759406D-16
 Orbital energies and kinetic energies (alpha):
                                 1                 2
   6         O                -0.792348         10.371186
   7         O                -0.792348          9.930258
   8         O                -0.787510         10.357943
   9         O                -0.787510         10.357943
  10         O                -0.466262          0.820561
  11         O                -0.277156          0.532565
  12         V                 0.020898          0.072203
  13         V                 0.020898          0.072203
  14         V                 0.028446          0.043201
  15         V                 0.039670          0.060140
  16         V                 0.076525          0.233003
 Total kinetic energy from orbitals= 1.461572633528D+02
                          Isotropic Fermi Contact Couplings
        Atom                 a.u.       MegaHertz       Gauss      10(-4) cm-1
     1  Zn(67)             0.00224       0.62818       0.22415       0.20954
     2  H(1)               0.02750     122.92338      43.86212      41.00283
 --------------------------------------------------------
       Center         ----  Spin Dipole Couplings  ----
                      3XX-RR        3YY-RR        3ZZ-RR
 --------------------------------------------------------
     1   Atom       -0.006021     -0.006021      0.012041
     2   Atom       -0.004855     -0.004855      0.009711
 --------------------------------------------------------
                        XY            XZ            YZ
 --------------------------------------------------------
     1   Atom        0.000000      0.000000      0.000000
     2   Atom        0.000000      0.000000      0.000000
 --------------------------------------------------------


 ---------------------------------------------------------------------------------
              Anisotropic Spin Dipole Couplings in Principal Axis System
 ---------------------------------------------------------------------------------

       Atom             a.u.   MegaHertz   Gauss  10(-4) cm-1        Axes

              Baa    -0.0060    -0.201    -0.072    -0.067  1.0000  0.0000  0.0000
     1 Zn(67) Bbb    -0.0060    -0.201    -0.072    -0.067 -0.0000  1.0000  0.0000
              Bcc     0.0120     0.403     0.144     0.134  0.0000  0.0000  1.0000
 
              Baa    -0.0049    -2.591    -0.924    -0.864  1.0000  0.0000  0.0000
     2 H(1)   Bbb    -0.0049    -2.591    -0.924    -0.864 -0.0000  1.0000  0.0000
              Bcc     0.0097     5.181     1.849     1.728  0.0000  0.0000  1.0000
 

 ---------------------------------------------------------------------------------

 No NMR shielding tensors so no spin-rotation constants.
 Leave Link  601 at Sat Apr 21 10:25:43 2018, MaxMem= 10737418240 cpu:              89.3 elap:               2.9
 (Enter /home1/apps/gaussian/16rA.03/g16/l9999.exe)

 Test job not archived.
 1\1\GINC-C474-073\SP\ROCCSD(T)-Full\Gen\H1Zn1(2)\GWANG18\21-Apr-2018\0
 \\#P ROCCSD(T)=(MaxCyc=150, Full)/Gen SCF=(maxcycle=400, vshift=200) P
 seudo=Read Integral(NoXCTest) Pop=Regular MaxDisk=500GB Guess=Read IOp
 (5/15=2)\\ZnH\\0,2\Zn,0,0.,0.,0.\H,0,0.,0.,1.5\\Version=ES64L-G16RevA.
 03\State=2-SG\HF=-226.5488657\MP2=-227.5962269\MP3=-227.4770716\PUHF=-
 226.5488657\PMP2-0=-227.5962269\MP4SDQ=-227.5539991\CCSD=-227.5253155\
 CCSD(T)=-227.5522143\RMSD=4.782e-09\PG=C*V [C*(H1Zn1)]\\@



 WE LOSE BECAUSE WE WIN

 GAMBLERS,

 RECOLLECTING WHICH,

 TOSS THEIR DICE AGAIN....


                          EMILY DICKINSON  BOLTS OF MELODY NO. 533
 Job cpu time:       0 days  8 hours 23 minutes 36.7 seconds.
 Elapsed time:       0 days  0 hours 15 minutes 47.3 seconds.
 File lengths (MBytes):  RWF=   3417 Int=      0 D2E=      0 Chk=      6 Scr=      1
 Normal termination of Gaussian 16 at Sat Apr 21 10:25:44 2018.
