 Entering Gaussian System, Link 0=g16
 Initial command:
 /home1/apps/gaussian/16rA.03/g16/l1.exe "/tmp/Gau-206335.inp" -scrdir="/tmp/"
 Entering Link 1 = /home1/apps/gaussian/16rA.03/g16/l1.exe PID=    206336.
  
 Copyright (c) 1988,1990,1992,1993,1995,1998,2003,2009,2016,
            Gaussian, Inc.  All Rights Reserved.
  
 This is part of the Gaussian(R) 16 program.  It is based on
 the Gaussian(R) 09 system (copyright 2009, Gaussian, Inc.),
 the Gaussian(R) 03 system (copyright 2003, Gaussian, Inc.),
 the Gaussian(R) 98 system (copyright 1998, Gaussian, Inc.),
 the Gaussian(R) 94 system (copyright 1995, Gaussian, Inc.),
 the Gaussian 92(TM) system (copyright 1992, Gaussian, Inc.),
 the Gaussian 90(TM) system (copyright 1990, Gaussian, Inc.),
 the Gaussian 88(TM) system (copyright 1988, Gaussian, Inc.),
 the Gaussian 86(TM) system (copyright 1986, Carnegie Mellon
 University), and the Gaussian 82(TM) system (copyright 1983,
 Carnegie Mellon University). Gaussian is a federally registered
 trademark of Gaussian, Inc.
  
 This software contains proprietary and confidential information,
 including trade secrets, belonging to Gaussian, Inc.
  
 This software is provided under written license and may be
 used, copied, transmitted, or stored only in accord with that
 written license.
  
 The following legend is applicable only to US Government
 contracts under FAR:
  
                    RESTRICTED RIGHTS LEGEND
  
 Use, reproduction and disclosure by the US Government is
 subject to restrictions as set forth in subparagraphs (a)
 and (c) of the Commercial Computer Software - Restricted
 Rights clause in FAR 52.227-19.
  
 Gaussian, Inc.
 340 Quinnipiac St., Bldg. 40, Wallingford CT 06492
  
  
 ---------------------------------------------------------------
 Warning -- This program may not be used in any manner that
 competes with the business of Gaussian, Inc. or will provide
 assistance to any competitor of Gaussian, Inc.  The licensee
 of this program is prohibited from giving any competitor of
 Gaussian, Inc. access to this program.  By using this program,
 the user acknowledges that Gaussian, Inc. is engaged in the
 business of creating and licensing software in the field of
 computational chemistry and represents and warrants to the
 licensee that it is not a competitor of Gaussian, Inc. and that
 it will not use this program in any manner prohibited above.
 ---------------------------------------------------------------
  

 Cite this work as:
 Gaussian 16, Revision A.03,
 M. J. Frisch, G. W. Trucks, H. B. Schlegel, G. E. Scuseria, 
 M. A. Robb, J. R. Cheeseman, G. Scalmani, V. Barone, 
 G. A. Petersson, H. Nakatsuji, X. Li, M. Caricato, A. V. Marenich, 
 J. Bloino, B. G. Janesko, R. Gomperts, B. Mennucci, H. P. Hratchian, 
 J. V. Ortiz, A. F. Izmaylov, J. L. Sonnenberg, D. Williams-Young, 
 F. Ding, F. Lipparini, F. Egidi, J. Goings, B. Peng, A. Petrone, 
 T. Henderson, D. Ranasinghe, V. G. Zakrzewski, J. Gao, N. Rega, 
 G. Zheng, W. Liang, M. Hada, M. Ehara, K. Toyota, R. Fukuda, 
 J. Hasegawa, M. Ishida, T. Nakajima, Y. Honda, O. Kitao, H. Nakai, 
 T. Vreven, K. Throssell, J. A. Montgomery, Jr., J. E. Peralta, 
 F. Ogliaro, M. J. Bearpark, J. J. Heyd, E. N. Brothers, K. N. Kudin, 
 V. N. Staroverov, T. A. Keith, R. Kobayashi, J. Normand, 
 K. Raghavachari, A. P. Rendell, J. C. Burant, S. S. Iyengar, 
 J. Tomasi, M. Cossi, J. M. Millam, M. Klene, C. Adamo, R. Cammi, 
 J. W. Ochterski, R. L. Martin, K. Morokuma, O. Farkas, 
 J. B. Foresman, and D. J. Fox, Gaussian, Inc., Wallingford CT, 2016.
 
 ******************************************
 Gaussian 16:  ES64L-G16RevA.03 25-Dec-2016
                26-Feb-2018 
 ******************************************
 %MEM=80GB
 %CPU=0-15
 SetSPE:  set environment variable "MP_BIND" = "yes"
 SetSPE:  set environment variable "MP_BLIST" = "0,1,2,3,4,5,6,7,8,9,10,11,12,13,14,15"
 Will use up to   16 processors via shared memory.
 %RWF=/scratch/04843/aannabe/gaussian/
 %Int=/scratch/04843/aannabe/gaussian/
 %D2E=/scratch/04843/aannabe/gaussian/
 %NoSave
 %CHK=Cr
 ----------------------------------------------------------------------
 #P ROCCSD(T)=(maxcyc=150, Full)/Gen 5d 7f SCF=(maxcycles=300, NoVarAcc
 , VShift=200) MaxDisk=100GB Pop=Regular Pseudo=Read Guess=Read IOp(5/1
 5=2)
 ----------------------------------------------------------------------
 1/38=1,172=1/1;
 2/12=2,17=6,18=5,40=1/2;
 3/5=7,8=11,11=2,16=1,17=8,25=1,30=1,116=101/1,2,3;
 4/5=1/1;
 5/5=2,7=300,10=200,15=2,38=6/2;
 8/5=-1,6=4,9=120000,10=90/1,4;
 9/5=7,6=150,14=2/13;
 6//1;
 99/5=1,9=1/99;
 Leave Link    1 at Mon Feb 26 18:41:29 2018, MaxMem= 10737418240 cpu:               1.1 elap:               0.1
 (Enter /home1/apps/gaussian/16rA.03/g16/l101.exe)
 --
 Cr
 --
 Symbolic Z-matrix:
 Charge =  0 Multiplicity = 7
 Cr                    0.        0.        0. 
 
 ITRead=  0
 MicOpt= -1
 NAtoms=      1 NQM=        1 NQMF=       0 NMMI=      0 NMMIF=      0
                NMic=       0 NMicF=      0.
                    Isotopes and Nuclear Properties:
 (Nuclear quadrupole moments (NQMom) in fm**2, nuclear magnetic moments (NMagM)
  in nuclear magnetons)

  Atom         1
 IAtWgt=          52
 AtmWgt=  51.9405097
 NucSpn=           0
 AtZEff=  -0.0000000
 NQMom=    0.0000000
 NMagM=    0.0000000
 AtZNuc=  24.0000000
 Leave Link  101 at Mon Feb 26 18:41:29 2018, MaxMem= 10737418240 cpu:               1.3 elap:               0.1
 (Enter /home1/apps/gaussian/16rA.03/g16/l202.exe)
                          Input orientation:                          
 ---------------------------------------------------------------------
 Center     Atomic      Atomic             Coordinates (Angstroms)
 Number     Number       Type             X           Y           Z
 ---------------------------------------------------------------------
      1         24           0        0.000000    0.000000    0.000000
 ---------------------------------------------------------------------
 Stoichiometry    Cr(7)
 Framework group  OH[O(Cr)]
 Deg. of freedom     0
 Full point group                 OH      NOp  48
 Largest Abelian subgroup         D2H     NOp   8
 Largest concise Abelian subgroup C1      NOp   1
                         Standard orientation:                         
 ---------------------------------------------------------------------
 Center     Atomic      Atomic             Coordinates (Angstroms)
 Number     Number       Type             X           Y           Z
 ---------------------------------------------------------------------
      1         24           0        0.000000    0.000000    0.000000
 ---------------------------------------------------------------------
 Leave Link  202 at Mon Feb 26 18:41:29 2018, MaxMem= 10737418240 cpu:               0.5 elap:               0.1
 (Enter /home1/apps/gaussian/16rA.03/g16/l301.exe)
 General basis read from cards:  (5D, 7F)
 Centers:       1
 S 1 1.00
     Exponent=  1.1016640000D+07 Coefficients=  1.0000000000D+00
 S 1 1.00
     Exponent=  1.6494230000D+06 Coefficients=  1.0000000000D+00
 S 1 1.00
     Exponent=  3.7535890000D+05 Coefficients=  1.0000000000D+00
 S 1 1.00
     Exponent=  1.0632360000D+05 Coefficients=  1.0000000000D+00
 S 1 1.00
     Exponent=  3.4689760000D+04 Coefficients=  1.0000000000D+00
 S 1 1.00
     Exponent=  1.2524830000D+04 Coefficients=  1.0000000000D+00
 S 1 1.00
     Exponent=  4.8857520000D+03 Coefficients=  1.0000000000D+00
 S 1 1.00
     Exponent=  2.0269180000D+03 Coefficients=  1.0000000000D+00
 S 1 1.00
     Exponent=  8.8436450000D+02 Coefficients=  1.0000000000D+00
 S 1 1.00
     Exponent=  4.0231700000D+02 Coefficients=  1.0000000000D+00
 S 1 1.00
     Exponent=  1.8952710000D+02 Coefficients=  1.0000000000D+00
 S 1 1.00
     Exponent=  9.1860950000D+01 Coefficients=  1.0000000000D+00
 S 1 1.00
     Exponent=  4.5124760000D+01 Coefficients=  1.0000000000D+00
 S 1 1.00
     Exponent=  2.0625120000D+01 Coefficients=  1.0000000000D+00
 S 1 1.00
     Exponent=  1.0319730000D+01 Coefficients=  1.0000000000D+00
 S 1 1.00
     Exponent=  5.1577230000D+00 Coefficients=  1.0000000000D+00
 S 1 1.00
     Exponent=  2.3126280000D+00 Coefficients=  1.0000000000D+00
 S 1 1.00
     Exponent=  1.1030790000D+00 Coefficients=  1.0000000000D+00
 S 1 1.00
     Exponent=  4.9804200000D-01 Coefficients=  1.0000000000D+00
 S 1 1.00
     Exponent=  1.1824700000D-01 Coefficients=  1.0000000000D+00
 S 1 1.00
     Exponent=  5.7356000000D-02 Coefficients=  1.0000000000D+00
 S 1 1.00
     Exponent=  2.5760000000D-02 Coefficients=  1.0000000000D+00
 S 1 1.00
     Exponent=  4.7991000000D+00 Coefficients=  1.0000000000D+00
 S 1 1.00
     Exponent=  1.4287000000D+00 Coefficients=  1.0000000000D+00
 S 1 1.00
     Exponent=  1.1570000000D-02 Coefficients=  1.0000000000D+00
 P 1 1.00
     Exponent=  3.1539890000D+04 Coefficients=  1.0000000000D+00
 P 1 1.00
     Exponent=  7.4602340000D+03 Coefficients=  1.0000000000D+00
 P 1 1.00
     Exponent=  2.4226220000D+03 Coefficients=  1.0000000000D+00
 P 1 1.00
     Exponent=  9.2775470000D+02 Coefficients=  1.0000000000D+00
 P 1 1.00
     Exponent=  3.9480410000D+02 Coefficients=  1.0000000000D+00
 P 1 1.00
     Exponent=  1.8080270000D+02 Coefficients=  1.0000000000D+00
 P 1 1.00
     Exponent=  8.7423930000D+01 Coefficients=  1.0000000000D+00
 P 1 1.00
     Exponent=  4.4034270000D+01 Coefficients=  1.0000000000D+00
 P 1 1.00
     Exponent=  2.2777040000D+01 Coefficients=  1.0000000000D+00
 P 1 1.00
     Exponent=  1.2015470000D+01 Coefficients=  1.0000000000D+00
 P 1 1.00
     Exponent=  6.4117510000D+00 Coefficients=  1.0000000000D+00
 P 1 1.00
     Exponent=  3.3811360000D+00 Coefficients=  1.0000000000D+00
 P 1 1.00
     Exponent=  1.7470540000D+00 Coefficients=  1.0000000000D+00
 P 1 1.00
     Exponent=  8.8500400000D-01 Coefficients=  1.0000000000D+00
 P 1 1.00
     Exponent=  4.3302800000D-01 Coefficients=  1.0000000000D+00
 P 1 1.00
     Exponent=  1.7396200000D-01 Coefficients=  1.0000000000D+00
 P 1 1.00
     Exponent=  7.2823000000D-02 Coefficients=  1.0000000000D+00
 P 1 1.00
     Exponent=  2.9952000000D-02 Coefficients=  1.0000000000D+00
 P 1 1.00
     Exponent=  6.4552000000D+00 Coefficients=  1.0000000000D+00
 P 1 1.00
     Exponent=  1.6531000000D+00 Coefficients=  1.0000000000D+00
 P 1 1.00
     Exponent=  1.2320000000D-02 Coefficients=  1.0000000000D+00
 D 1 1.00
     Exponent=  2.8131200000D+02 Coefficients=  1.0000000000D+00
 D 1 1.00
     Exponent=  8.3188500000D+01 Coefficients=  1.0000000000D+00
 D 1 1.00
     Exponent=  3.1839600000D+01 Coefficients=  1.0000000000D+00
 D 1 1.00
     Exponent=  1.3602600000D+01 Coefficients=  1.0000000000D+00
 D 1 1.00
     Exponent=  6.1829800000D+00 Coefficients=  1.0000000000D+00
 D 1 1.00
     Exponent=  2.9227000000D+00 Coefficients=  1.0000000000D+00
 D 1 1.00
     Exponent=  1.3821600000D+00 Coefficients=  1.0000000000D+00
 D 1 1.00
     Exponent=  6.3946000000D-01 Coefficients=  1.0000000000D+00
 D 1 1.00
     Exponent=  2.8489800000D-01 Coefficients=  1.0000000000D+00
 D 1 1.00
     Exponent=  1.2004500000D-01 Coefficients=  1.0000000000D+00
 D 1 1.00
     Exponent=  4.6229000000D-02 Coefficients=  1.0000000000D+00
 D 1 1.00
     Exponent=  4.0848000000D+00 Coefficients=  1.0000000000D+00
 D 1 1.00
     Exponent=  2.1405000000D+00 Coefficients=  1.0000000000D+00
 D 1 1.00
     Exponent=  1.7800000000D-02 Coefficients=  1.0000000000D+00
 F 1 1.00
     Exponent=  5.6633000000D+00 Coefficients=  1.0000000000D+00
 F 1 1.00
     Exponent=  2.3365000000D+00 Coefficients=  1.0000000000D+00
 F 1 1.00
     Exponent=  9.6390000000D-01 Coefficients=  1.0000000000D+00
 F 1 1.00
     Exponent=  3.1420000000D-01 Coefficients=  1.0000000000D+00
 F 1 1.00
     Exponent=  1.0242000000D-01 Coefficients=  1.0000000000D+00
 G 1 1.00
     Exponent=  4.6690000000D+00 Coefficients=  1.0000000000D+00
 G 1 1.00
     Exponent=  1.9538000000D+00 Coefficients=  1.0000000000D+00
 G 1 1.00
     Exponent=  6.8480000000D-01 Coefficients=  1.0000000000D+00
 G 1 1.00
     Exponent=  2.4002000000D-01 Coefficients=  1.0000000000D+00
 H 1 1.00
     Exponent=  4.4133000000D+00 Coefficients=  1.0000000000D+00
 H 1 1.00
     Exponent=  1.6472000000D+00 Coefficients=  1.0000000000D+00
 H 1 1.00
     Exponent=  6.1479000000D-01 Coefficients=  1.0000000000D+00
 ****
 ======================================================================================================
                                       Pseudopotential Parameters
 ======================================================================================================
  Center     Atomic      Valence      Angular      Power
  Number     Number     Electrons     Momentum     of R      Exponent        Coefficient   SO-Coeffient
 ======================================================================================================
    1         24           14
                                      D and up 
                                                     1       18.9608692       14.00000000    0.00000000
                                                     3       19.2685642      265.45216919    0.00000000
                                                     2       18.0153842     -128.16784351    0.00000000
                                                     2        4.5700133       -0.77003812    0.00000000
                                      S - D
                                                     2       16.4903486      219.81621107    0.00000000
                                                     2        7.5667485       28.10747145    0.00000000
                                      P - D
                                                     2       16.3628681      143.81708416    0.00000000
                                                     2        7.8017945       20.57648136    0.00000000
 ======================================================================================================
 Ernie: Thresh=  0.10000D-02 Tol=  0.10000D-05 Strict=F.
 There are    91 symmetry adapted cartesian basis functions of AG  symmetry.
 There are    26 symmetry adapted cartesian basis functions of B1G symmetry.
 There are    26 symmetry adapted cartesian basis functions of B2G symmetry.
 There are    26 symmetry adapted cartesian basis functions of B3G symmetry.
 There are    14 symmetry adapted cartesian basis functions of AU  symmetry.
 There are    54 symmetry adapted cartesian basis functions of B1U symmetry.
 There are    54 symmetry adapted cartesian basis functions of B2U symmetry.
 There are    54 symmetry adapted cartesian basis functions of B3U symmetry.
 There are    65 symmetry adapted basis functions of AG  symmetry.
 There are    22 symmetry adapted basis functions of B1G symmetry.
 There are    22 symmetry adapted basis functions of B2G symmetry.
 There are    22 symmetry adapted basis functions of B3G symmetry.
 There are    11 symmetry adapted basis functions of AU  symmetry.
 There are    40 symmetry adapted basis functions of B1U symmetry.
 There are    40 symmetry adapted basis functions of B2U symmetry.
 There are    40 symmetry adapted basis functions of B3U symmetry.
   262 basis functions,   345 primitive gaussians,   345 cartesian basis functions
    10 alpha electrons        4 beta electrons
       nuclear repulsion energy         0.0000000000 Hartrees.
 IExCor=    0 DFT=F Ex=HF Corr=None ExCW=0 ScaHFX=  1.000000
 ScaDFX=  1.000000  1.000000  1.000000  1.000000 ScalE2=  1.000000  1.000000
 IRadAn=      5 IRanWt=     -1 IRanGd=            0 ICorTp=0 IEmpDi=  4
 NAtoms=    1 NActive=    1 NUniq=    1 SFac= 1.00D+00 NAtFMM=   60 NAOKFM=F Big=F
 Integral buffers will be    131072 words long.
 Raffenetti 2 integral format.
 Two-electron integral symmetry is turned on.
 Leave Link  301 at Mon Feb 26 18:41:29 2018, MaxMem= 10737418240 cpu:               1.7 elap:               0.1
 (Enter /home1/apps/gaussian/16rA.03/g16/l302.exe)
 NPDir=0 NMtPBC=     1 NCelOv=     1 NCel=       1 NClECP=     1 NCelD=      1
         NCelK=      1 NCelE2=     1 NClLst=     1 CellRange=     0.0.
 One-electron integrals computed using PRISM.
 One-electron integral symmetry used in STVInt
  48 Symmetry operations used in ECPInt.
 ECPInt:  NShTT=    2628 NPrTT=    2628 LenC2=    2629 LenP2D=    2628.
 LDataN:  DoStor=T MaxTD1=10 Len=  848
 NBasis=   262 RedAO= T EigKep=  1.67D-06  NBF=    65    22    22    22    11    40    40    40
 NBsUse=   258 1.00D-06 EigRej=  3.90D-07 NBFU=    64    22    22    22    11    39    39    39
 Leave Link  302 at Mon Feb 26 18:41:30 2018, MaxMem= 10737418240 cpu:              12.6 elap:               0.8
 (Enter /home1/apps/gaussian/16rA.03/g16/l303.exe)
 DipDrv:  MaxL=1.
 Leave Link  303 at Mon Feb 26 18:41:30 2018, MaxMem= 10737418240 cpu:               0.9 elap:               0.1
 (Enter /home1/apps/gaussian/16rA.03/g16/l401.exe)
 Initial guess from the checkpoint file:  "Cr.chk"
 B after Tr=     0.000000    0.000000    0.000000
         Rot=    1.000000    0.000000    0.000000    0.000000 Ang=   0.00 deg.
 Guess basis will be translated and rotated to current coordinates.
 JPrj=2 DoOrth=T DoCkMO=T.
 Initial guess orbital symmetries:
       Occupied  (A1G) (T1U) (T1U) (T1U) (A1G) (EG) (T2G) (T2G)
                 (T2G) (EG)
       Virtual   (T1U) (T1U) (T1U) (A1G) (T2G) (EG) (T2G) (EG)
                 (T2G) (T1U) (T1U) (T1U) (A1G) (T2G) (EG) (T2G)
                 (EG) (T2G) (T1U) (T1U) (T1U) (?A) (?A) (?A) (A2U)
                 (?A) (?A) (?A) (A1G) (EG) (T2G) (T2G) (T2G) (EG)
                 (T1U) (T1U) (T1U) (T2G) (?B) (?B) (?B) (?B) (?B)
                 (T2G) (T2G) (?B) (?A) (?A) (?A) (A2U) (?A) (?A)
                 (?A) (EG) (T2G) (T2G) (EG) (T2G) (A1G) (T1U) (T1U)
                 (T1U) (EG) (T2G) (T2G) (T2G) (EG) (?A) (?A) (?A)
                 (A2U) (?A) (?A) (?A) (?B) (T2G) (?B) (?B) (T2G)
                 (?B) (?B) (T2G) (?B) (?C) (?C) (?C) (EU) (?C)
                 (?C) (?C) (EU) (?C) (?C) (?C) (T1U) (T1U) (T1U)
                 (A1G) (T2G) (EG) (T2G) (T2G) (EG) (?A) (?A) (?A)
                 (A2U) (?A) (?A) (?A) (T1U) (T1U) (T1U) (?B) (?B)
                 (T2G) (?B) (T2G) (?B) (?B) (T2G) (?B) (?D) (?D)
                 (?D) (EU) (?D) (?D) (?D) (EU) (?D) (?D) (?D) (T2G)
                 (T2G) (EG) (EG) (T2G) (A1G) (T1U) (T1U) (T1U)
                 (?A) (?A) (?A) (A2U) (?A) (?A) (?A) (T2G) (EG)
                 (T2G) (EG) (T2G) (?B) (T2G) (?B) (?B) (T2G) (?B)
                 (?B) (T2G) (?B) (?E) (?E) (?E) (EU) (?E) (?E)
                 (?E) (EU) (?E) (?E) (?E) (A1G) (T1U) (T1U) (T1U)
                 (T2G) (EG) (EG) (T2G) (T2G) (T2G) (EG) (EG) (T2G)
                 (T2G) (T1U) (T1U) (T1U) (A1G) (T1U) (T1U) (T1U)
                 (EG) (EG) (T2G) (T2G) (T2G) (A1G) (A1G) (T1U)
                 (T1U) (T1U) (EG) (T2G) (EG) (T2G) (T2G) (A1G)
                 (T1U) (T1U) (T1U) (A1G) (T1U) (T1U) (T1U) (EG)
                 (T2G) (T2G) (T2G) (EG) (A1G) (T1U) (T1U) (T1U)
                 (A1G) (T1U) (T1U) (T1U) (A1G) (T1U) (T1U) (T1U)
                 (A1G) (T1U) (T1U) (T1U) (A1G) (T1U) (T1U) (T1U)
                 (A1G) (A1G) (A1G) (A1G) (A1G)
 The electronic state of the initial guess is 7-A1G.
 Leave Link  401 at Mon Feb 26 18:41:31 2018, MaxMem= 10737418240 cpu:               3.1 elap:               0.2
 (Enter /home1/apps/gaussian/16rA.03/g16/l502.exe)
 Keep R1 and R2 ints in memory in symmetry-blocked form, NReq=669233233.
 FoFCou: FMM=F IPFlag=           0 FMFlag=           0 FMFlg1=           0
         NFxFlg=           0 DoJE=F BraDBF=F KetDBF=F FulRan=T
         wScrn=  0.000000 ICntrl=       600 IOpCl=  0 I1Cent=           0 NGrid=           0
         NMat0=    1 NMatS0=  34453 NMatT0=    0 NMatD0=    1 NMtDS0=    0 NMtDT0=    0
 Petite list used in FoFCou.
 Restricted open shell SCF:
 Using DIIS extrapolation, IDIIS=  1040.
 NGot= 10737418240 LenX= 10585855578 LenY= 10585736112
 Requested convergence on RMS density matrix=1.00D-08 within 300 cycles.
 Requested convergence on MAX density matrix=1.00D-06.
 Requested convergence on             energy=1.00D-06.
 Virtual orbitals will be shifted by   0.200 hartree.
 No special actions if energy rises.

 Cycle   1  Pass 1  IDiag  1:
 Density matrix breaks symmetry, PCut= 1.00D-07
 Density has only Abelian symmetry.
 E= -86.1569476695610    
 DIIS: error= 1.05D-06 at cycle   1 NSaved=   1.
 NSaved= 1 IEnMin= 1 EnMin= -86.1569476695610     IErMin= 1 ErrMin= 1.05D-06
 ErrMax= 1.05D-06  0.00D+00 EMaxC= 1.00D-01 BMatC= 7.02D-11 BMatP= 7.02D-11
 IDIUse=1 WtCom= 1.00D+00 WtEn= 0.00D+00
 Coeff-Com:  0.100D+01
 Coeff:      0.100D+01
 Gap=    -0.010 Goal=   None    Shift=    0.200
 RMSDP=3.38D-07 MaxDP=3.09D-05              OVMax= 3.38D-05

 Cycle   2  Pass 1  IDiag  1:
 Density matrix breaks symmetry, PCut= 1.00D-07
 Density has only Abelian symmetry.
 E= -86.1569476697211     Delta-E=       -0.000000000160 Rises=F Damp=F
 DIIS: error= 5.78D-07 at cycle   2 NSaved=   2.
 NSaved= 2 IEnMin= 2 EnMin= -86.1569476697211     IErMin= 2 ErrMin= 5.78D-07
 ErrMax= 5.78D-07  0.00D+00 EMaxC= 1.00D-01 BMatC= 2.35D-11 BMatP= 7.02D-11
 IDIUse=1 WtCom= 1.00D+00 WtEn= 0.00D+00
 Coeff-Com:  0.363D+00 0.637D+00
 Coeff:      0.363D+00 0.637D+00
 Gap=    -0.010 Goal=   None    Shift=    0.200
 RMSDP=2.80D-08 MaxDP=2.46D-06 DE=-1.60D-10 OVMax= 2.32D-06

 Cycle   3  Pass 1  IDiag  1:
 Density matrix breaks symmetry, PCut= 1.00D-07
 Density has only Abelian symmetry.
 E= -86.1569476697165     Delta-E=        0.000000000005 Rises=F Damp=F
 DIIS: error= 5.61D-07 at cycle   3 NSaved=   3.
 NSaved= 3 IEnMin= 2 EnMin= -86.1569476697211     IErMin= 3 ErrMin= 5.61D-07
 ErrMax= 5.61D-07  0.00D+00 EMaxC= 1.00D-01 BMatC= 2.16D-11 BMatP= 2.35D-11
 IDIUse=1 WtCom= 1.00D+00 WtEn= 0.00D+00
 Coeff-Com:  0.355D+00 0.144D+00 0.501D+00
 Coeff:      0.355D+00 0.144D+00 0.501D+00
 Gap=    -0.010 Goal=   None    Shift=    0.200
 RMSDP=9.08D-09 MaxDP=9.28D-07 DE= 4.58D-12 OVMax= 7.42D-07

 Density matrix breaks symmetry, PCut= 1.00D-07
 Density has only Abelian symmetry.
 SCF Done:  E(ROHF) =  -86.1569476697     A.U. after    3 cycles
            NFock=  3  Conv=0.91D-08     -V/T= 2.8687
 <Sx>= 0.0000 <Sy>= 0.0000 <Sz>= 3.0000 <S**2>=12.0000 S= 3.0000
 <L.S>=  0.00000000000    
 KE= 4.610648098996D+01 PE=-1.969909016207D+02 EE= 6.472747296104D+01
 Annihilation of the first spin contaminant:
 S**2 before annihilation    12.0000,   after    12.0000
 Leave Link  502 at Mon Feb 26 18:41:39 2018, MaxMem= 10737418240 cpu:             129.1 elap:               8.2
 (Enter /home1/apps/gaussian/16rA.03/g16/l801.exe)
 Windowed orbitals will be sorted by symmetry type.
 Density matrix breaks symmetry, PCut= 1.00D-07
 Density has only Abelian symmetry.
 GenMOA:  NOpAll= 48 NOp2=8 NOpUse=  8 JSym2X=1
 FoFJK:  IHMeth= 1 ICntrl=       0 DoSepK=F KAlg= 0 I1Cent=           0 FoldK=F
 IRaf=         0 NMat=       1 IRICut=       1 DoRegI=T DoRafI=F ISym2E= 1 IDoP0=0 IntGTp=1.
 FoFCou: FMM=F IPFlag=           0 FMFlag=      100000 FMFlg1=           0
         NFxFlg=           0 DoJE=F BraDBF=F KetDBF=F FulRan=T
         wScrn=  0.000000 ICntrl=         0 IOpCl=  1 I1Cent=           0 NGrid=           0
         NMat0=    1 NMatS0=      1 NMatT0=    0 NMatD0=    1 NMtDS0=    0 NMtDT0=    0
 Petite list used in FoFCou.
 <Sx>= 0.0000 <Sy>= 0.0000 <Sz>= 3.0000 <S**2>=12.0000 S= 3.0000
 Range of M.O.s used for correlation:     1   258
 NBasis=   262 NAE=    10 NBE=     4 NFC=     0 NFV=     0
 NROrb=    258 NOA=    10 NOB=     4 NVA=   248 NVB=   254

 **** Warning!!: The largest alpha MO coefficient is  0.30488061D+03


 **** Warning!!: The largest beta MO coefficient is  0.30441565D+03

 Singles contribution to E2=   -0.2129981533D-03
 Leave Link  801 at Mon Feb 26 18:41:42 2018, MaxMem= 10737418240 cpu:              50.1 elap:               3.2
 (Enter /home1/apps/gaussian/16rA.03/g16/l804.exe)
 Open-shell transformation, MDV= 10737418240 ITran=4 ISComp=2.
 Unit  1 TFree=       2071879 TCopy=       1665808.
 Semi-Direct transformation.
 ModeAB=           2 MOrb=            10 LenV=   10735234370
 LASXX=     10681816 LTotXX=    10681816 LenRXX=    10681816
 LTotAB=    10857725 MaxLAS=   153987300 LenRXY=   153987300
 NonZer=   157981140 LenScr=   237901824 LnRSAI=           0
 LnScr1=           0 LExtra=     5764447 Total=    408335387
 MaxDsk= 13421772800 SrtSym=           F ITran=            4
 DoSDTr:  NPSUse= 16
 JobTyp=1 Pass  1:  I=   1 to  10.
 (rs|ai) integrals will be sorted in core.
 Complete sort for first half transformation.
 First half transformation complete.
 Begin second half transformation for I=  10.
 Begin second half transformation for I=  10.
 Complete sort for second half transformation.
 Second half transformation complete.
 ModeAB=           2 MOrb=             4 LenV=   10735234370
 LASXX=      4353055 LTotXX=     4353055 LenRXX=    61594920
 LTotAB=     4080786 MaxLAS=    61594920 LenRXY=     4080786
 NonZer=    63192456 LenScr=    95569920 LnRSAI=           0
 LnScr1=           0 LExtra=   170433563 Total=    331679189
 MaxDsk= 13421772800 SrtSym=           F ITran=            4
 DoSDTr:  NPSUse= 16
 JobTyp=2 Pass  1:  I=   1 to   4.
 (rs|ai) integrals will be sorted in core.
 Complete sort for first half transformation.
 First half transformation complete.
 Complete sort for second half transformation.
 Second half transformation complete.
 Spin components of T(2) and E(2):
     alpha-alpha T2 =       0.3700866023D-01 E2=     -0.1656042385D+00
     alpha-beta  T2 =       0.4012681452D-01 E2=     -0.3475800497D+00
     beta-beta   T2 =       0.5844360774D-02 E2=     -0.3668921156D-01
 ANorm=    0.1040688388D+01
 E2 =    -0.5500864979D+00 EUMP2 =    -0.86707034167579D+02
 (S**2,0)=  0.12000D+02           (S**2,1)=  0.12000D+02
 E(PUHF)=      -0.86156947670D+02        E(PMP2)=      -0.86707034168D+02
 Leave Link  804 at Mon Feb 26 18:42:56 2018, MaxMem= 10737418240 cpu:            1170.9 elap:              73.4
 (Enter /home1/apps/gaussian/16rA.03/g16/l913.exe)
 CIDS:  MDV= 10737418240.
 IFCWin=0 IBDFC=1 NFBD=     0     0 NFCmp=     0     0 NFFFC=     0     0
 Using original routines for 1st iteration.
 Using DD4UQ or CC4UQ for 2nd and later iterations.
 Keep R2 and R3 ints in memory in symmetry-blocked form, NReq=669247121.
 FoFCou: FMM=F IPFlag=           0 FMFlag=           0 FMFlg1=           0
         NFxFlg=           0 DoJE=F BraDBF=F KetDBF=F FulRan=T
         wScrn=  0.000000 ICntrl=       600 IOpCl=  0 I1Cent=           0 NGrid=           0
         NMat0=    1 NMatS0=  34453 NMatT0=    0 NMatD0=    1 NMtDS0=    0 NMtDT0=    0
 Petite list used in FoFCou.
 CIDS: In Core Option IDoMem=           1.
 CCSD(T)
 =======
 Iterations= 150 Convergence= 0.100D-06
 Produce multiple copies of IABC intergrals
 Iteration Nr.   1
 **********************
 DD1Dir will call FoFMem   1 times, MxPair=       132
 NAB=    40 NAA=    45 NBB=     6.
 DD1Dir will call FoFMem   1 times, MxPair=       132
 NAB=    40 NAA=    45 NBB=     6.
 MP4(R+Q)= -0.67516471D-03
 Maximum subspace dimension=  5
 A-vector RMS=  2.4105847D-05 Max=  8.2208138D-04 conv= 1.00D-05.
 RLE energy=       -0.5425498843
 E3=        0.83154022D-02        EROMP3=      -0.86698718765D+02
 E4(SDQ)=  -0.31107798D-02        ROMP4(SDQ)=  -0.86701829545D+02
 VARIATIONAL ENERGIES WITH THE FIRST-ORDER WAVEFUNCTION:
 DE(Corr)= -0.54244509     E(Corr)=     -86.699392758    
 NORM(A)=   0.10388936D+01
 Iteration Nr.   2
 **********************
 DD1Dir will call FoFMem   1 times, MxPair=       132
 NAB=    40 NAA=    45 NBB=     6.
 A-vector RMS=  1.4606799D-03 Max=  2.1486422D-02 conv= 1.00D-05.
 RLE energy=       -0.5402162284
 DE(Corr)= -0.53427259     E(CORR)=     -86.691220263     Delta= 8.17D-03
 NORM(A)=   0.10383096D+01
 Iteration Nr.   3
 **********************
 DD1Dir will call FoFMem   1 times, MxPair=       132
 NAB=    40 NAA=    45 NBB=     6.
 A-vector RMS=  1.0629479D-03 Max=  1.8339882D-02 conv= 1.00D-05.
 RLE energy=       -0.5427923665
 DE(Corr)= -0.53688326     E(CORR)=     -86.693830930     Delta=-2.61D-03
 NORM(A)=   0.10396182D+01
 Iteration Nr.   4
 **********************
 DD1Dir will call FoFMem   1 times, MxPair=       132
 NAB=    40 NAA=    45 NBB=     6.
 A-vector RMS=  8.2227667D-04 Max=  1.2687854D-02 conv= 1.00D-05.
 RLE energy=       -0.5442174405
 DE(Corr)= -0.53912964     E(CORR)=     -86.696077309     Delta=-2.25D-03
 NORM(A)=   0.10450763D+01
 Iteration Nr.   5
 **********************
 DD1Dir will call FoFMem   1 times, MxPair=       132
 NAB=    40 NAA=    45 NBB=     6.
 A-vector RMS=  3.4940810D-04 Max=  3.7238305D-03 conv= 1.00D-05.
 RLE energy=       -0.5439988333
 DE(Corr)= -0.54622801     E(CORR)=     -86.703175682     Delta=-7.10D-03
 NORM(A)=   0.10437215D+01
 Iteration Nr.   6
 **********************
 DD1Dir will call FoFMem   1 times, MxPair=       132
 NAB=    40 NAA=    45 NBB=     6.
 A-vector RMS=  3.8348899D-05 Max=  5.0295217D-04 conv= 1.00D-05.
 RLE energy=       -0.5439593680
 DE(Corr)= -0.54406480     E(CORR)=     -86.701012473     Delta= 2.16D-03
 NORM(A)=   0.10437602D+01
 Iteration Nr.   7
 **********************
 DD1Dir will call FoFMem   1 times, MxPair=       132
 NAB=    40 NAA=    45 NBB=     6.
 A-vector RMS=  6.1755638D-06 Max=  8.7107851D-05 conv= 1.00D-05.
 RLE energy=       -0.5439552723
 DE(Corr)= -0.54395405     E(CORR)=     -86.700901719     Delta= 1.11D-04
 NORM(A)=   0.10437822D+01
 Iteration Nr.   8
 **********************
 DD1Dir will call FoFMem   1 times, MxPair=       132
 NAB=    40 NAA=    45 NBB=     6.
 A-vector RMS=  5.4232506D-06 Max=  1.0460634D-04 conv= 1.00D-05.
 RLE energy=       -0.5439557863
 DE(Corr)= -0.54395806     E(CORR)=     -86.700905734     Delta=-4.01D-06
 NORM(A)=   0.10437862D+01
 Iteration Nr.   9
 **********************
 DD1Dir will call FoFMem   1 times, MxPair=       132
 NAB=    40 NAA=    45 NBB=     6.
 A-vector RMS=  1.8123130D-06 Max=  3.1540546D-05 conv= 1.00D-05.
 RLE energy=       -0.5439572690
 DE(Corr)= -0.54395606     E(CORR)=     -86.700903729     Delta= 2.00D-06
 NORM(A)=   0.10437896D+01
 Iteration Nr.  10
 **********************
 DD1Dir will call FoFMem   1 times, MxPair=       132
 NAB=    40 NAA=    45 NBB=     6.
 A-vector RMS=  8.7413598D-07 Max=  1.6409642D-05 conv= 1.00D-05.
 RLE energy=       -0.5439576609
 DE(Corr)= -0.54395686     E(CORR)=     -86.700904528     Delta=-8.00D-07
 NORM(A)=   0.10437881D+01
 Iteration Nr.  11
 **********************
 DD1Dir will call FoFMem   1 times, MxPair=       132
 NAB=    40 NAA=    45 NBB=     6.
 A-vector RMS=  2.7117262D-07 Max=  7.0524758D-06 conv= 1.00D-05.
 RLE energy=       -0.5439563601
 DE(Corr)= -0.54395641     E(CORR)=     -86.700904083     Delta= 4.45D-07
 NORM(A)=   0.10437867D+01
 Iteration Nr.  12
 **********************
 DD1Dir will call FoFMem   1 times, MxPair=       132
 NAB=    40 NAA=    45 NBB=     6.
 A-vector RMS=  5.3941580D-08 Max=  1.0834077D-06 conv= 1.00D-05.
 RLE energy=       -0.5439562499
 DE(Corr)= -0.54395628     E(CORR)=     -86.700903947     Delta= 1.36D-07
 NORM(A)=   0.10437864D+01
 Iteration Nr.  13
 **********************
 DD1Dir will call FoFMem   1 times, MxPair=       132
 NAB=    40 NAA=    45 NBB=     6.
 A-vector RMS=  2.1039364D-08 Max=  4.4849510D-07 conv= 1.00D-05.
 RLE energy=       -0.5439562027
 DE(Corr)= -0.54395620     E(CORR)=     -86.700903869     Delta= 7.82D-08
 NORM(A)=   0.10437863D+01
 CI/CC converged in   13 iterations to DelEn= 7.82D-08 Conv= 1.00D-07 ErrA1= 2.10D-08 Conv= 1.00D-05
 Wavefunction amplitudes converged. E(Corr)=     -86.700903869    
 Largest amplitude= 4.43D-02
 Time for triples=     2155.32 seconds.
 T4(CCSD)= -0.17510926D-01
 T5(CCSD)=  0.59838720D-03
 CCSD(T)= -0.86717816408D+02
 Discarding MO integrals.
 Leave Link  913 at Mon Feb 26 18:45:47 2018, MaxMem= 10737418240 cpu:            2703.5 elap:             170.7
 (Enter /home1/apps/gaussian/16rA.03/g16/l601.exe)
 Copying SCF densities to generalized density rwf, IOpCl= 0 IROHF=1.
 SCF density gives NOpUse=  8 NOpAll= 48.
 Marking SCF density as not fully symmetric.

 **********************************************************************

            Population analysis using the SCF density.

 **********************************************************************

 Orbital symmetries:
       Occupied  (A1G) (T1U) (T1U) (T1U) (A1G) (EG) (T2G) (T2G)
                 (EG) (T2G)
       Virtual   (T1U) (T1U) (T1U) (A1G) (T2G) (EG) (T2G) (T2G)
                 (EG) (T1U) (T1U) (T1U) (A1G) (EG) (T2G) (T2G)
                 (T2G) (EG) (T1U) (T1U) (T1U) (?A) (?A) (?A) (A2U)
                 (?A) (?A) (?A) (A1G) (EG) (T2G) (T2G) (EG) (T2G)
                 (T1U) (T1U) (T1U) (?B) (T2G) (?B) (?B) (?B) (?B)
                 (T2G) (T2G) (?B) (?A) (?A) (?A) (A2U) (?A) (?A)
                 (?A) (EG) (T2G) (T2G) (EG) (T2G) (A1G) (T1U) (T1U)
                 (T1U) (EG) (T2G) (T2G) (EG) (T2G) (?A) (?A) (?A)
                 (A2U) (?A) (?A) (?A) (?B) (T2G) (?B) (?B) (?B)
                 (?B) (T2G) (T2G) (?B) (?C) (?C) (?C) (EU) (?C)
                 (?C) (?C) (EU) (?C) (?C) (?C) (T1U) (T1U) (T1U)
                 (A1G) (T2G) (EG) (T2G) (EG) (T2G) (?A) (?A) (?A)
                 (A2U) (?A) (?A) (?A) (T1U) (T1U) (T1U) (?B) (?B)
                 (T2G) (?B) (T2G) (?B) (?B) (T2G) (?B) (?D) (?D)
                 (?D) (EU) (?D) (?D) (?D) (EU) (?D) (?D) (?D) (EG)
                 (T2G) (T2G) (EG) (T2G) (A1G) (T1U) (T1U) (T1U)
                 (?A) (?A) (?A) (A2U) (?A) (?A) (?A) (EG) (T2G)
                 (T2G) (EG) (T2G) (?B) (T2G) (T2G) (?B) (?B) (?B)
                 (?B) (T2G) (?B) (?E) (?E) (?E) (EU) (?E) (?E)
                 (?E) (EU) (?E) (?E) (?E) (A1G) (T1U) (T1U) (T1U)
                 (T2G) (EG) (T2G) (EG) (T2G) (EG) (T2G) (T2G) (EG)
                 (T2G) (T1U) (T1U) (T1U) (A1G) (T1U) (T1U) (T1U)
                 (T2G) (EG) (T2G) (EG) (T2G) (A1G) (A1G) (T1U)
                 (T1U) (T1U) (EG) (T2G) (T2G) (EG) (T2G) (A1G)
                 (T1U) (T1U) (T1U) (A1G) (T1U) (T1U) (T1U) (EG)
                 (T2G) (EG) (T2G) (T2G) (A1G) (T1U) (T1U) (T1U)
                 (A1G) (T1U) (T1U) (T1U) (A1G) (T1U) (T1U) (T1U)
                 (A1G) (T1U) (T1U) (T1U) (A1G) (T1U) (T1U) (T1U)
                 (A1G) (A1G) (A1G) (A1G) (A1G)
 The electronic state is 7-A1G.
 Alpha  occ. eigenvalues --   -3.56871  -2.32544  -2.32544  -2.32544  -0.36886
 Alpha  occ. eigenvalues --   -0.36886  -0.36886  -0.36886  -0.36886  -0.22590
 Alpha virt. eigenvalues --    0.01708   0.01708   0.01708   0.02418   0.05524
 Alpha virt. eigenvalues --    0.05524   0.05524   0.05524   0.05524   0.05920
 Alpha virt. eigenvalues --    0.05920   0.05920   0.12730   0.17957   0.17957
 Alpha virt. eigenvalues --    0.17957   0.17957   0.17957   0.19960   0.19960
 Alpha virt. eigenvalues --    0.19960   0.40727   0.40727   0.40727   0.40727
 Alpha virt. eigenvalues --    0.40727   0.40727   0.40727   0.44454   0.50012
 Alpha virt. eigenvalues --    0.50012   0.50012   0.50012   0.50012   0.60042
 Alpha virt. eigenvalues --    0.60042   0.60042   1.18661   1.18661   1.18661
 Alpha virt. eigenvalues --    1.18661   1.18661   1.18661   1.18661   1.18661
 Alpha virt. eigenvalues --    1.18661   1.27648   1.27648   1.27648   1.27648
 Alpha virt. eigenvalues --    1.27648   1.27648   1.27648   1.29524   1.29524
 Alpha virt. eigenvalues --    1.29524   1.29524   1.29524   1.67273   1.69750
 Alpha virt. eigenvalues --    1.69750   1.69750   3.04867   3.04867   3.04867
 Alpha virt. eigenvalues --    3.04867   3.04867   3.45925   3.45925   3.45925
 Alpha virt. eigenvalues --    3.45925   3.45925   3.45925   3.45925   3.54356
 Alpha virt. eigenvalues --    3.54356   3.54356   3.54356   3.54356   3.54356
 Alpha virt. eigenvalues --    3.54356   3.54356   3.54356   3.59327   3.59327
 Alpha virt. eigenvalues --    3.59327   3.59327   3.59327   3.59327   3.59327
 Alpha virt. eigenvalues --    3.59327   3.59327   3.59327   3.59327   4.24284
 Alpha virt. eigenvalues --    4.24284   4.24284   5.16122   6.44269   6.44269
 Alpha virt. eigenvalues --    6.44269   6.44269   6.44269   8.59517   8.59517
 Alpha virt. eigenvalues --    8.59517   8.59517   8.59517   8.59517   8.59517
 Alpha virt. eigenvalues --    9.17377   9.17377   9.17377   9.46897   9.46897
 Alpha virt. eigenvalues --    9.46897   9.46897   9.46897   9.46897   9.46897
 Alpha virt. eigenvalues --    9.46897   9.46897  10.11285  10.11285  10.11285
 Alpha virt. eigenvalues --   10.11285  10.11285  10.11285  10.11285  10.11285
 Alpha virt. eigenvalues --   10.11285  10.11285  10.11285  12.29061  12.29061
 Alpha virt. eigenvalues --   12.29061  12.29061  12.29061  12.51834  18.06619
 Alpha virt. eigenvalues --   18.06619  18.06619  21.15190  21.15190  21.15190
 Alpha virt. eigenvalues --   21.15190  21.15190  21.15190  21.15190  21.81236
 Alpha virt. eigenvalues --   21.81236  21.81236  21.81236  21.81236  23.26927
 Alpha virt. eigenvalues --   23.26927  23.26927  23.26927  23.26927  23.26927
 Alpha virt. eigenvalues --   23.26927  23.26927  23.26927  26.48855  26.48855
 Alpha virt. eigenvalues --   26.48855  26.48855  26.48855  26.48855  26.48855
 Alpha virt. eigenvalues --   26.48855  26.48855  26.48855  26.48855  29.06465
 Alpha virt. eigenvalues --   34.96580  34.96580  34.96580  37.17627  37.17627
 Alpha virt. eigenvalues --   37.17627  37.17627  37.17627  65.09309  65.09309
 Alpha virt. eigenvalues --   65.09309  65.09309  65.09309  68.45111  68.45111
 Alpha virt. eigenvalues --   68.45111  68.49810 130.76707 130.76707 130.76707
 Alpha virt. eigenvalues --  132.88750 132.88750 132.88750 132.88750 132.88750
 Alpha virt. eigenvalues --  136.78335 241.87718 245.02599 245.02599 245.02599
 Alpha virt. eigenvalues --  343.47396 343.47396 343.47396 343.47396 343.47396
 Alpha virt. eigenvalues --  441.46504 463.88380 463.88380 463.88380 839.15169
 Alpha virt. eigenvalues --  906.27937 906.27937 906.279371150.050821150.05082
 Alpha virt. eigenvalues -- 1150.050821150.050821150.050821661.933141862.83983
 Alpha virt. eigenvalues -- 1862.839831862.839833443.801074106.197104106.19710
 Alpha virt. eigenvalues -- 4106.197107488.009949963.715919963.715919963.71591
 Alpha virt. eigenvalues -- **************************************************
 Alpha virt. eigenvalues -- **************************************************
 Alpha virt. eigenvalues -- ******************************
     Molecular Orbital Coefficients:
                           1         2         3         4         5
                       (A1G)--O  (T1U)--O  (T1U)--O  (T1U)--O  (A1G)--O
     Eigenvalues --    -3.56871  -2.32544  -2.32544  -2.32544  -0.36886
   1 1   Cr 1S         -0.00000   0.00000   0.00000   0.00000   0.00000
   2        2S          0.00000   0.00000   0.00000   0.00000  -0.00000
   3        3S         -0.00000   0.00000   0.00000   0.00000   0.00000
   4        4S          0.00000   0.00000   0.00000   0.00000  -0.00000
   5        5S         -0.00000   0.00000   0.00000   0.00000   0.00000
   6        6S          0.00001   0.00000   0.00000   0.00000  -0.00000
   7        7S         -0.00004   0.00000   0.00000   0.00000   0.00001
   8        8S          0.00012   0.00000   0.00000   0.00000  -0.00003
   9        9S         -0.00035   0.00000   0.00000   0.00000   0.00008
  10       10S          0.00101   0.00000   0.00000   0.00000  -0.00022
  11       11S         -0.00277   0.00000   0.00000   0.00000   0.00062
  12       12S          0.00759   0.00000   0.00000   0.00000  -0.00171
  13       13S         -0.02343   0.00000   0.00000   0.00000   0.00537
  14       14S          0.11035   0.00000   0.00000   0.00000  -0.02639
  15       15S         -0.17217   0.00000   0.00000   0.00000   0.04382
  16       16S         -0.31271   0.00000   0.00000   0.00000   0.08475
  17       17S          0.40233   0.00000   0.00000   0.00000  -0.11312
  18       18S          0.80292   0.00000   0.00000   0.00000  -0.27648
  19       19S          0.28615   0.00000   0.00000   0.00000  -0.19580
  20       20S          0.01584   0.00000   0.00000   0.00000   0.29949
  21       21S         -0.00923   0.00000   0.00000   0.00000   0.59218
  22       22S          0.00420   0.00000   0.00000   0.00000   0.26110
  23       23S         -0.08517   0.00000   0.00000   0.00000   0.01359
  24       24S         -0.16330   0.00000   0.00000   0.00000   0.05865
  25       25S         -0.00113   0.00000   0.00000   0.00000   0.00016
  26       26PX         0.00000   0.00000   0.00000   0.00000   0.00000
  27       26PY         0.00000   0.00000   0.00000   0.00000   0.00000
  28       26PZ         0.00000   0.00000   0.00000   0.00000   0.00000
  29       27PX         0.00000   0.00000   0.00000  -0.00000   0.00000
  30       27PY         0.00000  -0.00000   0.00000   0.00000   0.00000
  31       27PZ         0.00000   0.00000  -0.00000   0.00000   0.00000
  32       28PX         0.00000   0.00000   0.00000   0.00000   0.00000
  33       28PY         0.00000   0.00000   0.00000   0.00000   0.00000
  34       28PZ         0.00000   0.00000   0.00000   0.00000   0.00000
  35       29PX         0.00000   0.00000   0.00000  -0.00000   0.00000
  36       29PY         0.00000  -0.00000   0.00000   0.00000   0.00000
  37       29PZ         0.00000   0.00000  -0.00000   0.00000   0.00000
  38       30PX         0.00000   0.00000   0.00000   0.00002   0.00000
  39       30PY         0.00000   0.00002   0.00000   0.00000   0.00000
  40       30PZ         0.00000   0.00000   0.00002   0.00000   0.00000
  41       31PX         0.00000   0.00000   0.00000  -0.00006   0.00000
  42       31PY         0.00000  -0.00006   0.00000   0.00000   0.00000
  43       31PZ         0.00000   0.00000  -0.00006   0.00000   0.00000
  44       32PX         0.00000   0.00000   0.00000   0.00023   0.00000
  45       32PY         0.00000   0.00023   0.00000   0.00000   0.00000
  46       32PZ         0.00000   0.00000   0.00023   0.00000   0.00000
  47       33PX         0.00000   0.00000   0.00000  -0.00134   0.00000
  48       33PY         0.00000  -0.00134   0.00000   0.00000   0.00000
  49       33PZ         0.00000   0.00000  -0.00134   0.00000   0.00000
  50       34PX         0.00000   0.00000   0.00000   0.01598   0.00000
  51       34PY         0.00000   0.01598   0.00000   0.00000   0.00000
  52       34PZ         0.00000   0.00000   0.01598   0.00000   0.00000
  53       35PX         0.00000   0.00000   0.00000  -0.07694   0.00000
  54       35PY         0.00000  -0.07694   0.00000   0.00000   0.00000
  55       35PZ         0.00000   0.00000  -0.07694   0.00000   0.00000
  56       36PX         0.00000   0.00000   0.00000  -0.03634   0.00000
  57       36PY         0.00000  -0.03634   0.00000   0.00000   0.00000
  58       36PZ         0.00000   0.00000  -0.03634   0.00000   0.00000
  59       37PX         0.00000   0.00000   0.00000   0.20232   0.00000
  60       37PY         0.00000   0.20232   0.00000   0.00000   0.00000
  61       37PZ         0.00000   0.00000   0.20232   0.00000   0.00000
  62       38PX         0.00000   0.00000   0.00000   0.34788   0.00000
  63       38PY         0.00000   0.34788   0.00000   0.00000   0.00000
  64       38PZ         0.00000   0.00000   0.34788   0.00000   0.00000
  65       39PX         0.00000   0.00000   0.00000   0.37626   0.00000
  66       39PY         0.00000   0.37626   0.00000   0.00000   0.00000
  67       39PZ         0.00000   0.00000   0.37626   0.00000   0.00000
  68       40PX         0.00000   0.00000   0.00000   0.17169   0.00000
  69       40PY         0.00000   0.17169   0.00000   0.00000   0.00000
  70       40PZ         0.00000   0.00000   0.17169   0.00000   0.00000
  71       41PX         0.00000   0.00000   0.00000   0.01945   0.00000
  72       41PY         0.00000   0.01945   0.00000   0.00000   0.00000
  73       41PZ         0.00000   0.00000   0.01945   0.00000   0.00000
  74       42PX         0.00000   0.00000   0.00000  -0.00096   0.00000
  75       42PY         0.00000  -0.00096   0.00000   0.00000   0.00000
  76       42PZ         0.00000   0.00000  -0.00096   0.00000   0.00000
  77       43PX         0.00000   0.00000   0.00000   0.00070   0.00000
  78       43PY         0.00000   0.00070   0.00000   0.00000   0.00000
  79       43PZ         0.00000   0.00000   0.00070   0.00000   0.00000
  80       44PX         0.00000   0.00000   0.00000  -0.01692   0.00000
  81       44PY         0.00000  -0.01692   0.00000   0.00000   0.00000
  82       44PZ         0.00000   0.00000  -0.01692   0.00000   0.00000
  83       45PX         0.00000   0.00000   0.00000   0.05386   0.00000
  84       45PY         0.00000   0.05386   0.00000   0.00000   0.00000
  85       45PZ         0.00000   0.00000   0.05386   0.00000   0.00000
  86       46PX         0.00000   0.00000   0.00000  -0.00019   0.00000
  87       46PY         0.00000  -0.00019   0.00000   0.00000   0.00000
  88       46PZ         0.00000   0.00000  -0.00019   0.00000   0.00000
  89       47D 0       -0.00000   0.00000   0.00000   0.00000   0.00000
  90       47D+1        0.00000   0.00000   0.00000   0.00000   0.00000
  91       47D-1        0.00000   0.00000   0.00000   0.00000   0.00000
  92       47D+2       -0.00000   0.00000   0.00000   0.00000   0.00000
  93       47D-2        0.00000   0.00000   0.00000   0.00000   0.00000
  94       48D 0       -0.00000   0.00000   0.00000   0.00000  -0.00000
  95       48D+1        0.00000   0.00000   0.00000   0.00000   0.00000
  96       48D-1        0.00000   0.00000   0.00000   0.00000   0.00000
  97       48D+2       -0.00000   0.00000   0.00000   0.00000  -0.00000
  98       48D-2        0.00000   0.00000   0.00000   0.00000   0.00000
  99       49D 0       -0.00000   0.00000   0.00000   0.00000   0.00000
 100       49D+1        0.00000   0.00000   0.00000   0.00000   0.00000
 101       49D-1        0.00000   0.00000   0.00000   0.00000   0.00000
 102       49D+2       -0.00000   0.00000   0.00000   0.00000   0.00000
 103       49D-2        0.00000   0.00000   0.00000   0.00000   0.00000
 104       50D 0       -0.00000   0.00000   0.00000   0.00000   0.00000
 105       50D+1        0.00000   0.00000   0.00000   0.00000   0.00000
 106       50D-1        0.00000   0.00000   0.00000   0.00000   0.00000
 107       50D+2       -0.00000   0.00000   0.00000   0.00000   0.00000
 108       50D-2        0.00000   0.00000   0.00000   0.00000   0.00000
 109       51D 0       -0.00000   0.00000   0.00000   0.00000  -0.00000
 110       51D+1        0.00000   0.00000   0.00000   0.00000   0.00000
 111       51D-1        0.00000   0.00000   0.00000   0.00000   0.00000
 112       51D+2       -0.00000   0.00000   0.00000   0.00000   0.00000
 113       51D-2        0.00000   0.00000   0.00000   0.00000   0.00000
 114       52D 0       -0.00000   0.00000   0.00000   0.00000  -0.00000
 115       52D+1        0.00000   0.00000   0.00000   0.00000   0.00000
 116       52D-1        0.00000   0.00000   0.00000   0.00000   0.00000
 117       52D+2       -0.00000   0.00000   0.00000   0.00000   0.00000
 118       52D-2        0.00000   0.00000   0.00000   0.00000   0.00000
 119       53D 0       -0.00000   0.00000   0.00000   0.00000   0.00000
 120       53D+1        0.00000   0.00000   0.00000   0.00000   0.00000
 121       53D-1        0.00000   0.00000   0.00000   0.00000   0.00000
 122       53D+2       -0.00000   0.00000   0.00000   0.00000   0.00000
 123       53D-2        0.00000   0.00000   0.00000   0.00000   0.00000
 124       54D 0        0.00000   0.00000   0.00000   0.00000  -0.00000
 125       54D+1        0.00000   0.00000   0.00000   0.00000   0.00000
 126       54D-1        0.00000   0.00000   0.00000   0.00000   0.00000
 127       54D+2        0.00000   0.00000   0.00000   0.00000   0.00000
 128       54D-2        0.00000   0.00000   0.00000   0.00000   0.00000
 129       55D 0        0.00000   0.00000   0.00000   0.00000   0.00000
 130       55D+1        0.00000   0.00000   0.00000   0.00000   0.00000
 131       55D-1        0.00000   0.00000   0.00000   0.00000   0.00000
 132       55D+2        0.00000   0.00000   0.00000   0.00000  -0.00000
 133       55D-2        0.00000   0.00000   0.00000   0.00000   0.00000
 134       56D 0        0.00000   0.00000   0.00000   0.00000  -0.00000
 135       56D+1        0.00000   0.00000   0.00000   0.00000   0.00000
 136       56D-1        0.00000   0.00000   0.00000   0.00000   0.00000
 137       56D+2        0.00000   0.00000   0.00000   0.00000  -0.00000
 138       56D-2        0.00000   0.00000   0.00000   0.00000   0.00000
 139       57D 0        0.00000   0.00000   0.00000   0.00000  -0.00000
 140       57D+1        0.00000   0.00000   0.00000   0.00000   0.00000
 141       57D-1        0.00000   0.00000   0.00000   0.00000   0.00000
 142       57D+2        0.00000   0.00000   0.00000   0.00000  -0.00000
 143       57D-2        0.00000   0.00000   0.00000   0.00000   0.00000
 144       58D 0        0.00000   0.00000   0.00000   0.00000   0.00000
 145       58D+1        0.00000   0.00000   0.00000   0.00000   0.00000
 146       58D-1        0.00000   0.00000   0.00000   0.00000   0.00000
 147       58D+2        0.00000   0.00000   0.00000   0.00000  -0.00000
 148       58D-2        0.00000   0.00000   0.00000   0.00000   0.00000
 149       59D 0        0.00000   0.00000   0.00000   0.00000   0.00000
 150       59D+1        0.00000   0.00000   0.00000   0.00000   0.00000
 151       59D-1        0.00000   0.00000   0.00000   0.00000   0.00000
 152       59D+2        0.00000   0.00000   0.00000   0.00000  -0.00000
 153       59D-2        0.00000   0.00000   0.00000   0.00000   0.00000
 154       60D 0        0.00000   0.00000   0.00000   0.00000  -0.00000
 155       60D+1        0.00000   0.00000   0.00000   0.00000   0.00000
 156       60D-1        0.00000   0.00000   0.00000   0.00000   0.00000
 157       60D+2        0.00000   0.00000   0.00000   0.00000  -0.00000
 158       60D-2        0.00000   0.00000   0.00000   0.00000   0.00000
 159       61F 0        0.00000   0.00000   0.00000   0.00000   0.00000
 160       61F+1        0.00000   0.00000   0.00000   0.00000   0.00000
 161       61F-1        0.00000   0.00000   0.00000   0.00000   0.00000
 162       61F+2        0.00000   0.00000   0.00000   0.00000   0.00000
 163       61F-2        0.00000   0.00000   0.00000   0.00000   0.00000
 164       61F+3        0.00000   0.00000   0.00000   0.00000   0.00000
 165       61F-3        0.00000   0.00000   0.00000   0.00000   0.00000
 166       62F 0        0.00000   0.00000   0.00000   0.00000   0.00000
 167       62F+1        0.00000   0.00000   0.00000   0.00000   0.00000
 168       62F-1        0.00000   0.00000   0.00000   0.00000   0.00000
 169       62F+2        0.00000   0.00000   0.00000   0.00000   0.00000
 170       62F-2        0.00000   0.00000   0.00000   0.00000   0.00000
 171       62F+3        0.00000   0.00000   0.00000   0.00000   0.00000
 172       62F-3        0.00000   0.00000   0.00000   0.00000   0.00000
 173       63F 0        0.00000   0.00000  -0.00000   0.00000   0.00000
 174       63F+1        0.00000   0.00000   0.00000  -0.00000   0.00000
 175       63F-1        0.00000  -0.00000   0.00000   0.00000   0.00000
 176       63F+2        0.00000   0.00000  -0.00000   0.00000   0.00000
 177       63F-2        0.00000   0.00000   0.00000   0.00000   0.00000
 178       63F+3        0.00000   0.00000   0.00000  -0.00000   0.00000
 179       63F-3        0.00000  -0.00000   0.00000   0.00000   0.00000
 180       64F 0        0.00000   0.00000   0.00000   0.00000   0.00000
 181       64F+1        0.00000   0.00000   0.00000   0.00000   0.00000
 182       64F-1        0.00000   0.00000   0.00000   0.00000   0.00000
 183       64F+2        0.00000   0.00000   0.00000   0.00000   0.00000
 184       64F-2        0.00000   0.00000   0.00000   0.00000   0.00000
 185       64F+3        0.00000   0.00000   0.00000   0.00000   0.00000
 186       64F-3        0.00000   0.00000   0.00000   0.00000   0.00000
 187       65F 0        0.00000   0.00000  -0.00000   0.00000   0.00000
 188       65F+1        0.00000   0.00000   0.00000  -0.00000   0.00000
 189       65F-1        0.00000  -0.00000   0.00000   0.00000   0.00000
 190       65F+2        0.00000   0.00000  -0.00000   0.00000   0.00000
 191       65F-2        0.00000   0.00000   0.00000   0.00000   0.00000
 192       65F+3        0.00000   0.00000   0.00000   0.00000   0.00000
 193       65F-3        0.00000  -0.00000   0.00000   0.00000   0.00000
 194       66G 0       -0.00000   0.00000   0.00000   0.00000  -0.00000
 195       66G+1        0.00000   0.00000   0.00000   0.00000   0.00000
 196       66G-1        0.00000   0.00000   0.00000   0.00000   0.00000
 197       66G+2        0.00000   0.00000   0.00000   0.00000  -0.00000
 198       66G-2        0.00000   0.00000   0.00000   0.00000   0.00000
 199       66G+3        0.00000   0.00000   0.00000   0.00000   0.00000
 200       66G-3        0.00000   0.00000   0.00000   0.00000   0.00000
 201       66G+4       -0.00000   0.00000   0.00000   0.00000   0.00000
 202       66G-4        0.00000   0.00000   0.00000   0.00000   0.00000
 203       67G 0       -0.00000   0.00000   0.00000   0.00000   0.00000
 204       67G+1        0.00000   0.00000   0.00000   0.00000   0.00000
 205       67G-1        0.00000   0.00000   0.00000   0.00000   0.00000
 206       67G+2        0.00000   0.00000   0.00000   0.00000  -0.00000
 207       67G-2        0.00000   0.00000   0.00000   0.00000   0.00000
 208       67G+3        0.00000   0.00000   0.00000   0.00000   0.00000
 209       67G-3        0.00000   0.00000   0.00000   0.00000   0.00000
 210       67G+4       -0.00000   0.00000   0.00000   0.00000   0.00000
 211       67G-4        0.00000   0.00000   0.00000   0.00000   0.00000
 212       68G 0       -0.00000   0.00000   0.00000   0.00000  -0.00000
 213       68G+1        0.00000   0.00000   0.00000   0.00000   0.00000
 214       68G-1        0.00000   0.00000   0.00000   0.00000   0.00000
 215       68G+2        0.00000   0.00000   0.00000   0.00000   0.00000
 216       68G-2        0.00000   0.00000   0.00000   0.00000   0.00000
 217       68G+3        0.00000   0.00000   0.00000   0.00000   0.00000
 218       68G-3        0.00000   0.00000   0.00000   0.00000   0.00000
 219       68G+4       -0.00000   0.00000   0.00000   0.00000  -0.00000
 220       68G-4        0.00000   0.00000   0.00000   0.00000   0.00000
 221       69G 0        0.00000   0.00000   0.00000   0.00000   0.00000
 222       69G+1        0.00000   0.00000   0.00000   0.00000   0.00000
 223       69G-1        0.00000   0.00000   0.00000   0.00000   0.00000
 224       69G+2       -0.00000   0.00000   0.00000   0.00000  -0.00000
 225       69G-2        0.00000   0.00000   0.00000   0.00000   0.00000
 226       69G+3        0.00000   0.00000   0.00000   0.00000   0.00000
 227       69G-3        0.00000   0.00000   0.00000   0.00000   0.00000
 228       69G+4        0.00000   0.00000   0.00000   0.00000   0.00000
 229       69G-4        0.00000   0.00000   0.00000   0.00000   0.00000
 230       70H 0        0.00000   0.00000   0.00000   0.00000   0.00000
 231       70H+1        0.00000   0.00000   0.00000   0.00000   0.00000
 232       70H-1        0.00000  -0.00000   0.00000   0.00000   0.00000
 233       70H+2        0.00000   0.00000  -0.00000   0.00000   0.00000
 234       70H-2        0.00000   0.00000   0.00000   0.00000   0.00000
 235       70H+3        0.00000   0.00000   0.00000  -0.00000   0.00000
 236       70H-3        0.00000  -0.00000   0.00000   0.00000   0.00000
 237       70H+4        0.00000   0.00000   0.00000   0.00000   0.00000
 238       70H-4        0.00000   0.00000   0.00000   0.00000   0.00000
 239       70H+5        0.00000   0.00000   0.00000   0.00000   0.00000
 240       70H-5        0.00000   0.00000   0.00000   0.00000   0.00000
 241       71H 0        0.00000   0.00000   0.00000   0.00000   0.00000
 242       71H+1        0.00000   0.00000   0.00000   0.00000   0.00000
 243       71H-1        0.00000  -0.00000   0.00000   0.00000   0.00000
 244       71H+2        0.00000   0.00000  -0.00000   0.00000   0.00000
 245       71H-2        0.00000   0.00000   0.00000   0.00000   0.00000
 246       71H+3        0.00000   0.00000   0.00000  -0.00000   0.00000
 247       71H-3        0.00000  -0.00000   0.00000   0.00000   0.00000
 248       71H+4        0.00000   0.00000   0.00000   0.00000   0.00000
 249       71H-4        0.00000   0.00000   0.00000   0.00000   0.00000
 250       71H+5        0.00000   0.00000   0.00000   0.00000   0.00000
 251       71H-5        0.00000   0.00000   0.00000   0.00000   0.00000
 252       72H 0        0.00000   0.00000   0.00000   0.00000   0.00000
 253       72H+1        0.00000   0.00000   0.00000  -0.00000   0.00000
 254       72H-1        0.00000   0.00000   0.00000   0.00000   0.00000
 255       72H+2        0.00000   0.00000   0.00000   0.00000   0.00000
 256       72H-2        0.00000   0.00000   0.00000   0.00000   0.00000
 257       72H+3        0.00000   0.00000   0.00000   0.00000   0.00000
 258       72H-3        0.00000   0.00000   0.00000   0.00000   0.00000
 259       72H+4        0.00000   0.00000  -0.00000   0.00000   0.00000
 260       72H-4        0.00000   0.00000   0.00000   0.00000   0.00000
 261       72H+5        0.00000   0.00000   0.00000  -0.00000   0.00000
 262       72H-5        0.00000  -0.00000   0.00000   0.00000   0.00000
                           6         7         8         9        10
                        (EG)--O  (T2G)--O  (T2G)--O   (EG)--O  (T2G)--O
     Eigenvalues --    -0.36886  -0.36886  -0.36886  -0.36886  -0.22590
   1 1   Cr 1S          0.00000   0.00000   0.00000  -0.00000   0.00000
   2        2S         -0.00000   0.00000   0.00000   0.00000   0.00000
   3        3S          0.00000   0.00000   0.00000  -0.00000   0.00000
   4        4S         -0.00000   0.00000   0.00000   0.00000   0.00000
   5        5S          0.00000   0.00000   0.00000  -0.00000   0.00000
   6        6S         -0.00000   0.00000   0.00000   0.00000   0.00000
   7        7S          0.00000   0.00000   0.00000  -0.00000   0.00000
   8        8S         -0.00000   0.00000   0.00000   0.00000   0.00000
   9        9S          0.00000   0.00000   0.00000  -0.00000   0.00000
  10       10S         -0.00000   0.00000   0.00000   0.00000   0.00000
  11       11S          0.00000   0.00000   0.00000  -0.00000   0.00000
  12       12S         -0.00000   0.00000   0.00000   0.00000   0.00000
  13       13S          0.00000   0.00000   0.00000  -0.00000   0.00000
  14       14S         -0.00000   0.00000   0.00000   0.00000   0.00000
  15       15S          0.00000   0.00000   0.00000  -0.00000   0.00000
  16       16S          0.00000   0.00000   0.00000   0.00000   0.00000
  17       17S         -0.00000   0.00000   0.00000  -0.00000   0.00000
  18       18S         -0.00000   0.00000   0.00000  -0.00000   0.00000
  19       19S         -0.00000   0.00000   0.00000   0.00000   0.00000
  20       20S         -0.00000   0.00000   0.00000  -0.00000   0.00000
  21       21S          0.00000   0.00000   0.00000   0.00001   0.00000
  22       22S          0.00000   0.00000   0.00000  -0.00003   0.00000
  23       23S         -0.00000   0.00000   0.00000  -0.00000   0.00000
  24       24S          0.00000   0.00000   0.00000   0.00000   0.00000
  25       25S         -0.00000   0.00000   0.00000   0.00003   0.00000
  26       26PX         0.00000   0.00000   0.00000   0.00000   0.00000
  27       26PY         0.00000   0.00000   0.00000   0.00000   0.00000
  28       26PZ         0.00000   0.00000   0.00000   0.00000   0.00000
  29       27PX         0.00000   0.00000   0.00000   0.00000   0.00000
  30       27PY         0.00000   0.00000   0.00000   0.00000   0.00000
  31       27PZ         0.00000   0.00000   0.00000   0.00000   0.00000
  32       28PX         0.00000   0.00000   0.00000   0.00000   0.00000
  33       28PY         0.00000   0.00000   0.00000   0.00000   0.00000
  34       28PZ         0.00000   0.00000   0.00000   0.00000   0.00000
  35       29PX         0.00000   0.00000   0.00000   0.00000   0.00000
  36       29PY         0.00000   0.00000   0.00000   0.00000   0.00000
  37       29PZ         0.00000   0.00000   0.00000   0.00000   0.00000
  38       30PX         0.00000   0.00000   0.00000   0.00000   0.00000
  39       30PY         0.00000   0.00000   0.00000   0.00000   0.00000
  40       30PZ         0.00000   0.00000   0.00000   0.00000   0.00000
  41       31PX         0.00000   0.00000   0.00000   0.00000   0.00000
  42       31PY         0.00000   0.00000   0.00000   0.00000   0.00000
  43       31PZ         0.00000   0.00000   0.00000   0.00000   0.00000
  44       32PX         0.00000   0.00000   0.00000   0.00000   0.00000
  45       32PY         0.00000   0.00000   0.00000   0.00000   0.00000
  46       32PZ         0.00000   0.00000   0.00000   0.00000   0.00000
  47       33PX         0.00000   0.00000   0.00000   0.00000   0.00000
  48       33PY         0.00000   0.00000   0.00000   0.00000   0.00000
  49       33PZ         0.00000   0.00000   0.00000   0.00000   0.00000
  50       34PX         0.00000   0.00000   0.00000   0.00000   0.00000
  51       34PY         0.00000   0.00000   0.00000   0.00000   0.00000
  52       34PZ         0.00000   0.00000   0.00000   0.00000   0.00000
  53       35PX         0.00000   0.00000   0.00000   0.00000   0.00000
  54       35PY         0.00000   0.00000   0.00000   0.00000   0.00000
  55       35PZ         0.00000   0.00000   0.00000   0.00000   0.00000
  56       36PX         0.00000   0.00000   0.00000   0.00000   0.00000
  57       36PY         0.00000   0.00000   0.00000   0.00000   0.00000
  58       36PZ         0.00000   0.00000   0.00000   0.00000   0.00000
  59       37PX         0.00000   0.00000   0.00000   0.00000   0.00000
  60       37PY         0.00000   0.00000   0.00000   0.00000   0.00000
  61       37PZ         0.00000   0.00000   0.00000   0.00000   0.00000
  62       38PX         0.00000   0.00000   0.00000   0.00000   0.00000
  63       38PY         0.00000   0.00000   0.00000   0.00000   0.00000
  64       38PZ         0.00000   0.00000   0.00000   0.00000   0.00000
  65       39PX         0.00000   0.00000   0.00000   0.00000   0.00000
  66       39PY         0.00000   0.00000   0.00000   0.00000   0.00000
  67       39PZ         0.00000   0.00000   0.00000   0.00000   0.00000
  68       40PX         0.00000   0.00000   0.00000   0.00000   0.00000
  69       40PY         0.00000   0.00000   0.00000   0.00000   0.00000
  70       40PZ         0.00000   0.00000   0.00000   0.00000   0.00000
  71       41PX         0.00000   0.00000   0.00000   0.00000   0.00000
  72       41PY         0.00000   0.00000   0.00000   0.00000   0.00000
  73       41PZ         0.00000   0.00000   0.00000   0.00000   0.00000
  74       42PX         0.00000   0.00000   0.00000   0.00000   0.00000
  75       42PY         0.00000   0.00000   0.00000   0.00000   0.00000
  76       42PZ         0.00000   0.00000   0.00000   0.00000   0.00000
  77       43PX         0.00000   0.00000   0.00000   0.00000   0.00000
  78       43PY         0.00000   0.00000   0.00000   0.00000   0.00000
  79       43PZ         0.00000   0.00000   0.00000   0.00000   0.00000
  80       44PX         0.00000   0.00000   0.00000   0.00000   0.00000
  81       44PY         0.00000   0.00000   0.00000   0.00000   0.00000
  82       44PZ         0.00000   0.00000   0.00000   0.00000   0.00000
  83       45PX         0.00000   0.00000   0.00000   0.00000   0.00000
  84       45PY         0.00000   0.00000   0.00000   0.00000   0.00000
  85       45PZ         0.00000   0.00000   0.00000   0.00000   0.00000
  86       46PX         0.00000   0.00000   0.00000   0.00000   0.00000
  87       46PY         0.00000   0.00000   0.00000   0.00000   0.00000
  88       46PZ         0.00000   0.00000   0.00000   0.00000   0.00000
  89       47D 0        0.00002   0.00000   0.00000   0.00001   0.00000
  90       47D+1        0.00000   0.00002   0.00000   0.00000   0.00000
  91       47D-1        0.00000   0.00000   0.00002   0.00000   0.00000
  92       47D+2       -0.00001   0.00000   0.00000   0.00002   0.00000
  93       47D-2        0.00000   0.00000   0.00000   0.00000   0.00002
  94       48D 0       -0.00005   0.00000   0.00000  -0.00002   0.00000
  95       48D+1        0.00000  -0.00005   0.00000   0.00000   0.00000
  96       48D-1        0.00000   0.00000  -0.00005   0.00000   0.00000
  97       48D+2        0.00002   0.00000   0.00000  -0.00005   0.00000
  98       48D-2        0.00000   0.00000   0.00000   0.00000  -0.00005
  99       49D 0        0.00911   0.00000   0.00000   0.00352   0.00000
 100       49D+1        0.00000   0.00976   0.00000   0.00000   0.00000
 101       49D-1        0.00000   0.00000   0.00976   0.00000   0.00000
 102       49D+2       -0.00352   0.00000   0.00000   0.00911   0.00000
 103       49D-2        0.00000   0.00000   0.00000   0.00000   0.00976
 104       50D 0        0.04441   0.00000   0.00000   0.01715   0.00000
 105       50D+1        0.00000   0.04760   0.00000   0.00000   0.00000
 106       50D-1        0.00000   0.00000   0.04760   0.00000   0.00000
 107       50D+2       -0.01715   0.00000   0.00000   0.04441   0.00000
 108       50D-2        0.00000   0.00000   0.00000   0.00000   0.04760
 109       51D 0        0.10835   0.00000   0.00000   0.04185   0.00000
 110       51D+1        0.00000   0.11615   0.00000   0.00000   0.00000
 111       51D-1        0.00000   0.00000   0.11615   0.00000   0.00000
 112       51D+2       -0.04185   0.00000   0.00000   0.10835   0.00000
 113       51D-2        0.00000   0.00000   0.00000   0.00000   0.11615
 114       52D 0        0.18962   0.00000   0.00000   0.07323   0.00000
 115       52D+1        0.00000   0.20327   0.00000   0.00000   0.00000
 116       52D-1        0.00000   0.00000   0.20327   0.00000   0.00000
 117       52D+2       -0.07323   0.00000   0.00000   0.18962   0.00000
 118       52D-2        0.00000   0.00000   0.00000   0.00000   0.20327
 119       53D 0        0.27340   0.00000   0.00000   0.10559   0.00000
 120       53D+1        0.00000   0.29308   0.00000   0.00000   0.00000
 121       53D-1        0.00000   0.00000   0.29308   0.00000   0.00000
 122       53D+2       -0.10559   0.00000   0.00000   0.27340   0.00000
 123       53D-2        0.00000   0.00000   0.00000   0.00000   0.29308
 124       54D 0        0.28399   0.00000   0.00000   0.10968   0.00000
 125       54D+1        0.00000   0.30444   0.00000   0.00000   0.00000
 126       54D-1        0.00000   0.00000   0.30444   0.00000   0.00000
 127       54D+2       -0.10968   0.00000   0.00000   0.28399   0.00000
 128       54D-2        0.00000   0.00000   0.00000   0.00000   0.30444
 129       55D 0        0.22403   0.00000   0.00000   0.08652   0.00000
 130       55D+1        0.00000   0.24015   0.00000   0.00000   0.00000
 131       55D-1        0.00000   0.00000   0.24015   0.00000   0.00000
 132       55D+2       -0.08652   0.00000   0.00000   0.22403   0.00000
 133       55D-2        0.00000   0.00000   0.00000   0.00000   0.24015
 134       56D 0        0.11312   0.00000   0.00000   0.04369   0.00000
 135       56D+1        0.00000   0.12126   0.00000   0.00000   0.00000
 136       56D-1        0.00000   0.00000   0.12126   0.00000   0.00000
 137       56D+2       -0.04369   0.00000   0.00000   0.11312   0.00000
 138       56D-2        0.00000   0.00000   0.00000   0.00000   0.12126
 139       57D 0        0.01618   0.00000   0.00000   0.00625   0.00000
 140       57D+1        0.00000   0.01734   0.00000   0.00000   0.00000
 141       57D-1        0.00000   0.00000   0.01734   0.00000   0.00000
 142       57D+2       -0.00625   0.00000   0.00000   0.01618   0.00000
 143       57D-2        0.00000   0.00000   0.00000   0.00000   0.01734
 144       58D 0        0.01684   0.00000   0.00000   0.00650   0.00000
 145       58D+1        0.00000   0.01805   0.00000   0.00000   0.00000
 146       58D-1        0.00000   0.00000   0.01805   0.00000   0.00000
 147       58D+2       -0.00650   0.00000   0.00000   0.01684   0.00000
 148       58D-2        0.00000   0.00000   0.00000   0.00000   0.01805
 149       59D 0        0.01508   0.00000   0.00000   0.00582   0.00000
 150       59D+1        0.00000   0.01616   0.00000   0.00000   0.00000
 151       59D-1        0.00000   0.00000   0.01616   0.00000   0.00000
 152       59D+2       -0.00582   0.00000   0.00000   0.01508   0.00000
 153       59D-2        0.00000   0.00000   0.00000   0.00000   0.01616
 154       60D 0       -0.00056   0.00000   0.00000  -0.00022   0.00000
 155       60D+1        0.00000  -0.00060   0.00000   0.00000   0.00000
 156       60D-1        0.00000   0.00000  -0.00060   0.00000   0.00000
 157       60D+2        0.00022   0.00000   0.00000  -0.00056   0.00000
 158       60D-2        0.00000   0.00000   0.00000   0.00000  -0.00060
 159       61F 0        0.00000   0.00000   0.00000   0.00000   0.00000
 160       61F+1        0.00000   0.00000   0.00000   0.00000   0.00000
 161       61F-1        0.00000   0.00000   0.00000   0.00000   0.00000
 162       61F+2        0.00000   0.00000   0.00000   0.00000   0.00000
 163       61F-2        0.00000   0.00000   0.00000   0.00000   0.00000
 164       61F+3        0.00000   0.00000   0.00000   0.00000   0.00000
 165       61F-3        0.00000   0.00000   0.00000   0.00000   0.00000
 166       62F 0        0.00000   0.00000   0.00000   0.00000   0.00000
 167       62F+1        0.00000   0.00000   0.00000   0.00000   0.00000
 168       62F-1        0.00000   0.00000   0.00000   0.00000   0.00000
 169       62F+2        0.00000   0.00000   0.00000   0.00000   0.00000
 170       62F-2        0.00000   0.00000   0.00000   0.00000   0.00000
 171       62F+3        0.00000   0.00000   0.00000   0.00000   0.00000
 172       62F-3        0.00000   0.00000   0.00000   0.00000   0.00000
 173       63F 0        0.00000   0.00000   0.00000   0.00000   0.00000
 174       63F+1        0.00000   0.00000   0.00000   0.00000   0.00000
 175       63F-1        0.00000   0.00000   0.00000   0.00000   0.00000
 176       63F+2        0.00000   0.00000   0.00000   0.00000   0.00000
 177       63F-2        0.00000   0.00000   0.00000   0.00000   0.00000
 178       63F+3        0.00000   0.00000   0.00000   0.00000   0.00000
 179       63F-3        0.00000   0.00000   0.00000   0.00000   0.00000
 180       64F 0        0.00000   0.00000   0.00000   0.00000   0.00000
 181       64F+1        0.00000   0.00000   0.00000   0.00000   0.00000
 182       64F-1        0.00000   0.00000   0.00000   0.00000   0.00000
 183       64F+2        0.00000   0.00000   0.00000   0.00000   0.00000
 184       64F-2        0.00000   0.00000   0.00000   0.00000   0.00000
 185       64F+3        0.00000   0.00000   0.00000   0.00000   0.00000
 186       64F-3        0.00000   0.00000   0.00000   0.00000   0.00000
 187       65F 0        0.00000   0.00000   0.00000   0.00000   0.00000
 188       65F+1        0.00000   0.00000   0.00000   0.00000   0.00000
 189       65F-1        0.00000   0.00000   0.00000   0.00000   0.00000
 190       65F+2        0.00000   0.00000   0.00000   0.00000   0.00000
 191       65F-2        0.00000   0.00000   0.00000   0.00000   0.00000
 192       65F+3        0.00000   0.00000   0.00000   0.00000   0.00000
 193       65F-3        0.00000   0.00000   0.00000   0.00000   0.00000
 194       66G 0        0.00000   0.00000   0.00000   0.00000   0.00000
 195       66G+1        0.00000   0.00000   0.00000   0.00000   0.00000
 196       66G-1        0.00000   0.00000   0.00000   0.00000   0.00000
 197       66G+2        0.00000   0.00000   0.00000   0.00000   0.00000
 198       66G-2        0.00000   0.00000   0.00000   0.00000   0.00000
 199       66G+3        0.00000   0.00000   0.00000   0.00000   0.00000
 200       66G-3        0.00000   0.00000   0.00000   0.00000   0.00000
 201       66G+4       -0.00000   0.00000   0.00000   0.00000   0.00000
 202       66G-4        0.00000   0.00000   0.00000   0.00000   0.00000
 203       67G 0       -0.00000   0.00000   0.00000  -0.00000   0.00000
 204       67G+1        0.00000   0.00000   0.00000   0.00000   0.00000
 205       67G-1        0.00000   0.00000  -0.00000   0.00000   0.00000
 206       67G+2       -0.00000   0.00000   0.00000  -0.00000   0.00000
 207       67G-2        0.00000   0.00000   0.00000   0.00000  -0.00000
 208       67G+3        0.00000  -0.00000   0.00000   0.00000   0.00000
 209       67G-3        0.00000   0.00000  -0.00000   0.00000   0.00000
 210       67G+4        0.00000   0.00000   0.00000  -0.00000   0.00000
 211       67G-4        0.00000   0.00000   0.00000   0.00000  -0.00000
 212       68G 0       -0.00000   0.00000   0.00000  -0.00000   0.00000
 213       68G+1        0.00000   0.00000   0.00000   0.00000   0.00000
 214       68G-1        0.00000   0.00000  -0.00000   0.00000   0.00000
 215       68G+2       -0.00000   0.00000   0.00000  -0.00000   0.00000
 216       68G-2        0.00000   0.00000   0.00000   0.00000  -0.00000
 217       68G+3        0.00000  -0.00000   0.00000   0.00000   0.00000
 218       68G-3        0.00000   0.00000  -0.00000   0.00000   0.00000
 219       68G+4        0.00000   0.00000   0.00000  -0.00000   0.00000
 220       68G-4        0.00000   0.00000   0.00000   0.00000  -0.00000
 221       69G 0       -0.00000   0.00000   0.00000  -0.00000   0.00000
 222       69G+1        0.00000  -0.00000   0.00000   0.00000   0.00000
 223       69G-1        0.00000   0.00000  -0.00000   0.00000   0.00000
 224       69G+2       -0.00000   0.00000   0.00000  -0.00000   0.00000
 225       69G-2        0.00000   0.00000   0.00000   0.00000  -0.00000
 226       69G+3        0.00000  -0.00000   0.00000   0.00000   0.00000
 227       69G-3        0.00000   0.00000  -0.00000   0.00000   0.00000
 228       69G+4        0.00000   0.00000   0.00000  -0.00000   0.00000
 229       69G-4        0.00000   0.00000   0.00000   0.00000  -0.00000
 230       70H 0        0.00000   0.00000   0.00000   0.00000   0.00000
 231       70H+1        0.00000   0.00000   0.00000   0.00000   0.00000
 232       70H-1        0.00000   0.00000   0.00000   0.00000   0.00000
 233       70H+2        0.00000   0.00000   0.00000   0.00000   0.00000
 234       70H-2        0.00000   0.00000   0.00000   0.00000   0.00000
 235       70H+3        0.00000   0.00000   0.00000   0.00000   0.00000
 236       70H-3        0.00000   0.00000   0.00000   0.00000   0.00000
 237       70H+4        0.00000   0.00000   0.00000   0.00000   0.00000
 238       70H-4        0.00000   0.00000   0.00000   0.00000   0.00000
 239       70H+5        0.00000   0.00000   0.00000   0.00000   0.00000
 240       70H-5        0.00000   0.00000   0.00000   0.00000   0.00000
 241       71H 0        0.00000   0.00000   0.00000   0.00000   0.00000
 242       71H+1        0.00000   0.00000   0.00000   0.00000   0.00000
 243       71H-1        0.00000   0.00000   0.00000   0.00000   0.00000
 244       71H+2        0.00000   0.00000   0.00000   0.00000   0.00000
 245       71H-2        0.00000   0.00000   0.00000   0.00000   0.00000
 246       71H+3        0.00000   0.00000   0.00000   0.00000   0.00000
 247       71H-3        0.00000   0.00000   0.00000   0.00000   0.00000
 248       71H+4        0.00000   0.00000   0.00000   0.00000   0.00000
 249       71H-4        0.00000   0.00000   0.00000   0.00000   0.00000
 250       71H+5        0.00000   0.00000   0.00000   0.00000   0.00000
 251       71H-5        0.00000   0.00000   0.00000   0.00000   0.00000
 252       72H 0        0.00000   0.00000   0.00000   0.00000   0.00000
 253       72H+1        0.00000   0.00000   0.00000   0.00000   0.00000
 254       72H-1        0.00000   0.00000   0.00000   0.00000   0.00000
 255       72H+2        0.00000   0.00000   0.00000   0.00000   0.00000
 256       72H-2        0.00000   0.00000   0.00000   0.00000   0.00000
 257       72H+3        0.00000   0.00000   0.00000   0.00000   0.00000
 258       72H-3        0.00000   0.00000   0.00000   0.00000   0.00000
 259       72H+4        0.00000   0.00000   0.00000   0.00000   0.00000
 260       72H-4        0.00000   0.00000   0.00000   0.00000   0.00000
 261       72H+5        0.00000   0.00000   0.00000   0.00000   0.00000
 262       72H-5        0.00000   0.00000   0.00000   0.00000   0.00000
                          11        12        13        14        15
                       (T1U)--V  (T1U)--V  (T1U)--V  (A1G)--V  (T2G)--V
     Eigenvalues --     0.01708   0.01708   0.01708   0.02418   0.05524
   1 1   Cr 1S          0.00000   0.00000   0.00000   0.00000   0.00000
   2        2S          0.00000   0.00000   0.00000  -0.00000   0.00000
   3        3S          0.00000   0.00000   0.00000   0.00000   0.00000
   4        4S          0.00000   0.00000   0.00000  -0.00000   0.00000
   5        5S          0.00000   0.00000   0.00000   0.00000   0.00000
   6        6S          0.00000   0.00000   0.00000  -0.00000   0.00000
   7        7S          0.00000   0.00000   0.00000   0.00001   0.00000
   8        8S          0.00000   0.00000   0.00000  -0.00002   0.00000
   9        9S          0.00000   0.00000   0.00000   0.00007   0.00000
  10       10S          0.00000   0.00000   0.00000  -0.00020   0.00000
  11       11S          0.00000   0.00000   0.00000   0.00053   0.00000
  12       12S          0.00000   0.00000   0.00000  -0.00132   0.00000
  13       13S          0.00000   0.00000   0.00000   0.00316   0.00000
  14       14S          0.00000   0.00000   0.00000  -0.01060   0.00000
  15       15S          0.00000   0.00000   0.00000   0.02319   0.00000
  16       16S          0.00000   0.00000   0.00000  -0.07064   0.00000
  17       17S          0.00000   0.00000   0.00000   0.08063   0.00000
  18       18S          0.00000   0.00000   0.00000   0.31649   0.00000
  19       19S          0.00000   0.00000   0.00000  -0.18200   0.00000
  20       20S          0.00000   0.00000   0.00000   0.45190   0.00000
  21       21S          0.00000   0.00000   0.00000  -1.07222   0.00000
  22       22S          0.00000   0.00000   0.00000   2.72306   0.00000
  23       23S          0.00000   0.00000   0.00000   0.06703   0.00000
  24       24S          0.00000   0.00000   0.00000  -0.36374   0.00000
  25       25S          0.00000   0.00000   0.00000  -2.54265   0.00000
  26       26PX         0.00000   0.00000  -0.00000   0.00000   0.00000
  27       26PY        -0.00000   0.00000   0.00000   0.00000   0.00000
  28       26PZ         0.00000  -0.00000   0.00000   0.00000   0.00000
  29       27PX         0.00000   0.00000   0.00000   0.00000   0.00000
  30       27PY         0.00000   0.00000   0.00000   0.00000   0.00000
  31       27PZ         0.00000   0.00000   0.00000   0.00000   0.00000
  32       28PX         0.00000   0.00000  -0.00000   0.00000   0.00000
  33       28PY        -0.00000   0.00000   0.00000   0.00000   0.00000
  34       28PZ         0.00000  -0.00000   0.00000   0.00000   0.00000
  35       29PX         0.00000   0.00000   0.00001   0.00000   0.00000
  36       29PY         0.00001   0.00000   0.00000   0.00000   0.00000
  37       29PZ         0.00000   0.00001   0.00000   0.00000   0.00000
  38       30PX         0.00000   0.00000  -0.00002   0.00000   0.00000
  39       30PY        -0.00002   0.00000   0.00000   0.00000   0.00000
  40       30PZ         0.00000  -0.00002   0.00000   0.00000   0.00000
  41       31PX         0.00000   0.00000   0.00007   0.00000   0.00000
  42       31PY         0.00007   0.00000   0.00000   0.00000   0.00000
  43       31PZ         0.00000   0.00007   0.00000   0.00000   0.00000
  44       32PX         0.00000   0.00000  -0.00021   0.00000   0.00000
[...]
  41       31PX        -0.00000  -0.00000  -0.00000  -0.00000
  42       31PY        -0.00000  -0.00000  -0.00000  -0.00000
  43       31PZ        -0.00000  -0.00000  -0.00000   0.00000
  44       32PX         0.00001   0.00000   0.00000  -0.00000
  45       32PY         0.00001   0.00000   0.00000   0.00000
  46       32PZ         0.00001   0.00000   0.00000  -0.00000
  47       33PX        -0.00011  -0.00005  -0.00005   0.00000
  48       33PY        -0.00011  -0.00005  -0.00005  -0.00000
  49       33PZ        -0.00011  -0.00005  -0.00005   0.00000
  50       34PX         0.00333   0.00167   0.00167  -0.00000
  51       34PY         0.00333   0.00167   0.00167   0.00000
  52       34PZ         0.00333   0.00167   0.00167  -0.00000
  53       35PX        -0.03733  -0.01867  -0.01867   0.00000
  54       35PY        -0.03733  -0.01867  -0.01867  -0.00000
  55       35PZ        -0.03733  -0.01867  -0.01867   0.00000
  56       36PX        -0.03411  -0.01705  -0.01705   0.00000
  57       36PY        -0.03411  -0.01705  -0.01705  -0.00000
  58       36PZ        -0.03411  -0.01705  -0.01705   0.00000
  59       37PX         0.30092   0.15046   0.15046  -0.00000
  60       37PY         0.30092   0.15046   0.15046   0.00000
  61       37PZ         0.30092   0.15046   0.15046  -0.00000
  62       38PX         0.66116   0.33058   0.33058  -0.00000
  63       38PY         0.66116   0.33058   0.33058   0.00000
  64       38PZ         0.66116   0.33058   0.33058  -0.00000
  65       39PX         0.73046   0.36523   0.36523  -0.00000
  66       39PY         0.73046   0.36523   0.36523   0.00000
  67       39PZ         0.73046   0.36523   0.36523  -0.00000
  68       40PX         0.27077   0.13538   0.13538   0.00000
  69       40PY         0.27077   0.13538   0.13538  -0.00000
  70       40PZ         0.27077   0.13538   0.13538   0.00000
  71       41PX         0.01755   0.00877   0.00877   0.00000
  72       41PY         0.01755   0.00877   0.00877  -0.00000
  73       41PZ         0.01755   0.00877   0.00877   0.00000
  74       42PX        -0.00040  -0.00020  -0.00020  -0.00000
  75       42PY        -0.00040  -0.00020  -0.00020   0.00000
  76       42PZ        -0.00040  -0.00020  -0.00020  -0.00000
  77       43PX         0.00011   0.00006   0.00006  -0.00000
  78       43PY         0.00011   0.00006   0.00006   0.00000
  79       43PZ         0.00011   0.00006   0.00006  -0.00000
  80       44PX        -0.01578  -0.00789  -0.00789  -0.00000
  81       44PY        -0.01578  -0.00789  -0.00789   0.00000
  82       44PZ        -0.01578  -0.00789  -0.00789  -0.00000
  83       45PX         0.10342   0.05171   0.05171   0.00000
  84       45PY         0.10342   0.05171   0.05171  -0.00000
  85       45PZ         0.10342   0.05171   0.05171   0.00000
  86       46PX        -0.00001  -0.00001  -0.00001   0.00000
  87       46PY        -0.00001  -0.00001  -0.00001  -0.00000
  88       46PZ        -0.00001  -0.00001  -0.00001   0.00000
  89       47D 0        0.00000   0.00000   0.00000   0.00000
  90       47D+1        0.00000   0.00000   0.00000   0.00000
  91       47D-1        0.00000   0.00000   0.00000   0.00000
  92       47D+2        0.00000   0.00000   0.00000   0.00000
  93       47D-2        0.00000   0.00000   0.00000   0.00000
  94       48D 0       -0.00000  -0.00000   0.00000  -0.00000
  95       48D+1       -0.00000  -0.00000   0.00000  -0.00000
  96       48D-1       -0.00000  -0.00000   0.00000  -0.00000
  97       48D+2       -0.00000  -0.00000   0.00000  -0.00000
  98       48D-2       -0.00000  -0.00000   0.00000  -0.00000
  99       49D 0        0.00129   0.00129   0.00000   0.00129
 100       49D+1        0.00129   0.00129   0.00000   0.00129
 101       49D-1        0.00129   0.00129   0.00000   0.00129
 102       49D+2        0.00129   0.00129   0.00000   0.00129
 103       49D-2        0.00129   0.00129   0.00000   0.00129
 104       50D 0        0.01416   0.01416   0.00000   0.01416
 105       50D+1        0.01416   0.01416   0.00000   0.01416
 106       50D-1        0.01416   0.01416   0.00000   0.01416
 107       50D+2        0.01416   0.01416   0.00000   0.01416
 108       50D-2        0.01416   0.01416   0.00000   0.01416
 109       51D 0        0.06036   0.06036   0.00000   0.06036
 110       51D+1        0.06036   0.06036   0.00000   0.06036
 111       51D-1        0.06036   0.06036   0.00000   0.06036
 112       51D+2        0.06036   0.06036   0.00000   0.06036
 113       51D-2        0.06036   0.06036   0.00000   0.06036
 114       52D 0        0.14964   0.14964   0.00000   0.14964
 115       52D+1        0.14964   0.14964   0.00000   0.14964
 116       52D-1        0.14964   0.14964   0.00000   0.14964
 117       52D+2        0.14964   0.14964   0.00000   0.14964
 118       52D-2        0.14964   0.14964   0.00000   0.14964
 119       53D 0        0.25595   0.25595  -0.00000   0.25595
 120       53D+1        0.25595   0.25595  -0.00000   0.25595
 121       53D-1        0.25595   0.25595  -0.00000   0.25595
 122       53D+2        0.25595   0.25595  -0.00000   0.25595
 123       53D-2        0.25595   0.25595  -0.00000   0.25595
 124       54D 0        0.26467   0.26467   0.00000   0.26467
 125       54D+1        0.26467   0.26467   0.00000   0.26467
 126       54D-1        0.26467   0.26467   0.00000   0.26467
 127       54D+2        0.26467   0.26467   0.00000   0.26467
 128       54D-2        0.26467   0.26467   0.00000   0.26467
 129       55D 0        0.17078   0.17078   0.00000   0.17078
 130       55D+1        0.17078   0.17078   0.00000   0.17078
 131       55D-1        0.17078   0.17078   0.00000   0.17078
 132       55D+2        0.17078   0.17078   0.00000   0.17078
 133       55D-2        0.17078   0.17078   0.00000   0.17078
 134       56D 0        0.05499   0.05499   0.00000   0.05499
 135       56D+1        0.05499   0.05499   0.00000   0.05499
 136       56D-1        0.05499   0.05499   0.00000   0.05499
 137       56D+2        0.05499   0.05499   0.00000   0.05499
 138       56D-2        0.05499   0.05499   0.00000   0.05499
 139       57D 0        0.00352   0.00352   0.00000   0.00352
 140       57D+1        0.00352   0.00352   0.00000   0.00352
 141       57D-1        0.00352   0.00352   0.00000   0.00352
 142       57D+2        0.00352   0.00352   0.00000   0.00352
 143       57D-2        0.00352   0.00352   0.00000   0.00352
 144       58D 0        0.01163   0.01163  -0.00000   0.01163
 145       58D+1        0.01163   0.01163  -0.00000   0.01163
 146       58D-1        0.01163   0.01163  -0.00000   0.01163
 147       58D+2        0.01163   0.01163  -0.00000   0.01163
 148       58D-2        0.01163   0.01163  -0.00000   0.01163
 149       59D 0        0.01305   0.01305   0.00000   0.01305
 150       59D+1        0.01305   0.01305   0.00000   0.01305
 151       59D-1        0.01305   0.01305   0.00000   0.01305
 152       59D+2        0.01305   0.01305   0.00000   0.01305
 153       59D-2        0.01305   0.01305   0.00000   0.01305
 154       60D 0       -0.00004  -0.00004   0.00000  -0.00004
 155       60D+1       -0.00004  -0.00004   0.00000  -0.00004
 156       60D-1       -0.00004  -0.00004   0.00000  -0.00004
 157       60D+2       -0.00004  -0.00004   0.00000  -0.00004
 158       60D-2       -0.00004  -0.00004   0.00000  -0.00004
 159       61F 0        0.00000   0.00000   0.00000  -0.00000
 160       61F+1        0.00000   0.00000   0.00000  -0.00000
 161       61F-1        0.00000   0.00000   0.00000  -0.00000
 162       61F+2        0.00000   0.00000   0.00000   0.00000
 163       61F-2        0.00000   0.00000   0.00000  -0.00000
 164       61F+3        0.00000   0.00000   0.00000   0.00000
 165       61F-3        0.00000   0.00000   0.00000   0.00000
 166       62F 0       -0.00000  -0.00000  -0.00000   0.00000
 167       62F+1       -0.00000   0.00000  -0.00000   0.00000
 168       62F-1       -0.00000  -0.00000  -0.00000   0.00000
 169       62F+2       -0.00000  -0.00000  -0.00000  -0.00000
 170       62F-2       -0.00000  -0.00000  -0.00000   0.00000
 171       62F+3       -0.00000  -0.00000  -0.00000  -0.00000
 172       62F-3       -0.00000  -0.00000  -0.00000  -0.00000
 173       63F 0        0.00000   0.00000   0.00000  -0.00000
 174       63F+1        0.00000  -0.00000   0.00000  -0.00000
 175       63F-1        0.00000   0.00000   0.00000  -0.00000
 176       63F+2        0.00000   0.00000   0.00000   0.00000
 177       63F-2        0.00000   0.00000   0.00000  -0.00000
 178       63F+3        0.00000   0.00000   0.00000   0.00000
 179       63F-3        0.00000   0.00000   0.00000   0.00000
 180       64F 0       -0.00000  -0.00000  -0.00000   0.00000
 181       64F+1       -0.00000   0.00000  -0.00000   0.00000
 182       64F-1       -0.00000  -0.00000  -0.00000   0.00000
 183       64F+2       -0.00000  -0.00000  -0.00000  -0.00000
 184       64F-2       -0.00000  -0.00000  -0.00000   0.00000
 185       64F+3       -0.00000  -0.00000  -0.00000  -0.00000
 186       64F-3       -0.00000  -0.00000  -0.00000  -0.00000
 187       65F 0        0.00000   0.00000   0.00000  -0.00000
 188       65F+1        0.00000   0.00000   0.00000  -0.00000
 189       65F-1        0.00000   0.00000   0.00000  -0.00000
 190       65F+2        0.00000   0.00000   0.00000   0.00000
 191       65F-2        0.00000   0.00000   0.00000  -0.00000
 192       65F+3        0.00000   0.00000   0.00000  -0.00000
 193       65F-3        0.00000   0.00000   0.00000  -0.00000
 194       66G 0        0.00000   0.00000   0.00000   0.00000
 195       66G+1        0.00000   0.00000   0.00000   0.00000
 196       66G-1        0.00000   0.00000   0.00000   0.00000
 197       66G+2        0.00000   0.00000   0.00000   0.00000
 198       66G-2        0.00000   0.00000   0.00000   0.00000
 199       66G+3        0.00000   0.00000   0.00000   0.00000
 200       66G-3        0.00000   0.00000   0.00000   0.00000
 201       66G+4        0.00000   0.00000   0.00000   0.00000
 202       66G-4        0.00000   0.00000   0.00000   0.00000
 203       67G 0        0.00000   0.00000   0.00000   0.00000
 204       67G+1        0.00000   0.00000   0.00000   0.00000
 205       67G-1        0.00000   0.00000   0.00000   0.00000
 206       67G+2        0.00000   0.00000   0.00000   0.00000
 207       67G-2        0.00000   0.00000   0.00000   0.00000
 208       67G+3        0.00000   0.00000   0.00000   0.00000
 209       67G-3        0.00000   0.00000   0.00000   0.00000
 210       67G+4        0.00000   0.00000   0.00000   0.00000
 211       67G-4        0.00000   0.00000   0.00000   0.00000
 212       68G 0        0.00000   0.00000   0.00000   0.00000
 213       68G+1        0.00000   0.00000   0.00000   0.00000
 214       68G-1        0.00000   0.00000   0.00000   0.00000
 215       68G+2        0.00000   0.00000   0.00000   0.00000
 216       68G-2        0.00000   0.00000   0.00000   0.00000
 217       68G+3        0.00000   0.00000   0.00000   0.00000
 218       68G-3        0.00000   0.00000   0.00000   0.00000
 219       68G+4        0.00000   0.00000   0.00000   0.00000
 220       68G-4        0.00000   0.00000   0.00000   0.00000
 221       69G 0        0.00000   0.00000   0.00000   0.00000
 222       69G+1        0.00000   0.00000   0.00000   0.00000
 223       69G-1        0.00000   0.00000   0.00000   0.00000
 224       69G+2        0.00000   0.00000   0.00000   0.00000
 225       69G-2        0.00000   0.00000   0.00000   0.00000
 226       69G+3        0.00000   0.00000   0.00000   0.00000
 227       69G-3        0.00000   0.00000   0.00000   0.00000
 228       69G+4        0.00000   0.00000   0.00000   0.00000
 229       69G-4        0.00000   0.00000   0.00000   0.00000
 230       70H 0        0.00000   0.00000   0.00000  -0.00000
 231       70H+1        0.00000   0.00000   0.00000  -0.00000
 232       70H-1        0.00000   0.00000   0.00000  -0.00000
 233       70H+2        0.00000   0.00000   0.00000   0.00000
 234       70H-2        0.00000   0.00000   0.00000  -0.00000
 235       70H+3        0.00000   0.00000   0.00000   0.00000
 236       70H-3        0.00000   0.00000   0.00000   0.00000
 237       70H+4        0.00000   0.00000   0.00000  -0.00000
 238       70H-4        0.00000   0.00000   0.00000  -0.00000
 239       70H+5        0.00000   0.00000   0.00000  -0.00000
 240       70H-5        0.00000   0.00000   0.00000  -0.00000
 241       71H 0        0.00000   0.00000   0.00000  -0.00000
 242       71H+1        0.00000   0.00000   0.00000  -0.00000
 243       71H-1        0.00000   0.00000   0.00000  -0.00000
 244       71H+2        0.00000   0.00000   0.00000   0.00000
 245       71H-2        0.00000   0.00000   0.00000  -0.00000
 246       71H+3        0.00000   0.00000   0.00000   0.00000
 247       71H-3        0.00000   0.00000   0.00000   0.00000
 248       71H+4        0.00000   0.00000   0.00000  -0.00000
 249       71H-4        0.00000   0.00000   0.00000  -0.00000
 250       71H+5        0.00000   0.00000   0.00000  -0.00000
 251       71H-5        0.00000   0.00000   0.00000  -0.00000
 252       72H 0       -0.00000   0.00000  -0.00000   0.00000
 253       72H+1        0.00000   0.00000  -0.00000   0.00000
 254       72H-1        0.00000   0.00000  -0.00000   0.00000
 255       72H+2       -0.00000  -0.00000  -0.00000  -0.00000
 256       72H-2       -0.00000   0.00000  -0.00000   0.00000
 257       72H+3       -0.00000  -0.00000  -0.00000  -0.00000
 258       72H-3       -0.00000  -0.00000  -0.00000  -0.00000
 259       72H+4       -0.00000  -0.00000  -0.00000  -0.00000
 260       72H-4       -0.00000  -0.00000  -0.00000  -0.00000
 261       72H+5       -0.00000  -0.00000  -0.00000  -0.00000
 262       72H-5       -0.00000  -0.00000  -0.00000  -0.00000
          Condensed to atoms (all electrons):
               1
     1  Cr  14.000000
          Atomic-Atomic Spin Densities.
               1
     1  Cr   6.000000
 Mulliken charges and spin densities:
               1          2
     1  Cr  -0.000000   6.000000
 Sum of Mulliken charges =  -0.00000   6.00000
 Mulliken charges and spin densities with hydrogens summed into heavy atoms:
               1          2
     1  Cr  -0.000000   6.000000
 Electronic spatial extent (au):  <R**2>=             36.7019
 Charge=              0.0000 electrons
 Dipole moment (field-independent basis, Debye):
    X=              0.0000    Y=              0.0000    Z=              0.0000  Tot=              0.0000
 Quadrupole moment (field-independent basis, Debye-Ang):
   XX=            -16.4551   YY=            -16.4551   ZZ=            -16.4551
   XY=              0.0000   XZ=             -0.0000   YZ=             -0.0000
 Traceless Quadrupole moment (field-independent basis, Debye-Ang):
   XX=              0.0000   YY=             -0.0000   ZZ=              0.0000
   XY=              0.0000   XZ=             -0.0000   YZ=             -0.0000
 Octapole moment (field-independent basis, Debye-Ang**2):
  XXX=              0.0000  YYY=              0.0000  ZZZ=              0.0000  XYY=              0.0000
  XXY=              0.0000  XXZ=              0.0000  XZZ=              0.0000  YZZ=              0.0000
  YYZ=              0.0000  XYZ=              0.0000
 Hexadecapole moment (field-independent basis, Debye-Ang**3):
 XXXX=            -38.7805 YYYY=            -38.7804 ZZZZ=            -38.7805 XXXY=             -0.0000
 XXXZ=              0.0000 YYYX=             -0.0000 YYYZ=              0.0000 ZZZX=              0.0000
 ZZZY=              0.0000 XXYY=            -12.9268 XXZZ=            -12.9268 YYZZ=            -12.9268
 XXYZ=              0.0000 YYXZ=              0.0000 ZZXY=             -0.0000
 N-N= 0.000000000000D+00 E-N=-1.969909046749D+02  KE= 4.610648098996D+01
 Symmetry AG   KE= 1.348688735672D+01
 Symmetry B1G  KE= 4.747736060149D+00
 Symmetry B2G  KE= 4.747735994319D+00
 Symmetry B3G  KE= 4.747736096186D+00
 Symmetry AU   KE= 2.576835739369D-49
 Symmetry B1U  KE= 6.125461822482D+00
 Symmetry B2U  KE= 6.125461844784D+00
 Symmetry B3U  KE= 6.125461816654D+00
 Symmetry AG   SP= 3.000000000000D+00
 Symmetry B1G  SP= 1.000000000000D+00
 Symmetry B2G  SP= 1.000000000000D+00
 Symmetry B3G  SP= 1.000000000000D+00
 Symmetry AU   SP=-3.175339000394D-50
 Symmetry B1U  SP=-2.159064777938D-15
 Symmetry B2U  SP=-1.402460514317D-15
 Symmetry B3U  SP= 1.253491827551D-15
 Orbital energies and kinetic energies (alpha):
                                 1                 2
   1         (A1G)--O         -3.568710          1.858314
   2         (T1U)--O         -2.325441          3.062731
   3         (T1U)--O         -2.325441          3.062731
   4         (T1U)--O         -2.325441          3.062731
   5         (A1G)--O         -0.368855          0.274787
   6         (EG)--O          -0.368855          4.747736
   7         (T2G)--O         -0.368855          4.747736
   8         (T2G)--O         -0.368855          4.747736
   9         (EG)--O          -0.368855          4.747736
  10         (T2G)--O         -0.225899          4.747736
  11         (T1U)--V          0.017082          0.035790
  12         (T1U)--V          0.017082          0.035790
  13         (T1U)--V          0.017082          0.035790
  14         (A1G)--V          0.024181          0.035911
  15         (T2G)--V          0.055237          0.062743
 Total kinetic energy from orbitals= 7.011994788769D+01
                          Isotropic Fermi Contact Couplings
        Atom                 a.u.       MegaHertz       Gauss      10(-4) cm-1
     1  Cr(53)             0.00005      -0.00193      -0.00069      -0.00064
 --------------------------------------------------------
       Center         ----  Spin Dipole Couplings  ----
                      3XX-RR        3YY-RR        3ZZ-RR
 --------------------------------------------------------
     1   Atom        0.000001     -0.000002      0.000001
 --------------------------------------------------------
                        XY            XZ            YZ
 --------------------------------------------------------
     1   Atom        0.000000      0.000000      0.000000
 --------------------------------------------------------


 ---------------------------------------------------------------------------------
              Anisotropic Spin Dipole Couplings in Principal Axis System
 ---------------------------------------------------------------------------------

       Atom             a.u.   MegaHertz   Gauss  10(-4) cm-1        Axes

              Baa    -0.0000     0.000     0.000     0.000 -0.0000  1.0000  0.0000
     1 Cr(53) Bbb     0.0000    -0.000    -0.000    -0.000  0.0000  0.0000  1.0000
              Bcc     0.0000    -0.000    -0.000    -0.000  1.0000  0.0000  0.0000
 

 ---------------------------------------------------------------------------------

 No NMR shielding tensors so no spin-rotation constants.
 Leave Link  601 at Mon Feb 26 18:45:48 2018, MaxMem= 10737418240 cpu:              14.8 elap:               1.0
 (Enter /home1/apps/gaussian/16rA.03/g16/l9999.exe)

 Test job not archived.
 1\1\GINC-C506-033\SP\ROCCSD(T)-Full\Gen\Cr1(7)\AANNABE\26-Feb-2018\0\\
 #P ROCCSD(T)=(maxcyc=150, Full)/Gen 5d 7f SCF=(maxcycles=300, NoVarAcc
 , VShift=200) MaxDisk=100GB Pop=Regular Pseudo=Read Guess=Read IOp(5/1
 5=2)\\Cr\\0,7\Cr,0,0.,0.,0.\\Version=ES64L-G16RevA.03\State=7-A1G\HF=-
 86.1569477\MP2=-86.7070342\MP3=-86.6987188\PUHF=-86.1569477\PMP2-0=-86
 .7070342\MP4SDQ=-86.7018295\CCSD=-86.7009039\CCSD(T)=-86.7178164\RMSD=
 9.076e-09\PG=OH [O(Cr1)]\\@


 THE SOLUTION TO A PROBLEM CHANGES THE PROBLEM.

                                 -- JOHN PEERS
           PAUL DICKSON'S "THE OFFICIAL RULES"
 Job cpu time:       0 days  1 hours  8 minutes 11.2 seconds.
 Elapsed time:       0 days  0 hours  4 minutes 18.1 seconds.
 File lengths (MBytes):  RWF=   3120 Int=      0 D2E=      0 Chk=      8 Scr=      1
 Normal termination of Gaussian 16 at Mon Feb 26 18:45:48 2018.
