 Entering Gaussian System, Link 0=g16
 Initial command:
 /home1/apps/gaussian/16rA.03/g16/l1.exe "/tmp/Gau-21448.inp" -scrdir="/tmp/"
 Entering Link 1 = /home1/apps/gaussian/16rA.03/g16/l1.exe PID=     21449.
  
 Copyright (c) 1988,1990,1992,1993,1995,1998,2003,2009,2016,
            Gaussian, Inc.  All Rights Reserved.
  
 This is part of the Gaussian(R) 16 program.  It is based on
 the Gaussian(R) 09 system (copyright 2009, Gaussian, Inc.),
 the Gaussian(R) 03 system (copyright 2003, Gaussian, Inc.),
 the Gaussian(R) 98 system (copyright 1998, Gaussian, Inc.),
 the Gaussian(R) 94 system (copyright 1995, Gaussian, Inc.),
 the Gaussian 92(TM) system (copyright 1992, Gaussian, Inc.),
 the Gaussian 90(TM) system (copyright 1990, Gaussian, Inc.),
 the Gaussian 88(TM) system (copyright 1988, Gaussian, Inc.),
 the Gaussian 86(TM) system (copyright 1986, Carnegie Mellon
 University), and the Gaussian 82(TM) system (copyright 1983,
 Carnegie Mellon University). Gaussian is a federally registered
 trademark of Gaussian, Inc.
  
 This software contains proprietary and confidential information,
 including trade secrets, belonging to Gaussian, Inc.
  
 This software is provided under written license and may be
 used, copied, transmitted, or stored only in accord with that
 written license.
  
 The following legend is applicable only to US Government
 contracts under FAR:
  
                    RESTRICTED RIGHTS LEGEND
  
 Use, reproduction and disclosure by the US Government is
 subject to restrictions as set forth in subparagraphs (a)
 and (c) of the Commercial Computer Software - Restricted
 Rights clause in FAR 52.227-19.
  
 Gaussian, Inc.
 340 Quinnipiac St., Bldg. 40, Wallingford CT 06492
  
  
 ---------------------------------------------------------------
 Warning -- This program may not be used in any manner that
 competes with the business of Gaussian, Inc. or will provide
 assistance to any competitor of Gaussian, Inc.  The licensee
 of this program is prohibited from giving any competitor of
 Gaussian, Inc. access to this program.  By using this program,
 the user acknowledges that Gaussian, Inc. is engaged in the
 business of creating and licensing software in the field of
 computational chemistry and represents and warrants to the
 licensee that it is not a competitor of Gaussian, Inc. and that
 it will not use this program in any manner prohibited above.
 ---------------------------------------------------------------
  

 Cite this work as:
 Gaussian 16, Revision A.03,
 M. J. Frisch, G. W. Trucks, H. B. Schlegel, G. E. Scuseria, 
 M. A. Robb, J. R. Cheeseman, G. Scalmani, V. Barone, 
 G. A. Petersson, H. Nakatsuji, X. Li, M. Caricato, A. V. Marenich, 
 J. Bloino, B. G. Janesko, R. Gomperts, B. Mennucci, H. P. Hratchian, 
 J. V. Ortiz, A. F. Izmaylov, J. L. Sonnenberg, D. Williams-Young, 
 F. Ding, F. Lipparini, F. Egidi, J. Goings, B. Peng, A. Petrone, 
 T. Henderson, D. Ranasinghe, V. G. Zakrzewski, J. Gao, N. Rega, 
 G. Zheng, W. Liang, M. Hada, M. Ehara, K. Toyota, R. Fukuda, 
 J. Hasegawa, M. Ishida, T. Nakajima, Y. Honda, O. Kitao, H. Nakai, 
 T. Vreven, K. Throssell, J. A. Montgomery, Jr., J. E. Peralta, 
 F. Ogliaro, M. J. Bearpark, J. J. Heyd, E. N. Brothers, K. N. Kudin, 
 V. N. Staroverov, T. A. Keith, R. Kobayashi, J. Normand, 
 K. Raghavachari, A. P. Rendell, J. C. Burant, S. S. Iyengar, 
 J. Tomasi, M. Cossi, J. M. Millam, M. Klene, C. Adamo, R. Cammi, 
 J. W. Ochterski, R. L. Martin, K. Morokuma, O. Farkas, 
 J. B. Foresman, and D. J. Fox, Gaussian, Inc., Wallingford CT, 2016.
 
 ******************************************
 Gaussian 16:  ES64L-G16RevA.03 25-Dec-2016
                12-Feb-2018 
 ******************************************
 %mem=80GB
 %nproc=32
 Will use up to   32 processors via shared memory.
 ----------------------------------------------------------------------
 #P ROCCSD(T)=(maxcyc=100, Full)/Gen SCF=(maxcycle=400, symm) Pseudo=Re
 ad Integral(NoXCTest) Pop=Regular MaxDisk=500GB Guess=Permute IOp(5/15
 =2)
 ----------------------------------------------------------------------
 1/38=1,172=1/1;
 2/12=2,17=6,18=5,40=1/2;
 3/5=7,11=2,16=1,17=8,25=1,30=1,47=8,116=101/1,2,3;
 4/8=2,9=4/1;
 5/5=2,7=400,15=2,38=5/2;
 8/5=-1,6=4,9=120000,10=90/1,4;
 9/5=7,6=100,14=2/13;
 6//1;
 99/5=1,9=1/99;
 Leave Link    1 at Mon Feb 12 22:18:02 2018, MaxMem= 10737418240 cpu:               5.8 elap:               0.2
 (Enter /home1/apps/gaussian/16rA.03/g16/l101.exe)
 ---
 FeH
 ---
 Symbolic Z-matrix:
 Charge =  0 Multiplicity = 4
 Fe                    0.        0.        0. 
 H                     0.        0.        1.8 
 
 ITRead=  0  0
 MicOpt= -1 -1
 NAtoms=      2 NQM=        2 NQMF=       0 NMMI=      0 NMMIF=      0
                NMic=       0 NMicF=      0.
                    Isotopes and Nuclear Properties:
 (Nuclear quadrupole moments (NQMom) in fm**2, nuclear magnetic moments (NMagM)
  in nuclear magnetons)

  Atom         1           2
 IAtWgt=          56           1
 AtmWgt=  55.9349393   1.0078250
 NucSpn=           0           1
 AtZEff=  -0.0000000  -0.0000000
 NQMom=    0.0000000   0.0000000
 NMagM=    0.0000000   2.7928460
 AtZNuc=  26.0000000   1.0000000
 Leave Link  101 at Mon Feb 12 22:18:02 2018, MaxMem= 10737418240 cpu:               2.7 elap:               0.1
 (Enter /home1/apps/gaussian/16rA.03/g16/l202.exe)
                          Input orientation:                          
 ---------------------------------------------------------------------
 Center     Atomic      Atomic             Coordinates (Angstroms)
 Number     Number       Type             X           Y           Z
 ---------------------------------------------------------------------
      1         26           0        0.000000    0.000000    0.000000
      2          1           0        0.000000    0.000000    1.800000
 ---------------------------------------------------------------------
 Stoichiometry    FeH(4)
 Framework group  C*V[C*(HFe)]
 Deg. of freedom     1
 Full point group                 C*V     NOp   4
 Largest Abelian subgroup         C2V     NOp   4
 Largest concise Abelian subgroup C1      NOp   1
                         Standard orientation:                         
 ---------------------------------------------------------------------
 Center     Atomic      Atomic             Coordinates (Angstroms)
 Number     Number       Type             X           Y           Z
 ---------------------------------------------------------------------
      1         26           0        0.000000    0.000000    0.066667
      2          1           0        0.000000    0.000000   -1.733333
 ---------------------------------------------------------------------
 Rotational constants (GHZ):           0.0000000         157.5587119         157.5587119
 Leave Link  202 at Mon Feb 12 22:18:02 2018, MaxMem= 10737418240 cpu:               0.4 elap:               0.0
 (Enter /home1/apps/gaussian/16rA.03/g16/l301.exe)
 General basis read from cards:  (5D, 7F)
 Centers:       1
 S 1 1.00
     Exponent=  1.4976900000D+08 Coefficients=  1.0000000000D+00
 S 1 1.00
     Exponent=  2.6722500000D+07 Coefficients=  1.0000000000D+00
 S 1 1.00
     Exponent=  5.9590000000D+06 Coefficients=  1.0000000000D+00
 S 1 1.00
     Exponent=  1.5936100000D+06 Coefficients=  1.0000000000D+00
 S 1 1.00
     Exponent=  4.9346400000D+05 Coefficients=  1.0000000000D+00
 S 1 1.00
     Exponent=  1.7179000000D+05 Coefficients=  1.0000000000D+00
 S 1 1.00
     Exponent=  6.5620900000D+04 Coefficients=  1.0000000000D+00
 S 1 1.00
     Exponent=  2.6965600000D+04 Coefficients=  1.0000000000D+00
 S 1 1.00
     Exponent=  1.1735300000D+04 Coefficients=  1.0000000000D+00
 S 1 1.00
     Exponent=  5.3434300000D+03 Coefficients=  1.0000000000D+00
 S 1 1.00
     Exponent=  2.5225000000D+03 Coefficients=  1.0000000000D+00
 S 1 1.00
     Exponent=  1.2264300000D+03 Coefficients=  1.0000000000D+00
 S 1 1.00
     Exponent=  6.1126900000D+02 Coefficients=  1.0000000000D+00
 S 1 1.00
     Exponent=  3.1130800000D+02 Coefficients=  1.0000000000D+00
 S 1 1.00
     Exponent=  1.6162400000D+02 Coefficients=  1.0000000000D+00
 S 1 1.00
     Exponent=  8.5376700000D+01 Coefficients=  1.0000000000D+00
 S 1 1.00
     Exponent=  4.5791100000D+01 Coefficients=  1.0000000000D+00
 S 1 1.00
     Exponent=  2.4867700000D+01 Coefficients=  1.0000000000D+00
 S 1 1.00
     Exponent=  1.3620200000D+01 Coefficients=  1.0000000000D+00
 S 1 1.00
     Exponent=  7.4810600000D+00 Coefficients=  1.0000000000D+00
 S 1 1.00
     Exponent=  4.0881700000D+00 Coefficients=  1.0000000000D+00
 S 1 1.00
     Exponent=  2.1990500000D+00 Coefficients=  1.0000000000D+00
 S 1 1.00
     Exponent=  1.1481500000D+00 Coefficients=  1.0000000000D+00
 S 1 1.00
     Exponent=  5.7726500000D-01 Coefficients=  1.0000000000D+00
 S 1 1.00
     Exponent=  1.9763500000D-01 Coefficients=  1.0000000000D+00
 S 1 1.00
     Exponent=  1.0898600000D-01 Coefficients=  1.0000000000D+00
 S 1 1.00
     Exponent=  5.3216000000D-02 Coefficients=  1.0000000000D+00
 S 1 1.00
     Exponent=  2.5571000000D-02 Coefficients=  1.0000000000D+00
 S 1 1.00
     Exponent=  6.6224000000D+00 Coefficients=  1.0000000000D+00
 S 1 1.00
     Exponent=  2.2140000000D+00 Coefficients=  1.0000000000D+00
 S 1 1.00
     Exponent=  1.2290000000D-02 Coefficients=  1.0000000000D+00
 P 1 1.00
     Exponent=  8.6947300000D+04 Coefficients=  1.0000000000D+00
 P 1 1.00
     Exponent=  2.1254000000D+04 Coefficients=  1.0000000000D+00
 P 1 1.00
     Exponent=  6.7411400000D+03 Coefficients=  1.0000000000D+00
 P 1 1.00
     Exponent=  2.5571600000D+03 Coefficients=  1.0000000000D+00
 P 1 1.00
     Exponent=  1.0935100000D+03 Coefficients=  1.0000000000D+00
 P 1 1.00
     Exponent=  5.0616100000D+02 Coefficients=  1.0000000000D+00
 P 1 1.00
     Exponent=  2.4713900000D+02 Coefficients=  1.0000000000D+00
 P 1 1.00
     Exponent=  1.2541500000D+02 Coefficients=  1.0000000000D+00
 P 1 1.00
     Exponent=  6.5651200000D+01 Coefficients=  1.0000000000D+00
 P 1 1.00
     Exponent=  3.5307900000D+01 Coefficients=  1.0000000000D+00
 P 1 1.00
     Exponent=  1.9426000000D+01 Coefficients=  1.0000000000D+00
 P 1 1.00
     Exponent=  1.0843800000D+01 Coefficients=  1.0000000000D+00
 P 1 1.00
     Exponent=  6.0435900000D+00 Coefficients=  1.0000000000D+00
 P 1 1.00
     Exponent=  3.3024500000D+00 Coefficients=  1.0000000000D+00
 P 1 1.00
     Exponent=  1.7638900000D+00 Coefficients=  1.0000000000D+00
 P 1 1.00
     Exponent=  9.2138600000D-01 Coefficients=  1.0000000000D+00
 P 1 1.00
     Exponent=  4.6037300000D-01 Coefficients=  1.0000000000D+00
 P 1 1.00
     Exponent=  1.8377200000D-01 Coefficients=  1.0000000000D+00
 P 1 1.00
     Exponent=  7.5833000000D-02 Coefficients=  1.0000000000D+00
 P 1 1.00
     Exponent=  3.1099000000D-02 Coefficients=  1.0000000000D+00
 P 1 1.00
     Exponent=  1.0012800000D+01 Coefficients=  1.0000000000D+00
 P 1 1.00
     Exponent=  3.1869000000D+00 Coefficients=  1.0000000000D+00
 P 1 1.00
     Exponent=  1.2750000000D-02 Coefficients=  1.0000000000D+00
 D 1 1.00
     Exponent=  5.1841600000D+02 Coefficients=  1.0000000000D+00
 D 1 1.00
     Exponent=  1.5281900000D+02 Coefficients=  1.0000000000D+00
 D 1 1.00
     Exponent=  5.8586900000D+01 Coefficients=  1.0000000000D+00
 D 1 1.00
     Exponent=  2.5456400000D+01 Coefficients=  1.0000000000D+00
 D 1 1.00
     Exponent=  1.1786800000D+01 Coefficients=  1.0000000000D+00
 D 1 1.00
     Exponent=  5.7186100000D+00 Coefficients=  1.0000000000D+00
 D 1 1.00
     Exponent=  2.8241700000D+00 Coefficients=  1.0000000000D+00
 D 1 1.00
     Exponent=  1.3798500000D+00 Coefficients=  1.0000000000D+00
 D 1 1.00
     Exponent=  6.5616000000D-01 Coefficients=  1.0000000000D+00
 D 1 1.00
     Exponent=  2.9960900000D-01 Coefficients=  1.0000000000D+00
 D 1 1.00
     Exponent=  1.2936100000D-01 Coefficients=  1.0000000000D+00
 D 1 1.00
     Exponent=  5.1155000000D-02 Coefficients=  1.0000000000D+00
 D 1 1.00
     Exponent=  7.0982000000D+00 Coefficients=  1.0000000000D+00
 D 1 1.00
     Exponent=  4.2772000000D+00 Coefficients=  1.0000000000D+00
 D 1 1.00
     Exponent=  2.0230000000D-02 Coefficients=  1.0000000000D+00
 F 1 1.00
     Exponent=  1.1047100000D+01 Coefficients=  1.0000000000D+00
 F 1 1.00
     Exponent=  4.8541000000D+00 Coefficients=  1.0000000000D+00
 F 1 1.00
     Exponent=  2.1329000000D+00 Coefficients=  1.0000000000D+00
 F 1 1.00
     Exponent=  9.3720000000D-01 Coefficients=  1.0000000000D+00
 F 1 1.00
     Exponent=  3.1410000000D-01 Coefficients=  1.0000000000D+00
 F 1 1.00
     Exponent=  1.0527000000D-01 Coefficients=  1.0000000000D+00
 G 1 1.00
     Exponent=  7.5475000000D+00 Coefficients=  1.0000000000D+00
 G 1 1.00
     Exponent=  3.6737000000D+00 Coefficients=  1.0000000000D+00
 G 1 1.00
     Exponent=  1.7881000000D+00 Coefficients=  1.0000000000D+00
 G 1 1.00
     Exponent=  6.5640000000D-01 Coefficients=  1.0000000000D+00
 G 1 1.00
     Exponent=  2.4096000000D-01 Coefficients=  1.0000000000D+00
 H 1 1.00
     Exponent=  6.9263000000D+00 Coefficients=  1.0000000000D+00
 H 1 1.00
     Exponent=  3.2527000000D+00 Coefficients=  1.0000000000D+00
 H 1 1.00
     Exponent=  1.2964000000D+00 Coefficients=  1.0000000000D+00
 H 1 1.00
     Exponent=  5.1669000000D-01 Coefficients=  1.0000000000D+00
 I 1 1.00
     Exponent=  7.0569000000D+00 Coefficients=  1.0000000000D+00
 I 1 1.00
     Exponent=  1.3776500000D+00 Coefficients=  1.0000000000D+00
 ****
 Centers:       2
 S 1 1.00
     Exponent=  4.0200000000D+02 Coefficients=  1.0000000000D+00
 S 1 1.00
     Exponent=  6.0240000000D+01 Coefficients=  1.0000000000D+00
 S 1 1.00
     Exponent=  1.3730000000D+01 Coefficients=  1.0000000000D+00
 S 1 1.00
     Exponent=  3.9050000000D+00 Coefficients=  1.0000000000D+00
 S 1 1.00
     Exponent=  1.2830000000D+00 Coefficients=  1.0000000000D+00
 S 1 1.00
     Exponent=  4.6550000000D-01 Coefficients=  1.0000000000D+00
 S 1 1.00
     Exponent=  1.8110000000D-01 Coefficients=  1.0000000000D+00
 S 1 1.00
     Exponent=  7.2790000000D-02 Coefficients=  1.0000000000D+00
 S 1 1.00
     Exponent=  2.0700000000D-02 Coefficients=  1.0000000000D+00
 P 1 1.00
     Exponent=  4.5160000000D+00 Coefficients=  1.0000000000D+00
 P 1 1.00
     Exponent=  1.7120000000D+00 Coefficients=  1.0000000000D+00
 P 1 1.00
     Exponent=  6.4900000000D-01 Coefficients=  1.0000000000D+00
 P 1 1.00
     Exponent=  2.4600000000D-01 Coefficients=  1.0000000000D+00
 P 1 1.00
     Exponent=  7.4400000000D-02 Coefficients=  1.0000000000D+00
 D 1 1.00
     Exponent=  2.9500000000D+00 Coefficients=  1.0000000000D+00
 D 1 1.00
     Exponent=  1.2060000000D+00 Coefficients=  1.0000000000D+00
 D 1 1.00
     Exponent=  4.9300000000D-01 Coefficients=  1.0000000000D+00
 D 1 1.00
     Exponent=  1.5600000000D-01 Coefficients=  1.0000000000D+00
 F 1 1.00
     Exponent=  2.5060000000D+00 Coefficients=  1.0000000000D+00
 F 1 1.00
     Exponent=  8.7500000000D-01 Coefficients=  1.0000000000D+00
 F 1 1.00
     Exponent=  2.7400000000D-01 Coefficients=  1.0000000000D+00
 G 1 1.00
     Exponent=  2.3580000000D+00 Coefficients=  1.0000000000D+00
 G 1 1.00
     Exponent=  5.4300000000D-01 Coefficients=  1.0000000000D+00
 ****
 ======================================================================================================
                                       Pseudopotential Parameters
 ======================================================================================================
  Center     Atomic      Valence      Angular      Power
  Number     Number     Electrons     Momentum     of R      Exponent        Coefficient   SO-Coeffient
 ======================================================================================================
    1         26           16
                                      F and up 
                                                     2        1.0000000        0.00000000    0.00000000
                                      S - F
                                                     2       20.9300000      253.74958800    0.00000000
                                                     2        9.4450000       37.92284500    0.00000000
                                      P - F
                                                     2       21.7600000      161.03681200    0.00000000
                                                     2        9.1780000       27.65129800    0.00000000
                                      D - F
                                                     2       25.9000000      -24.43127600    0.00000000
                                                     2        8.8350000       -1.43425100    0.00000000
    2          1            1
                                      P and up 
                                                     2       21.7769666      -10.85192405    0.00000000
                                                     1       21.2435951        1.00000000    0.00000000
                                                     3       21.2435951       21.24359508    0.00000000
                                      S - P
                                                     2        1.0000000        0.00000000    0.00000000
 ======================================================================================================
 Ernie: Thresh=  0.10000D-02 Tol=  0.10000D-05 Strict=F.
 There are   238 symmetry adapted cartesian basis functions of A1  symmetry.
 There are    73 symmetry adapted cartesian basis functions of A2  symmetry.
 There are   131 symmetry adapted cartesian basis functions of B1  symmetry.
 There are   131 symmetry adapted cartesian basis functions of B2  symmetry.
 There are   165 symmetry adapted basis functions of A1  symmetry.
 There are    56 symmetry adapted basis functions of A2  symmetry.
 There are    97 symmetry adapted basis functions of B1  symmetry.
 There are    97 symmetry adapted basis functions of B2  symmetry.
   415 basis functions,   573 primitive gaussians,   573 cartesian basis functions
    10 alpha electrons        7 beta electrons
       nuclear repulsion energy         4.7037974304 Hartrees.
 IExCor=    0 DFT=F Ex=HF Corr=None ExCW=0 ScaHFX=  1.000000
 ScaDFX=  1.000000  1.000000  1.000000  1.000000 ScalE2=  1.000000  1.000000
 IRadAn=      5 IRanWt=     -1 IRanGd=            0 ICorTp=0 IEmpDi=  4
 NAtoms=    2 NActive=    2 NUniq=    2 SFac= 1.00D+00 NAtFMM=   60 NAOKFM=F Big=F
 Integral buffers will be    131072 words long.
 Raffenetti 2 integral format.
 Two-electron integral symmetry is turned on.
 Leave Link  301 at Mon Feb 12 22:18:02 2018, MaxMem= 10737418240 cpu:               8.6 elap:               0.3
 (Enter /home1/apps/gaussian/16rA.03/g16/l302.exe)
 NPDir=0 NMtPBC=     1 NCelOv=     1 NCel=       1 NClECP=     1 NCelD=      1
         NCelK=      1 NCelE2=     1 NClLst=     1 CellRange=     0.0.
 One-electron integrals computed using PRISM.
 One-electron integral symmetry used in STVInt
   4 Symmetry operations used in ECPInt.
 ECPInt:  NShTT=    5995 NPrTT=    5995 LenC2=    5880 LenP2D=    5879.
 LDataN:  DoStor=T MaxTD1=12 Len= 1566
 NBasis=   415 RedAO= T EigKep=  6.08D-06  NBF=   165    56    97    97
 NBsUse=   407 1.00D-06 EigRej=  9.26D-07 NBFU=   161    56    95    95
 Leave Link  302 at Mon Feb 12 22:18:13 2018, MaxMem= 10737418240 cpu:             358.8 elap:              11.2
 (Enter /home1/apps/gaussian/16rA.03/g16/l303.exe)
 DipDrv:  MaxL=1.
 Leave Link  303 at Mon Feb 12 22:18:14 2018, MaxMem= 10737418240 cpu:               4.3 elap:               0.2
 (Enter /home1/apps/gaussian/16rA.03/g16/l401.exe)
 ExpMin= 1.23D-02 ExpMax= 1.50D+08 ExpMxC= 1.50D+08 IAcc=4 IRadAn=    399590 AccDes= 0.00D+00
 Harris functional with IExCor=  205 and IRadAn=  399590 diagonalized for initial guess.
 HarFok:  IExCor=  205 AccDes= 0.00D+00 IRadAn=    399590 IDoV= 1 UseB2=F ITyADJ=14
 ICtDFT=  3500011 ScaDFX=  1.000000  1.000000  1.000000  1.000000
 Spurious integrated density or basis function:
 NE=   17 NElCor=    0 El error=1.58D-09 rel=5.84D-11 Tolerance=1.00D-03
 Shell     1     absolute error=6.45D-02              Tolerance=1.20D-02
 Shell     1       signed error=6.45D-02              Tolerance=1.00D-01
 FoFCou: FMM=F IPFlag=           8 FMFlag=      100000 FMFlg1=           0
         NFxFlg=           0 DoJE=T BraDBF=F KetDBF=T FulRan=T
         wScrn=  0.000000 ICntrl=       500 IOpCl=  0 I1Cent=   200000004 NGrid=           0
         NMat0=    1 NMatS0=      1 NMatT0=    0 NMatD0=    1 NMtDS0=    0 NMtDT0=    0
 Petite list used in FoFCou.
 Harris En= -124.556011283940    
 JPrj=0 DoOrth=F DoCkMO=F.
 Alpha guess permutation (I<-O):    1    2    3    4    5   10    9    8    6    7
 Initial guess orbital symmetries:
       Occupied  (SG) (SG) (PI) (PI) (SG) (SG) (DLTA) (DLTA) (PI)
                 (PI)
       Virtual   (SG) (PI) (PI) (SG) (SG) (SG) (PI) (PI) (PI) (PI)
                 (DLTA) (DLTA) (SG) (SG) (SG) (PI) (PI) (SG) (PI)
                 (PI) (DLTA) (DLTA) (PI) (PI) (SG) (SG) (SG) (DLTA)
                 (DLTA) (PHI) (PHI) (SG) (PI) (PI) (SG) (PI) (PI)
                 (DLTA) (DLTA) (PI) (PI) (SG) (DLTA) (DLTA) (PI)
                 (PI) (SG) (SG) (SG) (PI) (PI) (SG) (PHI) (PHI)
                 (SG) (DLTA) (DLTA) (?A) (?A) (PI) (PI) (PHI) (PHI)
                 (DLTA) (DLTA) (PI) (PI) (SG) (DLTA) (DLTA) (PHI)
                 (PHI) (PI) (PI) (SG) (SG) (PI) (PI) (SG) (DLTA)
                 (DLTA) (PI) (PI) (DLTA) (DLTA) (SG) (PI) (PI)
                 (SG) (PI) (PI) (SG) (SG) (?A) (?A) (PHI) (PHI)
                 (PI) (PI) (DLTA) (DLTA) (?B) (?B) (SG) (DLTA)
                 (DLTA) (?A) (?A) (PI) (PI) (SG) (DLTA) (DLTA)
                 (PHI) (PHI) (PI) (PI) (?A) (?A) (PHI) (PHI) (SG)
                 (DLTA) (DLTA) (PHI) (PHI) (SG) (PI) (PI) (DLTA)
                 (DLTA) (SG) (PHI) (PHI) (PI) (PI) (SG) (PI) (PI)
                 (DLTA) (DLTA) (SG) (PI) (PI) (SG) (DLTA) (DLTA)
                 (PI) (PI) (PI) (PI) (SG) (DLTA) (DLTA) (SG) (PI)
                 (PI) (SG) (SG) (PHI) (PHI) (DLTA) (DLTA) (PI)
                 (PI) (?B) (?B) (?A) (?A) (PHI) (PHI) (SG) (DLTA)
                 (DLTA) (PI) (PI) (?A) (?A) (PHI) (PHI) (DLTA)
                 (DLTA) (PI) (PI) (SG) (SG) (?B) (?B) (SG) (SG)
                 (?A) (?A) (PHI) (PHI) (DLTA) (DLTA) (PI) (PI)
                 (SG) (SG) (PI) (PI) (SG) (PHI) (PHI) (DLTA) (DLTA)
                 (?A) (?A) (PI) (PI) (PHI) (PHI) (SG) (DLTA) (DLTA)
                 (PI) (PI) (DLTA) (DLTA) (SG) (PI) (PI) (SG) (DLTA)
                 (DLTA) (PI) (PI) (SG) (PI) (PI) (SG) (SG) (PHI)
                 (PHI) (DLTA) (DLTA) (PI) (PI) (?A) (?A) (PHI)
                 (PHI) (DLTA) (DLTA) (SG) (PI) (PI) (?B) (?B) (?A)
                 (?A) (PHI) (PHI) (DLTA) (DLTA) (PI) (PI) (SG)
                 (SG) (PI) (PI) (DLTA) (DLTA) (PI) (PI) (SG) (SG)
                 (SG) (SG) (?A) (?A) (PHI) (PHI) (DLTA) (DLTA)
                 (PI) (PI) (SG) (DLTA) (DLTA) (PI) (PI) (SG) (?B)
                 (?B) (?A) (?A) (PHI) (PHI) (DLTA) (DLTA) (PI)
                 (PI) (SG) (PHI) (PHI) (DLTA) (DLTA) (PI) (PI)
                 (SG) (?A) (?C) (?C) (?A) (SG) (SG) (?C) (?C) (DLTA)
                 (DLTA) (PI) (PI) (SG) (PI) (PI) (SG) (DLTA) (DLTA)
                 (PI) (PI) (SG) (SG) (PI) (PI) (SG) (DLTA) (DLTA)
                 (PI) (PI) (SG) (SG) (SG) (PI) (PI) (SG) (SG) (DLTA)
                 (DLTA) (PI) (PI) (SG) (PI) (PI) (SG) (SG) (DLTA)
                 (DLTA) (PI) (PI) (SG) (PI) (PI) (SG) (SG) (SG)
                 (PI) (PI) (SG) (SG) (DLTA) (DLTA) (PI) (PI) (SG)
                 (PI) (PI) (SG) (SG) (SG) (PI) (PI) (SG) (SG) (PI)
                 (PI) (SG) (SG) (PI) (PI) (SG) (SG) (PI) (PI) (SG)
                 (SG) (SG) (PI) (PI) (SG) (SG) (SG) (SG) (SG) (SG)
                 (SG)
 Leave Link  401 at Mon Feb 12 22:18:18 2018, MaxMem= 10737418240 cpu:             139.2 elap:               4.6
 (Enter /home1/apps/gaussian/16rA.03/g16/l502.exe)
 Keep R1 and R2 ints in memory in symmetry-blocked form, NReq=4666733380.
 FoFCou: FMM=F IPFlag=           8 FMFlag=           0 FMFlg1=           0
         NFxFlg=           0 DoJE=F BraDBF=F KetDBF=F FulRan=T
         wScrn=  0.000000 ICntrl=       600 IOpCl=  0 I1Cent=           0 NGrid=           0
         NMat0=    1 NMatS0=  86320 NMatT0=    0 NMatD0=    1 NMtDS0=    0 NMtDT0=    0
 Petite list used in FoFCou.
 Restricted open shell SCF:
 Using DIIS extrapolation, IDIIS=  1040.
 NGot= 10737418240 LenX=  8854695926 LenY=  8854367024
 Requested convergence on RMS density matrix=1.00D-08 within 400 cycles.
 Requested convergence on MAX density matrix=1.00D-06.
 Requested convergence on             energy=1.00D-06.
 No special actions if energy rises.

 Cycle   1  Pass 1  IDiag  1:
 E= -123.545518070227    
 DIIS: error= 2.48D-02 at cycle   1 NSaved=   1.
 NSaved= 1 IEnMin= 1 EnMin= -123.545518070227     IErMin= 1 ErrMin= 2.48D-02
 ErrMax= 2.48D-02  0.00D+00 EMaxC= 1.00D-01 BMatC= 7.62D-02 BMatP= 7.62D-02
 IDIUse=3 WtCom= 7.52D-01 WtEn= 2.48D-01
 Coeff-Com:  0.100D+01
 Coeff-En:   0.100D+01
 Coeff:      0.100D+01
 Gap=     0.046 Goal=   None    Shift=    0.000
 GapD=    0.046 DampG=0.250 DampE=0.250 DampFc=0.1250 IDamp=-1.
 Damping current iteration by 1.25D-01
 RMSDP=5.04D-04 MaxDP=4.96D-02              OVMax= 2.26D-01

 Cycle   2  Pass 1  IDiag  1:
 E= -123.544452317590     Delta-E=        0.001065752637 Rises=F Damp=T
 DIIS: error= 2.10D-02 at cycle   2 NSaved=   2.
 NSaved= 2 IEnMin= 1 EnMin= -123.545518070227     IErMin= 2 ErrMin= 2.10D-02
 ErrMax= 2.10D-02  0.00D+00 EMaxC= 1.00D-01 BMatC= 6.44D-02 BMatP= 7.62D-02
 IDIUse=3 WtCom= 7.90D-01 WtEn= 2.10D-01
 Coeff-Com:  0.187D+00 0.813D+00
 Coeff-En:   0.549D+00 0.451D+00
 Coeff:      0.263D+00 0.737D+00
 Gap=    -0.014 Goal=   None    Shift=    0.000
 RMSDP=1.28D-03 MaxDP=2.75D-01 DE= 1.07D-03 OVMax= 6.69D-01

 Cycle   3  Pass 1  IDiag  1:
 E= -123.302802500626     Delta-E=        0.241649816964 Rises=F Damp=F
 DIIS: error= 5.60D-02 at cycle   3 NSaved=   3.
 NSaved= 3 IEnMin= 1 EnMin= -123.545518070227     IErMin= 2 ErrMin= 2.10D-02
 ErrMax= 5.60D-02  0.00D+00 EMaxC= 1.00D-01 BMatC= 2.76D-01 BMatP= 6.44D-02
 IDIUse=2 WtCom= 0.00D+00 WtEn= 1.00D+00
 Coeff-En:   0.000D+00 0.715D+00 0.285D+00
 Coeff:      0.000D+00 0.715D+00 0.285D+00
 Gap=     0.049 Goal=   None    Shift=    0.000
 RMSDP=1.19D-03 MaxDP=2.73D-01 DE= 2.42D-01 OVMax= 3.75D-01

 Cycle   4  Pass 1  IDiag  1:
 E= -123.546894368205     Delta-E=       -0.244091867579 Rises=F Damp=F
 DIIS: error= 2.08D-02 at cycle   4 NSaved=   4.
 NSaved= 4 IEnMin= 4 EnMin= -123.546894368205     IErMin= 4 ErrMin= 2.08D-02
 ErrMax= 2.08D-02  0.00D+00 EMaxC= 1.00D-01 BMatC= 3.06D-02 BMatP= 6.44D-02
 IDIUse=3 WtCom= 7.92D-01 WtEn= 2.08D-01
 EnCoef did     4 forward-backward iterations
 Coeff-Com: -0.772D+00 0.928D+00 0.226D+00 0.618D+00
 Coeff-En:   0.000D+00 0.593D+00 0.250D+00 0.157D+00
 Coeff:     -0.612D+00 0.858D+00 0.231D+00 0.523D+00
 Gap=     0.034 Goal=   None    Shift=    0.000
 RMSDP=3.17D-04 MaxDP=6.12D-02 DE=-2.44D-01 OVMax= 1.81D-01

 Cycle   5  Pass 1  IDiag  1:
 E= -123.556128793986     Delta-E=       -0.009234425781 Rises=F Damp=F
 DIIS: error= 1.31D-02 at cycle   5 NSaved=   5.
 NSaved= 5 IEnMin= 5 EnMin= -123.556128793986     IErMin= 5 ErrMin= 1.31D-02
 ErrMax= 1.31D-02  0.00D+00 EMaxC= 1.00D-01 BMatC= 1.02D-02 BMatP= 3.06D-02
 IDIUse=3 WtCom= 8.69D-01 WtEn= 1.31D-01
 Rare condition: small coef for last iteration:  0.444D-15
 Coeff-Com: -0.695D+00 0.784D+00 0.114D+00 0.175D+00 0.621D+00
 Coeff-En:   0.000D+00 0.403D+00 0.706D-01 0.172D+00 0.354D+00
 Coeff:     -0.695D+00 0.784D+00 0.114D+00 0.175D+00 0.621D+00
 Gap=     0.020 Goal=   None    Shift=    0.000
 RMSDP=3.37D-04 MaxDP=6.74D-02 DE=-9.23D-03 OVMax= 1.82D-01

 Cycle   6  Pass 1  IDiag  1:
 E= -123.558554533356     Delta-E=       -0.002425739370 Rises=F Damp=F
 DIIS: error= 1.37D-02 at cycle   6 NSaved=   6.
 NSaved= 6 IEnMin= 6 EnMin= -123.558554533356     IErMin= 5 ErrMin= 1.31D-02
 ErrMax= 1.37D-02  0.00D+00 EMaxC= 1.00D-01 BMatC= 8.56D-03 BMatP= 1.02D-02
 IDIUse=3 WtCom= 8.69D-01 WtEn= 1.31D-01
 EnCoef did   100 forward-backward iterations
 Coeff-Com: -0.605D+00 0.680D+00 0.598D-01-0.134D-01 0.485D+00 0.394D+00
 Coeff-En:   0.000D+00 0.586D+00 0.245D+00 0.145D+00 0.214D-01 0.225D-02
 Coeff:     -0.525D+00 0.668D+00 0.841D-01 0.745D-02 0.424D+00 0.342D+00
 Gap=     0.021 Goal=   None    Shift=    0.000
 RMSDP=2.71D-04 MaxDP=4.83D-02 DE=-2.43D-03 OVMax= 1.21D-01

 Cycle   7  Pass 1  IDiag  1:
 E= -123.569160928483     Delta-E=       -0.010606395127 Rises=F Damp=F
 DIIS: error= 9.55D-03 at cycle   7 NSaved=   7.
 NSaved= 7 IEnMin= 7 EnMin= -123.569160928483     IErMin= 7 ErrMin= 9.55D-03
 ErrMax= 9.55D-03  0.00D+00 EMaxC= 1.00D-01 BMatC= 5.47D-03 BMatP= 8.56D-03
 IDIUse=3 WtCom= 9.04D-01 WtEn= 9.55D-02
 EnCoef did   100 forward-backward iterations
 Rare condition: small coef for last iteration: -0.120D-15
 Coeff-Com: -0.472D+00 0.540D+00 0.414D-01-0.986D-01-0.417D-01 0.192D+00
 Coeff-Com:  0.839D+00
 Coeff-En:   0.000D+00 0.308D+00 0.801D-01 0.000D+00 0.000D+00 0.509D-01
 Coeff-En:   0.561D+00
 Coeff:     -0.472D+00 0.540D+00 0.414D-01-0.986D-01-0.417D-01 0.192D+00
 Coeff:      0.839D+00
 Gap=     0.010 Goal=   None    Shift=    0.000
 RMSDP=6.89D-05 MaxDP=6.51D-03 DE=-1.06D-02 OVMax= 2.21D-02

 Cycle   8  Pass 1  IDiag  1:
 E= -123.572916485804     Delta-E=       -0.003755557321 Rises=F Damp=F
 DIIS: error= 1.05D-02 at cycle   8 NSaved=   8.
 NSaved= 8 IEnMin= 8 EnMin= -123.572916485804     IErMin= 7 ErrMin= 9.55D-03
 ErrMax= 1.05D-02  0.00D+00 EMaxC= 1.00D-01 BMatC= 3.51D-03 BMatP= 5.47D-03
 IDIUse=3 WtCom= 9.04D-01 WtEn= 9.55D-02
 EnCoef did   100 forward-backward iterations
 Rare condition: small coef for last iteration:  0.000D+00
 Coeff-Com: -0.346D+00 0.398D+00 0.107D-01 0.609D-01-0.232D+00-0.580D-01
 Coeff-Com: -0.594D-01 0.123D+01
 Coeff-En:   0.000D+00 0.254D+00 0.781D-01 0.000D+00 0.000D+00 0.000D+00
 Coeff-En:   0.000D+00 0.668D+00
 Coeff:     -0.346D+00 0.398D+00 0.107D-01 0.609D-01-0.232D+00-0.580D-01
 Coeff:     -0.594D-01 0.123D+01
 Gap=     0.004 Goal=   None    Shift=    0.000
 RMSDP=1.42D-04 MaxDP=1.53D-02 DE=-3.76D-03 OVMax= 5.22D-02

 Cycle   9  Pass 1  IDiag  1:
 E= -123.578405252913     Delta-E=       -0.005488767109 Rises=F Damp=F
 DIIS: error= 7.07D-03 at cycle   9 NSaved=   9.
 NSaved= 9 IEnMin= 9 EnMin= -123.578405252913     IErMin= 9 ErrMin= 7.07D-03
 ErrMax= 7.07D-03  0.00D+00 EMaxC= 1.00D-01 BMatC= 1.69D-03 BMatP= 3.51D-03
 IDIUse=3 WtCom= 9.29D-01 WtEn= 7.07D-02
 EnCoef did   100 forward-backward iterations
 Coeff-Com: -0.263D+00 0.299D+00 0.169D-02 0.175D+00-0.167D+00-0.130D+00
 Coeff-Com: -0.744D+00 0.137D+01 0.462D+00
 Coeff-En:   0.000D+00 0.577D+00 0.246D+00 0.148D+00 0.000D+00 0.323D-02
 Coeff-En:   0.000D+00 0.000D+00 0.262D-01
 Coeff:     -0.244D+00 0.319D+00 0.189D-01 0.173D+00-0.155D+00-0.121D+00
 Coeff:     -0.692D+00 0.127D+01 0.431D+00
 Gap=     0.006 Goal=   None    Shift=    0.000
 RMSDP=1.11D-04 MaxDP=1.19D-02 DE=-5.49D-03 OVMax= 3.70D-02

 Cycle  10  Pass 1  IDiag  1:
 E= -123.580368203040     Delta-E=       -0.001962950127 Rises=F Damp=F
 DIIS: error= 5.33D-03 at cycle  10 NSaved=  10.
 NSaved=10 IEnMin=10 EnMin= -123.580368203040     IErMin=10 ErrMin= 5.33D-03
 ErrMax= 5.33D-03  0.00D+00 EMaxC= 1.00D-01 BMatC= 1.14D-03 BMatP= 1.69D-03
 IDIUse=3 WtCom= 9.47D-01 WtEn= 5.33D-02
 EnCoef did   100 forward-backward iterations
 Rare condition: small coef for last iteration:  0.179D-15
 Coeff-Com: -0.185D+00 0.205D+00 0.793D-02 0.106D+00 0.530D-01-0.190D-01
 Coeff-Com: -0.728D+00 0.314D+00 0.398D+00 0.848D+00
 Coeff-En:   0.000D+00 0.937D-02 0.140D+00 0.000D+00 0.000D+00 0.000D+00
 Coeff-En:   0.000D+00 0.000D+00 0.000D+00 0.851D+00
 Coeff:     -0.185D+00 0.205D+00 0.793D-02 0.106D+00 0.530D-01-0.190D-01
 Coeff:     -0.728D+00 0.314D+00 0.398D+00 0.848D+00
 Gap=     0.005 Goal=   None    Shift=    0.000
 RMSDP=7.53D-05 MaxDP=6.23D-03 DE=-1.96D-03 OVMax= 2.47D-02

 Cycle  11  Pass 1  IDiag  1:
 E= -123.580727783205     Delta-E=       -0.000359580165 Rises=F Damp=F
 DIIS: error= 4.21D-03 at cycle  11 NSaved=  11.
 NSaved=11 IEnMin=11 EnMin= -123.580727783205     IErMin=11 ErrMin= 4.21D-03
 ErrMax= 4.21D-03  0.00D+00 EMaxC= 1.00D-01 BMatC= 1.02D-03 BMatP= 1.14D-03
 IDIUse=3 WtCom= 9.58D-01 WtEn= 4.21D-02
 EnCoef did   100 forward-backward iterations
 Rare condition: small coef for last iteration:  0.596D-16
 Coeff-Com: -0.155D+00 0.172D+00-0.153D-02 0.747D-01 0.537D-01-0.423D-02
 Coeff-Com: -0.606D+00 0.152D+00 0.306D+00 0.721D+00 0.287D+00
 Coeff-En:   0.000D+00 0.000D+00 0.130D+00 0.000D+00 0.000D+00 0.000D+00
 Coeff-En:   0.000D+00 0.000D+00 0.000D+00 0.214D+00 0.656D+00
 Coeff:     -0.155D+00 0.172D+00-0.153D-02 0.747D-01 0.537D-01-0.423D-02
 Coeff:     -0.606D+00 0.152D+00 0.306D+00 0.721D+00 0.287D+00
 Gap=     0.003 Goal=   None    Shift=    0.000
 RMSDP=1.30D-04 MaxDP=1.65D-02 DE=-3.60D-04 OVMax= 3.91D-02

 Cycle  12  Pass 1  IDiag  1:
 E= -123.582771003384     Delta-E=       -0.002043220179 Rises=F Damp=F
 DIIS: error= 3.09D-03 at cycle  12 NSaved=  12.
 NSaved=12 IEnMin=12 EnMin= -123.582771003384     IErMin=12 ErrMin= 3.09D-03
 ErrMax= 3.09D-03  0.00D+00 EMaxC= 1.00D-01 BMatC= 2.29D-04 BMatP= 1.02D-03
 IDIUse=3 WtCom= 9.69D-01 WtEn= 3.09D-02
 EnCoef did   100 forward-backward iterations
 Coeff-Com: -0.118D+00 0.131D+00-0.136D-02 0.272D-01 0.424D-01 0.376D-01
 Coeff-Com: -0.211D+00-0.167D+00 0.898D-01 0.358D+00 0.400D+00 0.411D+00
 Coeff-En:   0.000D+00 0.000D+00 0.158D+00 0.000D+00 0.000D+00 0.287D-02
 Coeff-En:   0.000D+00 0.000D+00 0.000D+00 0.000D+00 0.120D-01 0.827D+00
 Coeff:     -0.114D+00 0.127D+00 0.357D-02 0.263D-01 0.411D-01 0.366D-01
 Coeff:     -0.205D+00-0.162D+00 0.871D-01 0.347D+00 0.388D+00 0.423D+00
 Gap=     0.004 Goal=   None    Shift=    0.000
 RMSDP=3.13D-05 MaxDP=3.38D-03 DE=-2.04D-03 OVMax= 1.70D-02

 Cycle  13  Pass 1  IDiag  1:
 E= -123.583227183356     Delta-E=       -0.000456179972 Rises=F Damp=F
 DIIS: error= 1.49D-03 at cycle  13 NSaved=  13.
 NSaved=13 IEnMin=13 EnMin= -123.583227183356     IErMin=13 ErrMin= 1.49D-03
 ErrMax= 1.49D-03  0.00D+00 EMaxC= 1.00D-01 BMatC= 9.24D-05 BMatP= 2.29D-04
 IDIUse=3 WtCom= 9.85D-01 WtEn= 1.49D-02
 EnCoef did   100 forward-backward iterations
 Coeff-Com: -0.112D+00 0.125D+00-0.867D-04 0.226D-01 0.386D-01 0.355D-01
 Coeff-Com: -0.176D+00-0.167D+00 0.694D-01 0.312D+00 0.397D+00 0.347D+00
 Coeff-Com:  0.108D+00
 Coeff-En:   0.000D+00 0.000D+00 0.173D+00 0.000D+00 0.000D+00 0.187D-02
 Coeff-En:   0.000D+00 0.000D+00 0.000D+00 0.000D+00 0.142D-01 0.602D-04
 Coeff-En:   0.811D+00
 Coeff:     -0.110D+00 0.123D+00 0.249D-02 0.222D-01 0.380D-01 0.350D-01
 Coeff:     -0.174D+00-0.164D+00 0.684D-01 0.308D+00 0.391D+00 0.342D+00
 Coeff:      0.119D+00
 Gap=     0.004 Goal=   None    Shift=    0.000
 RMSDP=2.69D-05 MaxDP=3.89D-03 DE=-4.56D-04 OVMax= 1.16D-02

 Cycle  14  Pass 1  IDiag  1:
 E= -123.583110927254     Delta-E=        0.000116256102 Rises=F Damp=F
 DIIS: error= 2.01D-03 at cycle  14 NSaved=  14.
 NSaved=14 IEnMin=13 EnMin= -123.583227183356     IErMin=13 ErrMin= 1.49D-03
 ErrMax= 2.01D-03  0.00D+00 EMaxC= 1.00D-01 BMatC= 1.15D-04 BMatP= 9.24D-05
 IDIUse=3 WtCom= 9.85D-01 WtEn= 1.49D-02
 EnCoef did   100 forward-backward iterations
 Rare condition: small coef for last iteration: -0.235D-15
 Coeff-Com: -0.686D-01 0.784D-01-0.198D-02-0.890D-02 0.191D-01 0.100D-01
 Coeff-Com:  0.607D-02-0.457D-01-0.335D-01-0.107D+00 0.347D-02-0.174D+00
 Coeff-Com: -0.875D+00 0.220D+01
 Coeff-En:   0.000D+00 0.000D+00 0.162D+00 0.000D+00 0.000D+00 0.208D-01
 Coeff-En:   0.000D+00 0.000D+00 0.000D+00 0.000D+00 0.142D+00 0.000D+00
 Coeff-En:   0.527D+00 0.149D+00
 Coeff:     -0.686D-01 0.784D-01-0.198D-02-0.890D-02 0.191D-01 0.100D-01
 Coeff:      0.607D-02-0.457D-01-0.335D-01-0.107D+00 0.347D-02-0.174D+00
 Coeff:     -0.875D+00 0.220D+01
 Gap=     0.002 Goal=   None    Shift=    0.000
 RMSDP=1.44D-05 MaxDP=1.59D-03 DE= 1.16D-04 OVMax= 1.01D-02

 Cycle  15  Pass 1  IDiag  1:
 E= -123.583337141755     Delta-E=       -0.000226214501 Rises=F Damp=F
 DIIS: error= 1.35D-03 at cycle  15 NSaved=  15.
 NSaved=15 IEnMin=15 EnMin= -123.583337141755     IErMin=15 ErrMin= 1.35D-03
 ErrMax= 1.35D-03  0.00D+00 EMaxC= 1.00D-01 BMatC= 3.75D-05 BMatP= 9.24D-05
 IDIUse=3 WtCom= 9.86D-01 WtEn= 1.35D-02
 EnCoef did   100 forward-backward iterations
 Coeff-Com: -0.395D-01 0.454D-01-0.335D-02-0.507D-02 0.110D-01-0.257D-02
 Coeff-Com:  0.532D-01-0.435D-01-0.423D-01-0.123D+00-0.180D-01-0.277D+00
 Coeff-Com: -0.866D+00 0.152D+01 0.790D+00
 Coeff-En:   0.000D+00 0.000D+00 0.173D+00 0.000D+00 0.000D+00 0.189D-02
 Coeff-En:   0.000D+00 0.000D+00 0.000D+00 0.000D+00 0.129D-01 0.000D+00
 Coeff-En:   0.805D+00 0.249D-02 0.476D-02
 Coeff:     -0.389D-01 0.448D-01-0.960D-03-0.500D-02 0.109D-01-0.251D-02
 Coeff:      0.524D-01-0.429D-01-0.417D-01-0.121D+00-0.176D-01-0.274D+00
 Coeff:     -0.844D+00 0.150D+01 0.779D+00
 Gap=     0.003 Goal=   None    Shift=    0.000
 RMSDP=4.08D-05 MaxDP=5.66D-03 DE=-2.26D-04 OVMax= 1.87D-02

 Cycle  16  Pass 1  IDiag  1:
 E= -123.583295150239     Delta-E=        0.000041991517 Rises=F Damp=F
 DIIS: error= 9.81D-04 at cycle  16 NSaved=  16.
 NSaved=16 IEnMin=15 EnMin= -123.583337141755     IErMin=16 ErrMin= 9.81D-04
 ErrMax= 9.81D-04  0.00D+00 EMaxC= 1.00D-01 BMatC= 6.63D-05 BMatP= 3.75D-05
 IDIUse=3 WtCom= 9.86D-01 WtEn= 1.35D-02
 EnCoef did   100 forward-backward iterations
 Coeff-Com: -0.121D-01 0.134D-01-0.242D-02 0.687D-02 0.474D-02-0.533D-02
 Coeff-Com:  0.361D-02 0.118D-01-0.160D-02-0.337D-01 0.736D-01-0.369D+00
 Coeff-Com: -0.159D+01 0.173D+01-0.242D-01 0.119D+01
 Coeff-En:   0.000D+00 0.000D+00 0.181D+00 0.000D+00 0.000D+00 0.103D-02
 Coeff-En:   0.000D+00 0.000D+00 0.000D+00 0.000D+00 0.704D-02 0.000D+00
 Coeff-En:   0.154D-01 0.136D-02 0.260D-02 0.791D+00
 Coeff:     -0.120D-01 0.132D-01 0.686D-04 0.678D-02 0.468D-02-0.524D-02
 Coeff:      0.356D-02 0.116D-01-0.158D-02-0.332D-01 0.727D-01-0.364D+00
 Coeff:     -0.156D+01 0.171D+01-0.238D-01 0.119D+01
 Gap=     0.004 Goal=   None    Shift=    0.000
 RMSDP=8.16D-06 MaxDP=8.02D-04 DE= 4.20D-05 OVMax= 4.49D-03

 Cycle  17  Pass 1  IDiag  1:
 E= -123.583308923774     Delta-E=       -0.000013773536 Rises=F Damp=F
 DIIS: error= 8.88D-04 at cycle  17 NSaved=  17.
 NSaved=17 IEnMin=15 EnMin= -123.583337141755     IErMin=17 ErrMin= 8.88D-04
 ErrMax= 8.88D-04  0.00D+00 EMaxC= 1.00D-01 BMatC= 6.16D-05 BMatP= 3.75D-05
 IDIUse=3 WtCom= 9.86D-01 WtEn= 1.35D-02
 EnCoef did   100 forward-backward iterations
 Coeff-Com: -0.455D-02 0.506D-02-0.278D-03 0.279D-02-0.348D-02-0.269D-03
 Coeff-Com: -0.157D-01 0.253D-01 0.753D-02-0.587D-02 0.563D-01-0.247D+00
 Coeff-Com: -0.128D+01 0.144D+01-0.163D+00 0.405D+00 0.773D+00
 Coeff-En:   0.000D+00 0.000D+00 0.182D+00 0.000D+00 0.000D+00 0.878D-03
 Coeff-En:   0.000D+00 0.000D+00 0.000D+00 0.000D+00 0.599D-02 0.000D+00
 Coeff-En:   0.131D-01 0.115D-02 0.221D-02 0.223D-02 0.792D+00
 Coeff:     -0.449D-02 0.500D-02 0.220D-02 0.275D-02-0.344D-02-0.254D-03
 Coeff:     -0.155D-01 0.250D-01 0.742D-02-0.579D-02 0.556D-01-0.243D+00
 Coeff:     -0.126D+01 0.142D+01-0.161D+00 0.399D+00 0.773D+00
 Gap=     0.004 Goal=   None    Shift=    0.000
 RMSDP=2.14D-05 MaxDP=3.12D-03 DE=-1.38D-05 OVMax= 8.19D-03

 Cycle  18  Pass 1  IDiag  1:
 E= -123.583424678175     Delta-E=       -0.000115754400 Rises=F Damp=F
 DIIS: error= 3.86D-04 at cycle  18 NSaved=  18.
 NSaved=18 IEnMin=18 EnMin= -123.583424678175     IErMin=18 ErrMin= 3.86D-04
 ErrMax= 3.86D-04  0.00D+00 EMaxC= 1.00D-01 BMatC= 1.54D-05 BMatP= 3.75D-05
 IDIUse=3 WtCom= 9.96D-01 WtEn= 3.86D-03
 EnCoef did   100 forward-backward iterations
 Rare condition: small coef for last iteration: -0.283D-15
 Coeff-Com: -0.360D-02 0.407D-02 0.180D-03 0.667D-03-0.259D-02-0.193D-02
 Coeff-Com: -0.116D-01 0.193D-01 0.735D-02-0.358D-03 0.414D-01-0.162D+00
 Coeff-Com: -0.894D+00 0.910D+00 0.101D-01 0.275D+00 0.364D+00 0.445D+00
 Coeff-En:   0.000D+00 0.000D+00 0.160D+00 0.000D+00 0.000D+00 0.374D-01
 Coeff-En:   0.000D+00 0.000D+00 0.000D+00 0.000D+00 0.154D+00 0.178D-01
 Coeff-En:   0.000D+00 0.462D-01 0.177D+00 0.000D+00 0.000D+00 0.407D+00
 Coeff:     -0.360D-02 0.407D-02 0.180D-03 0.667D-03-0.259D-02-0.193D-02
 Coeff:     -0.116D-01 0.193D-01 0.735D-02-0.358D-03 0.414D-01-0.162D+00
 Coeff:     -0.894D+00 0.910D+00 0.101D-01 0.275D+00 0.364D+00 0.445D+00
 Gap=     0.003 Goal=   None    Shift=    0.000
 RMSDP=1.81D-05 MaxDP=2.98D-03 DE=-1.16D-04 OVMax= 7.92D-03

 Cycle  19  Pass 1  IDiag  1:
 E= -123.583446963599     Delta-E=       -0.000022285425 Rises=F Damp=F
 DIIS: error= 1.61D-04 at cycle  19 NSaved=  19.
 NSaved=19 IEnMin=19 EnMin= -123.583446963599     IErMin=19 ErrMin= 1.61D-04
 ErrMax= 1.61D-04  0.00D+00 EMaxC= 1.00D-01 BMatC= 1.42D-06 BMatP= 1.54D-05
 IDIUse=3 WtCom= 9.98D-01 WtEn= 1.61D-03
 EnCoef did   100 forward-backward iterations
 Rare condition: small coef for last iteration:  0.000D+00
 Coeff-Com: -0.257D-02 0.294D-02 0.409D-03-0.302D-03-0.172D-02-0.226D-02
 Coeff-Com: -0.825D-02 0.126D-01 0.655D-02 0.359D-02 0.300D-01-0.102D+00
 Coeff-Com: -0.597D+00 0.534D+00 0.790D-01 0.199D+00 0.129D+00 0.565D+00
 Coeff-Com:  0.153D+00
 Coeff-En:   0.000D+00 0.000D+00 0.160D+00 0.000D+00 0.000D+00 0.398D-01
 Coeff-En:   0.000D+00 0.000D+00 0.000D+00 0.000D+00 0.150D+00 0.236D-01
 Coeff-En:   0.000D+00 0.531D-01 0.580D-01 0.000D+00 0.883D-01 0.147D+00
 Coeff-En:   0.280D+00
 Coeff:     -0.257D-02 0.294D-02 0.409D-03-0.302D-03-0.172D-02-0.226D-02
 Coeff:     -0.825D-02 0.126D-01 0.655D-02 0.359D-02 0.300D-01-0.102D+00
 Coeff:     -0.597D+00 0.534D+00 0.790D-01 0.199D+00 0.129D+00 0.565D+00
 Coeff:      0.153D+00
 Gap=     0.003 Goal=   None    Shift=    0.000
 RMSDP=4.91D-06 MaxDP=9.19D-04 DE=-2.23D-05 OVMax= 2.42D-03

 Cycle  20  Pass 1  IDiag  1:
 E= -123.583445580322     Delta-E=        0.000001383277 Rises=F Damp=F
 DIIS: error= 1.54D-04 at cycle  20 NSaved=  20.
 NSaved=20 IEnMin=19 EnMin= -123.583446963599     IErMin=20 ErrMin= 1.54D-04
 ErrMax= 1.54D-04  0.00D+00 EMaxC= 1.00D-01 BMatC= 1.95D-06 BMatP= 1.42D-06
 IDIUse=3 WtCom= 9.98D-01 WtEn= 1.61D-03
 EnCoef did   100 forward-backward iterations
 Coeff-Com: -0.157D-03 0.158D-03 0.451D-03-0.151D-03 0.593D-03-0.186D-03
 Coeff-Com: -0.209D-02-0.171D-02 0.210D-02 0.781D-02 0.949D-02-0.989D-02
 Coeff-Com: -0.527D-01-0.282D-01-0.236D-01 0.155D+00 0.145D-02 0.541D-01
 Coeff-Com:  0.207D+00 0.680D+00
 Coeff-En:   0.000D+00 0.000D+00 0.181D+00 0.000D+00 0.000D+00 0.330D-02
 Coeff-En:   0.000D+00 0.000D+00 0.000D+00 0.000D+00 0.124D-01 0.202D-02
 Coeff-En:   0.111D-02 0.444D-02 0.429D-02 0.161D+00 0.615D+00 0.443D-02
 Coeff-En:   0.381D-02 0.689D-02
 Coeff:     -0.157D-03 0.158D-03 0.742D-03-0.151D-03 0.592D-03-0.180D-03
 Coeff:     -0.208D-02-0.171D-02 0.210D-02 0.779D-02 0.949D-02-0.987D-02
 Coeff:     -0.526D-01-0.281D-01-0.235D-01 0.155D+00 0.243D-02 0.541D-01
 Coeff:      0.207D+00 0.679D+00
 Gap=     0.003 Goal=   None    Shift=    0.000
 RMSDP=3.04D-06 MaxDP=4.53D-04 DE= 1.38D-06 OVMax= 1.41D-03

 Cycle  21  Pass 1  IDiag  1:
 E= -123.583448793988     Delta-E=       -0.000003213666 Rises=F Damp=F
 DIIS: error= 9.51D-05 at cycle  21 NSaved=  20.
 NSaved=20 IEnMin=20 EnMin= -123.583448793988     IErMin=20 ErrMin= 9.51D-05
 ErrMax= 9.51D-05  0.00D+00 EMaxC= 1.00D-01 BMatC= 8.24D-07 BMatP= 1.42D-06
 IDIUse=1 WtCom= 1.00D+00 WtEn= 0.00D+00
 Coeff-Com:  0.594D-03-0.772D-03 0.360D-03 0.301D-02 0.127D-03 0.873D-04
 Coeff-Com: -0.108D-03-0.246D-02 0.174D-02-0.782D-02 0.251D-01 0.237D+00
 Coeff-Com: -0.253D+00-0.126D+00 0.175D+00-0.989D-02-0.554D+00-0.555D-01
 Coeff-Com:  0.326D+00 0.124D+01
 Coeff:      0.594D-03-0.772D-03 0.360D-03 0.301D-02 0.127D-03 0.873D-04
 Coeff:     -0.108D-03-0.246D-02 0.174D-02-0.782D-02 0.251D-01 0.237D+00
 Coeff:     -0.253D+00-0.126D+00 0.175D+00-0.989D-02-0.554D+00-0.555D-01
 Coeff:      0.326D+00 0.124D+01
 Gap=     0.003 Goal=   None    Shift=    0.000
 RMSDP=3.65D-06 MaxDP=5.08D-04 DE=-3.21D-06 OVMax= 1.63D-03

 Cycle  22  Pass 1  IDiag  1:
 E= -123.583450562921     Delta-E=       -0.000001768933 Rises=F Damp=F
 DIIS: error= 1.14D-05 at cycle  22 NSaved=  20.
 NSaved=20 IEnMin=20 EnMin= -123.583450562921     IErMin=20 ErrMin= 1.14D-05
 ErrMax= 1.14D-05  0.00D+00 EMaxC= 1.00D-01 BMatC= 9.29D-09 BMatP= 8.24D-07
 IDIUse=1 WtCom= 1.00D+00 WtEn= 0.00D+00
 Coeff-Com: -0.179D-04 0.338D-03 0.104D-02 0.138D-02-0.354D-02-0.871D-03
 Coeff-Com:  0.935D-03 0.283D-02 0.342D-02 0.239D-02-0.298D-01 0.495D-01
 Coeff-Com: -0.263D-01-0.210D-01 0.420D-01-0.331D-01-0.635D-01-0.198D+00
 Coeff-Com:  0.608D-01 0.121D+01
 Coeff:     -0.179D-04 0.338D-03 0.104D-02 0.138D-02-0.354D-02-0.871D-03
 Coeff:      0.935D-03 0.283D-02 0.342D-02 0.239D-02-0.298D-01 0.495D-01
 Coeff:     -0.263D-01-0.210D-01 0.420D-01-0.331D-01-0.635D-01-0.198D+00
 Coeff:      0.608D-01 0.121D+01
 Gap=     0.003 Goal=   None    Shift=    0.000
 RMSDP=7.14D-07 MaxDP=8.23D-05 DE=-1.77D-06 OVMax= 3.41D-04

 Cycle  23  Pass 1  IDiag  1:
 E= -123.583450590965     Delta-E=       -0.000000028044 Rises=F Damp=F
 DIIS: error= 1.17D-05 at cycle  23 NSaved=  20.
 NSaved=20 IEnMin=20 EnMin= -123.583450590965     IErMin=19 ErrMin= 1.14D-05
 ErrMax= 1.17D-05  0.00D+00 EMaxC= 1.00D-01 BMatC= 8.05D-09 BMatP= 9.29D-09
 IDIUse=1 WtCom= 1.00D+00 WtEn= 0.00D+00
 Coeff-Com:  0.280D-03 0.424D-03 0.125D-02-0.337D-02-0.906D-03 0.128D-02
 Coeff-Com:  0.228D-02 0.574D-02-0.508D-02-0.838D-01 0.103D+00-0.327D-02
 Coeff-Com: -0.420D-01 0.445D-01 0.722D-01-0.554D-01-0.240D+00-0.185D+00
 Coeff-Com:  0.100D+01 0.384D+00
 Coeff:      0.280D-03 0.424D-03 0.125D-02-0.337D-02-0.906D-03 0.128D-02
 Coeff:      0.228D-02 0.574D-02-0.508D-02-0.838D-01 0.103D+00-0.327D-02
 Coeff:     -0.420D-01 0.445D-01 0.722D-01-0.554D-01-0.240D+00-0.185D+00
 Coeff:      0.100D+01 0.384D+00
 Gap=     0.003 Goal=   None    Shift=    0.000
 RMSDP=5.81D-07 MaxDP=7.88D-05 DE=-2.80D-08 OVMax= 1.59D-04

 Cycle  24  Pass 1  IDiag  1:
 E= -123.583450605509     Delta-E=       -0.000000014544 Rises=F Damp=F
 DIIS: error= 8.09D-06 at cycle  24 NSaved=  20.
 NSaved=20 IEnMin=20 EnMin= -123.583450605509     IErMin=20 ErrMin= 8.09D-06
 ErrMax= 8.09D-06  0.00D+00 EMaxC= 1.00D-01 BMatC= 4.24D-09 BMatP= 8.05D-09
 IDIUse=1 WtCom= 1.00D+00 WtEn= 0.00D+00
 Coeff-Com: -0.182D-03 0.102D-03-0.812D-04-0.106D-02-0.433D-04-0.564D-03
 Coeff-Com:  0.533D-02-0.134D-01-0.774D-01 0.805D-01 0.108D-01 0.853D-02
 Coeff-Com:  0.158D-01 0.737D-01-0.495D-02-0.608D-01-0.205D+00-0.405D+00
 Coeff-Com:  0.442D+00 0.113D+01
 Coeff:     -0.182D-03 0.102D-03-0.812D-04-0.106D-02-0.433D-04-0.564D-03
 Coeff:      0.533D-02-0.134D-01-0.774D-01 0.805D-01 0.108D-01 0.853D-02
 Coeff:      0.158D-01 0.737D-01-0.495D-02-0.608D-01-0.205D+00-0.405D+00
 Coeff:      0.442D+00 0.113D+01
 Gap=     0.003 Goal=   None    Shift=    0.000
 RMSDP=3.52D-07 MaxDP=2.88D-05 DE=-1.45D-08 OVMax= 1.22D-04

 Cycle  25  Pass 1  IDiag  1:
 E= -123.583450618313     Delta-E=       -0.000000012804 Rises=F Damp=F
 DIIS: error= 2.45D-06 at cycle  25 NSaved=  20.
 NSaved=20 IEnMin=20 EnMin= -123.583450618313     IErMin=20 ErrMin= 2.45D-06
 ErrMax= 2.45D-06  0.00D+00 EMaxC= 1.00D-01 BMatC= 6.21D-10 BMatP= 4.24D-09
 IDIUse=1 WtCom= 1.00D+00 WtEn= 0.00D+00
 Coeff-Com:  0.377D-04 0.678D-04-0.972D-03-0.174D-03-0.398D-03 0.355D-02
 Coeff-Com: -0.895D-02-0.472D-01 0.480D-01 0.617D-02 0.118D-01 0.831D-02
 Coeff-Com:  0.394D-01-0.103D-02-0.241D-01-0.120D+00-0.376D+00 0.284D+00
 Coeff-Com:  0.823D+00 0.355D+00
 Coeff:      0.377D-04 0.678D-04-0.972D-03-0.174D-03-0.398D-03 0.355D-02
 Coeff:     -0.895D-02-0.472D-01 0.480D-01 0.617D-02 0.118D-01 0.831D-02
 Coeff:      0.394D-01-0.103D-02-0.241D-01-0.120D+00-0.376D+00 0.284D+00
 Coeff:      0.823D+00 0.355D+00
 Gap=     0.003 Goal=   None    Shift=    0.000
 RMSDP=2.19D-07 MaxDP=2.49D-05 DE=-1.28D-08 OVMax= 7.12D-05

 Cycle  26  Pass 1  IDiag  1:
 E= -123.583450618681     Delta-E=       -0.000000000368 Rises=F Damp=F
 DIIS: error= 2.29D-06 at cycle  26 NSaved=  20.
 NSaved=20 IEnMin=20 EnMin= -123.583450618681     IErMin=20 ErrMin= 2.29D-06
 ErrMax= 2.29D-06  0.00D+00 EMaxC= 1.00D-01 BMatC= 5.63D-10 BMatP= 6.21D-10
 IDIUse=1 WtCom= 1.00D+00 WtEn= 0.00D+00
 Coeff-Com:  0.469D-04-0.264D-04-0.704D-04 0.147D-03 0.407D-03-0.167D-04
 Coeff-Com: -0.770D-03 0.699D-03-0.203D-02 0.101D-02 0.437D-02-0.503D-02
 Coeff-Com:  0.266D-02 0.133D-01 0.120D-01-0.795D-02-0.122D+00-0.197D+00
 Coeff-Com:  0.627D+00 0.674D+00
 Coeff:      0.469D-04-0.264D-04-0.704D-04 0.147D-03 0.407D-03-0.167D-04
 Coeff:     -0.770D-03 0.699D-03-0.203D-02 0.101D-02 0.437D-02-0.503D-02
 Coeff:      0.266D-02 0.133D-01 0.120D-01-0.795D-02-0.122D+00-0.197D+00
 Coeff:      0.627D+00 0.674D+00
 Gap=     0.003 Goal=   None    Shift=    0.000
 RMSDP=1.30D-07 MaxDP=1.30D-05 DE=-3.68D-10 OVMax= 3.77D-05

 Cycle  27  Pass 1  IDiag  1:
 E= -123.583450620134     Delta-E=       -0.000000001453 Rises=F Damp=F
 DIIS: error= 4.79D-07 at cycle  27 NSaved=  20.
 NSaved=20 IEnMin=20 EnMin= -123.583450620134     IErMin=20 ErrMin= 4.79D-07
 ErrMax= 4.79D-07  0.00D+00 EMaxC= 1.00D-01 BMatC= 1.87D-11 BMatP= 5.63D-10
 IDIUse=1 WtCom= 1.00D+00 WtEn= 0.00D+00
 Coeff-Com:  0.101D-03-0.159D-04 0.226D-04-0.185D-03 0.317D-03 0.282D-02
 Coeff-Com: -0.278D-02-0.195D-02 0.195D-02 0.690D-03-0.745D-02 0.157D-02
 Coeff-Com:  0.895D-02 0.192D-01 0.171D-01-0.560D-01-0.118D+00 0.899D-01
 Coeff-Com:  0.133D+00 0.911D+00
 Coeff:      0.101D-03-0.159D-04 0.226D-04-0.185D-03 0.317D-03 0.282D-02
 Coeff:     -0.278D-02-0.195D-02 0.195D-02 0.690D-03-0.745D-02 0.157D-02
 Coeff:      0.895D-02 0.192D-01 0.171D-01-0.560D-01-0.118D+00 0.899D-01
 Coeff:      0.133D+00 0.911D+00
 Gap=     0.003 Goal=   None    Shift=    0.000
 RMSDP=2.69D-08 MaxDP=2.54D-06 DE=-1.45D-09 OVMax= 4.53D-06

 Cycle  28  Pass 1  IDiag  1:
 E= -123.583450620162     Delta-E=       -0.000000000029 Rises=F Damp=F
 DIIS: error= 2.10D-07 at cycle  28 NSaved=  20.
 NSaved=20 IEnMin=20 EnMin= -123.583450620162     IErMin=20 ErrMin= 2.10D-07
 ErrMax= 2.10D-07  0.00D+00 EMaxC= 1.00D-01 BMatC= 3.80D-12 BMatP= 1.87D-11
 IDIUse=1 WtCom= 1.00D+00 WtEn= 0.00D+00
 Coeff-Com:  0.135D-04-0.174D-04-0.164D-04-0.235D-03-0.104D-02 0.132D-02
 Coeff-Com:  0.207D-03 0.291D-03-0.826D-03 0.122D-02-0.117D-02-0.466D-02
 Coeff-Com: -0.208D-02 0.118D-01 0.116D-01 0.105D-01-0.840D-01-0.767D-01
 Coeff-Com:  0.273D+00 0.861D+00
 Coeff:      0.135D-04-0.174D-04-0.164D-04-0.235D-03-0.104D-02 0.132D-02
 Coeff:      0.207D-03 0.291D-03-0.826D-03 0.122D-02-0.117D-02-0.466D-02
 Coeff:     -0.208D-02 0.118D-01 0.116D-01 0.105D-01-0.840D-01-0.767D-01
 Coeff:      0.273D+00 0.861D+00
 Gap=     0.003 Goal=   None    Shift=    0.000
 RMSDP=1.76D-08 MaxDP=2.11D-06 DE=-2.88D-11 OVMax= 3.32D-06

 Cycle  29  Pass 1  IDiag  1:
 E= -123.583450620167     Delta-E=       -0.000000000005 Rises=F Damp=F
 DIIS: error= 1.08D-07 at cycle  29 NSaved=  20.
 NSaved=20 IEnMin=20 EnMin= -123.583450620167     IErMin=20 ErrMin= 1.08D-07
 ErrMax= 1.08D-07  0.00D+00 EMaxC= 1.00D-01 BMatC= 8.39D-13 BMatP= 3.80D-12
 IDIUse=1 WtCom= 1.00D+00 WtEn= 0.00D+00
 Coeff-Com: -0.376D-04-0.390D-04-0.985D-04-0.339D-03 0.687D-03 0.131D-03
 Coeff-Com: -0.230D-03-0.240D-03 0.445D-03-0.775D-03-0.271D-02-0.186D-02
 Coeff-Com:  0.377D-02 0.129D-01 0.206D-01-0.517D-01-0.578D-01-0.211D-01
 Coeff-Com:  0.413D+00 0.685D+00
 Coeff:     -0.376D-04-0.390D-04-0.985D-04-0.339D-03 0.687D-03 0.131D-03
 Coeff:     -0.230D-03-0.240D-03 0.445D-03-0.775D-03-0.271D-02-0.186D-02
 Coeff:      0.377D-02 0.129D-01 0.206D-01-0.517D-01-0.578D-01-0.211D-01
 Coeff:      0.413D+00 0.685D+00
 Gap=     0.003 Goal=   None    Shift=    0.000
 RMSDP=1.03D-08 MaxDP=9.91D-07 DE=-4.89D-12 OVMax= 2.39D-06

 Cycle  30  Pass 1  IDiag  1:
 E= -123.583450620168     Delta-E=       -0.000000000000 Rises=F Damp=F
 DIIS: error= 7.40D-08 at cycle  30 NSaved=  20.
 NSaved=20 IEnMin=20 EnMin= -123.583450620168     IErMin=20 ErrMin= 7.40D-08
 ErrMax= 7.40D-08  0.00D+00 EMaxC= 1.00D-01 BMatC= 7.31D-13 BMatP= 8.39D-13
 IDIUse=1 WtCom= 1.00D+00 WtEn= 0.00D+00
 Coeff-Com: -0.321D-04-0.329D-04-0.171D-03 0.152D-03 0.298D-03-0.211D-03
 Coeff-Com: -0.325D-03 0.789D-03-0.996D-04-0.106D-02-0.217D-02 0.100D-02
 Coeff-Com:  0.841D-02 0.142D-01-0.328D-01-0.381D-01-0.581D-01 0.188D+00
 Coeff-Com:  0.473D+00 0.447D+00
 Coeff:     -0.321D-04-0.329D-04-0.171D-03 0.152D-03 0.298D-03-0.211D-03
 Coeff:     -0.325D-03 0.789D-03-0.996D-04-0.106D-02-0.217D-02 0.100D-02
 Coeff:      0.841D-02 0.142D-01-0.328D-01-0.381D-01-0.581D-01 0.188D+00
 Coeff:      0.473D+00 0.447D+00
 Gap=     0.003 Goal=   None    Shift=    0.000
 RMSDP=6.24D-09 MaxDP=4.82D-07 DE=-3.41D-13 OVMax= 1.42D-06

 SCF Done:  E(ROHF) =  -123.583450620     A.U. after   30 cycles
            NFock= 30  Conv=0.62D-08     -V/T= 2.6634
 <Sx>= 0.0000 <Sy>= 0.0000 <Sz>= 1.5000 <S**2>= 3.7500 S= 1.5000
 <L.S>=  0.00000000000    
 KE= 7.429674052619D+01 PE=-3.033081555377D+02 EE= 1.007241669609D+02
 Annihilation of the first spin contaminant:
 S**2 before annihilation     3.7500,   after     3.7500
 Leave Link  502 at Mon Feb 12 22:22:00 2018, MaxMem= 10737418240 cpu:            5980.0 elap:             222.0
 (Enter /home1/apps/gaussian/16rA.03/g16/l801.exe)
 Windowed orbitals will be sorted by symmetry type.
 GenMOA:  NOpAll=  4 NOp2=4 NOpUse=  4 JSym2X=1
 FoFJK:  IHMeth= 1 ICntrl=       0 DoSepK=F KAlg= 0 I1Cent=           0 FoldK=F
 IRaf=         0 NMat=       1 IRICut=       1 DoRegI=T DoRafI=F ISym2E= 1 IDoP0=0 IntGTp=1.
 FoFCou: FMM=F IPFlag=           8 FMFlag=      100000 FMFlg1=           0
         NFxFlg=           0 DoJE=F BraDBF=F KetDBF=F FulRan=T
         wScrn=  0.000000 ICntrl=         0 IOpCl=  1 I1Cent=           0 NGrid=           0
         NMat0=    1 NMatS0=      1 NMatT0=    0 NMatD0=    1 NMtDS0=    0 NMtDT0=    0
 Petite list used in FoFCou.
 <Sx>= 0.0000 <Sy>= 0.0000 <Sz>= 1.5000 <S**2>= 3.7500 S= 1.5000
 Range of M.O.s used for correlation:     1   407
 NBasis=   415 NAE=    10 NBE=     7 NFC=     0 NFV=     0
 NROrb=    407 NOA=    10 NOB=     7 NVA=   397 NVB=   400

 **** Warning!!: The largest alpha MO coefficient is  0.16714219D+03


 **** Warning!!: The largest beta MO coefficient is  0.16712417D+03

 Singles contribution to E2=   -0.7162106092D-02
 Leave Link  801 at Mon Feb 12 22:22:51 2018, MaxMem= 10737418240 cpu:            1616.1 elap:              50.5
 (Enter /home1/apps/gaussian/16rA.03/g16/l804.exe)
 Open-shell transformation, MDV= 10737418240 ITran=4 ISComp=2.
 Unit  1 TFree=       5191919 TCopy=       3708179.
 Semi-Direct transformation.
 ModeAB=           2 MOrb=            10 LenV=   10732347872
 LASXX=     83967637 LTotXX=    83967637 LenRXX=    83967637
 LTotAB=    84746805 MaxLAS=   669315570 LenRXY=   669315570
 NonZer=   679738840 LenScr=  1023606784 LnRSAI=           0
 LnScr1=           0 LExtra=    20154109 Total=   1797044100
 MaxDsk= 67108864000 SrtSym=           F ITran=            4
 DoSDTr:  NPSUse= 32
 JobTyp=1 Pass  1:  I=   1 to  10.
 (rs|ai) integrals will be sorted in core.
 Complete sort for first half transformation.
 First half transformation complete.
 Begin second half transformation for I=  10.
 Begin second half transformation for I=  10.
 Complete sort for second half transformation.
 Second half transformation complete.
 ModeAB=           2 MOrb=             7 LenV=   10732347872
 LASXX=     59605506 LTotXX=    59605506 LenRXX=   468520899
 LTotAB=    57232483 MaxLAS=   468520899 LenRXY=    57232483
 NonZer=   475817188 LenScr=   716525568 LnRSAI=           0
 LnScr1=           0 LExtra=   773437316 Total=   2015716266
 MaxDsk= 67108864000 SrtSym=           F ITran=            4
 DoSDTr:  NPSUse= 32
 JobTyp=2 Pass  1:  I=   1 to   7.
 (rs|ai) integrals will be sorted in core.
 Complete sort for first half transformation.
 First half transformation complete.
 Complete sort for second half transformation.
 Second half transformation complete.
 Spin components of T(2) and E(2):
     alpha-alpha T2 =       0.2837839534D-01 E2=     -0.1659913340D+00
     alpha-beta  T2 =       0.8972388150D-01 E2=     -0.5635227945D+00
     beta-beta   T2 =       0.1032999404D-01 E2=     -0.6805892095D-01
 ANorm=    0.1063525644D+01
 E2 =    -0.8047351556D+00 EUMP2 =    -0.12438818577574D+03
 (S**2,0)=  0.37500D+01           (S**2,1)=  0.37500D+01
 E(PUHF)=      -0.12358345062D+03        E(PMP2)=      -0.12438818578D+03
 Leave Link  804 at Mon Feb 12 22:49:26 2018, MaxMem= 10737418240 cpu:           51029.8 elap:            1594.7
 (Enter /home1/apps/gaussian/16rA.03/g16/l913.exe)
 CIDS:  MDV= 10737418240.
 IFCWin=0 IBDFC=1 NFBD=     0     0 NFCmp=     0     0 NFFFC=     0     0
 Using original routines for 1st iteration.
 Using DD4UQ or CC4UQ for 2nd and later iterations.
 Keep R2 and R3 ints in memory in symmetry-blocked form, NReq=4666752675.
 FoFCou: FMM=F IPFlag=           8 FMFlag=           0 FMFlg1=           0
         NFxFlg=           0 DoJE=F BraDBF=F KetDBF=F FulRan=T
         wScrn=  0.000000 ICntrl=       600 IOpCl=  0 I1Cent=           0 NGrid=           0
         NMat0=    1 NMatS0=  86320 NMatT0=    0 NMatD0=    1 NMtDS0=    0 NMtDT0=    0
 Petite list used in FoFCou.
 CIDS: In Core Option IDoMem=           1.
 CCSD(T)
 =======
 Iterations= 100 Convergence= 0.100D-06
 Produce multiple copies of IABC intergrals
 Iteration Nr.   1
 **********************
 DD1Dir will call FoFMem   1 times, MxPair=       206
 NAB=    70 NAA=    45 NBB=    21.
 DD1Dir will call FoFMem   1 times, MxPair=       206
 NAB=    70 NAA=    45 NBB=    21.
 MP4(R+Q)= -0.51023283D-01
 Maximum subspace dimension=  5
 A-vector RMS=  3.0323981D-04 Max=  3.7516229D-03 conv= 1.00D-05.
 RLE energy=       -0.7972208812
 E3=        0.58317013D-01        EROMP3=      -0.12432986876D+03
 E4(SDQ)=  -0.37455038D-01        ROMP4(SDQ)=  -0.12436732380D+03
 VARIATIONAL ENERGIES WITH THE FIRST-ORDER WAVEFUNCTION:
 DE(Corr)= -0.79714873     E(Corr)=     -124.38059935    
 NORM(A)=   0.10600958D+01
 Iteration Nr.   2
 **********************
 DD1Dir will call FoFMem   1 times, MxPair=       206
 NAB=    70 NAA=    45 NBB=    21.
 A-vector RMS=  3.1311051D-03 Max=  3.6072015D-02 conv= 1.00D-05.
 RLE energy=       -0.7836666165
 DE(Corr)= -0.73714201     E(CORR)=     -124.32059263     Delta= 6.00D-02
 NORM(A)=   0.10579312D+01
 Iteration Nr.   3
 **********************
 DD1Dir will call FoFMem   1 times, MxPair=       206
 NAB=    70 NAA=    45 NBB=    21.
 A-vector RMS=  2.2788299D-03 Max=  2.8189274D-02 conv= 1.00D-05.
 RLE energy=       -0.7820086835
 DE(Corr)= -0.74555061     E(CORR)=     -124.32900123     Delta=-8.41D-03
 NORM(A)=   0.10608545D+01
 Iteration Nr.   4
 **********************
 DD1Dir will call FoFMem   1 times, MxPair=       206
 NAB=    70 NAA=    45 NBB=    21.
 A-vector RMS=  2.2214260D-03 Max=  3.0300214D-02 conv= 1.00D-05.
 RLE energy=       -0.7599391608
 DE(Corr)= -0.75064573     E(CORR)=     -124.33409635     Delta=-5.10D-03
 NORM(A)=   0.10959683D+01
 Iteration Nr.   5
 **********************
 DD1Dir will call FoFMem   1 times, MxPair=       206
 NAB=    70 NAA=    45 NBB=    21.
 A-vector RMS=  1.3678580D-03 Max=  1.6150704D-02 conv= 1.00D-05.
 RLE energy=       -0.7762634350
 DE(Corr)= -0.78462643     E(CORR)=     -124.36807705     Delta=-3.40D-02
 NORM(A)=   0.10877873D+01
 Iteration Nr.   6
 **********************
 DD1Dir will call FoFMem   1 times, MxPair=       206
 NAB=    70 NAA=    45 NBB=    21.
 A-vector RMS=  9.7414049D-04 Max=  2.2345518D-02 conv= 1.00D-05.
 RLE energy=       -0.7737098366
 DE(Corr)= -0.76759903     E(CORR)=     -124.35104965     Delta= 1.70D-02
 NORM(A)=   0.11216309D+01
 Iteration Nr.   7
 **********************
 DD1Dir will call FoFMem   1 times, MxPair=       206
 NAB=    70 NAA=    45 NBB=    21.
 A-vector RMS=  5.4331171D-04 Max=  8.4120661D-03 conv= 1.00D-05.
 RLE energy=       -0.7747858096
 DE(Corr)= -0.77401616     E(CORR)=     -124.35746678     Delta=-6.42D-03
 NORM(A)=   0.11602176D+01
 Iteration Nr.   8
 **********************
 DD1Dir will call FoFMem   1 times, MxPair=       206
 NAB=    70 NAA=    45 NBB=    21.
 A-vector RMS=  6.7741406D-04 Max=  1.4640372D-02 conv= 1.00D-05.
 RLE energy=       -0.7767364155
 DE(Corr)= -0.77595202     E(CORR)=     -124.35940264     Delta=-1.94D-03
 NORM(A)=   0.12154188D+01
 Iteration Nr.   9
 **********************
 DD1Dir will call FoFMem   1 times, MxPair=       206
 NAB=    70 NAA=    45 NBB=    21.
 A-vector RMS=  5.5303052D-04 Max=  8.8512798D-03 conv= 1.00D-05.
 RLE energy=       -0.7781440579
 DE(Corr)= -0.77580372     E(CORR)=     -124.35925434     Delta= 1.48D-04
 NORM(A)=   0.12634118D+01
 Iteration Nr.  10
 **********************
 DD1Dir will call FoFMem   1 times, MxPair=       206
 NAB=    70 NAA=    45 NBB=    21.
 A-vector RMS=  4.8520143D-04 Max=  7.9452139D-03 conv= 1.00D-05.
 RLE energy=       -0.7762967166
 DE(Corr)= -0.77784373     E(CORR)=     -124.36129435     Delta=-2.04D-03
 NORM(A)=   0.12604460D+01
 Iteration Nr.  11
 **********************
 DD1Dir will call FoFMem   1 times, MxPair=       206
 NAB=    70 NAA=    45 NBB=    21.
 A-vector RMS=  2.6186864D-04 Max=  5.0059585D-03 conv= 1.00D-05.
 RLE energy=       -0.7778209924
 DE(Corr)= -0.77748702     E(CORR)=     -124.36093764     Delta= 3.57D-04
 NORM(A)=   0.12690707D+01
 Iteration Nr.  12
 **********************
 DD1Dir will call FoFMem   1 times, MxPair=       206
 NAB=    70 NAA=    45 NBB=    21.
 A-vector RMS=  2.4950521D-04 Max=  3.9051415D-03 conv= 1.00D-05.
 RLE energy=       -0.7771795172
 DE(Corr)= -0.77697641     E(CORR)=     -124.36042703     Delta= 5.11D-04
 NORM(A)=   0.12851204D+01
 Iteration Nr.  13
 **********************
 DD1Dir will call FoFMem   1 times, MxPair=       206
 NAB=    70 NAA=    45 NBB=    21.
 A-vector RMS=  2.4739139D-04 Max=  5.8588602D-03 conv= 1.00D-05.
 RLE energy=       -0.7774378538
 DE(Corr)= -0.77789558     E(CORR)=     -124.36134620     Delta=-9.19D-04
 NORM(A)=   0.12865989D+01
 Iteration Nr.  14
 **********************
 DD1Dir will call FoFMem   1 times, MxPair=       206
 NAB=    70 NAA=    45 NBB=    21.
 A-vector RMS=  1.9930224D-04 Max=  3.7283312D-03 conv= 1.00D-05.
 RLE energy=       -0.7782339382
 DE(Corr)= -0.77776026     E(CORR)=     -124.36121088     Delta= 1.35D-04
 NORM(A)=   0.12979983D+01
 Iteration Nr.  15
 **********************
 DD1Dir will call FoFMem   1 times, MxPair=       206
 NAB=    70 NAA=    45 NBB=    21.
 A-vector RMS=  1.5253462D-04 Max=  2.9199441D-03 conv= 1.00D-05.
 RLE energy=       -0.7780739279
 DE(Corr)= -0.77780762     E(CORR)=     -124.36125824     Delta=-4.74D-05
 NORM(A)=   0.13050999D+01
 Iteration Nr.  16
 **********************
 DD1Dir will call FoFMem   1 times, MxPair=       206
 NAB=    70 NAA=    45 NBB=    21.
 A-vector RMS=  1.1466179D-04 Max=  1.6150396D-03 conv= 1.00D-05.
 RLE energy=       -0.7782347829
 DE(Corr)= -0.77841015     E(CORR)=     -124.36186077     Delta=-6.03D-04
 NORM(A)=   0.13036349D+01
 Iteration Nr.  17
 **********************
 DD1Dir will call FoFMem   1 times, MxPair=       206
 NAB=    70 NAA=    45 NBB=    21.
 A-vector RMS=  6.9974311D-05 Max=  1.0486667D-03 conv= 1.00D-05.
 RLE energy=       -0.7783817264
 DE(Corr)= -0.77825333     E(CORR)=     -124.36170395     Delta= 1.57D-04
 NORM(A)=   0.13057473D+01
 Iteration Nr.  18
 **********************
 DD1Dir will call FoFMem   1 times, MxPair=       206
 NAB=    70 NAA=    45 NBB=    21.
 A-vector RMS=  4.1867458D-05 Max=  7.2542716D-04 conv= 1.00D-05.
 RLE energy=       -0.7783325462
 DE(Corr)= -0.77831209     E(CORR)=     -124.36176271     Delta=-5.88D-05
 NORM(A)=   0.13062015D+01
 Iteration Nr.  19
 **********************
 DD1Dir will call FoFMem   1 times, MxPair=       206
 NAB=    70 NAA=    45 NBB=    21.
 A-vector RMS=  3.0502484D-05 Max=  5.5156231D-04 conv= 1.00D-05.
 RLE energy=       -0.7783840295
 DE(Corr)= -0.77842082     E(CORR)=     -124.36187144     Delta=-1.09D-04
 NORM(A)=   0.13061667D+01
 Iteration Nr.  20
 **********************
 DD1Dir will call FoFMem   1 times, MxPair=       206
 NAB=    70 NAA=    45 NBB=    21.
 A-vector RMS=  1.9322248D-05 Max=  3.6704456D-04 conv= 1.00D-05.
 RLE energy=       -0.7784044954
 DE(Corr)= -0.77839939     E(CORR)=     -124.36185001     Delta= 2.14D-05
 NORM(A)=   0.13062211D+01
 Iteration Nr.  21
 **********************
 DD1Dir will call FoFMem   1 times, MxPair=       206
 NAB=    70 NAA=    45 NBB=    21.
 A-vector RMS=  1.1074951D-05 Max=  1.9160929D-04 conv= 1.00D-05.
 RLE energy=       -0.7783933467
 DE(Corr)= -0.77840517     E(CORR)=     -124.36185579     Delta=-5.78D-06
 NORM(A)=   0.13059876D+01
 Iteration Nr.  22
 **********************
 DD1Dir will call FoFMem   1 times, MxPair=       206
 NAB=    70 NAA=    45 NBB=    21.
 A-vector RMS=  8.1727288D-06 Max=  1.3278210D-04 conv= 1.00D-05.
 RLE energy=       -0.7784039410
 DE(Corr)= -0.77841085     E(CORR)=     -124.36186147     Delta=-5.68D-06
 NORM(A)=   0.13056096D+01
 Iteration Nr.  23
 **********************
 DD1Dir will call FoFMem   1 times, MxPair=       206
 NAB=    70 NAA=    45 NBB=    21.
 A-vector RMS=  8.3158144D-06 Max=  1.4125941D-04 conv= 1.00D-05.
 RLE energy=       -0.7783998705
 DE(Corr)= -0.77838964     E(CORR)=     -124.36184026     Delta= 2.12D-05
 NORM(A)=   0.13055698D+01
 Iteration Nr.  24
 **********************
 DD1Dir will call FoFMem   1 times, MxPair=       206
 NAB=    70 NAA=    45 NBB=    21.
 A-vector RMS=  4.4278745D-06 Max=  6.9058069D-05 conv= 1.00D-05.
 RLE energy=       -0.7783920730
 DE(Corr)= -0.77839507     E(CORR)=     -124.36184569     Delta=-5.43D-06
 NORM(A)=   0.13054564D+01
 Iteration Nr.  25
 **********************
 DD1Dir will call FoFMem   1 times, MxPair=       206
 NAB=    70 NAA=    45 NBB=    21.
 A-vector RMS=  2.9742786D-06 Max=  5.8497967D-05 conv= 1.00D-05.
 RLE energy=       -0.7783936613
 DE(Corr)= -0.77839662     E(CORR)=     -124.36184724     Delta=-1.55D-06
 NORM(A)=   0.13053361D+01
 Iteration Nr.  26
 **********************
 DD1Dir will call FoFMem   1 times, MxPair=       206
 NAB=    70 NAA=    45 NBB=    21.
 A-vector RMS=  2.4297259D-06 Max=  5.2678697D-05 conv= 1.00D-05.
 RLE energy=       -0.7783915452
 DE(Corr)= -0.77839040     E(CORR)=     -124.36184102     Delta= 6.22D-06
 NORM(A)=   0.13052861D+01
 Iteration Nr.  27
 **********************
 DD1Dir will call FoFMem   1 times, MxPair=       206
 NAB=    70 NAA=    45 NBB=    21.
 A-vector RMS=  1.7807244D-06 Max=  3.7433101D-05 conv= 1.00D-05.
 RLE energy=       -0.7783877866
 DE(Corr)= -0.77839001     E(CORR)=     -124.36184063     Delta= 3.91D-07
 NORM(A)=   0.13051697D+01
 Iteration Nr.  28
 **********************
 DD1Dir will call FoFMem   1 times, MxPair=       206
 NAB=    70 NAA=    45 NBB=    21.
 A-vector RMS=  1.2191460D-06 Max=  1.7459912D-05 conv= 1.00D-05.
 RLE energy=       -0.7783862415
 DE(Corr)= -0.77838748     E(CORR)=     -124.36183810     Delta= 2.54D-06
 NORM(A)=   0.13050889D+01
 Iteration Nr.  29
 **********************
 DD1Dir will call FoFMem   1 times, MxPair=       206
 NAB=    70 NAA=    45 NBB=    21.
 A-vector RMS=  9.1734094D-07 Max=  1.5682680D-05 conv= 1.00D-05.
 RLE energy=       -0.7783846819
 DE(Corr)= -0.77838428     E(CORR)=     -124.36183490     Delta= 3.19D-06
 NORM(A)=   0.13050763D+01
 Iteration Nr.  30
 **********************
 DD1Dir will call FoFMem   1 times, MxPair=       206
 NAB=    70 NAA=    45 NBB=    21.
 A-vector RMS=  9.8886382D-07 Max=  1.5299034D-05 conv= 1.00D-05.
 RLE energy=       -0.7783832812
 DE(Corr)= -0.77838464     E(CORR)=     -124.36183526     Delta=-3.60D-07
 NORM(A)=   0.13050361D+01
 Iteration Nr.  31
 **********************
 DD1Dir will call FoFMem   1 times, MxPair=       206
 NAB=    70 NAA=    45 NBB=    21.
 A-vector RMS=  6.2353822D-07 Max=  1.0088386D-05 conv= 1.00D-05.
 RLE energy=       -0.7783830850
 DE(Corr)= -0.77838350     E(CORR)=     -124.36183412     Delta= 1.14D-06
 NORM(A)=   0.13050115D+01
 Iteration Nr.  32
 **********************
 DD1Dir will call FoFMem   1 times, MxPair=       206
 NAB=    70 NAA=    45 NBB=    21.
 A-vector RMS=  3.9288683D-07 Max=  7.1579327D-06 conv= 1.00D-05.
 RLE energy=       -0.7783822745
 DE(Corr)= -0.77838231     E(CORR)=     -124.36183293     Delta= 1.20D-06
 NORM(A)=   0.13049968D+01
 Iteration Nr.  33
 **********************
 DD1Dir will call FoFMem   1 times, MxPair=       206
 NAB=    70 NAA=    45 NBB=    21.
 A-vector RMS=  4.3916377D-07 Max=  8.6879490D-06 conv= 1.00D-05.
 RLE energy=       -0.7783820409
 DE(Corr)= -0.77838235     E(CORR)=     -124.36183297     Delta=-4.11D-08
 NORM(A)=   0.13049839D+01
 CI/CC converged in   33 iterations to DelEn=-4.11D-08 Conv= 1.00D-07 ErrA1= 4.39D-07 Conv= 1.00D-05
 Wavefunction amplitudes converged. E(Corr)=     -124.36183297    
 Dominant configurations:
 ***********************
 Spin Case        I    J    A    B          Value
    BB            5         8           -0.240585D+00
    BB            5        12           -0.208802D+00
    BB            5        21            0.141890D+00
    BB            7         8            0.400518D+00
    BB            7        12            0.344348D+00
    BB            7        21           -0.236458D+00
    BB            7        22           -0.120341D+00
    BB            7        37            0.110999D+00
 Largest amplitude= 4.01D-01
 Time for triples=    83358.28 seconds.
 T4(CCSD)= -0.47082102D-01
 T5(CCSD)=  0.18755699D-01
 CCSD(T)= -0.12439015937D+03
 Discarding MO integrals.
 Leave Link  913 at Mon Feb 12 23:58:53 2018, MaxMem= 10737418240 cpu:          132928.6 elap:            4166.5
 (Enter /home1/apps/gaussian/16rA.03/g16/l601.exe)
 Copying SCF densities to generalized density rwf, IOpCl= 0 IROHF=1.

 **********************************************************************

            Population analysis using the SCF density.

 **********************************************************************

 Orbital symmetries:
       Occupied  (SG) (SG) (PI) (PI) (SG) (?A) (SG) (PI) (PI) (?A)
       Virtual   (SG) (PI) (PI) (SG) (SG) (SG) (DLTA) (DLTA) (PI)
                 (PI) (PI) (PI) (SG) (SG) (SG) (SG) (PI) (PI) (DLTA)
                 (DLTA) (PI) (PI) (PI) (PI) (SG) (SG) (SG) (DLTA)
                 (DLTA) (PHI) (PHI) (SG) (SG) (PI) (PI) (PI) (PI)
                 (?A) (?A) (SG) (PI) (PI) (DLTA) (DLTA) (PI) (PI)
                 (SG) (SG) (SG) (PI) (PI) (SG) (PHI) (PHI) (?B)
                 (?B) (?B) (DLTA) (DLTA) (PI) (PI) (PHI) (PHI)
                 (?A) (?A) (SG) (PI) (PI) (?A) (?A) (PHI) (PHI)
                 (PI) (PI) (SG) (PI) (PI) (SG) (DLTA) (DLTA) (SG)
                 (PI) (PI) (DLTA) (DLTA) (SG) (PI) (PI) (SG) (PI)
                 (PI) (SG) (?C) (?C) (?C) (PHI) (PHI) (?D) (?D)
                 (PI) (PI) (DLTA) (DLTA) (?E) (?E) (?E) (DLTA)
                 (DLTA) (PI) (PI) (DLTA) (DLTA) (PI) (PI) (?F)
                 (PHI) (PHI) (?F) (?F) (PHI) (PHI) (?F) (PHI) (PHI)
                 (DLTA) (DLTA) (PI) (PI) (SG) (DLTA) (DLTA) (SG)
                 (PHI) (PHI) (PI) (PI) (SG) (DLTA) (DLTA) (PI)
                 (PI) (PI) (PI) (SG) (SG) (DLTA) (DLTA) (PI) (PI)
                 (PI) (PI) (SG) (DLTA) (DLTA) (SG) (PI) (PI) (SG)
                 (SG) (?G) (?G) (?H) (?H) (DLTA) (?H) (?H) (DLTA)
                 (?H) (?H) (?H) (?H) (?G) (DLTA) (DLTA) (?I) (?I)
                 (?I) (?I) (?J) (?J) (DLTA) (DLTA) (PI) (PI) (SG)
                 (SG) (?J) (?J) (?D) (?D) (SG) (SG) (PHI) (PHI)
                 (DLTA) (DLTA) (PI) (PI) (SG) (SG) (PI) (PI) (SG)
                 (PHI) (PHI) (DLTA) (DLTA) (?J) (?J) (PHI) (PHI)
                 (PI) (PI) (DLTA) (DLTA) (SG) (PI) (PI) (DLTA)
                 (DLTA) (SG) (PI) (PI) (DLTA) (DLTA) (SG) (PI)
                 (PI) (SG) (PI) (PI) (SG) (SG) (?I) (?I) (DLTA)
                 (DLTA) (?I) (?I) (?I) (?I) (?J) (?J) (DLTA) (DLTA)
                 (?K) (?K) (?K) (?L) (?L) (?L) (?L) (?I) (?I) (DLTA)
                 (DLTA) (?L) (?L) (SG) (SG) (DLTA) (DLTA) (PI)
                 (PI) (PI) (PI) (SG) (SG) (SG) (SG) (?I) (?I) (?J)
                 (?J) (DLTA) (DLTA) (?I) (?I) (SG) (DLTA) (DLTA)
                 (PI) (PI) (SG) (?L) (?L) (?L) (?L) (?L) (?L) (DLTA)
                 (DLTA) (?L) (?L) (?L) (?I) (?I) (DLTA) (DLTA)
                 (?I) (?I) (?F) (?F) (?F) (?L) (?L) (?L) (?L) (?L)
                 (?L) (?L) (?L) (?L) (?L) (?F) (PI) (PI) (SG) (DLTA)
                 (DLTA) (PI) (PI) (SG) (SG) (PI) (PI) (SG) (DLTA)
                 (DLTA) (PI) (PI) (SG) (SG) (SG) (PI) (PI) (SG)
                 (SG) (DLTA) (DLTA) (PI) (PI) (SG) (PI) (PI) (SG)
                 (SG) (DLTA) (DLTA) (PI) (PI) (SG) (PI) (PI) (SG)
                 (SG) (SG) (PI) (PI) (SG) (SG) (DLTA) (DLTA) (PI)
                 (PI) (SG) (PI) (PI) (SG) (SG) (SG) (PI) (PI) (SG)
                 (SG) (PI) (PI) (SG) (SG) (PI) (PI) (SG) (SG) (PI)
                 (PI) (SG) (SG) (SG) (PI) (PI) (SG) (SG) (SG) (SG)
                 (SG) (SG) (SG)
 Unable to determine electronic state:  an orbital has unidentified symmetry.
 Alpha  occ. eigenvalues --   -4.28068  -2.76123  -2.75845  -2.75845  -0.49027
 Alpha  occ. eigenvalues --   -0.49027  -0.48759  -0.43779  -0.42952  -0.31825
 Alpha virt. eigenvalues --   -0.00861   0.02071   0.02071   0.02725   0.03122
 Alpha virt. eigenvalues --    0.05747   0.06150   0.06161   0.06366   0.06366
 Alpha virt. eigenvalues --    0.07379   0.07379   0.08863   0.12701   0.15904
 Alpha virt. eigenvalues --    0.17834   0.19304   0.19304   0.19735   0.19866
 Alpha virt. eigenvalues --    0.21285   0.21285   0.25604   0.25604   0.26061
 Alpha virt. eigenvalues --    0.34133   0.37153   0.41721   0.41783   0.42283
 Alpha virt. eigenvalues --    0.42283   0.44950   0.46985   0.47756   0.47756
 Alpha virt. eigenvalues --    0.51866   0.51866   0.53350   0.53930   0.60605
 Alpha virt. eigenvalues --    0.61817   0.61817   0.67622   0.67661   0.69479
 Alpha virt. eigenvalues --    0.69479   0.71285   0.83746   0.94441   0.99947
 Alpha virt. eigenvalues --    0.99947   1.13681   1.14840   1.14840   1.18809
 Alpha virt. eigenvalues --    1.19552   1.19555   1.22661   1.22989   1.24288
 Alpha virt. eigenvalues --    1.24288   1.30530   1.30530   1.31285   1.31655
 Alpha virt. eigenvalues --    1.31762   1.31762   1.33442   1.34709   1.35916
 Alpha virt. eigenvalues --    1.43365   1.43365   1.53032   1.53032   1.53863
 Alpha virt. eigenvalues --    1.64409   1.64409   1.68124   1.70640   1.70818
 Alpha virt. eigenvalues --    1.75987   1.85115   1.85115   2.05135   2.05307
 Alpha virt. eigenvalues --    2.09173   2.36210   2.36210   2.58456   2.67994
 Alpha virt. eigenvalues --    2.67994   2.78352   2.85361   2.88480   2.88482
 Alpha virt. eigenvalues --    2.92055   2.92055   3.03864   3.03864   3.11361
 Alpha virt. eigenvalues --    3.11361   3.15279   3.17313   3.20666   3.20666
 Alpha virt. eigenvalues --    3.22404   3.22846   3.23538   3.29451   3.29451
 Alpha virt. eigenvalues --    3.32001   3.32766   3.34852   3.34852   3.36300
 Alpha virt. eigenvalues --    3.41957   3.41957   3.46935   3.46936   3.50142
 Alpha virt. eigenvalues --    3.50142   3.54296   3.67430   3.68797   3.69306
 Alpha virt. eigenvalues --    3.69306   3.76908   3.76908   3.79658   4.01164
 Alpha virt. eigenvalues --    4.01409   4.03375   4.29822   4.29822   4.38246
 Alpha virt. eigenvalues --    4.38246   4.57595   4.70537   4.70812   4.75240
 Alpha virt. eigenvalues --    4.75240   5.19875   5.19875   5.20249   5.46936
 Alpha virt. eigenvalues --    5.49946   5.50032   6.26731   6.26731   6.36410
 Alpha virt. eigenvalues --    6.36410   6.38834   6.87312   6.90239   6.93090
 Alpha virt. eigenvalues --    6.96842   6.96842   7.26542   7.51925   8.15813
 Alpha virt. eigenvalues --    8.17464   8.17464   8.17683   8.17700   8.18133
 Alpha virt. eigenvalues --    8.18562   8.18562   8.24023   8.24023   8.26447
 Alpha virt. eigenvalues --    8.26447   8.37703   8.39850   8.41484   8.72892
 Alpha virt. eigenvalues --    8.72892   8.76672   8.76672   8.77607   8.77607
 Alpha virt. eigenvalues --    8.89167   8.90870   9.12006   9.12006   9.15726
 Alpha virt. eigenvalues --    9.39013   9.58707   9.58714   9.58852   9.58852
 Alpha virt. eigenvalues --    9.60581   9.60581   9.63692   9.63692   9.82388
 Alpha virt. eigenvalues --    9.83787  10.09651  10.09651  10.22494  10.77408
 Alpha virt. eigenvalues --   11.43322  11.43322  12.01811  13.01617  13.01617
 Alpha virt. eigenvalues --   13.19704  13.19734  13.26513  13.26513  13.33058
 Alpha virt. eigenvalues --   13.33058  13.35411  13.35411  13.42238  13.42261
 Alpha virt. eigenvalues --   13.48976  13.68994  13.68994  13.76135  13.79432
 Alpha virt. eigenvalues --   13.91898  14.03297  14.03297  14.13867  14.13888
 Alpha virt. eigenvalues --   14.16377  14.68390  14.68390  15.32672  17.16048
 Alpha virt. eigenvalues --   17.16048  17.88555  18.02076  19.01629  19.01629
 Alpha virt. eigenvalues --   19.03043  19.05922  19.25841  19.25841  19.50811
 Alpha virt. eigenvalues --   19.50811  19.52678  19.52682  19.60256  19.62830
 Alpha virt. eigenvalues --   19.76361  19.84638  19.84768  19.86915  19.86915
 Alpha virt. eigenvalues --   19.88954  19.88954  19.91877  19.91877  19.95598
 Alpha virt. eigenvalues --   19.97871  20.03512  20.03512  20.18830  20.50799
 Alpha virt. eigenvalues --   25.34582  25.38138  25.39471  25.39471  25.47382
 Alpha virt. eigenvalues --   25.47382  25.64741  25.96068  34.16205  41.03901
 Alpha virt. eigenvalues --   42.06977  42.06977  42.08717  42.08740  42.13573
 Alpha virt. eigenvalues --   42.16030  42.33868  42.33868  42.53513  43.79853
 Alpha virt. eigenvalues --   43.83531  43.86668  43.86668  44.10900  44.92988
 Alpha virt. eigenvalues --   44.93118  44.95386  44.95386  44.95732  44.95732
 Alpha virt. eigenvalues --   44.99097  45.01644  45.02839  45.02839  45.06094
 Alpha virt. eigenvalues --   45.50793  45.50793  45.52485  45.54737  45.71873
 Alpha virt. eigenvalues --   45.71873  46.14135  46.23090  46.23290  46.23552
 Alpha virt. eigenvalues --   46.23552  46.24052  46.24052  46.25003  46.26255
 Alpha virt. eigenvalues --   46.26494  46.27833  46.29450  46.29450  46.32483
 Alpha virt. eigenvalues --   53.34638  53.34638  53.71787  73.04879  73.08393
 Alpha virt. eigenvalues --   73.12209  73.12209  73.37232  85.29000 104.14461
 Alpha virt. eigenvalues --  104.14461 104.44914 125.94554 125.97269 126.01381
 Alpha virt. eigenvalues --  126.01381 126.23855 134.90503 139.67250 189.89393
 Alpha virt. eigenvalues --  189.89393 190.17045 217.44309 250.81789 250.83223
 Alpha virt. eigenvalues --  250.87530 250.87530 251.06295 341.99396 341.99396
 Alpha virt. eigenvalues --  342.26733 387.94015 617.17667 617.18149 617.21978
 Alpha virt. eigenvalues --  617.21978 617.35736 626.73967 626.73967 627.00967
 Alpha virt. eigenvalues --  699.30858 817.294401181.762121181.762121182.02026
 Alpha virt. eigenvalues -- 1285.547621989.550851989.551801989.578691989.57869
 Alpha virt. eigenvalues -- 1989.667942323.716352323.716352323.957472433.71518
 Alpha virt. eigenvalues -- 4760.020054827.537824827.537824827.757939606.45810
 Alpha virt. eigenvalues -- **************************************************
 Alpha virt. eigenvalues -- **************************************************
 Alpha virt. eigenvalues -- **************************************************
 Alpha virt. eigenvalues -- **************************************************
 Alpha virt. eigenvalues -- ********************
     Molecular Orbital Coefficients:
                           3         4         5         6         7
                           O         O         O         O         O
     Eigenvalues --    -2.75845  -2.75845  -0.49027  -0.49027  -0.48759
   1 1   Fe 1S          0.00000   0.00000  -0.00000   0.00000  -0.00000
   2        2S          0.00000   0.00000  -0.00000  -0.00000  -0.00000
   3        3S          0.00000   0.00000  -0.00000   0.00000  -0.00000
   4        4S          0.00000   0.00000  -0.00000  -0.00000  -0.00000
[...]
 199       73F-1        0.00005   0.00005   0.00001   0.00004
 200       73F+2        0.00006   0.00003   0.00003   0.00000
 201       73F-2        0.00003   0.00003   0.00000   0.00003
 202       73F+3        0.00003   0.00002   0.00002  -0.00000
 203       73F-3        0.00003   0.00002   0.00002  -0.00000
 204       74F 0        0.00293   0.00147   0.00147   0.00000
 205       74F+1        0.00011   0.00010   0.00000   0.00010
 206       74F-1        0.00011   0.00010   0.00000   0.00010
 207       74F+2        0.00022   0.00011   0.00011   0.00000
 208       74F-2        0.00009   0.00009   0.00000   0.00009
 209       74F+3        0.00001   0.00001   0.00001   0.00000
 210       74F-3        0.00001   0.00001   0.00001   0.00000
 211       75F 0        0.00247   0.00124   0.00124   0.00000
 212       75F+1        0.00002   0.00002   0.00000   0.00002
 213       75F-1        0.00002   0.00002   0.00000   0.00002
 214       75F+2        0.00009   0.00005   0.00005   0.00000
 215       75F-2        0.00002   0.00002   0.00000   0.00002
 216       75F+3        0.00000   0.00000   0.00000   0.00000
 217       75F-3        0.00000   0.00000   0.00000   0.00000
 218       76G 0        0.00000   0.00000   0.00000   0.00000
 219       76G+1        0.00000   0.00000  -0.00000   0.00000
 220       76G-1        0.00000   0.00000  -0.00000   0.00000
 221       76G+2        0.00000   0.00000   0.00000   0.00000
 222       76G-2        0.00000   0.00000   0.00000   0.00000
 223       76G+3        0.00000   0.00000   0.00000   0.00000
 224       76G-3        0.00000   0.00000   0.00000   0.00000
 225       76G+4        0.00000   0.00000   0.00000   0.00000
 226       76G-4        0.00000   0.00000   0.00000   0.00000
 227       77G 0        0.00000   0.00000   0.00000   0.00000
 228       77G+1        0.00000   0.00000  -0.00000   0.00000
 229       77G-1        0.00000   0.00000  -0.00000   0.00000
 230       77G+2        0.00000   0.00000   0.00000   0.00000
 231       77G-2        0.00000   0.00000   0.00000   0.00000
 232       77G+3        0.00000   0.00000   0.00000   0.00000
 233       77G-3        0.00000   0.00000   0.00000   0.00000
 234       77G+4        0.00000   0.00000   0.00000   0.00000
 235       77G-4       -0.00000  -0.00000   0.00000  -0.00000
 236       78G 0        0.00000   0.00000   0.00000   0.00000
 237       78G+1       -0.00000  -0.00000   0.00000  -0.00000
 238       78G-1       -0.00000  -0.00000   0.00000  -0.00000
 239       78G+2        0.00000   0.00000   0.00000   0.00000
 240       78G-2        0.00000   0.00000   0.00000   0.00000
 241       78G+3        0.00000   0.00000   0.00000   0.00000
 242       78G-3        0.00000   0.00000   0.00000   0.00000
 243       78G+4        0.00000   0.00000   0.00000   0.00000
 244       78G-4        0.00000   0.00000   0.00000   0.00000
 245       79G 0        0.00013   0.00007   0.00007   0.00000
 246       79G+1        0.00000   0.00000   0.00000   0.00000
 247       79G-1        0.00000   0.00000   0.00000   0.00000
 248       79G+2        0.00000   0.00000   0.00000   0.00000
 249       79G-2        0.00000   0.00000   0.00000   0.00000
 250       79G+3        0.00000   0.00000   0.00000   0.00000
 251       79G-3        0.00000   0.00000   0.00000   0.00000
 252       79G+4        0.00000   0.00000   0.00000   0.00000
 253       79G-4        0.00000   0.00000   0.00000   0.00000
 254       80G 0        0.00052   0.00026   0.00026   0.00000
 255       80G+1        0.00000   0.00000  -0.00000   0.00000
 256       80G-1        0.00000   0.00000  -0.00000   0.00000
 257       80G+2        0.00000   0.00000   0.00000   0.00000
 258       80G-2        0.00000   0.00000   0.00000   0.00000
 259       80G+3        0.00000   0.00000   0.00000   0.00000
 260       80G-3        0.00000   0.00000   0.00000   0.00000
 261       80G+4        0.00000   0.00000   0.00000   0.00000
 262       80G-4        0.00000   0.00000   0.00000   0.00000
 263       81H 0        0.00000   0.00000   0.00000   0.00000
 264       81H+1        0.00000   0.00000   0.00000   0.00000
 265       81H-1        0.00000   0.00000   0.00000   0.00000
 266       81H+2       -0.00000  -0.00000  -0.00000  -0.00000
 267       81H-2        0.00000   0.00000  -0.00000   0.00000
 268       81H+3        0.00000   0.00000   0.00000   0.00000
 269       81H-3        0.00000   0.00000   0.00000   0.00000
 270       81H+4        0.00000   0.00000   0.00000   0.00000
 271       81H-4        0.00000   0.00000   0.00000   0.00000
 272       81H+5        0.00000   0.00000   0.00000   0.00000
 273       81H-5        0.00000   0.00000   0.00000   0.00000
 274       82H 0        0.00000   0.00000   0.00000   0.00000
 275       82H+1        0.00000   0.00000   0.00000   0.00000
 276       82H-1        0.00000   0.00000   0.00000   0.00000
 277       82H+2       -0.00000  -0.00000  -0.00000  -0.00000
 278       82H-2        0.00000   0.00000  -0.00000   0.00000
 279       82H+3        0.00000   0.00000   0.00000   0.00000
 280       82H-3        0.00000   0.00000   0.00000   0.00000
 281       82H+4        0.00000   0.00000   0.00000   0.00000
 282       82H-4        0.00000   0.00000   0.00000   0.00000
 283       82H+5        0.00000   0.00000   0.00000   0.00000
 284       82H-5        0.00000   0.00000   0.00000   0.00000
 285       83H 0        0.00000   0.00000   0.00000   0.00000
 286       83H+1       -0.00000  -0.00000   0.00000  -0.00000
 287       83H-1       -0.00000  -0.00000   0.00000  -0.00000
 288       83H+2        0.00000   0.00000   0.00000   0.00000
 289       83H-2        0.00000   0.00000   0.00000   0.00000
 290       83H+3        0.00000   0.00000  -0.00000   0.00000
 291       83H-3        0.00000   0.00000  -0.00000   0.00000
 292       83H+4        0.00000   0.00000   0.00000   0.00000
 293       83H-4        0.00000   0.00000   0.00000   0.00000
 294       83H+5        0.00000   0.00000   0.00000   0.00000
 295       83H-5        0.00000   0.00000   0.00000   0.00000
 296       84H 0        0.00002   0.00001   0.00001   0.00000
 297       84H+1        0.00000   0.00000   0.00000   0.00000
 298       84H-1        0.00000   0.00000   0.00000   0.00000
 299       84H+2       -0.00000  -0.00000  -0.00000  -0.00000
 300       84H-2       -0.00000  -0.00000  -0.00000  -0.00000
 301       84H+3        0.00000   0.00000   0.00000   0.00000
 302       84H-3        0.00000   0.00000   0.00000   0.00000
 303       84H+4        0.00000   0.00000   0.00000   0.00000
 304       84H-4        0.00000   0.00000   0.00000   0.00000
 305       84H+5        0.00000   0.00000   0.00000   0.00000
 306       84H-5        0.00000   0.00000   0.00000   0.00000
 307       85I 0        0.00000   0.00000   0.00000   0.00000
 308       85I+1        0.00000   0.00000   0.00000   0.00000
 309       85I-1        0.00000   0.00000   0.00000   0.00000
 310       85I+2        0.00000   0.00000   0.00000   0.00000
 311       85I-2        0.00000   0.00000   0.00000   0.00000
 312       85I+3        0.00000   0.00000   0.00000   0.00000
 313       85I-3        0.00000   0.00000   0.00000   0.00000
 314       85I+4        0.00000   0.00000   0.00000   0.00000
 315       85I-4       -0.00000  -0.00000   0.00000  -0.00000
 316       85I+5        0.00000   0.00000   0.00000   0.00000
 317       85I-5        0.00000   0.00000   0.00000   0.00000
 318       85I+6        0.00000   0.00000   0.00000   0.00000
 319       85I-6        0.00000   0.00000   0.00000   0.00000
 320       86I 0       -0.00000  -0.00000  -0.00000  -0.00000
 321       86I+1        0.00000   0.00000   0.00000   0.00000
 322       86I-1        0.00000   0.00000   0.00000   0.00000
 323       86I+2        0.00000   0.00000   0.00000   0.00000
 324       86I-2        0.00000   0.00000   0.00000   0.00000
 325       86I+3        0.00000   0.00000   0.00000   0.00000
 326       86I-3        0.00000   0.00000   0.00000   0.00000
 327       86I+4        0.00000   0.00000   0.00000   0.00000
 328       86I-4        0.00000   0.00000   0.00000   0.00000
 329       86I+5        0.00000   0.00000   0.00000   0.00000
 330       86I-5        0.00000   0.00000   0.00000   0.00000
 331       86I+6        0.00000   0.00000   0.00000   0.00000
 332       86I-6        0.00000   0.00000   0.00000   0.00000
 333 2   H  1S         -0.00000  -0.00000  -0.00000  -0.00000
 334        2S          0.00006   0.00003   0.00003   0.00000
 335        3S          0.00315   0.00157   0.00157   0.00000
 336        4S          0.02282   0.01141   0.01141   0.00000
 337        5S          0.11341   0.05670   0.05670   0.00000
 338        6S          0.33229   0.16614   0.16614   0.00000
 339        7S          0.50967   0.25483   0.25483   0.00000
 340        8S          0.28896   0.14448   0.14448   0.00000
 341        9S          0.02329   0.01164   0.01164   0.00000
 342       10PX         0.00000   0.00000   0.00000   0.00000
 343       10PY         0.00000   0.00000   0.00000   0.00000
 344       10PZ         0.00002   0.00001   0.00001   0.00000
 345       11PX         0.00001   0.00001   0.00000   0.00001
 346       11PY         0.00001   0.00001   0.00000   0.00001
 347       11PZ         0.00019   0.00010   0.00010   0.00000
 348       12PX         0.00022   0.00022   0.00000   0.00021
 349       12PY         0.00022   0.00022   0.00000   0.00021
 350       12PZ         0.00278   0.00139   0.00139   0.00000
 351       13PX         0.00066   0.00063   0.00003   0.00060
 352       13PY         0.00066   0.00063   0.00003   0.00060
 353       13PZ         0.00395   0.00198   0.00198   0.00000
 354       14PX         0.00027   0.00025   0.00002   0.00023
 355       14PY         0.00027   0.00025   0.00002   0.00023
 356       14PZ        -0.00254  -0.00127  -0.00127  -0.00000
 357       15D 0        0.00000   0.00000   0.00000   0.00000
 358       15D+1        0.00000   0.00000   0.00000   0.00000
 359       15D-1        0.00000   0.00000   0.00000   0.00000
 360       15D+2        0.00000   0.00000   0.00000   0.00000
 361       15D-2        0.00000   0.00000   0.00000   0.00000
 362       16D 0        0.00012   0.00006   0.00006   0.00000
 363       16D+1        0.00002   0.00002   0.00000   0.00002
 364       16D-1        0.00002   0.00002   0.00000   0.00002
 365       16D+2        0.00000   0.00000   0.00000   0.00000
 366       16D-2        0.00000   0.00000   0.00000   0.00000
 367       17D 0        0.00058   0.00029   0.00029   0.00000
 368       17D+1        0.00022   0.00021   0.00001   0.00019
 369       17D-1        0.00022   0.00021   0.00001   0.00019
 370       17D+2        0.00004   0.00002   0.00002   0.00000
 371       17D-2        0.00001   0.00001   0.00000   0.00001
 372       18D 0        0.00006   0.00003   0.00003  -0.00000
 373       18D+1        0.00017   0.00013   0.00004   0.00010
 374       18D-1        0.00017   0.00013   0.00004   0.00010
 375       18D+2        0.00004   0.00002   0.00002   0.00000
 376       18D-2        0.00003   0.00003   0.00000   0.00003
 377       19F 0        0.00000   0.00000   0.00000   0.00000
 378       19F+1        0.00000   0.00000   0.00000   0.00000
 379       19F-1        0.00000   0.00000   0.00000   0.00000
 380       19F+2        0.00000   0.00000   0.00000   0.00000
 381       19F-2        0.00000   0.00000   0.00000   0.00000
 382       19F+3       -0.00000   0.00000  -0.00000   0.00000
 383       19F-3       -0.00000   0.00000  -0.00000   0.00000
 384       20F 0        0.00010   0.00005   0.00005   0.00000
 385       20F+1        0.00003   0.00003   0.00000   0.00002
 386       20F-1        0.00003   0.00003   0.00000   0.00002
 387       20F+2        0.00001   0.00000   0.00000   0.00000
 388       20F-2        0.00000   0.00000   0.00000   0.00000
 389       20F+3        0.00000   0.00000   0.00000  -0.00000
 390       20F-3        0.00000   0.00000   0.00000  -0.00000
 391       21F 0        0.00030   0.00015   0.00015   0.00000
 392       21F+1        0.00008   0.00006   0.00002   0.00004
 393       21F-1        0.00008   0.00006   0.00002   0.00004
 394       21F+2        0.00001   0.00000   0.00000   0.00000
 395       21F-2        0.00002   0.00002   0.00000   0.00002
 396       21F+3       -0.00000  -0.00000  -0.00000  -0.00000
 397       21F-3       -0.00000  -0.00000  -0.00000  -0.00000
 398       22G 0        0.00000   0.00000   0.00000   0.00000
 399       22G+1        0.00000   0.00000   0.00000   0.00000
 400       22G-1        0.00000   0.00000   0.00000   0.00000
 401       22G+2        0.00000   0.00000   0.00000   0.00000
 402       22G-2        0.00000   0.00000   0.00000   0.00000
 403       22G+3        0.00000   0.00000   0.00000   0.00000
 404       22G-3        0.00000   0.00000   0.00000   0.00000
 405       22G+4       -0.00000  -0.00000  -0.00000  -0.00000
 406       22G-4        0.00000   0.00000  -0.00000   0.00000
 407       23G 0        0.00009   0.00005   0.00005   0.00000
 408       23G+1       -0.00001  -0.00001  -0.00000  -0.00001
 409       23G-1       -0.00001  -0.00001  -0.00000  -0.00001
 410       23G+2        0.00001   0.00001   0.00001   0.00000
 411       23G-2        0.00000   0.00000   0.00000   0.00000
 412       23G+3       -0.00000  -0.00000  -0.00000  -0.00000
 413       23G-3       -0.00000  -0.00000  -0.00000  -0.00000
 414       23G+4        0.00000   0.00000   0.00000   0.00000
 415       23G-4       -0.00000  -0.00000   0.00000  -0.00000
          Condensed to atoms (all electrons):
               1          2
     1  Fe  15.326258   0.370951
     2  H    0.370951   0.931840
          Atomic-Atomic Spin Densities.
               1          2
     1  Fe   2.994300   0.002776
     2  H    0.002776   0.000148
 Mulliken charges and spin densities:
               1          2
     1  Fe   0.302791   2.997076
     2  H   -0.302791   0.002924
 Sum of Mulliken charges =  -0.00000   3.00000
 Mulliken charges and spin densities with hydrogens summed into heavy atoms:
               1          2
     1  Fe  -0.000000   3.000000
 Electronic spatial extent (au):  <R**2>=             47.7376
 Charge=             -0.0000 electrons
 Dipole moment (field-independent basis, Debye):
    X=              0.0000    Y=              0.0000    Z=              4.9663  Tot=              4.9663
 Quadrupole moment (field-independent basis, Debye-Ang):
   XX=            -15.2385   YY=            -15.2385   ZZ=            -18.9592
   XY=              0.0000   XZ=              0.0000   YZ=              0.0000
 Traceless Quadrupole moment (field-independent basis, Debye-Ang):
   XX=              1.2402   YY=              1.2402   ZZ=             -2.4805
   XY=              0.0000   XZ=              0.0000   YZ=              0.0000
 Octapole moment (field-independent basis, Debye-Ang**2):
  XXX=              0.0000  YYY=              0.0000  ZZZ=             21.9644  XYY=              0.0000
  XXY=              0.0000  XXZ=              5.1247  XZZ=              0.0000  YZZ=              0.0000
  YYZ=              5.1247  XYZ=              0.0000
 Hexadecapole moment (field-independent basis, Debye-Ang**3):
 XXXX=            -23.0540 YYYY=            -23.0540 ZZZZ=            -71.9238 XXXY=              0.0000
 XXXZ=              0.0000 YYYX=              0.0000 YYYZ=              0.0000 ZZZX=              0.0000
 ZZZY=              0.0000 XXYY=             -7.3392 XXZZ=            -14.3944 YYZZ=            -14.3944
 XXYZ=              0.0000 YYXZ=              0.0000 ZZXY=              0.0000
 N-N= 4.703797430400D+00 E-N=-3.033081546403D+02  KE= 7.429674052619D+01
 Symmetry A1   KE= 3.826675006332D+01
 Symmetry A2   KE= 6.937956898695D+00
 Symmetry B1   KE= 1.454601670163D+01
 Symmetry B2   KE= 1.454601686279D+01
 Symmetry A1   SP= 8.406260097586D-16
 Symmetry A2   SP= 1.000000000000D+00
 Symmetry B1   SP= 1.000000000000D+00
 Symmetry B2   SP= 1.000000000000D+00
 Orbital energies and kinetic energies (alpha):
                                 1                 2
   3         O                -2.758455          3.814270
   4         O                -2.758455          3.814270
   5         O                -0.490269          4.184577
   6         O                -0.490269          6.599114
   7         O                -0.487588          2.231708
   8         O                -0.437793          6.917477
   9         O                -0.429522          6.917477
  10         O                -0.318251          6.937957
  11         V                -0.008608          0.186839
  12         V                 0.020705          0.037603
  13         V                 0.020705          0.037603
  14         V                 0.027255          0.033458
  15         V                 0.031219          0.179897
 Total kinetic energy from orbitals= 9.506965182738D+01
                          Isotropic Fermi Contact Couplings
        Atom                 a.u.       MegaHertz       Gauss      10(-4) cm-1
     1  Fe(57)            -0.00000      -0.00000      -0.00000      -0.00000
     2  H(1)               0.00000       0.00000       0.00000       0.00000
 --------------------------------------------------------
       Center         ----  Spin Dipole Couplings  ----
                      3XX-RR        3YY-RR        3ZZ-RR
 --------------------------------------------------------
     1   Atom        0.004952      0.004952     -0.009904
     2   Atom       -0.069553     -0.069553      0.139105
 --------------------------------------------------------
                        XY            XZ            YZ
 --------------------------------------------------------
     1   Atom        0.000000      0.000000      0.000000
     2   Atom        0.000000      0.000000      0.000000
 --------------------------------------------------------


 ---------------------------------------------------------------------------------
              Anisotropic Spin Dipole Couplings in Principal Axis System
 ---------------------------------------------------------------------------------

       Atom             a.u.   MegaHertz   Gauss  10(-4) cm-1        Axes

              Baa    -0.0099    -0.171    -0.061    -0.057  0.0000  0.0000  1.0000
     1 Fe(57) Bbb     0.0050     0.086     0.031     0.029  1.0000  0.0000  0.0000
              Bcc     0.0050     0.086     0.031     0.029 -0.0000  1.0000  0.0000
 
              Baa    -0.0696   -37.110   -13.242   -12.379 -0.0000  1.0000  0.0000
     2 H(1)   Bbb    -0.0696   -37.110   -13.242   -12.379  1.0000  0.0000  0.0000
              Bcc     0.1391    74.220    26.484    24.757  0.0000  0.0000  1.0000
 

 ---------------------------------------------------------------------------------

 No NMR shielding tensors so no spin-rotation constants.
 Leave Link  601 at Mon Feb 12 23:59:08 2018, MaxMem= 10737418240 cpu:             451.9 elap:              14.6
 (Enter /home1/apps/gaussian/16rA.03/g16/l9999.exe)

 Test job not archived.
 1\1\GINC-C449-031\SP\ROCCSD(T)-Full\Gen\Fe1H1(4)\GWANG18\12-Feb-2018\2
 \\#P ROCCSD(T)=(maxcyc=100, Full)/Gen SCF=(maxcycle=400, symm) Pseudo=
 Read Integral(NoXCTest) Pop=Regular MaxDisk=500GB Guess=Permute IOp(5/
 15=2)\\FeH\\0,4\Fe,0,0.,0.,0.\H,0,0.,0.,1.8\\1,2,3,4,5,10,9,8,6,7\\Ver
 sion=ES64L-G16RevA.03\HF=-123.5834506\MP2=-124.3881858\MP3=-124.329868
 8\PUHF=-123.5834506\PMP2-0=-124.3881858\MP4SDQ=-124.3673238\CCSD=-124.
 361833\CCSD(T)=-124.3901594\RMSD=6.239e-09\PG=C*V [C*(H1Fe1)]\\@


       THE DEATH-KNELL OF THE ATOM

 SO THE ATOMS IN TURN, WE NOW CLEARLY DISCERN,
 FLY TO BITS WITH THE UTMOST FACILITY;
 THEY WEND ON THEIR WAY, AND, IN SPLITTING, DISPLAY
 AN ABSOLUTE LACK OF STABILITY.

          SIR WM. RAMSAY, 1905
 Job cpu time:       2 days  5 hours 28 minutes 50.6 seconds.
 Elapsed time:       0 days  1 hours 41 minutes  5.0 seconds.
 File lengths (MBytes):  RWF=  20949 Int=      0 D2E=      0 Chk=     18 Scr=      1
 Normal termination of Gaussian 16 at Mon Feb 12 23:59:16 2018.
