 Entering Gaussian System, Link 0=g16
 Initial command:
 /home1/apps/gaussian/16rA.03/g16/l1.exe "/tmp/Gau-240341.inp" -scrdir="/tmp/"
 Entering Link 1 = /home1/apps/gaussian/16rA.03/g16/l1.exe PID=    240342.
  
 Copyright (c) 1988,1990,1992,1993,1995,1998,2003,2009,2016,
            Gaussian, Inc.  All Rights Reserved.
  
 This is part of the Gaussian(R) 16 program.  It is based on
 the Gaussian(R) 09 system (copyright 2009, Gaussian, Inc.),
 the Gaussian(R) 03 system (copyright 2003, Gaussian, Inc.),
 the Gaussian(R) 98 system (copyright 1998, Gaussian, Inc.),
 the Gaussian(R) 94 system (copyright 1995, Gaussian, Inc.),
 the Gaussian 92(TM) system (copyright 1992, Gaussian, Inc.),
 the Gaussian 90(TM) system (copyright 1990, Gaussian, Inc.),
 the Gaussian 88(TM) system (copyright 1988, Gaussian, Inc.),
 the Gaussian 86(TM) system (copyright 1986, Carnegie Mellon
 University), and the Gaussian 82(TM) system (copyright 1983,
 Carnegie Mellon University). Gaussian is a federally registered
 trademark of Gaussian, Inc.
  
 This software contains proprietary and confidential information,
 including trade secrets, belonging to Gaussian, Inc.
  
 This software is provided under written license and may be
 used, copied, transmitted, or stored only in accord with that
 written license.
  
 The following legend is applicable only to US Government
 contracts under FAR:
  
                    RESTRICTED RIGHTS LEGEND
  
 Use, reproduction and disclosure by the US Government is
 subject to restrictions as set forth in subparagraphs (a)
 and (c) of the Commercial Computer Software - Restricted
 Rights clause in FAR 52.227-19.
  
 Gaussian, Inc.
 340 Quinnipiac St., Bldg. 40, Wallingford CT 06492
  
  
 ---------------------------------------------------------------
 Warning -- This program may not be used in any manner that
 competes with the business of Gaussian, Inc. or will provide
 assistance to any competitor of Gaussian, Inc.  The licensee
 of this program is prohibited from giving any competitor of
 Gaussian, Inc. access to this program.  By using this program,
 the user acknowledges that Gaussian, Inc. is engaged in the
 business of creating and licensing software in the field of
 computational chemistry and represents and warrants to the
 licensee that it is not a competitor of Gaussian, Inc. and that
 it will not use this program in any manner prohibited above.
 ---------------------------------------------------------------
  

 Cite this work as:
 Gaussian 16, Revision A.03,
 M. J. Frisch, G. W. Trucks, H. B. Schlegel, G. E. Scuseria, 
 M. A. Robb, J. R. Cheeseman, G. Scalmani, V. Barone, 
 G. A. Petersson, H. Nakatsuji, X. Li, M. Caricato, A. V. Marenich, 
 J. Bloino, B. G. Janesko, R. Gomperts, B. Mennucci, H. P. Hratchian, 
 J. V. Ortiz, A. F. Izmaylov, J. L. Sonnenberg, D. Williams-Young, 
 F. Ding, F. Lipparini, F. Egidi, J. Goings, B. Peng, A. Petrone, 
 T. Henderson, D. Ranasinghe, V. G. Zakrzewski, J. Gao, N. Rega, 
 G. Zheng, W. Liang, M. Hada, M. Ehara, K. Toyota, R. Fukuda, 
 J. Hasegawa, M. Ishida, T. Nakajima, Y. Honda, O. Kitao, H. Nakai, 
 T. Vreven, K. Throssell, J. A. Montgomery, Jr., J. E. Peralta, 
 F. Ogliaro, M. J. Bearpark, J. J. Heyd, E. N. Brothers, K. N. Kudin, 
 V. N. Staroverov, T. A. Keith, R. Kobayashi, J. Normand, 
 K. Raghavachari, A. P. Rendell, J. C. Burant, S. S. Iyengar, 
 J. Tomasi, M. Cossi, J. M. Millam, M. Klene, C. Adamo, R. Cammi, 
 J. W. Ochterski, R. L. Martin, K. Morokuma, O. Farkas, 
 J. B. Foresman, and D. J. Fox, Gaussian, Inc., Wallingford CT, 2016.
 
 ******************************************
 Gaussian 16:  ES64L-G16RevA.03 25-Dec-2016
                 5-May-2018 
 ******************************************
 %mem=80GB
 %chk=5z.chk
 %cpu=0-31
 SetSPE:  set environment variable "MP_BIND" = "yes"
 SetSPE:  set environment variable "MP_BLIST" = "0,1,2,3,4,5,6,7,8,9,10,11,12,13,14,15,16,17,18,19,20,21,22,23,24,25,26,27,28,29,30,31"
 Will use up to   32 processors via shared memory.
 ----------------------------------------------------------------------
 #P ROCCSD(T)=(MaxCyc=150, Full)/Gen SCF=(maxcycle=400) Pseudo=Read Int
 egral(NoXCTest) Pop=Regular MaxDisk=500GB Guess=Read IOp(5/15=2)
 ----------------------------------------------------------------------
 1/38=1,172=1/1;
 2/12=2,17=6,18=5,40=1/2;
 3/5=7,11=2,16=1,17=8,25=1,30=1,47=8,116=101/1,2,3;
 4/5=1/1;
 5/5=2,7=400,15=2,38=6/2;
 8/5=-1,6=4,9=120000,10=90/1,4;
 9/5=7,6=150,14=2/13;
 6//1;
 99/5=1,9=1/99;
 Leave Link    1 at Sat May  5 20:54:21 2018, MaxMem= 10737418240 cpu:               7.4 elap:               0.2
 (Enter /home1/apps/gaussian/16rA.03/g16/l101.exe)
 --
 Co
 --
 Symbolic Z-matrix:
 Charge =  0 Multiplicity = 4
 Co                    0.        0.        0. 
 
 ITRead=  0
 MicOpt= -1
 NAtoms=      1 NQM=        1 NQMF=       0 NMMI=      0 NMMIF=      0
                NMic=       0 NMicF=      0.
                    Isotopes and Nuclear Properties:
 (Nuclear quadrupole moments (NQMom) in fm**2, nuclear magnetic moments (NMagM)
  in nuclear magnetons)

  Atom         1
 IAtWgt=          59
 AtmWgt=  58.9331978
 NucSpn=           7
 AtZEff=  -0.0000000
 NQMom=   42.0000000
 NMagM=    4.6270000
 AtZNuc=  27.0000000
 Leave Link  101 at Sat May  5 20:54:21 2018, MaxMem= 10737418240 cpu:               2.9 elap:               0.1
 (Enter /home1/apps/gaussian/16rA.03/g16/l202.exe)
                          Input orientation:                          
 ---------------------------------------------------------------------
 Center     Atomic      Atomic             Coordinates (Angstroms)
 Number     Number       Type             X           Y           Z
 ---------------------------------------------------------------------
      1         27           0        0.000000    0.000000    0.000000
 ---------------------------------------------------------------------
 Stoichiometry    Co(4)
 Framework group  OH[O(Co)]
 Deg. of freedom     0
 Full point group                 OH      NOp  48
 Largest Abelian subgroup         D2H     NOp   8
 Largest concise Abelian subgroup C1      NOp   1
                         Standard orientation:                         
 ---------------------------------------------------------------------
 Center     Atomic      Atomic             Coordinates (Angstroms)
 Number     Number       Type             X           Y           Z
 ---------------------------------------------------------------------
      1         27           0        0.000000    0.000000    0.000000
 ---------------------------------------------------------------------
 Leave Link  202 at Sat May  5 20:54:22 2018, MaxMem= 10737418240 cpu:               1.2 elap:               0.1
 (Enter /home1/apps/gaussian/16rA.03/g16/l301.exe)
 General basis read from cards:  (5D, 7F)
 Centers:       1
 S 1 1.00
     Exponent=  1.6103000000D+08 Coefficients=  1.0000000000D+00
 S 1 1.00
     Exponent=  2.8755800000D+07 Coefficients=  1.0000000000D+00
 S 1 1.00
     Exponent=  6.4232400000D+06 Coefficients=  1.0000000000D+00
 S 1 1.00
     Exponent=  1.7212000000D+06 Coefficients=  1.0000000000D+00
 S 1 1.00
     Exponent=  5.3399400000D+05 Coefficients=  1.0000000000D+00
 S 1 1.00
     Exponent=  1.8619400000D+05 Coefficients=  1.0000000000D+00
 S 1 1.00
     Exponent=  7.1201700000D+04 Coefficients=  1.0000000000D+00
 S 1 1.00
     Exponent=  2.9276200000D+04 Coefficients=  1.0000000000D+00
 S 1 1.00
     Exponent=  1.2742300000D+04 Coefficients=  1.0000000000D+00
 S 1 1.00
     Exponent=  5.8005100000D+03 Coefficients=  1.0000000000D+00
 S 1 1.00
     Exponent=  2.7369600000D+03 Coefficients=  1.0000000000D+00
 S 1 1.00
     Exponent=  1.3299900000D+03 Coefficients=  1.0000000000D+00
 S 1 1.00
     Exponent=  6.6261100000D+02 Coefficients=  1.0000000000D+00
 S 1 1.00
     Exponent=  3.3741500000D+02 Coefficients=  1.0000000000D+00
 S 1 1.00
     Exponent=  1.7523400000D+02 Coefficients=  1.0000000000D+00
 S 1 1.00
     Exponent=  9.2643400000D+01 Coefficients=  1.0000000000D+00
 S 1 1.00
     Exponent=  4.9757600000D+01 Coefficients=  1.0000000000D+00
 S 1 1.00
     Exponent=  2.7072800000D+01 Coefficients=  1.0000000000D+00
 S 1 1.00
     Exponent=  1.4861000000D+01 Coefficients=  1.0000000000D+00
 S 1 1.00
     Exponent=  8.1812100000D+00 Coefficients=  1.0000000000D+00
 S 1 1.00
     Exponent=  4.4794100000D+00 Coefficients=  1.0000000000D+00
 S 1 1.00
     Exponent=  2.4119100000D+00 Coefficients=  1.0000000000D+00
 S 1 1.00
     Exponent=  1.2584400000D+00 Coefficients=  1.0000000000D+00
 S 1 1.00
     Exponent=  6.3123400000D-01 Coefficients=  1.0000000000D+00
 S 1 1.00
     Exponent=  2.1529700000D-01 Coefficients=  1.0000000000D+00
 S 1 1.00
     Exponent=  1.1851000000D-01 Coefficients=  1.0000000000D+00
 S 1 1.00
     Exponent=  5.7209000000D-02 Coefficients=  1.0000000000D+00
 S 1 1.00
     Exponent=  2.7166000000D-02 Coefficients=  1.0000000000D+00
 S 1 1.00
     Exponent=  7.3346000000D+00 Coefficients=  1.0000000000D+00
 S 1 1.00
     Exponent=  2.6036000000D+00 Coefficients=  1.0000000000D+00
 S 1 1.00
     Exponent=  1.2900000000D-02 Coefficients=  1.0000000000D+00
 P 1 1.00
     Exponent=  9.7512600000D+04 Coefficients=  1.0000000000D+00
 P 1 1.00
     Exponent=  2.3815100000D+04 Coefficients=  1.0000000000D+00
 P 1 1.00
     Exponent=  7.5404300000D+03 Coefficients=  1.0000000000D+00
 P 1 1.00
     Exponent=  2.8540800000D+03 Coefficients=  1.0000000000D+00
 P 1 1.00
     Exponent=  1.2176900000D+03 Coefficients=  1.0000000000D+00
 P 1 1.00
     Exponent=  5.6251500000D+02 Coefficients=  1.0000000000D+00
 P 1 1.00
     Exponent=  2.7427400000D+02 Coefficients=  1.0000000000D+00
 P 1 1.00
     Exponent=  1.3911400000D+02 Coefficients=  1.0000000000D+00
 P 1 1.00
     Exponent=  7.2859800000D+01 Coefficients=  1.0000000000D+00
 P 1 1.00
     Exponent=  3.9244800000D+01 Coefficients=  1.0000000000D+00
 P 1 1.00
     Exponent=  2.1643000000D+01 Coefficients=  1.0000000000D+00
 P 1 1.00
     Exponent=  1.2114900000D+01 Coefficients=  1.0000000000D+00
 P 1 1.00
     Exponent=  6.7691200000D+00 Coefficients=  1.0000000000D+00
 P 1 1.00
     Exponent=  3.7052800000D+00 Coefficients=  1.0000000000D+00
 P 1 1.00
     Exponent=  1.9790100000D+00 Coefficients=  1.0000000000D+00
 P 1 1.00
     Exponent=  1.0312700000D+00 Coefficients=  1.0000000000D+00
 P 1 1.00
     Exponent=  5.1360900000D-01 Coefficients=  1.0000000000D+00
 P 1 1.00
     Exponent=  2.0448200000D-01 Coefficients=  1.0000000000D+00
 P 1 1.00
     Exponent=  8.3870000000D-02 Coefficients=  1.0000000000D+00
 P 1 1.00
     Exponent=  3.4102000000D-02 Coefficients=  1.0000000000D+00
 P 1 1.00
     Exponent=  1.1226400000D+01 Coefficients=  1.0000000000D+00
 P 1 1.00
     Exponent=  3.6309000000D+00 Coefficients=  1.0000000000D+00
 P 1 1.00
     Exponent=  1.3870000000D-02 Coefficients=  1.0000000000D+00
 D 1 1.00
     Exponent=  5.4511000000D+02 Coefficients=  1.0000000000D+00
 D 1 1.00
     Exponent=  1.6055800000D+02 Coefficients=  1.0000000000D+00
 D 1 1.00
     Exponent=  6.1622300000D+01 Coefficients=  1.0000000000D+00
 D 1 1.00
     Exponent=  2.6822400000D+01 Coefficients=  1.0000000000D+00
 D 1 1.00
     Exponent=  1.2458300000D+01 Coefficients=  1.0000000000D+00
 D 1 1.00
     Exponent=  6.0606600000D+00 Coefficients=  1.0000000000D+00
 D 1 1.00
     Exponent=  2.9951700000D+00 Coefficients=  1.0000000000D+00
 D 1 1.00
     Exponent=  1.4647770000D+00 Coefficients=  1.0000000000D+00
 D 1 1.00
     Exponent=  6.9824200000D-01 Coefficients=  1.0000000000D+00
 D 1 1.00
     Exponent=  3.2005700000D-01 Coefficients=  1.0000000000D+00
 D 1 1.00
     Exponent=  1.3880400000D-01 Coefficients=  1.0000000000D+00
 D 1 1.00
     Exponent=  5.5017000000D-02 Coefficients=  1.0000000000D+00
 D 1 1.00
     Exponent=  8.0293000000D+00 Coefficients=  1.0000000000D+00
 D 1 1.00
     Exponent=  4.9005000000D+00 Coefficients=  1.0000000000D+00
 D 1 1.00
     Exponent=  2.1810000000D-02 Coefficients=  1.0000000000D+00
 F 1 1.00
     Exponent=  1.2554200000D+01 Coefficients=  1.0000000000D+00
 F 1 1.00
     Exponent=  5.5551000000D+00 Coefficients=  1.0000000000D+00
 F 1 1.00
     Exponent=  2.4581000000D+00 Coefficients=  1.0000000000D+00
 F 1 1.00
     Exponent=  1.0877000000D+00 Coefficients=  1.0000000000D+00
 F 1 1.00
     Exponent=  3.6860000000D-01 Coefficients=  1.0000000000D+00
 F 1 1.00
     Exponent=  1.2491000000D-01 Coefficients=  1.0000000000D+00
 G 1 1.00
     Exponent=  8.7355000000D+00 Coefficients=  1.0000000000D+00
 G 1 1.00
     Exponent=  4.2811000000D+00 Coefficients=  1.0000000000D+00
 G 1 1.00
     Exponent=  2.0981000000D+00 Coefficients=  1.0000000000D+00
 G 1 1.00
     Exponent=  7.8280000000D-01 Coefficients=  1.0000000000D+00
 G 1 1.00
     Exponent=  2.9206000000D-01 Coefficients=  1.0000000000D+00
 H 1 1.00
     Exponent=  7.8788000000D+00 Coefficients=  1.0000000000D+00
 H 1 1.00
     Exponent=  3.7437000000D+00 Coefficients=  1.0000000000D+00
 H 1 1.00
     Exponent=  1.5288000000D+00 Coefficients=  1.0000000000D+00
 H 1 1.00
     Exponent=  6.2431000000D-01 Coefficients=  1.0000000000D+00
 I 1 1.00
     Exponent=  8.0114000000D+00 Coefficients=  1.0000000000D+00
 I 1 1.00
     Exponent=  3.6607000000D+00 Coefficients=  1.0000000000D+00
 I 1 1.00
     Exponent=  1.6727100000D+00 Coefficients=  1.0000000000D+00
 ****
 ======================================================================================================
                                       Pseudopotential Parameters
 ======================================================================================================
  Center     Atomic      Valence      Angular      Power
  Number     Number     Electrons     Momentum     of R      Exponent        Coefficient   SO-Coeffient
 ======================================================================================================
    1         27           17
                                      F and up 
                                                     2        1.0000000        0.00000000    0.00000000
                                      S - F
                                                     2       23.6600000      283.96056600    0.00000000
                                                     2       10.6100000       47.15684600    0.00000000
                                      P - F
                                                     2       25.0400000      182.21223600    0.00000000
                                                     2       10.4400000       35.23335200    0.00000000
                                      D - F
                                                     2       29.5400000      -26.47533300    0.00000000
                                                     2       10.1800000       -1.82578700    0.00000000
 ======================================================================================================
 Ernie: Thresh=  0.10000D-02 Tol=  0.10000D-05 Strict=F.
 There are   136 symmetry adapted cartesian basis functions of AG  symmetry.
 There are    48 symmetry adapted cartesian basis functions of B1G symmetry.
 There are    48 symmetry adapted cartesian basis functions of B2G symmetry.
 There are    48 symmetry adapted cartesian basis functions of B3G symmetry.
 There are    18 symmetry adapted cartesian basis functions of AU  symmetry.
 There are    65 symmetry adapted cartesian basis functions of B1U symmetry.
 There are    65 symmetry adapted cartesian basis functions of B2U symmetry.
 There are    65 symmetry adapted cartesian basis functions of B3U symmetry.
 There are    88 symmetry adapted basis functions of AG  symmetry.
 There are    34 symmetry adapted basis functions of B1G symmetry.
 There are    34 symmetry adapted basis functions of B2G symmetry.
 There are    34 symmetry adapted basis functions of B3G symmetry.
 There are    14 symmetry adapted basis functions of AU  symmetry.
 There are    47 symmetry adapted basis functions of B1U symmetry.
 There are    47 symmetry adapted basis functions of B2U symmetry.
 There are    47 symmetry adapted basis functions of B3U symmetry.
   345 basis functions,   493 primitive gaussians,   493 cartesian basis functions
    10 alpha electrons        7 beta electrons
       nuclear repulsion energy         0.0000000000 Hartrees.
 IExCor=    0 DFT=F Ex=HF Corr=None ExCW=0 ScaHFX=  1.000000
 ScaDFX=  1.000000  1.000000  1.000000  1.000000 ScalE2=  1.000000  1.000000
 IRadAn=      5 IRanWt=     -1 IRanGd=            0 ICorTp=0 IEmpDi=  4
 NAtoms=    1 NActive=    1 NUniq=    1 SFac= 1.00D+00 NAtFMM=   60 NAOKFM=F Big=F
 Integral buffers will be    131072 words long.
 Raffenetti 2 integral format.
 Two-electron integral symmetry is turned on.
 Leave Link  301 at Sat May  5 20:54:22 2018, MaxMem= 10737418240 cpu:               8.0 elap:               0.3
 (Enter /home1/apps/gaussian/16rA.03/g16/l302.exe)
 NPDir=0 NMtPBC=     1 NCelOv=     1 NCel=       1 NClECP=     1 NCelD=      1
         NCelK=      1 NCelE2=     1 NClLst=     1 CellRange=     0.0.
 One-electron integrals computed using PRISM.
 One-electron integral symmetry used in STVInt
  48 Symmetry operations used in ECPInt.
 ECPInt:  NShTT=    3828 NPrTT=    3828 LenC2=    3829 LenP2D=    3828.
 LDataN:  DoStor=T MaxTD1=12 Len= 1566
 NBasis=   345 RedAO= T EigKep=  5.77D-06  NBF=    88    34    34    34    14    47    47    47
 NBsUse=   337 1.00D-06 EigRej=  7.09D-07 NBFU=    86    34    34    34    14    45    45    45
 Leave Link  302 at Sat May  5 20:54:56 2018, MaxMem= 10737418240 cpu:            1061.8 elap:              33.3
 (Enter /home1/apps/gaussian/16rA.03/g16/l303.exe)
 DipDrv:  MaxL=1.
 Leave Link  303 at Sat May  5 20:54:57 2018, MaxMem= 10737418240 cpu:               4.1 elap:               0.2
 (Enter /home1/apps/gaussian/16rA.03/g16/l401.exe)
 Initial guess from the checkpoint file:  "5z.chk"
 B after Tr=     0.000000    0.000000    0.000000
         Rot=    1.000000    0.000000    0.000000    0.000000 Ang=   0.00 deg.
 Guess basis will be translated and rotated to current coordinates.
 GSVD:  received Info=                   1 from GESDD.
 JPrj=2 DoOrth=T DoCkMO=T.
 Initial guess orbital symmetries:
       Occupied  (A1G) (T1U) (T1U) (T1U) (?A) (?B) (A1G) (?B) (?B)
                 (?A)
       Virtual   (T1U) (T1U) (T1U) (A1G) (T1U) (T1U) (T1U) (T2G)
                 (EG) (EG) (T2G) (T2G) (A1G) (T1U) (T1U) (T1U)
                 (?B) (?A) (?B) (?B) (?A) (A1G) (?B) (?A) (?A)
                 (?B) (?B) (?C) (A2U) (?C) (?C) (?C) (?C) (?C)
                 (?C) (?C) (?C) (?A) (?B) (?A) (?B) (?B) (?D) (?D)
                 (?D) (?D) (?D) (?D) (A2U) (A1G) (?D) (?D) (?D)
                 (?E) (T2G) (?E) (?E) (T2G) (?E) (?E) (?E) (T2G)
                 (EG) (T2G) (EG) (T2G) (T2G) (?F) (?F) (A2U) (?F)
                 (?F) (?F) (?F) (?F) (?F) (?F) (?F) (?F) (?F) (?F)
                 (EU) (?F) (EU) (?F) (?F) (?F) (?F) (?E) (?F) (?E)
                 (?E) (?F) (?E) (?E) (?E) (?F) (?F) (T2G) (EG)
                 (T2G) (EG) (T2G) (?F) (?F) (?F) (?F) (?F) (A2U)
                 (?F) (?F) (?F) (?F) (?F) (?F) (?F) (?F) (?F) (?F)
                 (?F) (?F) (?F) (?F) (?F) (?F) (?F) (EU) (EU) (?F)
                 (?F) (?F) (?F) (?F) (?F) (?F) (?F) (?F) (?F) (?F)
                 (T1U) (T1U) (T1U) (EG) (T2G) (T2G) (EG) (T2G)
                 (?F) (?F) (A2U) (?F) (?F) (?F) (?F) (?E) (?F)
                 (?E) (?E) (?F) (?E) (?E) (?E) (?F) (?F) (?F) (?F)
                 (?F) (?F) (EU) (EU) (?F) (?F) (?F) (?F) (?F) (EG)
                 (T2G) (T2G) (EG) (T2G) (T1U) (T1U) (T1U) (A1G)
                 (EG) (T2G) (T2G) (EG) (T2G) (T1U) (T1U) (T1U)
                 (A1G) (EG) (T2G) (T2G) (EG) (T2G) (T1U) (T1U)
                 (T1U) (A1G) (T1U) (T1U) (T1U) (EG) (T2G) (T2G)
                 (EG) (T2G) (A1G) (T1U) (T1U) (T1U) (A1G) (T1U)
                 (T1U) (T1U) (EG) (T2G) (T2G) (EG) (T2G) (A1G)
                 (T1U) (T1U) (T1U) (A1G) (T1U) (T1U) (T1U) (A1G)
                 (T1U) (T1U) (T1U) (A1G) (T1U) (T1U) (T1U) (A1G)
                 (T1U) (T1U) (T1U) (A1G) (A1G) (A1G) (A1G) (A1G)
                 (A1G) (A1G) (T2G) (T2G) (T2G) (?F) (?F) (?F) (?F)
                 (A1G) (EG) (EG) (?F) (?F) (?F) (?F) (?F) (?F)
                 (?F) (?F) (A1G) (A1G) (?E) (?E) (?F) (?F) (?F)
                 (T2G) (?F) (?F) (?F) (?F) (?F) (?F) (?E) (?E)
                 (?F) (?F) (?F) (T2G) (?F) (?F) (?F) (?F) (?F)
                 (?F) (?E) (?E) (?F) (?F) (?F) (T2G) (?F) (?F)
                 (?F) (?F) (?F) (?F) (EU) (EU) (A2U) (T1U) (?F)
                 (?F) (?F) (?F) (?F) (T1U) (?F) (?F) (?F) (?F)
                 (?F) (T1U) (?F) (?F) (?F) (?F) (?F)
 Leave Link  401 at Sat May  5 20:54:59 2018, MaxMem= 10737418240 cpu:              42.3 elap:               1.6
 (Enter /home1/apps/gaussian/16rA.03/g16/l502.exe)
 Keep R1 and R2 ints in memory in symmetry-blocked form, NReq=2160455697.
 FoFCou: FMM=F IPFlag=           8 FMFlag=           0 FMFlg1=           0
         NFxFlg=           0 DoJE=F BraDBF=F KetDBF=F FulRan=T
         wScrn=  0.000000 ICntrl=       600 IOpCl=  0 I1Cent=           0 NGrid=           0
         NMat0=    1 NMatS0=  59685 NMatT0=    0 NMatD0=    1 NMtDS0=    0 NMtDT0=    0
 Petite list used in FoFCou.
 Restricted open shell SCF:
 Using DIIS extrapolation, IDIIS=  1040.
 NGot= 10737418240 LenX= 10285394163 LenY= 10285150621
 Requested convergence on RMS density matrix=1.00D-08 within 400 cycles.
 Requested convergence on MAX density matrix=1.00D-06.
 Requested convergence on             energy=1.00D-06.
 No special actions if energy rises.

 Cycle   1  Pass 1  IDiag  1:
 Density matrix breaks symmetry, PCut= 1.00D-07
 Density has only Abelian symmetry.
 E= -144.944383147727    
 DIIS: error= 9.93D-01 at cycle   1 NSaved=   1.
 NSaved= 1 IEnMin= 1 EnMin= -144.944383147727     IErMin= 1 ErrMin= 9.93D-01
 ErrMax= 9.93D-01  0.00D+00 EMaxC= 1.00D-01 BMatC= 1.20D+02 BMatP= 1.20D+02
 IDIUse=3 WtCom= 0.00D+00 WtEn= 1.00D+00
 Coeff-Com:  0.100D+01
 Coeff-En:   0.100D+01
 Coeff:      0.100D+01
 Gap=     0.148 Goal=   None    Shift=    0.000
 GapD=    0.148 DampG=1.000 DampE=0.125 DampFc=0.1250 IDamp=-1.
 Damping current iteration by 1.25D-01
 RMSDP=2.48D-04 MaxDP=1.43D-02              OVMax= 1.19D-03

 Cycle   2  Pass 1  IDiag  1:
 Density matrix breaks symmetry, PCut= 1.00D-07
 Density has only Abelian symmetry.
 E= -144.944406087532     Delta-E=       -0.000022939806 Rises=F Damp=T
 DIIS: error= 8.68D-01 at cycle   2 NSaved=   2.
 NSaved= 2 IEnMin= 2 EnMin= -144.944406087532     IErMin= 2 ErrMin= 8.68D-01
 ErrMax= 8.68D-01  0.00D+00 EMaxC= 1.00D-01 BMatC= 9.16D+01 BMatP= 1.20D+02
 IDIUse=3 WtCom= 0.00D+00 WtEn= 1.00D+00
 Coeff-Com: -0.700D+01 0.800D+01
 Coeff-En:   0.000D+00 0.100D+01
 Coeff:      0.000D+00 0.100D+01
 Gap=     0.148 Goal=   None    Shift=    0.000
 RMSDP=2.15D-04 MaxDP=1.24D-02 DE=-2.29D-05 OVMax= 4.69D-04

 Cycle   3  Pass 1  IDiag  1:
 Density matrix breaks symmetry, PCut= 1.00D-07
 Density has only Abelian symmetry.
 E= -144.944570530383     Delta-E=       -0.000164442850 Rises=F Damp=F
 DIIS: error= 2.66D-04 at cycle   3 NSaved=   3.
 NSaved= 3 IEnMin= 3 EnMin= -144.944570530383     IErMin= 3 ErrMin= 2.66D-04
 ErrMax= 2.66D-04  0.00D+00 EMaxC= 1.00D-01 BMatC= 2.61D-06 BMatP= 9.16D+01
 IDIUse=3 WtCom= 9.97D-01 WtEn= 2.66D-03
 Coeff-Com: -0.106D+01 0.121D+01 0.849D+00
 Coeff-En:   0.000D+00 0.000D+00 0.100D+01
 Coeff:     -0.105D+01 0.120D+01 0.849D+00
 Gap=     0.148 Goal=   None    Shift=    0.000
 RMSDP=1.10D-05 MaxDP=2.02D-03 DE=-1.64D-04 OVMax= 4.49D-04

 Cycle   4  Pass 1  IDiag  1:
 Density matrix breaks symmetry, PCut= 1.00D-07
 Density has only Abelian symmetry.
 E= -144.944570705029     Delta-E=       -0.000000174647 Rises=F Damp=F
 DIIS: error= 2.24D-04 at cycle   4 NSaved=   4.
 NSaved= 4 IEnMin= 4 EnMin= -144.944570705029     IErMin= 4 ErrMin= 2.24D-04
 ErrMax= 2.24D-04  0.00D+00 EMaxC= 1.00D-01 BMatC= 1.68D-06 BMatP= 2.61D-06
 IDIUse=3 WtCom= 9.98D-01 WtEn= 2.24D-03
 Coeff-Com: -0.941D+00 0.108D+01 0.103D+00 0.762D+00
 Coeff-En:   0.000D+00 0.000D+00 0.350D+00 0.650D+00
 Coeff:     -0.939D+00 0.107D+01 0.104D+00 0.762D+00
 Gap=     0.148 Goal=   None    Shift=    0.000
 RMSDP=3.33D-06 MaxDP=3.08D-04 DE=-1.75D-07 OVMax= 7.95D-04

 Cycle   5  Pass 1  IDiag  1:
 Density matrix breaks symmetry, PCut= 1.00D-07
 Density has only Abelian symmetry.
 E= -144.944569998109     Delta-E=        0.000000706920 Rises=F Damp=F
 DIIS: error= 1.99D-04 at cycle   5 NSaved=   5.
 NSaved= 5 IEnMin= 4 EnMin= -144.944570705029     IErMin= 5 ErrMin= 1.99D-04
 ErrMax= 1.99D-04  0.00D+00 EMaxC= 1.00D-01 BMatC= 1.86D-06 BMatP= 1.68D-06
 IDIUse=3 WtCom= 4.15D-01 WtEn= 5.85D-01
 Coeff-Com: -0.897D+00 0.103D+01-0.169D+00 0.626D+00 0.415D+00
 Coeff-En:   0.000D+00 0.000D+00 0.000D+00 0.691D+00 0.309D+00
 Coeff:     -0.372D+00 0.425D+00-0.699D-01 0.664D+00 0.352D+00
 Gap=     0.148 Goal=   None    Shift=    0.000
 RMSDP=5.45D-06 MaxDP=3.36D-04 DE= 7.07D-07 OVMax= 7.31D-04

 Cycle   6  Pass 1  IDiag  1:
 Density matrix breaks symmetry, PCut= 1.00D-07
 Density has only Abelian symmetry.
 E= -144.944570931806     Delta-E=       -0.000000933697 Rises=F Damp=F
 DIIS: error= 8.06D-05 at cycle   6 NSaved=   6.
 NSaved= 6 IEnMin= 6 EnMin= -144.944570931806     IErMin= 6 ErrMin= 8.06D-05
 ErrMax= 8.06D-05  0.00D+00 EMaxC= 1.00D-01 BMatC= 2.11D-07 BMatP= 1.68D-06
 IDIUse=1 WtCom= 1.00D+00 WtEn= 0.00D+00
 Coeff-Com: -0.885D+00 0.101D+01-0.167D+00 0.610D+00 0.410D+00 0.197D-01
 Coeff:     -0.885D+00 0.101D+01-0.167D+00 0.610D+00 0.410D+00 0.197D-01
 Gap=     0.148 Goal=   None    Shift=    0.000
 RMSDP=3.56D-06 MaxDP=2.34D-04 DE=-9.34D-07 OVMax= 2.48D-04

 Cycle   7  Pass 1  IDiag  1:
 Density matrix breaks symmetry, PCut= 1.00D-07
 Density has only Abelian symmetry.
 E= -144.944570808226     Delta-E=        0.000000123580 Rises=F Damp=F
 DIIS: error= 1.88D-04 at cycle   7 NSaved=   7.
 NSaved= 7 IEnMin= 6 EnMin= -144.944570931806     IErMin= 6 ErrMin= 8.06D-05
 ErrMax= 1.88D-04  0.00D+00 EMaxC= 1.00D-01 BMatC= 1.16D-06 BMatP= 2.11D-07
 IDIUse=1 WtCom= 1.00D+00 WtEn= 0.00D+00
 Coeff-Com: -0.866D+00 0.990D+00-0.155D+00 0.299D+00 0.227D+00-0.552D-01
 Coeff-Com:  0.560D+00
 Coeff:     -0.866D+00 0.990D+00-0.155D+00 0.299D+00 0.227D+00-0.552D-01
 Coeff:      0.560D+00
 Gap=     0.148 Goal=   None    Shift=    0.000
 RMSDP=1.99D-07 MaxDP=2.62D-05 DE= 1.24D-07 OVMax= 2.60D-05

 Cycle   8  Pass 1  IDiag  1:
 Density matrix breaks symmetry, PCut= 1.00D-07
 Density has only Abelian symmetry.
 E= -144.944570822516     Delta-E=       -0.000000014289 Rises=F Damp=F
 DIIS: error= 1.84D-04 at cycle   8 NSaved=   8.
 NSaved= 8 IEnMin= 6 EnMin= -144.944570931806     IErMin= 6 ErrMin= 8.06D-05
 ErrMax= 1.84D-04  0.00D+00 EMaxC= 1.00D-01 BMatC= 1.10D-06 BMatP= 2.11D-07
 IDIUse=1 WtCom= 1.00D+00 WtEn= 0.00D+00
 Coeff-Com: -0.855D+00 0.977D+00-0.143D+00 0.500D-01 0.664D-01-0.155D+00
 Coeff-Com:  0.311D+00 0.748D+00
 Coeff:     -0.855D+00 0.977D+00-0.143D+00 0.500D-01 0.664D-01-0.155D+00
 Coeff:      0.311D+00 0.748D+00
 Gap=     0.148 Goal=   None    Shift=    0.000
 RMSDP=1.31D-07 MaxDP=2.21D-05 DE=-1.43D-08 OVMax= 6.01D-06

 Cycle   9  Pass 1  IDiag  1:
 Density matrix breaks symmetry, PCut= 1.00D-07
 Density has only Abelian symmetry.
 E= -144.944570826342     Delta-E=       -0.000000003827 Rises=F Damp=F
 DIIS: error= 1.81D-04 at cycle   9 NSaved=   9.
 NSaved= 9 IEnMin= 6 EnMin= -144.944570931806     IErMin= 6 ErrMin= 8.06D-05
 ErrMax= 1.81D-04  0.00D+00 EMaxC= 1.00D-01 BMatC= 1.07D-06 BMatP= 2.11D-07
 IDIUse=1 WtCom= 1.00D+00 WtEn= 0.00D+00
 Coeff-Com: -0.852D+00 0.974D+00-0.139D+00 0.149D-02 0.292D-01-0.192D+00
 Coeff-Com:  0.196D+00 0.301D+00 0.682D+00
 Coeff:     -0.852D+00 0.974D+00-0.139D+00 0.149D-02 0.292D-01-0.192D+00
 Coeff:      0.196D+00 0.301D+00 0.682D+00
 Gap=     0.148 Goal=   None    Shift=    0.000
 RMSDP=1.12D-07 MaxDP=1.19D-05 DE=-3.83D-09 OVMax= 1.02D-05

 Cycle  10  Pass 1  IDiag  1:
 Density matrix breaks symmetry, PCut= 1.00D-07
 Density has only Abelian symmetry.
 E= -144.944570826993     Delta-E=       -0.000000000651 Rises=F Damp=F
 DIIS: error= 1.81D-04 at cycle  10 NSaved=  10.
 NSaved=10 IEnMin= 6 EnMin= -144.944570931806     IErMin= 6 ErrMin= 8.06D-05
 ErrMax= 1.81D-04  0.00D+00 EMaxC= 1.00D-01 BMatC= 1.07D-06 BMatP= 2.11D-07
 IDIUse=1 WtCom= 1.00D+00 WtEn= 0.00D+00
 Coeff-Com: -0.851D+00 0.972D+00-0.138D+00-0.774D-02 0.210D-01-0.202D+00
 Coeff-Com:  0.156D+00 0.108D+00 0.613D+00 0.329D+00
 Coeff:     -0.851D+00 0.972D+00-0.138D+00-0.774D-02 0.210D-01-0.202D+00
 Coeff:      0.156D+00 0.108D+00 0.613D+00 0.329D+00
 Gap=     0.148 Goal=   None    Shift=    0.000
 RMSDP=6.82D-08 MaxDP=7.50D-06 DE=-6.51D-10 OVMax= 7.11D-06

 Cycle  11  Pass 1  IDiag  1:
 Density matrix breaks symmetry, PCut= 1.00D-07
 Density has only Abelian symmetry.
 E= -144.944570827456     Delta-E=       -0.000000000463 Rises=F Damp=F
 DIIS: error= 1.80D-04 at cycle  11 NSaved=  11.
 NSaved=11 IEnMin= 6 EnMin= -144.944570931806     IErMin= 6 ErrMin= 8.06D-05
 ErrMax= 1.80D-04  0.00D+00 EMaxC= 1.00D-01 BMatC= 1.06D-06 BMatP= 2.11D-07
 IDIUse=1 WtCom= 1.00D+00 WtEn= 0.00D+00
 Coeff-Com: -0.847D+00 0.968D+00-0.138D+00 0.127D-01 0.339D-01-0.193D+00
 Coeff-Com:  0.149D+00-0.194D-02-0.132D+00 0.197D-01 0.113D+01
 Coeff:     -0.847D+00 0.968D+00-0.138D+00 0.127D-01 0.339D-01-0.193D+00
 Coeff:      0.149D+00-0.194D-02-0.132D+00 0.197D-01 0.113D+01
 Gap=     0.148 Goal=   None    Shift=    0.000
 RMSDP=2.01D-08 MaxDP=1.26D-06 DE=-4.63D-10 OVMax= 1.15D-06

 Cycle  12  Pass 1  IDiag  1:
 Density matrix breaks symmetry, PCut= 1.00D-07
 Density has only Abelian symmetry.
 E= -144.944570828619     Delta-E=       -0.000000001162 Rises=F Damp=F
 DIIS: error= 1.80D-04 at cycle  12 NSaved=  12.
 NSaved=12 IEnMin= 6 EnMin= -144.944570931806     IErMin= 6 ErrMin= 8.06D-05
 ErrMax= 1.80D-04  0.00D+00 EMaxC= 1.00D-01 BMatC= 1.06D-06 BMatP= 2.11D-07
 IDIUse=1 WtCom= 1.00D+00 WtEn= 0.00D+00
 Coeff-Com: -0.846D+00 0.966D+00-0.138D+00 0.147D-01 0.352D-01-0.192D+00
 Coeff-Com:  0.151D+00-0.114D-01-0.171D+00-0.158D-01 0.822D+00 0.384D+00
 Coeff:     -0.846D+00 0.966D+00-0.138D+00 0.147D-01 0.352D-01-0.192D+00
 Coeff:      0.151D+00-0.114D-01-0.171D+00-0.158D-01 0.822D+00 0.384D+00
 Gap=     0.148 Goal=   None    Shift=    0.000
 RMSDP=1.19D-08 MaxDP=9.73D-07 DE=-1.16D-09 OVMax= 6.14D-07

 Cycle  13  Pass 1  IDiag  1:
 Density matrix breaks symmetry, PCut= 1.00D-07
 Density has only Abelian symmetry.
 E= -144.944570829159     Delta-E=       -0.000000000540 Rises=F Damp=F
 DIIS: error= 1.79D-04 at cycle  13 NSaved=  13.
 NSaved=13 IEnMin= 6 EnMin= -144.944570931806     IErMin= 6 ErrMin= 8.06D-05
 ErrMax= 1.79D-04  0.00D+00 EMaxC= 1.00D-01 BMatC= 1.05D-06 BMatP= 2.11D-07
 IDIUse=1 WtCom= 1.00D+00 WtEn= 0.00D+00
 Coeff-Com: -0.840D+00 0.960D+00-0.137D+00 0.121D-01 0.337D-01-0.190D+00
 Coeff-Com:  0.160D+00-0.723D-03 0.186D-01 0.229D-01-0.390D+00-0.374D+00
 Coeff-Com:  0.172D+01
 Coeff:     -0.840D+00 0.960D+00-0.137D+00 0.121D-01 0.337D-01-0.190D+00
 Coeff:      0.160D+00-0.723D-03 0.186D-01 0.229D-01-0.390D+00-0.374D+00
 Coeff:      0.172D+01
 Gap=     0.148 Goal=   None    Shift=    0.000
 RMSDP=2.62D-08 MaxDP=1.99D-06 DE=-5.40D-10 OVMax= 1.11D-06

 Cycle  14  Pass 1  IDiag  1:
 Density matrix breaks symmetry, PCut= 1.00D-07
 Density has only Abelian symmetry.
 E= -144.944570831002     Delta-E=       -0.000000001843 Rises=F Damp=F
 DIIS: error= 1.78D-04 at cycle  14 NSaved=  14.
 NSaved=14 IEnMin= 6 EnMin= -144.944570931806     IErMin= 6 ErrMin= 8.06D-05
 ErrMax= 1.78D-04  0.00D+00 EMaxC= 1.00D-01 BMatC= 1.04D-06 BMatP= 2.11D-07
 IDIUse=1 WtCom= 1.00D+00 WtEn= 0.00D+00
 Coeff-Com: -0.834D+00 0.954D+00-0.136D+00 0.116D-01 0.332D-01-0.189D+00
 Coeff-Com:  0.159D+00 0.173D-02 0.381D-01 0.108D-01-0.355D+00-0.259D+00
 Coeff-Com:  0.548D+00 0.102D+01
 Coeff:     -0.834D+00 0.954D+00-0.136D+00 0.116D-01 0.332D-01-0.189D+00
 Coeff:      0.159D+00 0.173D-02 0.381D-01 0.108D-01-0.355D+00-0.259D+00
 Coeff:      0.548D+00 0.102D+01
 Gap=     0.148 Goal=   None    Shift=    0.000
 RMSDP=2.43D-08 MaxDP=1.84D-06 DE=-1.84D-09 OVMax= 1.03D-06

 Cycle  15  Pass 1  IDiag  1:
 Density matrix breaks symmetry, PCut= 1.00D-07
 Density has only Abelian symmetry.
 E= -144.944570832689     Delta-E=       -0.000000001688 Rises=F Damp=F
 DIIS: error= 1.77D-04 at cycle  15 NSaved=  15.
 NSaved=15 IEnMin= 6 EnMin= -144.944570931806     IErMin= 6 ErrMin= 8.06D-05
 ErrMax= 1.77D-04  0.00D+00 EMaxC= 1.00D-01 BMatC= 1.02D-06 BMatP= 2.11D-07
 IDIUse=1 WtCom= 1.00D+00 WtEn= 0.00D+00
 Large coefficients: NSaved= 15 BigCof=    0.00 CofMax=   10.00 Det=-2.27D-16
 Inversion failed.  Reducing to 14 matrices.
 Large coefficients: NSaved= 14 BigCof=  104.38 CofMax=   10.00 Det=-1.55D-15
 Inversion failed.  Reducing to 13 matrices.
 Large coefficients: NSaved= 13 BigCof=  104.27 CofMax=   10.00 Det=-1.56D-15
 Inversion failed.  Reducing to 12 matrices.
 Large coefficients: NSaved= 12 BigCof=  110.63 CofMax=   10.00 Det=-1.67D-15
 Inversion failed.  Reducing to 11 matrices.
 Large coefficients: NSaved= 11 BigCof=  110.04 CofMax=   10.00 Det=-1.74D-15
 Inversion failed.  Reducing to 10 matrices.
 Large coefficients: NSaved= 10 BigCof=  100.09 CofMax=   10.00 Det=-2.69D-15
 Inversion failed.  Reducing to  9 matrices.
 Large coefficients: NSaved=  9 BigCof=   96.73 CofMax=   10.00 Det=-2.76D-15
 Inversion failed.  Reducing to  8 matrices.
 Large coefficients: NSaved=  8 BigCof=   88.05 CofMax=   10.00 Det=-2.81D-15
 Inversion failed.  Reducing to  7 matrices.
 Large coefficients: NSaved=  7 BigCof=   86.50 CofMax=   10.00 Det=-3.10D-15
 Inversion failed.  Reducing to  6 matrices.
 Large coefficients: NSaved=  6 BigCof=   77.05 CofMax=   10.00 Det=-1.10D-14
 Inversion failed.  Reducing to  5 matrices.
 Large coefficients: NSaved=  5 BigCof=   72.06 CofMax=   10.00 Det=-1.27D-14
 Inversion failed.  Reducing to  4 matrices.
 Large coefficients: NSaved=  4 BigCof=   80.89 CofMax=   10.00 Det=-1.48D-14
 Inversion failed.  Reducing to  3 matrices.
 Large coefficients: NSaved=  3 BigCof=  156.04 CofMax=   10.00 Det=-4.38D-12
 Inversion failed.  Reducing to  2 matrices.
 Large coefficients: NSaved=  2 BigCof=  156.67 CofMax=   10.00 Det=-4.22D-11
 Coeff-Com: -0.156D+03 0.157D+03
 Coeff:     -0.156D+03 0.157D+03
 Gap=     0.148 Goal=   None    Shift=    0.000
 RMSDP=3.90D-06 MaxDP=2.86D-04 DE=-1.69D-09 OVMax= 1.76D-04

 Cycle  16  Pass 1  IDiag  1:
 Density matrix breaks symmetry, PCut= 1.00D-07
 Density has only Abelian symmetry.
 E= -144.944570959769     Delta-E=       -0.000000127079 Rises=F Damp=F
 DIIS: error= 8.29D-06 at cycle  16 NSaved=   3.
 NSaved= 3 IEnMin= 3 EnMin= -144.944570959769     IErMin= 3 ErrMin= 8.29D-06
 ErrMax= 8.29D-06  0.00D+00 EMaxC= 1.00D-01 BMatC= 2.67D-09 BMatP= 1.02D-06
 IDIUse=1 WtCom= 1.00D+00 WtEn= 0.00D+00
 Large coefficients: NSaved=  3 BigCof=  112.98 CofMax=   10.00 Det=-2.06D-13
 Inversion failed.  Reducing to  2 matrices.
 Coeff-Com:  0.264D-02 0.997D+00
 Coeff:      0.264D-02 0.997D+00
 Gap=     0.148 Goal=   None    Shift=    0.000
 RMSDP=4.01D-06 MaxDP=4.60D-04 DE=-1.27D-07 OVMax= 3.05D-04

 Cycle  17  Pass 1  IDiag  1:
 Density matrix breaks symmetry, PCut= 1.00D-07
 Density has only Abelian symmetry.
 E= -144.944570927119     Delta-E=        0.000000032650 Rises=F Damp=F
 DIIS: error= 2.20D-05 at cycle  17 NSaved=   3.
 NSaved= 3 IEnMin= 2 EnMin= -144.944570959769     IErMin= 2 ErrMin= 8.29D-06
 ErrMax= 2.20D-05  0.00D+00 EMaxC= 1.00D-01 BMatC= 2.47D-08 BMatP= 2.67D-09
 IDIUse=1 WtCom= 1.00D+00 WtEn= 0.00D+00
 Coeff-Com:  0.121D-03 0.754D+00 0.245D+00
 Coeff:      0.121D-03 0.754D+00 0.245D+00
 Gap=     0.148 Goal=   None    Shift=    0.000
 RMSDP=2.83D-06 MaxDP=3.20D-04 DE= 3.26D-08 OVMax= 2.43D-04

 Cycle  18  Pass 1  IDiag  1:
 Density matrix breaks symmetry, PCut= 1.00D-07
 Density has only Abelian symmetry.
 E= -144.944570963347     Delta-E=       -0.000000036228 Rises=F Damp=F
 DIIS: error= 2.49D-06 at cycle  18 NSaved=   4.
 NSaved= 4 IEnMin= 4 EnMin= -144.944570963347     IErMin= 4 ErrMin= 2.49D-06
 ErrMax= 2.49D-06  0.00D+00 EMaxC= 1.00D-01 BMatC= 2.30D-10 BMatP= 2.67D-09
 IDIUse=1 WtCom= 1.00D+00 WtEn= 0.00D+00
 Coeff-Com:  0.736D-05 0.475D+00 0.164D+00 0.362D+00
 Coeff:      0.736D-05 0.475D+00 0.164D+00 0.362D+00
 Gap=     0.148 Goal=   None    Shift=    0.000
 RMSDP=2.08D-07 MaxDP=2.43D-05 DE=-3.62D-08 OVMax= 2.48D-05

 Cycle  19  Pass 1  IDiag  1:
 Density matrix breaks symmetry, PCut= 1.00D-07
 Density has only Abelian symmetry.
 E= -144.944570963703     Delta-E=       -0.000000000356 Rises=F Damp=F
 DIIS: error= 2.13D-07 at cycle  19 NSaved=   5.
 NSaved= 5 IEnMin= 5 EnMin= -144.944570963703     IErMin= 5 ErrMin= 2.13D-07
 ErrMax= 2.13D-07  0.00D+00 EMaxC= 1.00D-01 BMatC= 4.29D-12 BMatP= 2.30D-10
 IDIUse=1 WtCom= 1.00D+00 WtEn= 0.00D+00
 Coeff-Com: -0.158D-05 0.215D+00 0.748D-01 0.196D+00 0.515D+00
 Coeff:     -0.158D-05 0.215D+00 0.748D-01 0.196D+00 0.515D+00
 Gap=     0.148 Goal=   None    Shift=    0.000
 RMSDP=4.46D-08 MaxDP=4.74D-06 DE=-3.56D-10 OVMax= 2.40D-06

 Cycle  20  Pass 1  IDiag  1:
 Density matrix breaks symmetry, PCut= 1.00D-07
 Density has only Abelian symmetry.
 E= -144.944570963709     Delta-E=       -0.000000000007 Rises=F Damp=F
 DIIS: error= 9.87D-08 at cycle  20 NSaved=   6.
 NSaved= 6 IEnMin= 6 EnMin= -144.944570963709     IErMin= 6 ErrMin= 9.87D-08
 ErrMax= 9.87D-08  0.00D+00 EMaxC= 1.00D-01 BMatC= 6.36D-13 BMatP= 4.29D-12
 IDIUse=1 WtCom= 1.00D+00 WtEn= 0.00D+00
 Coeff-Com: -0.260D-05 0.134D+00 0.468D-01 0.126D+00 0.373D+00 0.319D+00
 Coeff:     -0.260D-05 0.134D+00 0.468D-01 0.126D+00 0.373D+00 0.319D+00
 Gap=     0.148 Goal=   None    Shift=    0.000
 RMSDP=8.45D-09 MaxDP=8.33D-07 DE=-6.85D-12 OVMax= 7.53D-07

 Density matrix breaks symmetry, PCut= 1.00D-07
 Density has only Abelian symmetry.
 SCF Done:  E(ROHF) =  -144.944570964     A.U. after   20 cycles
            NFock= 20  Conv=0.85D-08     -V/T= 2.6219
 <Sx>= 0.0000 <Sy>= 0.0000 <Sz>= 1.5000 <S**2>= 3.7500 S= 1.5000
 <L.S>=  0.00000000000    
 KE= 8.936611597767D+01 PE=-3.464552914170D+02 EE= 1.121446044756D+02
 Annihilation of the first spin contaminant:
 S**2 before annihilation     3.7500,   after     3.7500
 Leave Link  502 at Sat May  5 21:01:39 2018, MaxMem= 10737418240 cpu:           12703.7 elap:             400.0
 (Enter /home1/apps/gaussian/16rA.03/g16/l801.exe)
 Windowed orbitals will be sorted by symmetry type.
 Density matrix breaks symmetry, PCut= 1.00D-07
 Density has only Abelian symmetry.
 GenMOA:  NOpAll= 48 NOp2=8 NOpUse=  8 JSym2X=1
 FoFJK:  IHMeth= 1 ICntrl=       0 DoSepK=F KAlg= 0 I1Cent=           0 FoldK=F
 IRaf=         0 NMat=       1 IRICut=       1 DoRegI=T DoRafI=F ISym2E= 1 IDoP0=0 IntGTp=1.
 FoFCou: FMM=F IPFlag=           8 FMFlag=      100000 FMFlg1=           0
         NFxFlg=           0 DoJE=F BraDBF=F KetDBF=F FulRan=T
         wScrn=  0.000000 ICntrl=         0 IOpCl=  1 I1Cent=           0 NGrid=           0
         NMat0=    1 NMatS0=      1 NMatT0=    0 NMatD0=    1 NMtDS0=    0 NMtDT0=    0
 Petite list used in FoFCou.
 <Sx>= 0.0000 <Sy>= 0.0000 <Sz>= 1.5000 <S**2>= 3.7500 S= 1.5000
 Range of M.O.s used for correlation:     1   337
 NBasis=   345 NAE=    10 NBE=     7 NFC=     0 NFV=     0
 NROrb=    337 NOA=    10 NOB=     7 NVA=   327 NVB=   330

 **** Warning!!: The largest alpha MO coefficient is  0.17085881D+03


 **** Warning!!: The largest beta MO coefficient is  0.17081913D+03

 Singles contribution to E2=   -0.7843786131D-02
 Leave Link  801 at Sat May  5 21:02:36 2018, MaxMem= 10737418240 cpu:            1800.5 elap:              56.3
 (Enter /home1/apps/gaussian/16rA.03/g16/l804.exe)
 Open-shell transformation, MDV= 10737418240 ITran=4 ISComp=2.
 Unit  1 TFree=       3561693 TCopy=       2706126.
 Semi-Direct transformation.
 ModeAB=           2 MOrb=            10 LenV=   10733775581
 LASXX=     23844544 LTotXX=    23844544 LenRXX=    23844544
 LTotAB=    24141176 MaxLAS=   410368270 LenRXY=   410368270
 NonZer=   420690580 LenScr=   633510912 LnRSAI=           0
 LnScr1=           0 LExtra=    13810433 Total=   1081534159
 MaxDsk= 67108864000 SrtSym=           F ITran=            4
 DoSDTr:  NPSUse= 32
 JobTyp=1 Pass  1:  I=   1 to  10.
 (rs|ai) integrals will be sorted in core.
 Complete sort for first half transformation.
 First half transformation complete.
 Begin second half transformation for I=  10.
 Begin second half transformation for I=  10.
 Complete sort for second half transformation.
 Second half transformation complete.
 ModeAB=           2 MOrb=             7 LenV=   10733775581
 LASXX=     16853861 LTotXX=    16853861 LenRXX=   287257789
 LTotAB=    16051858 MaxLAS=   287257789 LenRXY=    16051858
 NonZer=   294483406 LenScr=   443457536 LnRSAI=           0
 LnScr1=           0 LExtra=   448023247 Total=   1194790430
 MaxDsk= 67108864000 SrtSym=           F ITran=            4
 DoSDTr:  NPSUse= 32
 JobTyp=2 Pass  1:  I=   1 to   7.
 (rs|ai) integrals will be sorted in core.
 Complete sort for first half transformation.
 First half transformation complete.
 Complete sort for second half transformation.
 Second half transformation complete.
 Spin components of T(2) and E(2):
     alpha-alpha T2 =       0.1986147155D-01 E2=     -0.1592187533D+00
     alpha-beta  T2 =       0.7973042316D-01 E2=     -0.5582270928D+00
     beta-beta   T2 =       0.8459760581D-02 E2=     -0.6891516552D-01
 ANorm=    0.1053591091D+01
 E2 =    -0.7942047978D+00 EUMP2 =    -0.14573877576146D+03
 (S**2,0)=  0.37500D+01           (S**2,1)=  0.37500D+01
 E(PUHF)=      -0.14494457096D+03        E(PMP2)=      -0.14573877576D+03
 Leave Link  804 at Sat May  5 21:18:51 2018, MaxMem= 10737418240 cpu:           31173.6 elap:             974.2
 (Enter /home1/apps/gaussian/16rA.03/g16/l913.exe)
 CIDS:  MDV= 10737418240.
 IFCWin=0 IBDFC=1 NFBD=     0     0 NFCmp=     0     0 NFFFC=     0     0
 Using original routines for 1st iteration.
 Using DD4UQ or CC4UQ for 2nd and later iterations.
 Keep R2 and R3 ints in memory in symmetry-blocked form, NReq=2160475010.
 FoFCou: FMM=F IPFlag=           8 FMFlag=           0 FMFlg1=           0
         NFxFlg=           0 DoJE=F BraDBF=F KetDBF=F FulRan=T
         wScrn=  0.000000 ICntrl=       600 IOpCl=  0 I1Cent=           0 NGrid=           0
         NMat0=    1 NMatS0=  59685 NMatT0=    0 NMatD0=    1 NMtDS0=    0 NMtDT0=    0
 Petite list used in FoFCou.
 CIDS: In Core Option IDoMem=           1.
 CCSD(T)
 =======
 Iterations= 150 Convergence= 0.100D-06
 Produce multiple copies of IABC intergrals
 Iteration Nr.   1
 **********************
 DD1Dir will call FoFMem   1 times, MxPair=       206
 NAB=    70 NAA=    45 NBB=    21.
 DD1Dir will call FoFMem   1 times, MxPair=       206
 NAB=    70 NAA=    45 NBB=    21.
 MP4(R+Q)= -0.27002898D-01
 Maximum subspace dimension=  5
 A-vector RMS=  1.3219354D-04 Max=  4.7111551D-03 conv= 1.00D-05.
 RLE energy=       -0.7862518004
 E3=        0.34907938D-01        EROMP3=      -0.14570386782D+03
 E4(SDQ)=  -0.17677823D-01        ROMP4(SDQ)=  -0.14572154565D+03
 VARIATIONAL ENERGIES WITH THE FIRST-ORDER WAVEFUNCTION:
 DE(Corr)= -0.78616984     E(Corr)=     -145.73074080    
 NORM(A)=   0.10499040D+01
 Iteration Nr.   2
 **********************
 DD1Dir will call FoFMem   1 times, MxPair=       206
 NAB=    70 NAA=    45 NBB=    21.
 A-vector RMS=  2.2599419D-03 Max=  3.1838460D-02 conv= 1.00D-05.
 RLE energy=       -0.7786154197
 DE(Corr)= -0.75051818     E(CORR)=     -145.69508914     Delta= 3.57D-02
 NORM(A)=   0.10498183D+01
 Iteration Nr.   3
 **********************
 DD1Dir will call FoFMem   1 times, MxPair=       206
 NAB=    70 NAA=    45 NBB=    21.
 A-vector RMS=  1.8070035D-03 Max=  2.7192400D-02 conv= 1.00D-05.
 RLE energy=       -0.7766893981
 DE(Corr)= -0.75512742     E(CORR)=     -145.69969839     Delta=-4.61D-03
 NORM(A)=   0.10541316D+01
 Iteration Nr.   4
 **********************
 DD1Dir will call FoFMem   1 times, MxPair=       206
 NAB=    70 NAA=    45 NBB=    21.
 A-vector RMS=  1.2243777D-03 Max=  1.7121983D-02 conv= 1.00D-05.
 RLE energy=       -0.7699295897
 DE(Corr)= -0.76150828     E(CORR)=     -145.70607925     Delta=-6.38D-03
 NORM(A)=   0.10692662D+01
 Iteration Nr.   5
 **********************
 DD1Dir will call FoFMem   1 times, MxPair=       206
 NAB=    70 NAA=    45 NBB=    21.
 A-vector RMS=  3.6916461D-04 Max=  4.0002795D-03 conv= 1.00D-05.
 RLE energy=       -0.7721014527
 DE(Corr)= -0.77579515     E(CORR)=     -145.72036611     Delta=-1.43D-02
 NORM(A)=   0.10665265D+01
 Iteration Nr.   6
 **********************
 DD1Dir will call FoFMem   1 times, MxPair=       206
 NAB=    70 NAA=    45 NBB=    21.
 A-vector RMS=  4.6420243D-05 Max=  5.9828553D-04 conv= 1.00D-05.
 RLE energy=       -0.7723301289
 DE(Corr)= -0.77272891     E(CORR)=     -145.71729988     Delta= 3.07D-03
 NORM(A)=   0.10661250D+01
 Iteration Nr.   7
 **********************
 DD1Dir will call FoFMem   1 times, MxPair=       206
 NAB=    70 NAA=    45 NBB=    21.
 A-vector RMS=  7.1901376D-06 Max=  1.0707750D-04 conv= 1.00D-05.
 RLE energy=       -0.7723209716
 DE(Corr)= -0.77231744     E(CORR)=     -145.71688841     Delta= 4.11D-04
 NORM(A)=   0.10661445D+01
 Iteration Nr.   8
 **********************
 DD1Dir will call FoFMem   1 times, MxPair=       206
 NAB=    70 NAA=    45 NBB=    21.
 A-vector RMS=  7.9742714D-06 Max=  1.2123508D-04 conv= 1.00D-05.
 RLE energy=       -0.7723236742
 DE(Corr)= -0.77233602     E(CORR)=     -145.71690699     Delta=-1.86D-05
 NORM(A)=   0.10661265D+01
 Iteration Nr.   9
 **********************
 DD1Dir will call FoFMem   1 times, MxPair=       206
 NAB=    70 NAA=    45 NBB=    21.
 A-vector RMS=  3.1573823D-06 Max=  4.9288092D-05 conv= 1.00D-05.
 RLE energy=       -0.7723332458
 DE(Corr)= -0.77232604     E(CORR)=     -145.71689700     Delta= 9.98D-06
 NORM(A)=   0.10661250D+01
 Iteration Nr.  10
 **********************
 DD1Dir will call FoFMem   1 times, MxPair=       206
 NAB=    70 NAA=    45 NBB=    21.
 A-vector RMS=  1.9124054D-06 Max=  2.9337756D-05 conv= 1.00D-05.
 RLE energy=       -0.7723337954
 DE(Corr)= -0.77233003     E(CORR)=     -145.71690099     Delta=-3.99D-06
 NORM(A)=   0.10661196D+01
 Iteration Nr.  11
 **********************
 DD1Dir will call FoFMem   1 times, MxPair=       206
 NAB=    70 NAA=    45 NBB=    21.
 A-vector RMS=  9.2555507D-07 Max=  1.6827120D-05 conv= 1.00D-05.
 RLE energy=       -0.7723274990
 DE(Corr)= -0.77232768     E(CORR)=     -145.71689865     Delta= 2.34D-06
 NORM(A)=   0.10661140D+01
 Iteration Nr.  12
 **********************
 DD1Dir will call FoFMem   1 times, MxPair=       206
 NAB=    70 NAA=    45 NBB=    21.
 A-vector RMS=  2.9758402D-07 Max=  5.4978414D-06 conv= 1.00D-05.
 RLE energy=       -0.7723274463
 DE(Corr)= -0.77232768     E(CORR)=     -145.71689864     Delta= 3.58D-09
 NORM(A)=   0.10661135D+01
 CI/CC converged in   12 iterations to DelEn= 3.58D-09 Conv= 1.00D-07 ErrA1= 2.98D-07 Conv= 1.00D-05
 Wavefunction amplitudes converged. E(Corr)=     -145.71689864    
 Largest amplitude= 6.14D-02
 Time for triples=    55237.03 seconds.
 T4(CCSD)= -0.24542596D-01
 T5(CCSD)=  0.11662875D-02
 CCSD(T)= -0.14574027495D+03
 Discarding MO integrals.
 Leave Link  913 at Sat May  5 21:51:56 2018, MaxMem= 10737418240 cpu:           63432.4 elap:            1983.9
 (Enter /home1/apps/gaussian/16rA.03/g16/l601.exe)
 Copying SCF densities to generalized density rwf, IOpCl= 0 IROHF=1.
 SCF density gives NOpUse=  8 NOpAll= 48.
 Marking SCF density as not fully symmetric.

 **********************************************************************

            Population analysis using the SCF density.

 **********************************************************************

 Orbital symmetries:
       Occupied  (A1G) (?A) (?A) (?A) (?B) (?C) (A1G) (?C) (?B)
                 (?B)
       Virtual   (T1U) (T1U) (T1U) (A1G) (T2G) (EG) (T2G) (EG)
                 (T2G) (T1U) (T1U) (T1U) (A1G) (?B) (?C) (?B) (?C)
                 (?B) (T1U) (T1U) (T1U) (A1G) (?D) (?D) (A2U) (?D)
                 (?D) (?D) (?D) (?B) (?C) (?B) (?C) (?B) (T1U)
                 (T1U) (T1U) (A1G) (?B) (?C) (?B) (?C) (?B) (?B)
                 (?C) (?B) (?B) (?C) (?B) (?B) (?B) (?C) (?D) (?D)
                 (A2U) (?D) (?D) (?D) (?D) (T1U) (T1U) (T1U) (A1G)
                 (T2G) (EG) (T2G) (EG) (T2G) (?E) (?E) (?E) (?E)
                 (EU) (?E) (EU) (?E) (?E) (?E) (?E) (?A) (?A) (A2U)
                 (?A) (?A) (?A) (?A) (?F) (T2G) (?F) (?F) (T2G)
                 (?F) (?F) (?F) (T2G) (T1U) (T1U) (T1U) (T2G) (EG)
                 (T2G) (T2G) (EG) (A1G) (?D) (?D) (A2U) (?D) (?D)
                 (?D) (?D) (?F) (?F) (?F) (EU) (?F) (?F) (EU) (?F)
                 (?F) (?F) (?F) (?F) (T2G) (?F) (T2G) (?F) (?F)
                 (?F) (?F) (T2G) (?F) (?F) (?F) (?F) (?F) (?F)
                 (?F) (?F) (?F) (?F) (?F) (?F) (?F) (T1U) (T1U)
                 (T1U) (T2G) (EG) (T2G) (T2G) (EG) (A1G) (?D) (?D)
                 (A2U) (?D) (?D) (?D) (?D) (?F) (T2G) (?F) (T2G)
                 (?F) (?F) (?F) (?F) (T2G) (?F) (?F) (?F) (EU)
                 (?F) (?F) (EU) (?F) (?F) (?F) (?F) (?F) (?F) (?F)
                 (?F) (?F) (?F) (?F) (?F) (?F) (?F) (?F) (?F) (?F)
                 (?F) (?F) (?F) (?F) (?F) (T1U) (T1U) (T1U) (A1G)
                 (?F) (?F) (?F) (?F) (?F) (?F) (?F) (?F) (?F) (?F)
                 (?F) (?F) (?F) (?F) (?F) (?F) (?F) (EU) (?F) (?F)
                 (EU) (?F) (?F) (?F) (?F) (?F) (?F) (A2U) (?F)
                 (?F) (?F) (?F) (T1U) (T1U) (T1U) (?F) (?F) (?F)
                 (?F) (?F) (?F) (?F) (?F) (?F) (?F) (?F) (?F) (?F)
                 (T2G) (T2G) (EG) (T2G) (EG) (A1G) (T1U) (T1U)
                 (T1U) (T2G) (T2G) (EG) (T2G) (EG) (A1G) (T1U)
                 (T1U) (T1U) (A1G) (T2G) (T2G) (EG) (T2G) (EG)
                 (T1U) (T1U) (T1U) (A1G) (T2G) (T2G) (EG) (T2G)
                 (EG) (T1U) (T1U) (T1U) (A1G) (T1U) (T1U) (T1U)
                 (A1G) (T2G) (T2G) (EG) (EG) (T2G) (T1U) (T1U)
                 (T1U) (A1G) (A1G) (T1U) (T1U) (T1U) (A1G) (T1U)
                 (T1U) (T1U) (A1G) (T1U) (T1U) (T1U) (A1G) (T1U)
                 (T1U) (T1U) (A1G) (A1G) (T1U) (T1U) (T1U) (A1G)
                 (A1G) (A1G) (A1G) (A1G) (A1G)
 Unable to determine electronic state:  an orbital has unidentified symmetry.
 Alpha  occ. eigenvalues --   -4.85311  -3.20764  -3.20764  -3.20764  -0.72352
 Alpha  occ. eigenvalues --   -0.72352  -0.72352  -0.67295  -0.67295  -0.28296
 Alpha virt. eigenvalues --    0.02115   0.02115   0.02115   0.02332   0.06702
 Alpha virt. eigenvalues --    0.06702   0.06702   0.06708   0.06708   0.06726
 Alpha virt. eigenvalues --    0.06726   0.06726   0.11512   0.20969   0.20969
 Alpha virt. eigenvalues --    0.20969   0.21056   0.21056   0.21744   0.21744
 Alpha virt. eigenvalues --    0.21744   0.35906   0.49502   0.49558   0.49558
 Alpha virt. eigenvalues --    0.49558   0.49601   0.49601   0.49601   0.54761
 Alpha virt. eigenvalues --    0.54761   0.54761   0.55209   0.55209   0.65452
 Alpha virt. eigenvalues --    0.65452   0.65452   0.97374   1.37067   1.37067
 Alpha virt. eigenvalues --    1.37067   1.38271   1.38271   1.41896   1.41896
 Alpha virt. eigenvalues --    1.41896   1.42074   1.42074   1.42125   1.42125
 Alpha virt. eigenvalues --    1.42125   1.42205   1.49208   1.49691   1.49691
 Alpha virt. eigenvalues --    1.49691   1.50036   1.50036   1.50036   1.92078
 Alpha virt. eigenvalues --    1.92078   1.92078   2.75702   3.24825   3.24825
 Alpha virt. eigenvalues --    3.24825   3.27006   3.27006   3.58830   3.58830
 Alpha virt. eigenvalues --    3.58830   3.58912   3.58912   3.59351   3.59351
 Alpha virt. eigenvalues --    3.59351   3.59521   3.59521   3.59521   3.88732
 Alpha virt. eigenvalues --    3.90538   3.90538   3.90538   3.91843   3.91843
 Alpha virt. eigenvalues --    3.91843   4.02967   4.02967   4.02967   4.03838
 Alpha virt. eigenvalues --    4.03838   4.04119   4.04119   4.04119   4.04514
 Alpha virt. eigenvalues --    5.19063   5.19063   5.19063   7.16630   7.16630
 Alpha virt. eigenvalues --    7.16630   7.19659   7.19659   7.67128   9.19083
 Alpha virt. eigenvalues --    9.21986   9.21986   9.21986   9.24201   9.24201
 Alpha virt. eigenvalues --    9.24201   9.50400   9.50400   9.50400   9.50663
 Alpha virt. eigenvalues --    9.50663   9.52093   9.52093   9.52093   9.52641
 Alpha virt. eigenvalues --    9.52641   9.52641  10.11012  10.11012  10.11012
 Alpha virt. eigenvalues --   10.13132  10.13132  10.13825  10.13825  10.13825
 Alpha virt. eigenvalues --   10.14787  10.96055  10.96318  10.96318  10.96318
 Alpha virt. eigenvalues --   10.96616  10.96616  10.96616  10.97759  10.98084
 Alpha virt. eigenvalues --   10.98084  10.98084  10.98192  10.98192  12.62603
 Alpha virt. eigenvalues --   12.62603  12.62603  14.55577  14.55577  14.55577
 Alpha virt. eigenvalues --   14.59178  14.59178  19.30951  21.56383  21.59595
 Alpha virt. eigenvalues --   21.59595  21.59595  21.62137  21.62137  21.62137
 Alpha virt. eigenvalues --   22.53755  22.53755  22.53755  22.56670  22.56670
 Alpha virt. eigenvalues --   22.57641  22.57641  22.57641  22.58992  22.76794
 Alpha virt. eigenvalues --   22.76794  22.76794  22.77273  22.77273  22.79872
 Alpha virt. eigenvalues --   22.79872  22.79872  22.80869  22.80869  22.80869
 Alpha virt. eigenvalues --   26.63669  26.64179  26.64179  26.64179  26.64756
 Alpha virt. eigenvalues --   26.64756  26.64756  26.66941  26.67558  26.67558
 Alpha virt. eigenvalues --   26.67558  26.67762  26.67762  27.12200  27.12200
 Alpha virt. eigenvalues --   27.12200  27.16159  27.16159  28.39141  28.39141
 Alpha virt. eigenvalues --   28.39141  44.62642  47.21181  47.21181  47.21181
 Alpha virt. eigenvalues --   47.25337  47.25337  48.65270  48.65270  48.65270
 Alpha virt. eigenvalues --   48.68107  48.68107  48.69024  48.69024  48.69024
 Alpha virt. eigenvalues --   48.70338  51.18490  51.18490  51.18490  51.19032
 Alpha virt. eigenvalues --   51.19032  51.21937  51.21937  51.21937  51.23056
 Alpha virt. eigenvalues --   51.23056  51.23056  51.71675  51.74305  51.74305
 Alpha virt. eigenvalues --   51.74305  51.76409  51.76409  51.76409  59.79985
 Alpha virt. eigenvalues --   59.79985  59.79985  60.32971  60.33593  60.33593
 Alpha virt. eigenvalues --   60.33593  60.34297  60.34297  60.34297  60.36952
 Alpha virt. eigenvalues --   60.37703  60.37703  60.37703  60.37951  60.37951
 Alpha virt. eigenvalues --   78.94557  78.94557  78.94557  78.98657  78.98657
 Alpha virt. eigenvalues --   93.73469 116.98814 116.98814 116.98814 135.22457
 Alpha virt. eigenvalues --  135.22457 135.22457 135.25740 135.25740 150.30626
 Alpha virt. eigenvalues --  213.18085 213.18085 213.18085 238.80479 265.63349
 Alpha virt. eigenvalues --  265.63349 265.63349 265.65154 265.65154 382.80787
 Alpha virt. eigenvalues --  382.80787 382.80787 424.41142 647.22838 647.22838
 Alpha virt. eigenvalues --  647.22838 647.23460 647.23460 699.61351 699.61351
 Alpha virt. eigenvalues --  699.61351 763.066731316.435521316.435521316.43552
 Alpha virt. eigenvalues -- 1399.188922082.711142082.711142082.711142082.71238
 Alpha virt. eigenvalues -- 2082.712382585.625842585.625842585.625842643.29269
 Alpha virt. eigenvalues -- 5163.262505372.166335372.166335372.16633**********
 Alpha virt. eigenvalues -- **************************************************
 Alpha virt. eigenvalues -- **************************************************
 Alpha virt. eigenvalues -- **************************************************
 Alpha virt. eigenvalues -- **************************************************
 Alpha virt. eigenvalues -- ********************
     Molecular Orbital Coefficients:
                           3         4         5         6         7
                           O         O         O         O     (A1G)--O
     Eigenvalues --    -3.20764  -3.20764  -0.72352  -0.72352  -0.72352
   1 1   Co 1S          0.00000   0.00000   0.00000   0.00000  -0.00000
   2        2S          0.00000   0.00000   0.00000  -0.00000  -0.00000
   3        3S          0.00000   0.00000   0.00000   0.00000  -0.00000
   4        4S          0.00000   0.00000   0.00000  -0.00000  -0.00000
   5        5S          0.00000   0.00000   0.00000   0.00000  -0.00000
   6        6S          0.00000   0.00000   0.00000  -0.00000  -0.00000
   7        7S          0.00000   0.00000   0.00000   0.00000  -0.00000
   8        8S          0.00000   0.00000   0.00000  -0.00000  -0.00000
   9        9S          0.00000   0.00000   0.00000   0.00000  -0.00000
  10       10S          0.00000   0.00000   0.00000  -0.00000  -0.00001
  11       11S          0.00000   0.00000   0.00000   0.00000  -0.00000
  12       12S          0.00000   0.00000   0.00000  -0.00000  -0.00004
  13       13S          0.00000   0.00000   0.00000   0.00000  -0.00000
  14       14S          0.00000   0.00000   0.00000  -0.00000  -0.00019
  15       15S          0.00000   0.00000   0.00000   0.00000   0.00016
  16       16S          0.00000   0.00000   0.00000  -0.00000  -0.00098
  17       17S          0.00000   0.00000   0.00000   0.00000   0.00468
  18       18S          0.00000   0.00000   0.00000   0.00000  -0.02763
  19       19S          0.00000   0.00000   0.00000  -0.00000   0.03680
  20       20S          0.00000   0.00000   0.00000  -0.00000   0.05118
  21       21S          0.00000   0.00000   0.00000   0.00000  -0.00788
  22       22S          0.00000   0.00000   0.00000   0.00000  -0.07018
  23       23S          0.00000   0.00000   0.00000   0.00000  -0.22300
  24       24S          0.00000   0.00000   0.00000  -0.00000  -0.16415
  25       25S          0.00000   0.00000   0.00000  -0.00000   0.13104
  26       26S          0.00000   0.00000   0.00000  -0.00000   0.42826
  27       27S          0.00000   0.00000   0.00000   0.00000   0.48409
  28       28S          0.00000   0.00000   0.00000  -0.00000   0.12556
  29       29S          0.00000   0.00000   0.00000  -0.00000   0.03991
  30       30S          0.00000   0.00000   0.00000   0.00000  -0.05614
  31       31S          0.00000   0.00000   0.00000  -0.00000   0.00035
  32       32PX         0.00000   0.00000   0.00000   0.00000   0.00000
  33       32PY         0.00000   0.00000   0.00000   0.00000   0.00000
  34       32PZ         0.00000   0.00000   0.00000   0.00000   0.00000
  35       33PX         0.00000   0.00000   0.00000   0.00000   0.00000
  36       33PY         0.00000   0.00000   0.00000   0.00000   0.00000
  37       33PZ         0.00000   0.00000   0.00000   0.00000   0.00000
  38       34PX         0.00000   0.00000   0.00000   0.00000   0.00000
  39       34PY         0.00000   0.00000   0.00000   0.00000   0.00000
  40       34PZ         0.00000   0.00000   0.00000   0.00000   0.00000
  41       35PX         0.00000   0.00000   0.00000   0.00000   0.00000
  42       35PY         0.00001   0.00000   0.00000   0.00000   0.00000
  43       35PZ         0.00000   0.00001   0.00000   0.00000   0.00000
  44       36PX         0.00000   0.00000   0.00000   0.00000   0.00000
  45       36PY         0.00000   0.00000   0.00000   0.00000   0.00000
  46       36PZ         0.00000   0.00000   0.00000   0.00000   0.00000
  47       37PX         0.00000   0.00000   0.00000   0.00000   0.00000
  48       37PY         0.00007   0.00000   0.00000   0.00000   0.00000
  49       37PZ         0.00000   0.00007   0.00000   0.00000   0.00000
  50       38PX         0.00000   0.00000   0.00000   0.00000   0.00000
  51       38PY         0.00001   0.00000   0.00000   0.00000   0.00000
  52       38PZ         0.00000   0.00001   0.00000   0.00000   0.00000
  53       39PX         0.00000   0.00000   0.00000   0.00000   0.00000
  54       39PY         0.00064   0.00000   0.00000   0.00000   0.00000
  55       39PZ         0.00000   0.00064   0.00000   0.00000   0.00000
  56       40PX         0.00000   0.00000   0.00000   0.00000   0.00000
  57       40PY        -0.00089   0.00000   0.00000   0.00000   0.00000
  58       40PZ         0.00000  -0.00089   0.00000   0.00000   0.00000
  59       41PX         0.00000   0.00000   0.00000   0.00000   0.00000
  60       41PY         0.01111   0.00000   0.00000   0.00000   0.00000
  61       41PZ         0.00000   0.01111   0.00000   0.00000   0.00000
  62       42PX         0.00000   0.00000   0.00000   0.00000   0.00000
  63       42PY        -0.02901   0.00000   0.00000   0.00000   0.00000
  64       42PZ         0.00000  -0.02901   0.00000   0.00000   0.00000
  65       43PX         0.00000   0.00000   0.00000   0.00000   0.00000
  66       43PY        -0.04574   0.00000   0.00000   0.00000   0.00000
  67       43PZ         0.00000  -0.04574   0.00000   0.00000   0.00000
  68       44PX         0.00000   0.00000   0.00000   0.00000   0.00000
  69       44PY         0.04217   0.00000   0.00000   0.00000   0.00000
  70       44PZ         0.00000   0.04217   0.00000   0.00000   0.00000
  71       45PX         0.00000   0.00000   0.00000   0.00000   0.00000
  72       45PY         0.13153   0.00000   0.00000   0.00000   0.00000
  73       45PZ         0.00000   0.13153   0.00000   0.00000   0.00000
  74       46PX         0.00000   0.00000   0.00000   0.00000   0.00000
  75       46PY         0.40120   0.00000   0.00000   0.00000   0.00000
  76       46PZ         0.00000   0.40120   0.00000   0.00000   0.00000
  77       47PX         0.00000   0.00000   0.00000   0.00000   0.00000
  78       47PY         0.32313   0.00000   0.00000   0.00000   0.00000
  79       47PZ         0.00000   0.32313   0.00000   0.00000   0.00000
  80       48PX         0.00000   0.00000   0.00000   0.00000   0.00000
  81       48PY         0.11208   0.00000   0.00000   0.00000   0.00000
  82       48PZ         0.00000   0.11208   0.00000   0.00000   0.00000
  83       49PX         0.00000   0.00000   0.00000   0.00000   0.00000
  84       49PY         0.00941   0.00000   0.00000   0.00000   0.00000
  85       49PZ         0.00000   0.00941   0.00000   0.00000   0.00000
  86       50PX         0.00000   0.00000   0.00000   0.00000   0.00000
  87       50PY        -0.00026   0.00000   0.00000   0.00000   0.00000
  88       50PZ         0.00000  -0.00026   0.00000   0.00000   0.00000
  89       51PX         0.00000   0.00000   0.00000   0.00000   0.00000
  90       51PY         0.00033   0.00000   0.00000   0.00000   0.00000
  91       51PZ         0.00000   0.00033   0.00000   0.00000   0.00000
  92       52PX         0.00000   0.00000   0.00000   0.00000   0.00000
  93       52PY        -0.03573   0.00000   0.00000   0.00000   0.00000
  94       52PZ         0.00000  -0.03573   0.00000   0.00000   0.00000
  95       53PX         0.00000   0.00000   0.00000   0.00000   0.00000
  96       53PY         0.13813   0.00000   0.00000   0.00000   0.00000
  97       53PZ         0.00000   0.13813   0.00000   0.00000   0.00000
  98       54PX         0.00000   0.00000   0.00000   0.00000   0.00000
  99       54PY        -0.00009   0.00000   0.00000   0.00000   0.00000
 100       54PZ         0.00000  -0.00009   0.00000   0.00000   0.00000
 101       55D 0        0.00000   0.00000   0.00000   0.00004  -0.00000
 102       55D+1        0.00000   0.00000   0.00009   0.00000   0.00000
 103       55D-1        0.00000   0.00000   0.00000   0.00000   0.00000
 104       55D+2        0.00000   0.00000   0.00000   0.00008   0.00000
 105       55D-2        0.00000   0.00000   0.00000   0.00000   0.00000
 106       56D 0        0.00000   0.00000   0.00000   0.00045  -0.00000
 107       56D+1        0.00000   0.00000   0.00091   0.00000   0.00000
 108       56D-1        0.00000   0.00000   0.00000   0.00000   0.00000
 109       56D+2        0.00000   0.00000   0.00000   0.00078   0.00000
 110       56D-2        0.00000   0.00000   0.00000   0.00000   0.00000
 111       57D 0        0.00000   0.00000   0.00000   0.00365  -0.00000
 112       57D+1        0.00000   0.00000   0.00731   0.00000   0.00000
 113       57D-1        0.00000   0.00000   0.00000   0.00000   0.00000
 114       57D+2        0.00000   0.00000   0.00000   0.00633   0.00000
 115       57D-2        0.00000   0.00000   0.00000   0.00000   0.00000
 116       58D 0        0.00000   0.00000   0.00000   0.01785  -0.00000
 117       58D+1        0.00000   0.00000   0.03570   0.00000   0.00000
 118       58D-1        0.00000   0.00000   0.00000   0.00000   0.00000
 119       58D+2        0.00000   0.00000   0.00000   0.03091   0.00000
 120       58D-2        0.00000   0.00000   0.00000   0.00000   0.00000
 121       59D 0        0.00000   0.00000   0.00000   0.04620  -0.00000
 122       59D+1        0.00000   0.00000   0.09240   0.00000   0.00000
 123       59D-1        0.00000   0.00000   0.00000   0.00000   0.00000
 124       59D+2        0.00000   0.00000   0.00000   0.08002   0.00000
 125       59D-2        0.00000   0.00000   0.00000   0.00000   0.00000
 126       60D 0        0.00000   0.00000   0.00000   0.08846  -0.00000
 127       60D+1        0.00000   0.00000   0.17691   0.00000   0.00000
 128       60D-1        0.00000   0.00000   0.00000   0.00000   0.00000
 129       60D+2        0.00000   0.00000   0.00000   0.15321   0.00000
 130       60D-2        0.00000   0.00000   0.00000   0.00000   0.00000
 131       61D 0        0.00000   0.00000   0.00000   0.13565  -0.00000
 132       61D+1        0.00000   0.00000   0.27130   0.00000   0.00000
 133       61D-1        0.00000   0.00000   0.00000   0.00000   0.00000
 134       61D+2        0.00000   0.00000   0.00000   0.23495   0.00000
 135       61D-2        0.00000   0.00000   0.00000   0.00000   0.00000
 136       62D 0        0.00000   0.00000   0.00000   0.15128  -0.00000
 137       62D+1        0.00000   0.00000   0.30256   0.00000   0.00000
 138       62D-1        0.00000   0.00000   0.00000   0.00000   0.00000
 139       62D+2        0.00000   0.00000   0.00000   0.26203   0.00000
 140       62D-2        0.00000   0.00000   0.00000   0.00000   0.00000
 141       63D 0        0.00000   0.00000   0.00000   0.13017  -0.00000
 142       63D+1        0.00000   0.00000   0.26034   0.00000   0.00000
 143       63D-1        0.00000   0.00000   0.00000   0.00000   0.00000
 144       63D+2        0.00000   0.00000   0.00000   0.22546   0.00000
 145       63D-2        0.00000   0.00000   0.00000   0.00000   0.00000
 146       64D 0        0.00000   0.00000   0.00000   0.07881   0.00000
 147       64D+1        0.00000   0.00000   0.15763   0.00000   0.00000
 148       64D-1        0.00000   0.00000   0.00000   0.00000   0.00000
 149       64D+2        0.00000   0.00000   0.00000   0.13651  -0.00000
 150       64D-2        0.00000   0.00000   0.00000   0.00000   0.00000
 151       65D 0        0.00000   0.00000   0.00000   0.02378   0.00000
 152       65D+1        0.00000   0.00000   0.04755   0.00000   0.00000
 153       65D-1        0.00000   0.00000   0.00000   0.00000   0.00000
 154       65D+2        0.00000   0.00000   0.00000   0.04118  -0.00000
 155       65D-2        0.00000   0.00000   0.00000   0.00000   0.00000
 156       66D 0        0.00000   0.00000   0.00000   0.00117   0.00000
 157       66D+1        0.00000   0.00000   0.00234   0.00000   0.00000
 158       66D-1        0.00000   0.00000   0.00000   0.00000   0.00000
 159       66D+2        0.00000   0.00000   0.00000   0.00203  -0.00000
 160       66D-2        0.00000   0.00000   0.00000   0.00000   0.00000
 161       67D 0        0.00000   0.00000   0.00000   0.00323  -0.00000
 162       67D+1        0.00000   0.00000   0.00645   0.00000   0.00000
 163       67D-1        0.00000   0.00000   0.00000   0.00000   0.00000
 164       67D+2        0.00000   0.00000   0.00000   0.00559   0.00000
 165       67D-2        0.00000   0.00000   0.00000   0.00000   0.00000
 166       68D 0        0.00000   0.00000   0.00000   0.00392  -0.00000
 167       68D+1        0.00000   0.00000   0.00785   0.00000   0.00000
 168       68D-1        0.00000   0.00000   0.00000   0.00000   0.00000
 169       68D+2        0.00000   0.00000   0.00000   0.00680   0.00000
 170       68D-2        0.00000   0.00000   0.00000   0.00000   0.00000
 171       69D 0        0.00000   0.00000   0.00000   0.00003  -0.00000
 172       69D+1        0.00000   0.00000   0.00007   0.00000   0.00000
 173       69D-1        0.00000   0.00000   0.00000   0.00000   0.00000
 174       69D+2        0.00000   0.00000   0.00000   0.00006   0.00000
 175       69D-2        0.00000   0.00000   0.00000   0.00000   0.00000
 176       70F 0        0.00000  -0.00011   0.00000   0.00000   0.00000
 177       70F+1        0.00000   0.00000   0.00000   0.00000   0.00000
 178       70F-1       -0.00028   0.00000   0.00000   0.00000   0.00000
 179       70F+2        0.00000   0.00044   0.00000   0.00000   0.00000
 180       70F-2        0.00000   0.00000   0.00000   0.00000   0.00000
 181       70F+3        0.00000   0.00000   0.00000   0.00000   0.00000
 182       70F-3       -0.00036   0.00000   0.00000   0.00000   0.00000
 183       71F 0        0.00000  -0.00036   0.00000   0.00000   0.00000
 184       71F+1        0.00000   0.00000   0.00000   0.00000   0.00000
 185       71F-1       -0.00089   0.00000   0.00000   0.00000   0.00000
 186       71F+2        0.00000   0.00141   0.00000   0.00000   0.00000
 187       71F-2        0.00000   0.00000   0.00000   0.00000   0.00000
 188       71F+3        0.00000   0.00000   0.00000   0.00000   0.00000
 189       71F-3       -0.00115   0.00000   0.00000   0.00000   0.00000
 190       72F 0        0.00000  -0.00068   0.00000   0.00000   0.00000
 191       72F+1        0.00000   0.00000   0.00000   0.00000   0.00000
 192       72F-1       -0.00167   0.00000   0.00000   0.00000   0.00000
 193       72F+2        0.00000   0.00264   0.00000   0.00000   0.00000
 194       72F-2        0.00000   0.00000   0.00000   0.00000   0.00000
 195       72F+3        0.00000   0.00000   0.00000   0.00000   0.00000
 196       72F-3       -0.00216   0.00000   0.00000   0.00000   0.00000
 197       73F 0        0.00000  -0.00090   0.00000   0.00000   0.00000
 198       73F+1        0.00000   0.00000   0.00000   0.00000   0.00000
 199       73F-1       -0.00222   0.00000   0.00000   0.00000   0.00000
 200       73F+2        0.00000   0.00350   0.00000   0.00000   0.00000
 201       73F-2        0.00000   0.00000   0.00000   0.00000   0.00000
 202       73F+3        0.00000   0.00000   0.00000   0.00000   0.00000
 203       73F-3       -0.00286   0.00000   0.00000   0.00000   0.00000
 204       74F 0        0.00000  -0.00039   0.00000   0.00000   0.00000
 205       74F+1        0.00000   0.00000   0.00000   0.00000   0.00000
 206       74F-1       -0.00096   0.00000   0.00000   0.00000   0.00000
 207       74F+2        0.00000   0.00152   0.00000   0.00000   0.00000
 208       74F-2        0.00000   0.00000   0.00000   0.00000   0.00000
 209       74F+3        0.00000   0.00000   0.00000   0.00000   0.00000
 210       74F-3       -0.00124   0.00000   0.00000   0.00000   0.00000
 211       75F 0        0.00000   0.00002   0.00000   0.00000   0.00000
 212       75F+1        0.00000   0.00000   0.00000   0.00000   0.00000
 213       75F-1        0.00004   0.00000   0.00000   0.00000   0.00000
 214       75F+2        0.00000  -0.00006   0.00000   0.00000   0.00000
 215       75F-2        0.00000   0.00000   0.00000   0.00000   0.00000
 216       75F+3        0.00000   0.00000   0.00000   0.00000   0.00000
 217       75F-3        0.00005   0.00000   0.00000   0.00000   0.00000
 218       76G 0        0.00000   0.00000   0.00000  -0.00008   0.00000
 219       76G+1        0.00000   0.00000   0.00003   0.00000   0.00000
 220       76G-1        0.00000   0.00000   0.00000   0.00000   0.00000
 221       76G+2        0.00000   0.00000   0.00000   0.00001  -0.00002
 222       76G-2        0.00000   0.00000   0.00000   0.00000   0.00000
 223       76G+3        0.00000   0.00000   0.00009   0.00000   0.00000
 224       76G-3        0.00000   0.00000   0.00000   0.00000   0.00000
 225       76G+4        0.00000   0.00000   0.00000  -0.00006  -0.00001
 226       76G-4        0.00000   0.00000   0.00000   0.00000   0.00000
 227       77G 0        0.00000   0.00000   0.00000  -0.00007  -0.00002
 228       77G+1        0.00000   0.00000   0.00003   0.00000   0.00000
 229       77G-1        0.00000   0.00000   0.00000   0.00000   0.00000
 230       77G+2        0.00000   0.00000   0.00000   0.00001   0.00009
 231       77G-2        0.00000   0.00000   0.00000   0.00000   0.00000
 232       77G+3        0.00000   0.00000   0.00009   0.00000   0.00000
 233       77G-3        0.00000   0.00000   0.00000   0.00000   0.00000
 234       77G+4        0.00000   0.00000   0.00000  -0.00005   0.00005
 235       77G-4        0.00000   0.00000   0.00000   0.00000   0.00000
 236       78G 0        0.00000   0.00000   0.00000  -0.00028  -0.00003
 237       78G+1        0.00000   0.00000   0.00012   0.00000   0.00000
 238       78G-1        0.00000   0.00000   0.00000   0.00000   0.00000
 239       78G+2        0.00000   0.00000   0.00000   0.00005   0.00012
 240       78G-2        0.00000   0.00000   0.00000   0.00000   0.00000
 241       78G+3        0.00000   0.00000   0.00033   0.00000   0.00000
 242       78G-3        0.00000   0.00000   0.00000   0.00000   0.00000
 243       78G+4        0.00000   0.00000   0.00000  -0.00020   0.00007
 244       78G-4        0.00000   0.00000   0.00000   0.00000   0.00000
 245       79G 0        0.00000   0.00000   0.00000  -0.00044   0.00002
 246       79G+1        0.00000   0.00000   0.00019   0.00000   0.00000
 247       79G-1        0.00000   0.00000   0.00000   0.00000   0.00000
 248       79G+2        0.00000   0.00000   0.00000   0.00008  -0.00010
 249       79G-2        0.00000   0.00000   0.00000   0.00000   0.00000
 250       79G+3        0.00000   0.00000   0.00051   0.00000   0.00000
 251       79G-3        0.00000   0.00000   0.00000   0.00000   0.00000
 252       79G+4        0.00000   0.00000   0.00000  -0.00031  -0.00006
 253       79G-4        0.00000   0.00000   0.00000   0.00000   0.00000
 254       80G 0        0.00000   0.00000   0.00000  -0.00025   0.00006
 255       80G+1        0.00000   0.00000   0.00011   0.00000   0.00000
 256       80G-1        0.00000   0.00000   0.00000   0.00000   0.00000
 257       80G+2        0.00000   0.00000   0.00000   0.00004  -0.00028
 258       80G-2        0.00000   0.00000   0.00000   0.00000   0.00000
 259       80G+3        0.00000   0.00000   0.00029   0.00000   0.00000
 260       80G-3        0.00000   0.00000   0.00000   0.00000   0.00000
 261       80G+4        0.00000   0.00000   0.00000  -0.00018  -0.00016
 262       80G-4        0.00000   0.00000   0.00000   0.00000   0.00000
 263       81H 0        0.00000   0.00001   0.00000   0.00000   0.00000
 264       81H+1        0.00000   0.00000   0.00000   0.00000   0.00000
 265       81H-1       -0.00001   0.00000   0.00000   0.00000   0.00000
 266       81H+2        0.00000  -0.00006   0.00000   0.00000   0.00000
 267       81H-2        0.00000   0.00000   0.00000   0.00000   0.00000
 268       81H+3        0.00000   0.00000   0.00000   0.00000   0.00000
 269       81H-3       -0.00005   0.00000   0.00000   0.00000   0.00000
 270       81H+4        0.00000  -0.00002   0.00000   0.00000   0.00000
 271       81H-4        0.00000   0.00000   0.00000   0.00000   0.00000
 272       81H+5        0.00000   0.00000   0.00000   0.00000   0.00000
 273       81H-5       -0.00003   0.00000   0.00000   0.00000   0.00000
 274       82H 0        0.00000   0.00005   0.00000   0.00000   0.00000
 275       82H+1        0.00000   0.00000   0.00000   0.00000   0.00000
 276       82H-1       -0.00004   0.00000   0.00000   0.00000   0.00000
 277       82H+2        0.00000  -0.00023   0.00000   0.00000   0.00000
 278       82H-2        0.00000   0.00000   0.00000   0.00000   0.00000
 279       82H+3        0.00000   0.00000   0.00000   0.00000   0.00000
 280       82H-3       -0.00021   0.00000   0.00000   0.00000   0.00000
 281       82H+4        0.00000  -0.00008   0.00000   0.00000   0.00000
 282       82H-4        0.00000   0.00000   0.00000   0.00000   0.00000
 283       82H+5        0.00000   0.00000   0.00000   0.00000   0.00000
 284       82H-5       -0.00013   0.00000   0.00000   0.00000   0.00000
 285       83H 0        0.00000   0.00001   0.00000   0.00000   0.00000
 286       83H+1        0.00000   0.00000   0.00000   0.00000   0.00000
 287       83H-1       -0.00000   0.00000   0.00000   0.00000   0.00000
 288       83H+2        0.00000  -0.00005   0.00000   0.00000   0.00000
 289       83H-2        0.00000   0.00000   0.00000   0.00000   0.00000
 290       83H+3        0.00000   0.00000   0.00000   0.00000   0.00000
 291       83H-3       -0.00004   0.00000   0.00000   0.00000   0.00000
 292       83H+4        0.00000  -0.00001   0.00000   0.00000   0.00000
 293       83H-4        0.00000   0.00000   0.00000   0.00000   0.00000
 294       83H+5        0.00000   0.00000   0.00000   0.00000   0.00000
 295       83H-5       -0.00002   0.00000   0.00000   0.00000   0.00000
 296       84H 0        0.00000  -0.00002   0.00000   0.00000   0.00000
 297       84H+1        0.00000   0.00000   0.00000   0.00000   0.00000
 298       84H-1        0.00002   0.00000   0.00000   0.00000   0.00000
 299       84H+2        0.00000   0.00008   0.00000   0.00000   0.00000
 300       84H-2        0.00000   0.00000   0.00000   0.00000   0.00000
 301       84H+3        0.00000   0.00000   0.00000   0.00000   0.00000
 302       84H-3        0.00007   0.00000   0.00000   0.00000   0.00000
 303       84H+4        0.00000   0.00003   0.00000   0.00000   0.00000
 304       84H-4        0.00000   0.00000   0.00000   0.00000   0.00000
 305       84H+5        0.00000   0.00000   0.00000   0.00000   0.00000
 306       84H-5        0.00005   0.00000   0.00000   0.00000   0.00000
 307       85I 0        0.00000   0.00000   0.00000  -0.00002   0.00000
 308       85I+1        0.00000   0.00000   0.00009   0.00000   0.00000
 309       85I-1        0.00000   0.00000   0.00000   0.00000   0.00000
 310       85I+2        0.00000   0.00000   0.00000  -0.00005   0.00000
 311       85I-2        0.00000   0.00000   0.00000   0.00000   0.00000
 312       85I+3        0.00000   0.00000  -0.00010   0.00000   0.00000
 313       85I-3        0.00000   0.00000   0.00000   0.00000   0.00000
 314       85I+4        0.00000   0.00000   0.00000  -0.00011  -0.00000
 315       85I-4        0.00000   0.00000   0.00000   0.00000   0.00000
 316       85I+5        0.00000   0.00000  -0.00005   0.00000   0.00000
 317       85I-5        0.00000   0.00000   0.00000   0.00000   0.00000
 318       85I+6        0.00000   0.00000   0.00000  -0.00008   0.00000
 319       85I-6        0.00000   0.00000   0.00000   0.00000   0.00000
 320       86I 0        0.00000   0.00000   0.00000  -0.00003   0.00000
 321       86I+1        0.00000   0.00000   0.00015   0.00000   0.00000
 322       86I-1        0.00000   0.00000   0.00000   0.00000   0.00000
 323       86I+2        0.00000   0.00000   0.00000  -0.00009   0.00000
 324       86I-2        0.00000   0.00000   0.00000   0.00000   0.00000
 325       86I+3        0.00000   0.00000  -0.00017   0.00000   0.00000
 326       86I-3        0.00000   0.00000   0.00000   0.00000   0.00000
 327       86I+4        0.00000   0.00000   0.00000  -0.00018  -0.00000
 328       86I-4        0.00000   0.00000   0.00000   0.00000   0.00000
 329       86I+5        0.00000   0.00000  -0.00009   0.00000   0.00000
 330       86I-5        0.00000   0.00000   0.00000   0.00000   0.00000
 331       86I+6        0.00000   0.00000   0.00000  -0.00013   0.00000
 332       86I-6        0.00000   0.00000   0.00000   0.00000   0.00000
 333       87I 0        0.00000   0.00000   0.00000  -0.00004  -0.00000
 334       87I+1        0.00000   0.00000   0.00023   0.00000   0.00000
[...]
 120       58D-2        0.00965   0.00965   0.00000   0.00965
 121       59D 0        0.05533   0.04451   0.01082   0.03369
 122       59D+1        0.08657   0.04329   0.04329   0.00000
 123       59D-1        0.04492   0.04492   0.00000   0.04492
 124       59D+2        0.07616   0.04370   0.03247   0.01123
 125       59D-2        0.04492   0.04492   0.00000   0.04492
 126       60D 0        0.15606   0.12560   0.03046   0.09515
 127       60D+1        0.24366   0.12183   0.12183   0.00000
 128       60D-1        0.12686   0.12686   0.00000   0.12686
 129       60D+2        0.21446   0.12309   0.09137   0.03172
 130       60D-2        0.12686   0.12686   0.00000   0.12686
 131       61D 0        0.29634   0.23847   0.05788   0.18059
 132       61D+1        0.46303   0.23151   0.23151   0.00000
 133       61D-1        0.24078   0.24078   0.00000   0.24078
 134       61D+2        0.40747   0.23383   0.17364   0.06020
 135       61D-2        0.24078   0.24078   0.00000   0.24078
 136       62D 0        0.34503   0.27706   0.06796   0.20910
 137       62D+1        0.54372   0.27186   0.27186   0.00000
 138       62D-1        0.27880   0.27880   0.00000   0.27880
 139       62D+2        0.47749   0.27359   0.20389   0.06970
 140       62D-2        0.27880   0.27880   0.00000   0.27880
 141       63D 0        0.25412   0.20247   0.05165   0.15082
 142       63D+1        0.41318   0.20659   0.20659   0.00000
 143       63D-1        0.20110   0.20110   0.00000   0.20110
 144       63D+2        0.36016   0.20522   0.15494   0.05027
 145       63D-2        0.20110   0.20110   0.00000   0.20110
 146       64D 0        0.10262   0.08018   0.02244   0.05774
 147       64D+1        0.17951   0.08976   0.08976   0.00000
 148       64D-1        0.07699   0.07699   0.00000   0.07699
 149       64D+2        0.15388   0.08657   0.06732   0.01925
 150       64D-2        0.07699   0.07699   0.00000   0.07699
 151       65D 0        0.01501   0.01127   0.00374   0.00753
 152       65D+1        0.02990   0.01495   0.01495   0.00000
 153       65D-1        0.01004   0.01004   0.00000   0.01004
 154       65D+2        0.02493   0.01372   0.01121   0.00251
 155       65D-2        0.01004   0.01004   0.00000   0.01004
 156       66D 0        0.00022   0.00015   0.00007   0.00008
 157       66D+1        0.00057   0.00029   0.00029   0.00000
 158       66D-1        0.00010   0.00010   0.00000   0.00010
 159       66D+2        0.00045   0.00024   0.00021   0.00003
 160       66D-2        0.00010   0.00010   0.00000   0.00010
 161       67D 0        0.00492   0.00394   0.00097   0.00297
 162       67D+1        0.00780   0.00390   0.00390   0.00000
 163       67D-1        0.00396   0.00396   0.00000   0.00396
 164       67D+2        0.00684   0.00391   0.00292   0.00099
 165       67D-2        0.00396   0.00396   0.00000   0.00396
 166       68D 0        0.00735   0.00589   0.00147   0.00442
 167       68D+1        0.01173   0.00586   0.00586   0.00000
 168       68D-1        0.00590   0.00590   0.00000   0.00590
 169       68D+2        0.01027   0.00587   0.00440   0.00147
 170       68D-2        0.00590   0.00590   0.00000   0.00590
 171       69D 0        0.00000   0.00000   0.00000   0.00000
 172       69D+1        0.00000   0.00000   0.00000   0.00000
 173       69D-1        0.00000   0.00000   0.00000   0.00000
 174       69D+2        0.00000   0.00000   0.00000   0.00000
 175       69D-2        0.00000   0.00000   0.00000   0.00000
 176       70F 0        0.00000   0.00000   0.00000   0.00000
 177       70F+1        0.00000   0.00000   0.00000   0.00000
 178       70F-1        0.00000   0.00000   0.00000   0.00000
 179       70F+2        0.00000   0.00000   0.00000   0.00000
 180       70F-2        0.00000   0.00000   0.00000   0.00000
 181       70F+3        0.00000   0.00000   0.00000   0.00000
 182       70F-3        0.00000   0.00000   0.00000   0.00000
 183       71F 0        0.00000   0.00000   0.00000   0.00000
 184       71F+1        0.00001   0.00001   0.00001   0.00000
 185       71F-1        0.00001   0.00000   0.00000   0.00000
 186       71F+2        0.00001   0.00001   0.00001   0.00000
 187       71F-2        0.00000   0.00000   0.00000   0.00000
 188       71F+3        0.00000   0.00000   0.00000   0.00000
 189       71F-3        0.00001   0.00000   0.00000   0.00000
 190       72F 0        0.00000   0.00000   0.00000   0.00000
 191       72F+1        0.00003   0.00002   0.00002   0.00000
 192       72F-1        0.00001   0.00001   0.00001   0.00000
 193       72F+2        0.00003   0.00002   0.00002   0.00000
 194       72F-2        0.00000   0.00000   0.00000   0.00000
 195       72F+3        0.00001   0.00000   0.00000   0.00000
 196       72F-3        0.00002   0.00001   0.00001   0.00000
 197       73F 0        0.00000   0.00000   0.00000   0.00000
 198       73F+1        0.00004   0.00002   0.00002   0.00000
 199       73F-1        0.00002   0.00001   0.00001   0.00000
 200       73F+2        0.00005   0.00002   0.00002   0.00000
 201       73F-2        0.00000   0.00000   0.00000   0.00000
 202       73F+3        0.00001   0.00000   0.00000   0.00000
 203       73F-3        0.00003   0.00002   0.00002   0.00000
 204       74F 0        0.00000   0.00000   0.00000   0.00000
 205       74F+1        0.00001   0.00001   0.00001   0.00000
 206       74F-1        0.00000   0.00000   0.00000   0.00000
 207       74F+2        0.00001   0.00001   0.00001   0.00000
 208       74F-2        0.00000   0.00000   0.00000   0.00000
 209       74F+3        0.00000   0.00000   0.00000   0.00000
 210       74F-3        0.00001   0.00000   0.00000   0.00000
 211       75F 0       -0.00000  -0.00000  -0.00000   0.00000
 212       75F+1       -0.00000  -0.00000  -0.00000   0.00000
 213       75F-1       -0.00000  -0.00000  -0.00000   0.00000
 214       75F+2       -0.00000  -0.00000  -0.00000   0.00000
 215       75F-2       -0.00000  -0.00000  -0.00000   0.00000
 216       75F+3       -0.00000  -0.00000  -0.00000   0.00000
 217       75F-3       -0.00000  -0.00000  -0.00000   0.00000
 218       76G 0        0.00000   0.00000   0.00000   0.00000
 219       76G+1        0.00000   0.00000   0.00000   0.00000
 220       76G-1        0.00000   0.00000   0.00000   0.00000
 221       76G+2        0.00000   0.00000   0.00000   0.00000
 222       76G-2        0.00000   0.00000   0.00000   0.00000
 223       76G+3        0.00000   0.00000   0.00000   0.00000
 224       76G-3        0.00000   0.00000   0.00000   0.00000
 225       76G+4        0.00000   0.00000   0.00000   0.00000
 226       76G-4        0.00000   0.00000   0.00000   0.00000
 227       77G 0        0.00000   0.00000   0.00000   0.00000
 228       77G+1        0.00000   0.00000   0.00000   0.00000
 229       77G-1        0.00000   0.00000   0.00000   0.00000
 230       77G+2        0.00000   0.00000   0.00000   0.00000
 231       77G-2        0.00000   0.00000   0.00000   0.00000
 232       77G+3        0.00000   0.00000   0.00000   0.00000
 233       77G-3        0.00000   0.00000   0.00000   0.00000
 234       77G+4        0.00000   0.00000   0.00000   0.00000
 235       77G-4        0.00000   0.00000   0.00000   0.00000
 236       78G 0        0.00000   0.00000   0.00000   0.00000
 237       78G+1        0.00000   0.00000   0.00000   0.00000
 238       78G-1        0.00000   0.00000   0.00000   0.00000
 239       78G+2        0.00000   0.00000   0.00000   0.00000
 240       78G-2        0.00000   0.00000   0.00000   0.00000
 241       78G+3        0.00000   0.00000   0.00000   0.00000
 242       78G-3        0.00000   0.00000   0.00000   0.00000
 243       78G+4        0.00000   0.00000   0.00000   0.00000
 244       78G-4        0.00000   0.00000   0.00000   0.00000
 245       79G 0        0.00000   0.00000   0.00000   0.00000
 246       79G+1        0.00000   0.00000   0.00000   0.00000
 247       79G-1        0.00000   0.00000   0.00000   0.00000
 248       79G+2        0.00000   0.00000   0.00000   0.00000
 249       79G-2        0.00000   0.00000   0.00000   0.00000
 250       79G+3        0.00000   0.00000   0.00000   0.00000
 251       79G-3        0.00000   0.00000   0.00000   0.00000
 252       79G+4        0.00000   0.00000   0.00000   0.00000
 253       79G-4        0.00000   0.00000   0.00000   0.00000
 254       80G 0        0.00000   0.00000   0.00000   0.00000
 255       80G+1        0.00000   0.00000   0.00000   0.00000
 256       80G-1        0.00000   0.00000   0.00000   0.00000
 257       80G+2        0.00000   0.00000   0.00000   0.00000
 258       80G-2        0.00000   0.00000   0.00000   0.00000
 259       80G+3        0.00000   0.00000   0.00000   0.00000
 260       80G-3        0.00000   0.00000   0.00000   0.00000
 261       80G+4        0.00000   0.00000   0.00000   0.00000
 262       80G-4        0.00000   0.00000   0.00000   0.00000
 263       81H 0        0.00000   0.00000   0.00000   0.00000
 264       81H+1        0.00000   0.00000   0.00000   0.00000
 265       81H-1        0.00000   0.00000   0.00000   0.00000
 266       81H+2        0.00000   0.00000   0.00000   0.00000
 267       81H-2        0.00000   0.00000   0.00000   0.00000
 268       81H+3        0.00000   0.00000   0.00000   0.00000
 269       81H-3        0.00000   0.00000   0.00000   0.00000
 270       81H+4        0.00000   0.00000   0.00000   0.00000
 271       81H-4        0.00000   0.00000   0.00000   0.00000
 272       81H+5        0.00000   0.00000   0.00000   0.00000
 273       81H-5        0.00000   0.00000   0.00000   0.00000
 274       82H 0        0.00000   0.00000   0.00000   0.00000
 275       82H+1        0.00000   0.00000   0.00000   0.00000
 276       82H-1        0.00000   0.00000   0.00000   0.00000
 277       82H+2        0.00000   0.00000   0.00000   0.00000
 278       82H-2        0.00000   0.00000   0.00000   0.00000
 279       82H+3        0.00000   0.00000   0.00000   0.00000
 280       82H-3        0.00000   0.00000   0.00000   0.00000
 281       82H+4        0.00000   0.00000   0.00000   0.00000
 282       82H-4        0.00000   0.00000   0.00000   0.00000
 283       82H+5        0.00000   0.00000   0.00000   0.00000
 284       82H-5        0.00000   0.00000   0.00000   0.00000
 285       83H 0        0.00000   0.00000   0.00000   0.00000
 286       83H+1        0.00000   0.00000   0.00000   0.00000
 287       83H-1        0.00000   0.00000   0.00000   0.00000
 288       83H+2        0.00000   0.00000   0.00000   0.00000
 289       83H-2        0.00000   0.00000   0.00000   0.00000
 290       83H+3        0.00000   0.00000   0.00000   0.00000
 291       83H-3        0.00000   0.00000   0.00000   0.00000
 292       83H+4        0.00000   0.00000   0.00000   0.00000
 293       83H-4        0.00000   0.00000   0.00000   0.00000
 294       83H+5        0.00000   0.00000   0.00000   0.00000
 295       83H-5        0.00000   0.00000   0.00000   0.00000
 296       84H 0        0.00000   0.00000   0.00000   0.00000
 297       84H+1        0.00000   0.00000   0.00000   0.00000
 298       84H-1        0.00000   0.00000   0.00000   0.00000
 299       84H+2        0.00000   0.00000   0.00000   0.00000
 300       84H-2        0.00000   0.00000   0.00000   0.00000
 301       84H+3        0.00000   0.00000   0.00000   0.00000
 302       84H-3        0.00000   0.00000   0.00000   0.00000
 303       84H+4        0.00000   0.00000   0.00000   0.00000
 304       84H-4        0.00000   0.00000   0.00000   0.00000
 305       84H+5        0.00000   0.00000   0.00000   0.00000
 306       84H-5        0.00000   0.00000   0.00000   0.00000
 307       85I 0        0.00000   0.00000   0.00000   0.00000
 308       85I+1        0.00000   0.00000   0.00000   0.00000
 309       85I-1        0.00000   0.00000   0.00000   0.00000
 310       85I+2        0.00000   0.00000   0.00000   0.00000
 311       85I-2        0.00000   0.00000   0.00000   0.00000
 312       85I+3        0.00000   0.00000   0.00000   0.00000
 313       85I-3        0.00000   0.00000   0.00000   0.00000
 314       85I+4        0.00000   0.00000   0.00000   0.00000
 315       85I-4        0.00000   0.00000   0.00000   0.00000
 316       85I+5        0.00000   0.00000   0.00000   0.00000
 317       85I-5        0.00000   0.00000   0.00000   0.00000
 318       85I+6        0.00000   0.00000   0.00000   0.00000
 319       85I-6        0.00000   0.00000   0.00000   0.00000
 320       86I 0        0.00000   0.00000   0.00000   0.00000
 321       86I+1        0.00000   0.00000   0.00000   0.00000
 322       86I-1        0.00000   0.00000   0.00000   0.00000
 323       86I+2        0.00000   0.00000   0.00000   0.00000
 324       86I-2        0.00000   0.00000   0.00000   0.00000
 325       86I+3        0.00000   0.00000   0.00000   0.00000
 326       86I-3        0.00000   0.00000   0.00000   0.00000
 327       86I+4        0.00000   0.00000   0.00000   0.00000
 328       86I-4        0.00000   0.00000   0.00000   0.00000
 329       86I+5        0.00000   0.00000   0.00000   0.00000
 330       86I-5        0.00000   0.00000   0.00000   0.00000
 331       86I+6        0.00000   0.00000   0.00000   0.00000
 332       86I-6        0.00000   0.00000   0.00000   0.00000
 333       87I 0        0.00000   0.00000   0.00000   0.00000
 334       87I+1        0.00000   0.00000   0.00000   0.00000
 335       87I-1        0.00000   0.00000   0.00000   0.00000
 336       87I+2        0.00000   0.00000   0.00000   0.00000
 337       87I-2        0.00000   0.00000   0.00000   0.00000
 338       87I+3        0.00000   0.00000   0.00000   0.00000
 339       87I-3        0.00000   0.00000   0.00000   0.00000
 340       87I+4        0.00000   0.00000   0.00000   0.00000
 341       87I-4        0.00000   0.00000   0.00000   0.00000
 342       87I+5        0.00000   0.00000   0.00000   0.00000
 343       87I-5        0.00000   0.00000   0.00000   0.00000
 344       87I+6        0.00000   0.00000   0.00000   0.00000
 345       87I-6        0.00000   0.00000   0.00000   0.00000
          Condensed to atoms (all electrons):
               1
     1  Co  17.000000
          Atomic-Atomic Spin Densities.
               1
     1  Co   3.000000
 Mulliken charges and spin densities:
               1          2
     1  Co  -0.000000   3.000000
 Sum of Mulliken charges =  -0.00000   3.00000
 Mulliken charges and spin densities with hydrogens summed into heavy atoms:
               1          2
     1  Co  -0.000000   3.000000
 Electronic spatial extent (au):  <R**2>=             38.0886
 Charge=             -0.0000 electrons
 Dipole moment (field-independent basis, Debye):
    X=              0.0000    Y=              0.0000    Z=              0.0000  Tot=              0.0000
 Quadrupole moment (field-independent basis, Debye-Ang):
   XX=            -17.0768   YY=            -17.0768   ZZ=            -17.0768
   XY=              0.0000   XZ=             -0.0000   YZ=              0.0000
 Traceless Quadrupole moment (field-independent basis, Debye-Ang):
   XX=              0.0000   YY=             -0.0000   ZZ=             -0.0000
   XY=              0.0000   XZ=             -0.0000   YZ=              0.0000
 Octapole moment (field-independent basis, Debye-Ang**2):
  XXX=              0.0000  YYY=              0.0000  ZZZ=              0.0000  XYY=              0.0000
  XXY=              0.0000  XXZ=              0.0000  XZZ=              0.0000  YZZ=              0.0000
  YYZ=              0.0000  XYZ=              0.0000
 Hexadecapole moment (field-independent basis, Debye-Ang**3):
 XXXX=            -36.8777 YYYY=            -37.0957 ZZZZ=            -36.8777 XXXY=             -0.0000
 XXXZ=             -0.0000 YYYX=              0.0000 YYYZ=             -0.0000 ZZZX=              0.0000
 ZZZY=              0.0000 XXYY=            -12.2199 XXZZ=            -12.4379 YYZZ=            -12.2199
 XXYZ=              0.0000 YYXZ=             -0.0000 ZZXY=             -0.0000
 N-N= 0.000000000000D+00 E-N=-3.464552914948D+02  KE= 8.936611597767D+01
 Symmetry AG   KE= 3.056155108655D+01
 Symmetry B1G  KE= 8.421477861850D+00
 Symmetry B2G  KE= 1.628794143805D+01
 Symmetry B3G  KE= 8.421478027347D+00
 Symmetry AU   KE= 1.365274855763D-35
 Symmetry B1U  KE= 8.557889185332D+00
 Symmetry B2U  KE= 8.557889187626D+00
 Symmetry B3U  KE= 8.557889190399D+00
 Symmetry AG   SP= 1.000000000000D+00
 Symmetry B1G  SP= 1.000000000000D+00
 Symmetry B2G  SP=-1.303994519978D-50
 Symmetry B3G  SP= 1.000000000000D+00
 Symmetry AU   SP= 0.000000000000D+00
 Symmetry B1U  SP= 0.000000000000D+00
 Symmetry B2U  SP= 0.000000000000D+00
 Symmetry B3U  SP= 0.000000000000D+00
 Orbital energies and kinetic energies (alpha):
                                 1                 2
   3         O                -3.207638          4.278945
   4         O                -3.207638          4.278945
   5         O                -0.723522          8.143971
   6         O                -0.723522          8.143971
   7         (A1G)--O         -0.723522          0.376585
   8         O                -0.672954          8.421478
   9         O                -0.672954          8.421478
  10         O                -0.282963          8.421478
  11         (T1U)--V          0.021147          0.056423
  12         (T1U)--V          0.021147          0.056423
  13         (T1U)--V          0.021147          0.056423
  14         (A1G)--V          0.023319          0.037541
  15         (T2G)--V          0.067020          0.071461
 Total kinetic energy from orbitals= 1.146305498009D+02
                          Isotropic Fermi Contact Couplings
        Atom                 a.u.       MegaHertz       Gauss      10(-4) cm-1
     1  Co(59)            -0.00000      -0.00000      -0.00000      -0.00000
 --------------------------------------------------------
       Center         ----  Spin Dipole Couplings  ----
                      3XX-RR        3YY-RR        3ZZ-RR
 --------------------------------------------------------
     1   Atom       -0.000000      0.000000      0.000000
 --------------------------------------------------------
                        XY            XZ            YZ
 --------------------------------------------------------
     1   Atom        0.000000      0.000000      0.000000
 --------------------------------------------------------


 ---------------------------------------------------------------------------------
              Anisotropic Spin Dipole Couplings in Principal Axis System
 ---------------------------------------------------------------------------------

       Atom             a.u.   MegaHertz   Gauss  10(-4) cm-1        Axes

              Baa    -0.0000    -0.000    -0.000    -0.000  1.0000  0.0000  0.0000
     1 Co(59) Bbb     0.0000     0.000     0.000     0.000 -0.0000  1.0000  0.0000
              Bcc     0.0000     0.000     0.000     0.000  0.0000  0.0000  1.0000
 

 ---------------------------------------------------------------------------------

 No NMR shielding tensors so no spin-rotation constants.
 Leave Link  601 at Sat May  5 21:52:14 2018, MaxMem= 10737418240 cpu:             557.7 elap:              17.8
 (Enter /home1/apps/gaussian/16rA.03/g16/l9999.exe)

 Test job not archived.
 1\1\GINC-C405-102\SP\ROCCSD(T)-Full\Gen\Co1(4)\GWANG18\05-May-2018\0\\
 #P ROCCSD(T)=(MaxCyc=150, Full)/Gen SCF=(maxcycle=400) Pseudo=Read Int
 egral(NoXCTest) Pop=Regular MaxDisk=500GB Guess=Read IOp(5/15=2)\\Co\\
 0,4\Co,0,0.,0.,0.\\Version=ES64L-G16RevA.03\HF=-144.944571\MP2=-145.73
 87758\MP3=-145.7038678\PUHF=-144.944571\PMP2-0=-145.7387758\MP4SDQ=-14
 5.7215456\CCSD=-145.7168986\CCSD(T)=-145.740275\RMSD=8.453e-09\PG=OH [
 O(Co1)]\\@


 TO ERR IS HUMAN - AND TO BLAME IT ON A COMPUTER IS EVEN MORE SO.
 Job cpu time:       1 days  6 hours 46 minutes 42.5 seconds.
 Elapsed time:       0 days  0 hours 57 minutes 48.3 seconds.
 File lengths (MBytes):  RWF=   9120 Int=      0 D2E=      0 Chk=     14 Scr=      1
 Normal termination of Gaussian 16 at Sat May  5 21:52:18 2018.
