 Entering Gaussian System, Link 0=g16
 Initial command:
 /home1/apps/gaussian/16rA.03/g16/l1.exe "/tmp/Gau-62564.inp" -scrdir="/tmp/"
 Entering Link 1 = /home1/apps/gaussian/16rA.03/g16/l1.exe PID=     62565.
  
 Copyright (c) 1988,1990,1992,1993,1995,1998,2003,2009,2016,
            Gaussian, Inc.  All Rights Reserved.
  
 This is part of the Gaussian(R) 16 program.  It is based on
 the Gaussian(R) 09 system (copyright 2009, Gaussian, Inc.),
 the Gaussian(R) 03 system (copyright 2003, Gaussian, Inc.),
 the Gaussian(R) 98 system (copyright 1998, Gaussian, Inc.),
 the Gaussian(R) 94 system (copyright 1995, Gaussian, Inc.),
 the Gaussian 92(TM) system (copyright 1992, Gaussian, Inc.),
 the Gaussian 90(TM) system (copyright 1990, Gaussian, Inc.),
 the Gaussian 88(TM) system (copyright 1988, Gaussian, Inc.),
 the Gaussian 86(TM) system (copyright 1986, Carnegie Mellon
 University), and the Gaussian 82(TM) system (copyright 1983,
 Carnegie Mellon University). Gaussian is a federally registered
 trademark of Gaussian, Inc.
  
 This software contains proprietary and confidential information,
 including trade secrets, belonging to Gaussian, Inc.
  
 This software is provided under written license and may be
 used, copied, transmitted, or stored only in accord with that
 written license.
  
 The following legend is applicable only to US Government
 contracts under FAR:
  
                    RESTRICTED RIGHTS LEGEND
  
 Use, reproduction and disclosure by the US Government is
 subject to restrictions as set forth in subparagraphs (a)
 and (c) of the Commercial Computer Software - Restricted
 Rights clause in FAR 52.227-19.
  
 Gaussian, Inc.
 340 Quinnipiac St., Bldg. 40, Wallingford CT 06492
  
  
 ---------------------------------------------------------------
 Warning -- This program may not be used in any manner that
 competes with the business of Gaussian, Inc. or will provide
 assistance to any competitor of Gaussian, Inc.  The licensee
 of this program is prohibited from giving any competitor of
 Gaussian, Inc. access to this program.  By using this program,
 the user acknowledges that Gaussian, Inc. is engaged in the
 business of creating and licensing software in the field of
 computational chemistry and represents and warrants to the
 licensee that it is not a competitor of Gaussian, Inc. and that
 it will not use this program in any manner prohibited above.
 ---------------------------------------------------------------
  

 Cite this work as:
 Gaussian 16, Revision A.03,
 M. J. Frisch, G. W. Trucks, H. B. Schlegel, G. E. Scuseria, 
 M. A. Robb, J. R. Cheeseman, G. Scalmani, V. Barone, 
 G. A. Petersson, H. Nakatsuji, X. Li, M. Caricato, A. V. Marenich, 
 J. Bloino, B. G. Janesko, R. Gomperts, B. Mennucci, H. P. Hratchian, 
 J. V. Ortiz, A. F. Izmaylov, J. L. Sonnenberg, D. Williams-Young, 
 F. Ding, F. Lipparini, F. Egidi, J. Goings, B. Peng, A. Petrone, 
 T. Henderson, D. Ranasinghe, V. G. Zakrzewski, J. Gao, N. Rega, 
 G. Zheng, W. Liang, M. Hada, M. Ehara, K. Toyota, R. Fukuda, 
 J. Hasegawa, M. Ishida, T. Nakajima, Y. Honda, O. Kitao, H. Nakai, 
 T. Vreven, K. Throssell, J. A. Montgomery, Jr., J. E. Peralta, 
 F. Ogliaro, M. J. Bearpark, J. J. Heyd, E. N. Brothers, K. N. Kudin, 
 V. N. Staroverov, T. A. Keith, R. Kobayashi, J. Normand, 
 K. Raghavachari, A. P. Rendell, J. C. Burant, S. S. Iyengar, 
 J. Tomasi, M. Cossi, J. M. Millam, M. Klene, C. Adamo, R. Cammi, 
 J. W. Ochterski, R. L. Martin, K. Morokuma, O. Farkas, 
 J. B. Foresman, and D. J. Fox, Gaussian, Inc., Wallingford CT, 2016.
 
 ******************************************
 Gaussian 16:  ES64L-G16RevA.03 25-Dec-2016
                25-Feb-2018 
 ******************************************
 %MEM=64GB
 %CPU=0-15
 SetSPE:  set environment variable "MP_BIND" = "yes"
 SetSPE:  set environment variable "MP_BLIST" = "0,1,2,3,4,5,6,7,8,9,10,11,12,13,14,15"
 Will use up to   16 processors via shared memory.
 %RWF=/scratch/04843/aannabe/gaussian/
 %Int=/scratch/04843/aannabe/gaussian/
 %D2E=/scratch/04843/aannabe/gaussian/
 %NoSave
 %CHK=MnH
 ----------------------------------------------------------------------
 #P ROCCSD(T)=(maxcyc=150, Full, SaveAmplitudes, ReadAmplitudes)/Gen 5d
  7f SCF=(maxcycles=300) Integral(NoXCTest) MaxDisk=500GB Pop=Regular P
 seudo=Read Guess=Read
 ----------------------------------------------------------------------
 1/38=1,172=1/1;
 2/12=2,17=6,18=5,40=1/2;
 3/5=7,8=11,11=2,16=1,17=8,25=1,30=1,47=8,116=101/1,2,3;
 4/5=1/1;
 5/5=2,7=300,38=6/2;
 8/5=-1,6=4,9=120000,10=90,24=1/1,4;
 9/5=7,6=150,14=2,77=1/13;
 6//1;
 99/5=1,9=1/99;
 Leave Link    1 at Sun Feb 25 20:00:17 2018, MaxMem=  8589934592 cpu:               3.9 elap:               0.3
 (Enter /home1/apps/gaussian/16rA.03/g16/l101.exe)
 ---
 MnH
 ---
 Symbolic Z-matrix:
 Charge =  0 Multiplicity = 7
 Mn                    0.        0.        0. 
 H                     0.        0.        1.1 
 
 ITRead=  0  0
 MicOpt= -1 -1
 NAtoms=      2 NQM=        2 NQMF=       0 NMMI=      0 NMMIF=      0
                NMic=       0 NMicF=      0.
                    Isotopes and Nuclear Properties:
 (Nuclear quadrupole moments (NQMom) in fm**2, nuclear magnetic moments (NMagM)
  in nuclear magnetons)

  Atom         1           2
 IAtWgt=          55           1
 AtmWgt=  54.9380463   1.0078250
 NucSpn=           5           1
 AtZEff=  -0.0000000  -0.0000000
 NQMom=   33.0000000   0.0000000
 NMagM=    3.4532000   2.7928460
 AtZNuc=  25.0000000   1.0000000
 Leave Link  101 at Sun Feb 25 20:00:17 2018, MaxMem=  8589934592 cpu:               1.5 elap:               0.1
 (Enter /home1/apps/gaussian/16rA.03/g16/l202.exe)
                          Input orientation:                          
 ---------------------------------------------------------------------
 Center     Atomic      Atomic             Coordinates (Angstroms)
 Number     Number       Type             X           Y           Z
 ---------------------------------------------------------------------
      1         25           0        0.000000    0.000000    0.000000
      2          1           0        0.000000    0.000000    1.100000
 ---------------------------------------------------------------------
 Stoichiometry    HMn(7)
 Framework group  C*V[C*(HMn)]
 Deg. of freedom     1
 Full point group                 C*V     NOp   4
 Largest Abelian subgroup         C2V     NOp   4
 Largest concise Abelian subgroup C1      NOp   1
                         Standard orientation:                         
 ---------------------------------------------------------------------
 Center     Atomic      Atomic             Coordinates (Angstroms)
 Number     Number       Type             X           Y           Z
 ---------------------------------------------------------------------
      1         25           0        0.000000    0.000000    0.042308
      2          1           0        0.000000    0.000000   -1.057692
 ---------------------------------------------------------------------
 Rotational constants (GHZ):           0.0000000         422.0282445         422.0282445
 Leave Link  202 at Sun Feb 25 20:00:18 2018, MaxMem=  8589934592 cpu:               0.4 elap:               0.1
 (Enter /home1/apps/gaussian/16rA.03/g16/l301.exe)
 General basis read from cards:  (5D, 7F)
 Centers:       1
 S 1 1.00
     Exponent=  1.2210500000D+07 Coefficients=  1.0000000000D+00
 S 1 1.00
     Exponent=  1.8281570000D+06 Coefficients=  1.0000000000D+00
 S 1 1.00
     Exponent=  4.1603030000D+05 Coefficients=  1.0000000000D+00
 S 1 1.00
     Exponent=  1.1784360000D+05 Coefficients=  1.0000000000D+00
 S 1 1.00
     Exponent=  3.8448140000D+04 Coefficients=  1.0000000000D+00
 S 1 1.00
     Exponent=  1.3881710000D+04 Coefficients=  1.0000000000D+00
 S 1 1.00
     Exponent=  5.4150020000D+03 Coefficients=  1.0000000000D+00
 S 1 1.00
     Exponent=  2.2464600000D+03 Coefficients=  1.0000000000D+00
 S 1 1.00
     Exponent=  9.8014630000D+02 Coefficients=  1.0000000000D+00
 S 1 1.00
     Exponent=  4.4589520000D+02 Coefficients=  1.0000000000D+00
 S 1 1.00
     Exponent=  2.1005580000D+02 Coefficients=  1.0000000000D+00
 S 1 1.00
     Exponent=  1.0180460000D+02 Coefficients=  1.0000000000D+00
 S 1 1.00
     Exponent=  5.0011260000D+01 Coefficients=  1.0000000000D+00
 S 1 1.00
     Exponent=  2.2939390000D+01 Coefficients=  1.0000000000D+00
 S 1 1.00
     Exponent=  1.1522640000D+01 Coefficients=  1.0000000000D+00
 S 1 1.00
     Exponent=  5.7763380000D+00 Coefficients=  1.0000000000D+00
 S 1 1.00
     Exponent=  2.6259590000D+00 Coefficients=  1.0000000000D+00
 S 1 1.00
     Exponent=  1.2603220000D+00 Coefficients=  1.0000000000D+00
 S 1 1.00
     Exponent=  5.7713000000D-01 Coefficients=  1.0000000000D+00
 S 1 1.00
     Exponent=  1.3658200000D-01 Coefficients=  1.0000000000D+00
 S 1 1.00
     Exponent=  6.3535000000D-02 Coefficients=  1.0000000000D+00
 S 1 1.00
     Exponent=  2.8521000000D-02 Coefficients=  1.0000000000D+00
 S 1 1.00
     Exponent=  5.3389000000D+00 Coefficients=  1.0000000000D+00
 S 1 1.00
     Exponent=  1.6013000000D+00 Coefficients=  1.0000000000D+00
 S 1 1.00
     Exponent=  1.2800000000D-02 Coefficients=  1.0000000000D+00
 P 1 1.00
     Exponent=  3.5005120000D+04 Coefficients=  1.0000000000D+00
 P 1 1.00
     Exponent=  8.2794620000D+03 Coefficients=  1.0000000000D+00
 P 1 1.00
     Exponent=  2.6884650000D+03 Coefficients=  1.0000000000D+00
 P 1 1.00
     Exponent=  1.0294900000D+03 Coefficients=  1.0000000000D+00
 P 1 1.00
     Exponent=  4.3807080000D+02 Coefficients=  1.0000000000D+00
 P 1 1.00
     Exponent=  2.0061530000D+02 Coefficients=  1.0000000000D+00
 P 1 1.00
     Exponent=  9.7007690000D+01 Coefficients=  1.0000000000D+00
 P 1 1.00
     Exponent=  4.8870520000D+01 Coefficients=  1.0000000000D+00
 P 1 1.00
     Exponent=  2.5292810000D+01 Coefficients=  1.0000000000D+00
 P 1 1.00
     Exponent=  1.3353820000D+01 Coefficients=  1.0000000000D+00
 P 1 1.00
     Exponent=  7.1317860000D+00 Coefficients=  1.0000000000D+00
 P 1 1.00
     Exponent=  3.7643650000D+00 Coefficients=  1.0000000000D+00
 P 1 1.00
     Exponent=  1.9462650000D+00 Coefficients=  1.0000000000D+00
 P 1 1.00
     Exponent=  9.8545500000D-01 Coefficients=  1.0000000000D+00
 P 1 1.00
     Exponent=  4.8186500000D-01 Coefficients=  1.0000000000D+00
 P 1 1.00
     Exponent=  1.8822219000D-01 Coefficients=  1.0000000000D+00
 P 1 1.00
     Exponent=  7.7539570000D-02 Coefficients=  1.0000000000D+00
 P 1 1.00
     Exponent=  3.1549450000D-02 Coefficients=  1.0000000000D+00
 P 1 1.00
     Exponent=  7.3423000000D+00 Coefficients=  1.0000000000D+00
 P 1 1.00
     Exponent=  1.9340000000D+00 Coefficients=  1.0000000000D+00
 P 1 1.00
     Exponent=  1.2840000000D-02 Coefficients=  1.0000000000D+00
 D 1 1.00
     Exponent=  3.1310900000D+02 Coefficients=  1.0000000000D+00
 D 1 1.00
     Exponent=  9.2527600000D+01 Coefficients=  1.0000000000D+00
 D 1 1.00
     Exponent=  3.5419100000D+01 Coefficients=  1.0000000000D+00
 D 1 1.00
     Exponent=  1.5157700000D+01 Coefficients=  1.0000000000D+00
 D 1 1.00
     Exponent=  6.9096400000D+00 Coefficients=  1.0000000000D+00
 D 1 1.00
     Exponent=  3.2725600000D+00 Coefficients=  1.0000000000D+00
 D 1 1.00
     Exponent=  1.5493600000D+00 Coefficients=  1.0000000000D+00
 D 1 1.00
     Exponent=  7.1709400000D-01 Coefficients=  1.0000000000D+00
 D 1 1.00
     Exponent=  3.1931000000D-01 Coefficients=  1.0000000000D+00
 D 1 1.00
     Exponent=  1.3415700000D-01 Coefficients=  1.0000000000D+00
 D 1 1.00
     Exponent=  5.1400000000D-02 Coefficients=  1.0000000000D+00
 D 1 1.00
     Exponent=  4.6851000000D+00 Coefficients=  1.0000000000D+00
 D 1 1.00
     Exponent=  2.4217000000D+00 Coefficients=  1.0000000000D+00
 D 1 1.00
     Exponent=  1.9690000000D-02 Coefficients=  1.0000000000D+00
 F 1 1.00
     Exponent=  6.6540000000D+00 Coefficients=  1.0000000000D+00
 F 1 1.00
     Exponent=  2.7676000000D+00 Coefficients=  1.0000000000D+00
 F 1 1.00
     Exponent=  1.1511000000D+00 Coefficients=  1.0000000000D+00
 F 1 1.00
     Exponent=  3.8120000000D-01 Coefficients=  1.0000000000D+00
 F 1 1.00
     Exponent=  1.2624000000D-01 Coefficients=  1.0000000000D+00
 G 1 1.00
     Exponent=  5.4683000000D+00 Coefficients=  1.0000000000D+00
 G 1 1.00
     Exponent=  2.3327000000D+00 Coefficients=  1.0000000000D+00
 G 1 1.00
     Exponent=  8.5200000000D-01 Coefficients=  1.0000000000D+00
 G 1 1.00
     Exponent=  3.1119000000D-01 Coefficients=  1.0000000000D+00
 H 1 1.00
     Exponent=  5.1185000000D+00 Coefficients=  1.0000000000D+00
 H 1 1.00
     Exponent=  1.9660000000D+00 Coefficients=  1.0000000000D+00
 H 1 1.00
     Exponent=  7.5513000000D-01 Coefficients=  1.0000000000D+00
 ****
 Centers:       2
 S 1 1.00
     Exponent=  8.2640000000D+01 Coefficients=  1.0000000000D+00
 S 1 1.00
     Exponent=  1.2410000000D+01 Coefficients=  1.0000000000D+00
 S 1 1.00
     Exponent=  2.8240000000D+00 Coefficients=  1.0000000000D+00
 S 1 1.00
     Exponent=  7.9770000000D-01 Coefficients=  1.0000000000D+00
 S 1 1.00
     Exponent=  2.5810000000D-01 Coefficients=  1.0000000000D+00
 S 1 1.00
     Exponent=  8.9890000000D-02 Coefficients=  1.0000000000D+00
 S 1 1.00
     Exponent=  2.3630000000D-02 Coefficients=  1.0000000000D+00
 P 1 1.00
     Exponent=  2.2920000000D+00 Coefficients=  1.0000000000D+00
 P 1 1.00
     Exponent=  8.3800000000D-01 Coefficients=  1.0000000000D+00
 P 1 1.00
     Exponent=  2.9200000000D-01 Coefficients=  1.0000000000D+00
 P 1 1.00
     Exponent=  8.4800000000D-02 Coefficients=  1.0000000000D+00
 D 1 1.00
     Exponent=  2.0620000000D+00 Coefficients=  1.0000000000D+00
 D 1 1.00
     Exponent=  6.6200000000D-01 Coefficients=  1.0000000000D+00
 D 1 1.00
     Exponent=  1.9000000000D-01 Coefficients=  1.0000000000D+00
 F 1 1.00
     Exponent=  1.3970000000D+00 Coefficients=  1.0000000000D+00
 F 1 1.00
     Exponent=  3.6000000000D-01 Coefficients=  1.0000000000D+00
 ****
 ======================================================================================================
                                       Pseudopotential Parameters
 ======================================================================================================
  Center     Atomic      Valence      Angular      Power
  Number     Number     Electrons     Momentum     of R      Exponent        Coefficient   SO-Coeffient
 ======================================================================================================
    1         25           15
                                      D and up 
                                                     1        3.2952461       15.00000000    0.00000000
                                                     3        3.6159915       49.42869068    0.00000000
                                                     2        3.5740576      -61.66925169    0.00000000
                                      S - D
                                                     2        9.9915420      112.85037953    0.00000000
                                      P - D
                                                     2        7.8092522       49.18832867    0.00000000
    2          1            1
                                      P and up 
                                                     2       21.7769666      -10.85192405    0.00000000
                                                     1       21.2435951        1.00000000    0.00000000
                                                     3       21.2435951       21.24359508    0.00000000
                                      S - P
                                                     2        1.0000000        0.00000000    0.00000000
 ======================================================================================================
 Ernie: Thresh=  0.10000D-02 Tol=  0.10000D-05 Strict=F.
 There are   171 symmetry adapted cartesian basis functions of A1  symmetry.
 There are    45 symmetry adapted cartesian basis functions of A2  symmetry.
 There are    93 symmetry adapted cartesian basis functions of B1  symmetry.
 There are    93 symmetry adapted cartesian basis functions of B2  symmetry.
 There are   126 symmetry adapted basis functions of A1  symmetry.
 There are    38 symmetry adapted basis functions of A2  symmetry.
 There are    73 symmetry adapted basis functions of B1  symmetry.
 There are    73 symmetry adapted basis functions of B2  symmetry.
   310 basis functions,   402 primitive gaussians,   402 cartesian basis functions
    11 alpha electrons        5 beta electrons
       nuclear repulsion energy         7.2160528762 Hartrees.
 IExCor=    0 DFT=F Ex=HF Corr=None ExCW=0 ScaHFX=  1.000000
 ScaDFX=  1.000000  1.000000  1.000000  1.000000 ScalE2=  1.000000  1.000000
 IRadAn=      5 IRanWt=     -1 IRanGd=            0 ICorTp=0 IEmpDi=  4
 NAtoms=    2 NActive=    2 NUniq=    2 SFac= 1.00D+00 NAtFMM=   60 NAOKFM=F Big=F
 Integral buffers will be    131072 words long.
 Raffenetti 2 integral format.
 Two-electron integral symmetry is turned on.
 Leave Link  301 at Sun Feb 25 20:00:18 2018, MaxMem=  8589934592 cpu:               4.0 elap:               0.3
 (Enter /home1/apps/gaussian/16rA.03/g16/l302.exe)
 NPDir=0 NMtPBC=     1 NCelOv=     1 NCel=       1 NClECP=     1 NCelD=      1
         NCelK=      1 NCelE2=     1 NClLst=     1 CellRange=     0.0.
 One-electron integrals computed using PRISM.
 One-electron integral symmetry used in STVInt
   4 Symmetry operations used in ECPInt.
 ECPInt:  NShTT=    3916 NPrTT=    3916 LenC2=    3891 LenP2D=    3890.
 LDataN:  DoStor=T MaxTD1=10 Len=  848
 NBasis=   310 RedAO= T EigKep=  9.78D-06  NBF=   126    38    73    73
 NBsUse=   303 1.00D-06 EigRej=  3.62D-07 NBFU=   123    38    71    71
 Leave Link  302 at Sun Feb 25 20:00:20 2018, MaxMem=  8589934592 cpu:              37.4 elap:               2.4
 (Enter /home1/apps/gaussian/16rA.03/g16/l303.exe)
 DipDrv:  MaxL=1.
 Leave Link  303 at Sun Feb 25 20:00:21 2018, MaxMem=  8589934592 cpu:               1.5 elap:               0.2
 (Enter /home1/apps/gaussian/16rA.03/g16/l401.exe)
 Initial guess from the checkpoint file:  "MnH.chk"
 B after Tr=     0.000000    0.000000    0.000000
         Rot=    1.000000    0.000000    0.000000    0.000000 Ang=   0.00 deg.
 Guess basis will be translated and rotated to current coordinates.
 JPrj=2 DoOrth=T DoCkMO=T.
 Initial guess orbital symmetries:
       Occupied  (SG) (SG) (PI) (PI) (SG) (SG) (PI) (PI) (DLTA)
                 (DLTA) (SG)
       Virtual   (PI) (PI) (SG) (SG) (PI) (PI) (DLTA) (DLTA) (SG)
                 (PI) (PI) (SG) (SG) (SG) (PI) (PI) (SG) (DLTA)
                 (DLTA) (PI) (PI) (SG) (PI) (PI) (SG) (SG) (SG)
                 (PHI) (PHI) (PI) (PI) (DLTA) (DLTA) (PI) (PI)
                 (SG) (SG) (PI) (PI) (DLTA) (DLTA) (DLTA) (DLTA)
                 (SG) (PI) (PI) (SG) (SG) (PI) (PI) (SG) (DLTA)
                 (DLTA) (PHI) (PHI) (PI) (PI) (SG) (PI) (PI) (SG)
                 (?A) (?A) (PHI) (PHI) (DLTA) (DLTA) (SG) (PI)
                 (PI) (DLTA) (DLTA) (PI) (PI) (SG) (SG) (DLTA)
                 (DLTA) (PI) (PI) (SG) (SG) (PI) (PI) (SG) (PHI)
                 (PHI) (DLTA) (DLTA) (PI) (PI) (SG) (DLTA) (DLTA)
                 (PI) (PI) (PI) (PI) (SG) (?A) (?A) (PHI) (PHI)
                 (SG) (DLTA) (DLTA) (PI) (PI) (SG) (SG) (SG) (DLTA)
                 (DLTA) (PI) (PI) (SG) (PI) (PI) (PHI) (PHI) (DLTA)
                 (DLTA) (PI) (PI) (SG) (SG) (PHI) (PHI) (?A) (?A)
                 (DLTA) (DLTA) (PI) (PI) (SG) (SG) (DLTA) (DLTA)
                 (PI) (PI) (SG) (PI) (PI) (SG) (SG) (DLTA) (DLTA)
                 (PI) (PI) (SG) (PI) (PI) (SG) (SG) (SG) (PI) (PI)
                 (SG) (DLTA) (DLTA) (PI) (PI) (SG) (SG) (PI) (PI)
                 (SG) (SG) (DLTA) (DLTA) (PI) (PI) (SG) (PI) (PI)
                 (SG) (SG) (PI) (PI) (SG) (SG) (PI) (PI) (SG) (SG)
                 (PI) (PI) (SG) (SG) (PI) (PI) (SG) (SG) (SG) (PI)
                 (PI) (SG) (SG) (SG) (SG) (SG) (DLTA) (SG) (SG)
                 (DLTA) (SG) (SG) (DLTA) (SG) (SG) (DLTA) (SG)
                 (SG) (DLTA) (SG) (?A) (SG) (DLTA) (SG) (DLTA)
                 (SG) (?A) (SG) (DLTA) (DLTA) (SG) (DLTA) (DLTA)
                 (SG) (?A) (?A) (DLTA) (DLTA) (DLTA) (DLTA) (DLTA)
                 (?A) (DLTA) (DLTA) (?A) (DLTA) (DLTA) (DLTA) (DLTA)
                 (?A) (?A) (PI) (PI) (PI) (PI) (PHI) (PI) (PI)
                 (PI) (PHI) (PI) (PI) (PI) (PHI) (PI) (?B) (PHI)
                 (PHI) (PI) (PHI) (PI) (?B) (PHI) (?B) (PI) (PI)
                 (PI) (PI) (PHI) (PI) (PI) (PI) (PHI) (PI) (PI)
                 (PI) (PHI) (PI) (?B) (PHI) (PHI) (PI) (PHI) (PI)
                 (?B) (PHI) (?B)
 The electronic state of the initial guess is 7-SG.
 Leave Link  401 at Sun Feb 25 20:00:21 2018, MaxMem=  8589934592 cpu:               8.2 elap:               0.6
 (Enter /home1/apps/gaussian/16rA.03/g16/l502.exe)
 Keep R1 and R2 ints in memory in symmetry-blocked form, NReq=1456552531.
 FoFCou: FMM=F IPFlag=           8 FMFlag=           0 FMFlg1=           0
         NFxFlg=           0 DoJE=F BraDBF=F KetDBF=F FulRan=T
         wScrn=  0.000000 ICntrl=       600 IOpCl=  0 I1Cent=           0 NGrid=           0
         NMat0=    1 NMatS0=  48205 NMatT0=    0 NMatD0=    1 NMtDS0=    0 NMtDT0=    0
 Petite list used in FoFCou.
 Restricted open shell SCF:
 Using DIIS extrapolation, IDIIS=  1040.
 NGot=  8589934592 LenX=  8000380050 LenY=  8000218005
 Requested convergence on RMS density matrix=1.00D-08 within 300 cycles.
 Requested convergence on MAX density matrix=1.00D-06.
 Requested convergence on             energy=1.00D-06.
 No special actions if energy rises.

 Cycle   1  Pass 1  IDiag  1:
 E= -104.060515414916    
 DIIS: error= 3.79D+00 at cycle   1 NSaved=   1.
 NSaved= 1 IEnMin= 1 EnMin= -104.060515414916     IErMin= 1 ErrMin= 3.79D+00
 ErrMax= 3.79D+00  0.00D+00 EMaxC= 1.00D-01 BMatC= 1.89D+03 BMatP= 1.89D+03
 IDIUse=3 WtCom= 0.00D+00 WtEn= 1.00D+00
 Coeff-Com:  0.100D+01
 Coeff-En:   0.100D+01
 Coeff:      0.100D+01
 Gap=     0.053 Goal=   None    Shift=    0.000
 GapD=    0.053 DampG=0.500 DampE=0.125 DampFc=0.1250 IDamp=-1.
 Damping current iteration by 1.25D-01
 RMSDP=5.04D-03 MaxDP=6.67D-01              OVMax= 4.27D-03

 Cycle   2  Pass 1  IDiag  1:
 E= -104.060947702620     Delta-E=       -0.000432287704 Rises=F Damp=T
 DIIS: error= 3.32D+00 at cycle   2 NSaved=   2.
 NSaved= 2 IEnMin= 2 EnMin= -104.060947702620     IErMin= 2 ErrMin= 3.32D+00
 ErrMax= 3.32D+00  0.00D+00 EMaxC= 1.00D-01 BMatC= 1.44D+03 BMatP= 1.89D+03
 IDIUse=3 WtCom= 0.00D+00 WtEn= 1.00D+00
 Coeff-Com: -0.700D+01 0.800D+01
 Coeff-En:   0.000D+00 0.100D+01
 Coeff:      0.000D+00 0.100D+01
 Gap=     0.052 Goal=   None    Shift=    0.000
 RMSDP=4.40D-03 MaxDP=5.82D-01 DE=-4.32D-04 OVMax= 9.40D-03

 Cycle   3  Pass 1  IDiag  1:
 E= -104.063889806801     Delta-E=       -0.002942104181 Rises=F Damp=F
 DIIS: error= 8.44D-04 at cycle   3 NSaved=   3.
 NSaved= 3 IEnMin= 3 EnMin= -104.063889806801     IErMin= 3 ErrMin= 8.44D-04
 ErrMax= 8.44D-04  0.00D+00 EMaxC= 1.00D-01 BMatC= 9.06D-05 BMatP= 1.44D+03
 IDIUse=3 WtCom= 9.92D-01 WtEn= 8.44D-03
 Coeff-Com: -0.140D+01 0.160D+01 0.800D+00
 Coeff-En:   0.000D+00 0.000D+00 0.100D+01
 Coeff:     -0.139D+01 0.159D+01 0.801D+00
 Gap=     0.052 Goal=   None    Shift=    0.000
 RMSDP=2.29D-04 MaxDP=2.03D-02 DE=-2.94D-03 OVMax= 8.50D-03

 Cycle   4  Pass 1  IDiag  1:
 E= -104.063969791847     Delta-E=       -0.000079985046 Rises=F Damp=F
 DIIS: error= 5.27D-04 at cycle   4 NSaved=   4.
 NSaved= 4 IEnMin= 4 EnMin= -104.063969791847     IErMin= 4 ErrMin= 5.27D-04
 ErrMax= 5.27D-04  0.00D+00 EMaxC= 1.00D-01 BMatC= 4.37D-05 BMatP= 9.06D-05
 IDIUse=3 WtCom= 9.95D-01 WtEn= 5.27D-03
 Coeff-Com: -0.108D+01 0.124D+01 0.483D+00 0.362D+00
 Coeff-En:   0.000D+00 0.000D+00 0.344D+00 0.656D+00
 Coeff:     -0.108D+01 0.123D+01 0.482D+00 0.364D+00
 Gap=     0.052 Goal=   None    Shift=    0.000
 RMSDP=2.02D-04 MaxDP=2.19D-02 DE=-8.00D-05 OVMax= 5.48D-03

 Cycle   5  Pass 1  IDiag  1:
 E= -104.063983491080     Delta-E=       -0.000013699233 Rises=F Damp=F
 DIIS: error= 5.01D-04 at cycle   5 NSaved=   5.
 NSaved= 5 IEnMin= 5 EnMin= -104.063983491080     IErMin= 5 ErrMin= 5.01D-04
 ErrMax= 5.01D-04  0.00D+00 EMaxC= 1.00D-01 BMatC= 2.88D-05 BMatP= 4.37D-05
 IDIUse=3 WtCom= 9.95D-01 WtEn= 5.01D-03
 EnCoef did    18 forward-backward iterations
 Coeff-Com: -0.928D+00 0.106D+01 0.147D+00 0.187D+00 0.533D+00
 Coeff-En:   0.000D+00 0.000D+00 0.235D-01 0.447D+00 0.530D+00
 Coeff:     -0.923D+00 0.106D+01 0.147D+00 0.189D+00 0.533D+00
 Gap=     0.052 Goal=   None    Shift=    0.000
 RMSDP=1.80D-04 MaxDP=2.05D-02 DE=-1.37D-05 OVMax= 5.08D-03

 Cycle   6  Pass 1  IDiag  1:
 E= -104.063990014543     Delta-E=       -0.000006523463 Rises=F Damp=F
 DIIS: error= 4.62D-04 at cycle   6 NSaved=   6.
 NSaved= 6 IEnMin= 6 EnMin= -104.063990014543     IErMin= 6 ErrMin= 4.62D-04
 ErrMax= 4.62D-04  0.00D+00 EMaxC= 1.00D-01 BMatC= 2.31D-05 BMatP= 2.88D-05
 IDIUse=3 WtCom= 9.95D-01 WtEn= 4.62D-03
 EnCoef did    24 forward-backward iterations
 Coeff-Com: -0.833D+00 0.952D+00-0.845D-02 0.552D-01 0.441D+00 0.394D+00
 Coeff-En:   0.000D+00 0.000D+00 0.995D-02 0.430D+00 0.523D+00 0.364D-01
 Coeff:     -0.829D+00 0.947D+00-0.837D-02 0.569D-01 0.441D+00 0.392D+00
 Gap=     0.052 Goal=   None    Shift=    0.000
 RMSDP=1.42D-04 MaxDP=1.50D-02 DE=-6.52D-06 OVMax= 4.14D-03

 Cycle   7  Pass 1  IDiag  1:
 E= -104.063997684871     Delta-E=       -0.000007670328 Rises=F Damp=F
 DIIS: error= 4.22D-04 at cycle   7 NSaved=   7.
 NSaved= 7 IEnMin= 7 EnMin= -104.063997684871     IErMin= 7 ErrMin= 4.22D-04
 ErrMax= 4.22D-04  0.00D+00 EMaxC= 1.00D-01 BMatC= 1.73D-05 BMatP= 2.31D-05
 IDIUse=3 WtCom= 9.96D-01 WtEn= 4.22D-03
 EnCoef did    58 forward-backward iterations
 Coeff-Com: -0.716D+00 0.818D+00-0.871D-01-0.541D-01 0.126D+00 0.360D+00
 Coeff-Com:  0.552D+00
 Coeff-En:   0.000D+00 0.000D+00 0.152D-01 0.417D+00 0.455D+00 0.315D-01
 Coeff-En:   0.809D-01
 Coeff:     -0.713D+00 0.815D+00-0.867D-01-0.521D-01 0.128D+00 0.359D+00
 Coeff:      0.550D+00
 Gap=     0.052 Goal=   None    Shift=    0.000
 RMSDP=7.38D-05 MaxDP=7.83D-03 DE=-7.67D-06 OVMax= 1.65D-03

 Cycle   8  Pass 1  IDiag  1:
 E= -104.064004435170     Delta-E=       -0.000006750299 Rises=F Damp=F
 DIIS: error= 3.62D-04 at cycle   8 NSaved=   8.
 NSaved= 8 IEnMin= 8 EnMin= -104.064004435170     IErMin= 8 ErrMin= 3.62D-04
 ErrMax= 3.62D-04  0.00D+00 EMaxC= 1.00D-01 BMatC= 1.20D-05 BMatP= 1.73D-05
 IDIUse=3 WtCom= 9.96D-01 WtEn= 3.62D-03
 EnCoef did     8 forward-backward iterations
 Coeff-Com: -0.525D+00 0.600D+00-0.897D-01-0.113D+00-0.191D+00 0.609D-01
 Coeff-Com:  0.350D+00 0.908D+00
 Coeff-En:   0.000D+00 0.000D+00 0.463D-02 0.202D+00 0.000D+00 0.000D+00
 Coeff-En:   0.000D+00 0.793D+00
 Coeff:     -0.523D+00 0.598D+00-0.894D-01-0.112D+00-0.190D+00 0.606D-01
 Coeff:      0.349D+00 0.907D+00
 Gap=     0.052 Goal=   None    Shift=    0.000
 RMSDP=4.30D-05 MaxDP=6.62D-03 DE=-6.75D-06 OVMax= 7.44D-04

 Cycle   9  Pass 1  IDiag  1:
 E= -104.064010916866     Delta-E=       -0.000006481696 Rises=F Damp=F
 DIIS: error= 2.42D-04 at cycle   9 NSaved=   9.
 NSaved= 9 IEnMin= 9 EnMin= -104.064010916866     IErMin= 9 ErrMin= 2.42D-04
 ErrMax= 2.42D-04  0.00D+00 EMaxC= 1.00D-01 BMatC= 6.19D-06 BMatP= 1.20D-05
 IDIUse=3 WtCom= 9.98D-01 WtEn= 2.42D-03
 EnCoef did     7 forward-backward iterations
 Coeff-Com: -0.410D+00 0.469D+00-0.717D-01-0.107D+00-0.248D+00-0.410D-01
 Coeff-Com:  0.207D+00 0.767D+00 0.435D+00
 Coeff-En:   0.000D+00 0.000D+00 0.262D-01 0.140D+00 0.000D+00 0.000D+00
 Coeff-En:   0.000D+00 0.000D+00 0.834D+00
 Coeff:     -0.409D+00 0.468D+00-0.714D-01-0.106D+00-0.247D+00-0.409D-01
 Coeff:      0.206D+00 0.765D+00 0.436D+00
 Gap=     0.052 Goal=   None    Shift=    0.000
 RMSDP=2.70D-05 MaxDP=3.03D-03 DE=-6.48D-06 OVMax= 4.64D-04

 Cycle  10  Pass 1  IDiag  1:
 E= -104.064013576201     Delta-E=       -0.000002659335 Rises=F Damp=F
 DIIS: error= 1.98D-04 at cycle  10 NSaved=  10.
 NSaved=10 IEnMin=10 EnMin= -104.064013576201     IErMin=10 ErrMin= 1.98D-04
 ErrMax= 1.98D-04  0.00D+00 EMaxC= 1.00D-01 BMatC= 3.76D-06 BMatP= 6.19D-06
 IDIUse=3 WtCom= 9.98D-01 WtEn= 1.98D-03
 EnCoef did     5 forward-backward iterations
 Coeff-Com: -0.117D+00 0.134D+00-0.169D-01-0.560D-01-0.244D+00-0.178D+00
 Coeff-Com: -0.808D-01 0.920D-01 0.390D+00 0.108D+01
 Coeff-En:   0.000D+00 0.000D+00 0.505D-01 0.119D+00 0.000D+00 0.000D+00
 Coeff-En:   0.000D+00 0.000D+00 0.000D+00 0.831D+00
 Coeff:     -0.117D+00 0.134D+00-0.168D-01-0.556D-01-0.243D+00-0.178D+00
 Coeff:     -0.807D-01 0.918D-01 0.390D+00 0.108D+01
 Gap=     0.052 Goal=   None    Shift=    0.000
 RMSDP=6.47D-05 MaxDP=8.40D-03 DE=-2.66D-06 OVMax= 8.46D-04

 Cycle  11  Pass 1  IDiag  1:
 E= -104.064017344950     Delta-E=       -0.000003768749 Rises=F Damp=F
 DIIS: error= 5.57D-05 at cycle  11 NSaved=  11.
 NSaved=11 IEnMin=11 EnMin= -104.064017344950     IErMin=11 ErrMin= 5.57D-05
 ErrMax= 5.57D-05  0.00D+00 EMaxC= 1.00D-01 BMatC= 3.04D-07 BMatP= 3.76D-06
 IDIUse=1 WtCom= 1.00D+00 WtEn= 0.00D+00
 Coeff-Com: -0.176D-01 0.201D-01-0.246D-03-0.219D-01-0.128D+00-0.116D+00
 Coeff-Com: -0.892D-01-0.735D-01 0.164D+00 0.646D+00 0.617D+00
 Coeff:     -0.176D-01 0.201D-01-0.246D-03-0.219D-01-0.128D+00-0.116D+00
 Coeff:     -0.892D-01-0.735D-01 0.164D+00 0.646D+00 0.617D+00
 Gap=     0.052 Goal=   None    Shift=    0.000
 RMSDP=2.26D-05 MaxDP=2.79D-03 DE=-3.77D-06 OVMax= 2.80D-04

 Cycle  12  Pass 1  IDiag  1:
 E= -104.064017665428     Delta-E=       -0.000000320478 Rises=F Damp=F
 DIIS: error= 8.27D-06 at cycle  12 NSaved=  12.
 NSaved=12 IEnMin=12 EnMin= -104.064017665428     IErMin=12 ErrMin= 8.27D-06
 ErrMax= 8.27D-06  0.00D+00 EMaxC= 1.00D-01 BMatC= 7.89D-09 BMatP= 3.04D-07
 IDIUse=1 WtCom= 1.00D+00 WtEn= 0.00D+00
 Coeff-Com:  0.875D-02-0.100D-01 0.286D-02-0.392D-02-0.370D-01-0.423D-01
 Coeff-Com: -0.450D-01-0.649D-01 0.251D-01 0.189D+00 0.495D+00 0.482D+00
 Coeff:      0.875D-02-0.100D-01 0.286D-02-0.392D-02-0.370D-01-0.423D-01
 Coeff:     -0.450D-01-0.649D-01 0.251D-01 0.189D+00 0.495D+00 0.482D+00
 Gap=     0.052 Goal=   None    Shift=    0.000
 RMSDP=5.87D-06 MaxDP=9.21D-04 DE=-3.20D-07 OVMax= 1.07D-04

 Cycle  13  Pass 1  IDiag  1:
 E= -104.064017672835     Delta-E=       -0.000000007407 Rises=F Damp=F
 DIIS: error= 3.84D-06 at cycle  13 NSaved=  13.
 NSaved=13 IEnMin=13 EnMin= -104.064017672835     IErMin=13 ErrMin= 3.84D-06
 ErrMax= 3.84D-06  0.00D+00 EMaxC= 1.00D-01 BMatC= 1.81D-09 BMatP= 7.89D-09
 IDIUse=1 WtCom= 1.00D+00 WtEn= 0.00D+00
 Coeff-Com:  0.294D-02-0.336D-02 0.540D-03 0.241D-02 0.134D-01 0.821D-02
 Coeff-Com:  0.620D-03 0.457D-03-0.221D-01-0.747D-01 0.105D+00 0.331D+00
 Coeff-Com:  0.636D+00
 Coeff:      0.294D-02-0.336D-02 0.540D-03 0.241D-02 0.134D-01 0.821D-02
 Coeff:      0.620D-03 0.457D-03-0.221D-01-0.747D-01 0.105D+00 0.331D+00
 Coeff:      0.636D+00
 Gap=     0.052 Goal=   None    Shift=    0.000
 RMSDP=1.53D-06 MaxDP=2.30D-04 DE=-7.41D-09 OVMax= 4.02D-05

 Cycle  14  Pass 1  IDiag  1:
 E= -104.064017674694     Delta-E=       -0.000000001859 Rises=F Damp=F
 DIIS: error= 1.50D-06 at cycle  14 NSaved=  14.
 NSaved=14 IEnMin=14 EnMin= -104.064017674694     IErMin=14 ErrMin= 1.50D-06
 ErrMax= 1.50D-06  0.00D+00 EMaxC= 1.00D-01 BMatC= 2.31D-10 BMatP= 1.81D-09
 IDIUse=1 WtCom= 1.00D+00 WtEn= 0.00D+00
 Coeff-Com:  0.121D-03-0.138D-03-0.136D-03 0.197D-02 0.135D-01 0.112D-01
 Coeff-Com:  0.700D-02 0.862D-02-0.169D-01-0.714D-01 0.651D-02 0.157D+00
 Coeff-Com:  0.442D+00 0.440D+00
 Coeff:      0.121D-03-0.138D-03-0.136D-03 0.197D-02 0.135D-01 0.112D-01
 Coeff:      0.700D-02 0.862D-02-0.169D-01-0.714D-01 0.651D-02 0.157D+00
 Coeff:      0.442D+00 0.440D+00
 Gap=     0.052 Goal=   None    Shift=    0.000
 RMSDP=6.48D-07 MaxDP=8.20D-05 DE=-1.86D-09 OVMax= 1.06D-05

 Cycle  15  Pass 1  IDiag  1:
 E= -104.064017674962     Delta-E=       -0.000000000268 Rises=F Damp=F
 DIIS: error= 2.24D-07 at cycle  15 NSaved=  15.
 NSaved=15 IEnMin=15 EnMin= -104.064017674962     IErMin=15 ErrMin= 2.24D-07
 ErrMax= 2.24D-07  0.00D+00 EMaxC= 1.00D-01 BMatC= 4.67D-12 BMatP= 2.31D-10
 IDIUse=1 WtCom= 1.00D+00 WtEn= 0.00D+00
 Coeff-Com: -0.628D-03 0.718D-03-0.203D-03 0.646D-03 0.516D-02 0.498D-02
 Coeff-Com:  0.412D-02 0.395D-02-0.517D-02-0.252D-01-0.150D-01 0.303D-01
 Coeff-Com:  0.159D+00 0.270D+00 0.567D+00
 Coeff:     -0.628D-03 0.718D-03-0.203D-03 0.646D-03 0.516D-02 0.498D-02
 Coeff:      0.412D-02 0.395D-02-0.517D-02-0.252D-01-0.150D-01 0.303D-01
 Coeff:      0.159D+00 0.270D+00 0.567D+00
 Gap=     0.052 Goal=   None    Shift=    0.000
 RMSDP=3.62D-07 MaxDP=2.44D-05 DE=-2.68D-10 OVMax= 4.76D-06

 Cycle  16  Pass 1  IDiag  1:
 E= -104.064017674955     Delta-E=        0.000000000007 Rises=F Damp=F
 DIIS: error= 3.19D-07 at cycle  16 NSaved=  16.
 NSaved=16 IEnMin=15 EnMin= -104.064017674962     IErMin=15 ErrMin= 2.24D-07
 ErrMax= 3.19D-07  0.00D+00 EMaxC= 1.00D-01 BMatC= 1.22D-11 BMatP= 4.67D-12
 IDIUse=1 WtCom= 1.00D+00 WtEn= 0.00D+00
 Coeff-Com: -0.576D-03 0.658D-03-0.149D-03 0.154D-03 0.169D-02 0.200D-02
 Coeff-Com:  0.212D-02 0.152D-02-0.106D-02-0.720D-02-0.144D-01-0.486D-02
 Coeff-Com:  0.516D-01 0.148D+00 0.487D+00 0.334D+00
 Coeff:     -0.576D-03 0.658D-03-0.149D-03 0.154D-03 0.169D-02 0.200D-02
 Coeff:      0.212D-02 0.152D-02-0.106D-02-0.720D-02-0.144D-01-0.486D-02
 Coeff:      0.516D-01 0.148D+00 0.487D+00 0.334D+00
 Gap=     0.052 Goal=   None    Shift=    0.000
 RMSDP=3.16D-08 MaxDP=2.56D-06 DE= 6.66D-12 OVMax= 2.68D-06

 Cycle  17  Pass 1  IDiag  1:
 E= -104.064017674963     Delta-E=       -0.000000000007 Rises=F Damp=F
 DIIS: error= 2.78D-07 at cycle  17 NSaved=  17.
 NSaved=17 IEnMin=17 EnMin= -104.064017674963     IErMin=15 ErrMin= 2.24D-07
 ErrMax= 2.78D-07  0.00D+00 EMaxC= 1.00D-01 BMatC= 7.70D-12 BMatP= 4.67D-12
 IDIUse=1 WtCom= 1.00D+00 WtEn= 0.00D+00
 Coeff-Com: -0.219D-03 0.250D-03-0.488D-04-0.501D-04-0.100D-03 0.120D-03
 Coeff-Com:  0.397D-03 0.101D-04 0.451D-03 0.959D-03-0.682D-02-0.106D-01
 Coeff-Com: -0.290D-02 0.361D-01 0.203D+00 0.239D+00 0.541D+00
 Coeff:     -0.219D-03 0.250D-03-0.488D-04-0.501D-04-0.100D-03 0.120D-03
 Coeff:      0.397D-03 0.101D-04 0.451D-03 0.959D-03-0.682D-02-0.106D-01
 Coeff:     -0.290D-02 0.361D-01 0.203D+00 0.239D+00 0.541D+00
 Gap=     0.052 Goal=   None    Shift=    0.000
 RMSDP=9.34D-08 MaxDP=8.14D-06 DE=-7.45D-12 OVMax= 1.22D-06

 Cycle  18  Pass 1  IDiag  1:
 E= -104.064017674970     Delta-E=       -0.000000000007 Rises=F Damp=F
 DIIS: error= 1.02D-07 at cycle  18 NSaved=  18.
 NSaved=18 IEnMin=18 EnMin= -104.064017674970     IErMin=18 ErrMin= 1.02D-07
 ErrMax= 1.02D-07  0.00D+00 EMaxC= 1.00D-01 BMatC= 1.11D-12 BMatP= 4.67D-12
 IDIUse=1 WtCom= 1.00D+00 WtEn= 0.00D+00
 Coeff-Com: -0.533D-04 0.609D-04-0.105D-04-0.444D-04-0.239D-03-0.164D-03
 Coeff-Com: -0.321D-04-0.114D-03 0.389D-03 0.116D-02-0.292D-02-0.608D-02
 Coeff-Com: -0.745D-02 0.557D-02 0.679D-01 0.111D+00 0.343D+00 0.488D+00
 Coeff:     -0.533D-04 0.609D-04-0.105D-04-0.444D-04-0.239D-03-0.164D-03
 Coeff:     -0.321D-04-0.114D-03 0.389D-03 0.116D-02-0.292D-02-0.608D-02
 Coeff:     -0.745D-02 0.557D-02 0.679D-01 0.111D+00 0.343D+00 0.488D+00
 Gap=     0.052 Goal=   None    Shift=    0.000
 RMSDP=4.65D-08 MaxDP=5.40D-06 DE=-6.79D-12 OVMax= 6.54D-07

 Cycle  19  Pass 1  IDiag  1:
 E= -104.064017674971     Delta-E=       -0.000000000001 Rises=F Damp=F
 DIIS: error= 2.43D-08 at cycle  19 NSaved=  19.
 NSaved=19 IEnMin=19 EnMin= -104.064017674971     IErMin=19 ErrMin= 2.43D-08
 ErrMax= 2.43D-08  0.00D+00 EMaxC= 1.00D-01 BMatC= 6.95D-14 BMatP= 1.11D-12
 IDIUse=1 WtCom= 1.00D+00 WtEn= 0.00D+00
 Coeff-Com:  0.255D-04-0.291D-04 0.533D-05-0.235D-05-0.392D-04-0.669D-04
 Coeff-Com: -0.872D-04 0.357D-04 0.507D-04-0.383D-04-0.301D-03-0.796D-03
 Coeff-Com: -0.223D-02-0.375D-02-0.808D-02 0.494D-02 0.550D-01 0.268D+00
 Coeff-Com:  0.688D+00
 Coeff:      0.255D-04-0.291D-04 0.533D-05-0.235D-05-0.392D-04-0.669D-04
 Coeff:     -0.872D-04 0.357D-04 0.507D-04-0.383D-04-0.301D-03-0.796D-03
 Coeff:     -0.223D-02-0.375D-02-0.808D-02 0.494D-02 0.550D-01 0.268D+00
 Coeff:      0.688D+00
 Gap=     0.052 Goal=   None    Shift=    0.000
 RMSDP=1.79D-08 MaxDP=2.69D-06 DE=-1.38D-12 OVMax= 2.37D-07

 Cycle  20  Pass 1  IDiag  1:
 E= -104.064017674971     Delta-E=        0.000000000000 Rises=F Damp=F
 DIIS: error= 1.13D-08 at cycle  20 NSaved=  20.
 NSaved=20 IEnMin=19 EnMin= -104.064017674971     IErMin=20 ErrMin= 1.13D-08
 ErrMax= 1.13D-08  0.00D+00 EMaxC= 1.00D-01 BMatC= 1.55D-14 BMatP= 6.95D-14
 IDIUse=1 WtCom= 1.00D+00 WtEn= 0.00D+00
 Large coefficients: NSaved= 20 BigCof=    0.00 CofMax=   10.00 Det=-2.24D-15
 Inversion failed.  Reducing to 19 matrices.
 Large coefficients: NSaved= 19 BigCof=    0.00 CofMax=   10.00 Det=-2.24D-15
 Inversion failed.  Reducing to 18 matrices.
 Large coefficients: NSaved= 18 BigCof=    0.00 CofMax=   10.00 Det=-4.54D-15
 Inversion failed.  Reducing to 17 matrices.
 Large coefficients: NSaved= 17 BigCof=    0.00 CofMax=   10.00 Det=-4.56D-15
 Inversion failed.  Reducing to 16 matrices.
 Large coefficients: NSaved= 16 BigCof=    0.00 CofMax=   10.00 Det=-4.56D-15
 Inversion failed.  Reducing to 15 matrices.
 Coeff-Com: -0.129D-04-0.253D-04 0.791D-04 0.170D-04-0.126D-03-0.803D-05
 Coeff-Com:  0.300D-04-0.451D-03-0.194D-02-0.911D-02-0.847D-02-0.976D-02
 Coeff-Com:  0.782D-01 0.346D+00 0.605D+00
 Coeff:     -0.129D-04-0.253D-04 0.791D-04 0.170D-04-0.126D-03-0.803D-05
 Coeff:      0.300D-04-0.451D-03-0.194D-02-0.911D-02-0.847D-02-0.976D-02
 Coeff:      0.782D-01 0.346D+00 0.605D+00
 Gap=     0.052 Goal=   None    Shift=    0.000
 RMSDP=7.62D-09 MaxDP=8.68D-07 DE= 2.84D-13 OVMax= 8.70D-08

 SCF Done:  E(ROHF) =  -104.064017675     A.U. after   20 cycles
            NFock= 20  Conv=0.76D-08     -V/T= 2.8362
 <Sx>= 0.0000 <Sy>= 0.0000 <Sz>= 3.0000 <S**2>=12.0000 S= 3.0000
 <L.S>=  0.00000000000    
 KE= 5.667399446662D+01 PE=-2.521500076676D+02 EE= 8.419594264986D+01
 Annihilation of the first spin contaminant:
 S**2 before annihilation    12.0000,   after    12.0000
 Leave Link  502 at Sun Feb 25 20:01:28 2018, MaxMem=  8589934592 cpu:             951.5 elap:              66.4
 (Enter /home1/apps/gaussian/16rA.03/g16/l801.exe)
 Windowed orbitals will be sorted by symmetry type.
 GenMOA:  NOpAll=  4 NOp2=4 NOpUse=  4 JSym2X=1
 FoFJK:  IHMeth= 1 ICntrl=       0 DoSepK=F KAlg= 0 I1Cent=           0 FoldK=F
 IRaf=         0 NMat=       1 IRICut=       1 DoRegI=T DoRafI=F ISym2E= 1 IDoP0=0 IntGTp=1.
 FoFCou: FMM=F IPFlag=           8 FMFlag=      100000 FMFlg1=           0
         NFxFlg=           0 DoJE=F BraDBF=F KetDBF=F FulRan=T
         wScrn=  0.000000 ICntrl=         0 IOpCl=  1 I1Cent=           0 NGrid=           0
         NMat0=    1 NMatS0=      1 NMatT0=    0 NMatD0=    1 NMtDS0=    0 NMtDT0=    0
 Petite list used in FoFCou.
 <Sx>= 0.0000 <Sy>= 0.0000 <Sz>= 3.0000 <S**2>=12.0000 S= 3.0000
 Range of M.O.s used for correlation:     1   303
 NBasis=   310 NAE=    11 NBE=     5 NFC=     0 NFV=     0
 NROrb=    303 NOA=    11 NOB=     5 NVA=   292 NVB=   298

 **** Warning!!: The largest alpha MO coefficient is  0.11640222D+03


 **** Warning!!: The largest beta MO coefficient is  0.11617140D+03

 Singles contribution to E2=   -0.4037087921D-02
 Leave Link  801 at Sun Feb 25 20:01:47 2018, MaxMem=  8589934592 cpu:             307.5 elap:              19.3
 (Enter /home1/apps/gaussian/16rA.03/g16/l804.exe)
 Open-shell transformation, MDV=  8589934592 ITran=4 ISComp=2.
 Unit  1 TFree=       2917286 TCopy=       1323306.
 Semi-Direct transformation.
 ModeAB=           2 MOrb=            11 LenV=    8587056391
 LASXX=     38027501 LTotXX=    38027501 LenRXX=    38027501
 LTotAB=    38534382 MaxLAS=   269982999 LenRXY=   269982999
 NonZer=   275329131 LenScr=   414613504 LnRSAI=           0
 LnScr1=           0 LExtra=     9797527 Total=    732421531
 MaxDsk= 67108864000 SrtSym=           F ITran=            4
 DoSDTr:  NPSUse= 16
 JobTyp=1 Pass  1:  I=   1 to  11.
 (rs|ai) integrals will be sorted in core.
 Complete sort for first half transformation.
 First half transformation complete.
 Begin second half transformation for I=  10.
 Begin second half transformation for I=  10.
 Complete sort for second half transformation.
 Second half transformation complete.
 ModeAB=           2 MOrb=             5 LenV=    8587056391
 LASXX=     17582684 LTotXX=    17582684 LenRXX=   122719545
 LTotAB=    16519930 MaxLAS=   122719545 LenRXY=    16519930
 NonZer=   125149605 LenScr=   188497920 LnRSAI=           0
 LnScr1=           0 LExtra=   317808027 Total=    645545422
 MaxDsk= 67108864000 SrtSym=           F ITran=            4
 DoSDTr:  NPSUse= 16
 JobTyp=2 Pass  1:  I=   1 to   5.
 (rs|ai) integrals will be sorted in core.
 Complete sort for first half transformation.
 First half transformation complete.
 Complete sort for second half transformation.
 Second half transformation complete.
 Spin components of T(2) and E(2):
     alpha-alpha T2 =       0.2743306980D-01 E2=     -0.1633692001D+00
     alpha-beta  T2 =       0.5752830313D-01 E2=     -0.4333909460D+00
     beta-beta   T2 =       0.7278889829D-02 E2=     -0.4770870252D-01
 ANorm=    0.1046372139D+01
 E2 =    -0.6485059366D+00 EUMP2 =    -0.10471252361158D+03
 (S**2,0)=  0.12000D+02           (S**2,1)=  0.12000D+02
 E(PUHF)=      -0.10406401767D+03        E(PMP2)=      -0.10471252361D+03
 Recovering and transforming amplitudes from chk file.
 B after Tr=     0.000000    0.000000    0.000000
         Rot=    1.000000    0.000000    0.000000    0.000000 Ang=   0.00 deg.
 Alpha occ  Sing. vals= 9.999997D-01 9.999997D-01 9.999992D-01 9.999971D-01 9.999950D-01 9.999933D-01 9.999933D-01 9.999929D-01 9.999927D-01 9.999927D-01
 Alpha occ  Sing. vals= 9.999892D-01
 Alpha occ  NOrbO=    11 NOrbN=    11 NSVal=    11 ThrEig=  0.900000.
 TrMax= 1.000000D+00 PrMax= 1.000000D+00 Trace(Pr)= 1.100000D+01
 B after Tr=     0.000000    0.000000    0.000000
         Rot=    1.000000    0.000000    0.000000    0.000000 Ang=   0.00 deg.
 Alpha virt Sing. vals= 1.000000D+00 1.000000D+00 1.000000D+00 1.000000D+00 1.000000D+00 1.000000D+00 1.000000D+00 1.000000D+00 1.000000D+00 1.000000D+00
 Alpha virt Sing. vals= 1.000000D+00 1.000000D+00 1.000000D+00 1.000000D+00 1.000000D+00 1.000000D+00 1.000000D+00 1.000000D+00 1.000000D+00 1.000000D+00
 Alpha virt Sing. vals= 9.999999D-01 9.999999D-01 9.999999D-01 9.999999D-01 9.999999D-01 9.999998D-01 9.999997D-01 9.999997D-01 9.999996D-01 9.999996D-01
 Alpha virt Sing. vals= 9.999994D-01 9.999994D-01 9.999994D-01 9.999991D-01 9.999989D-01 9.999986D-01 9.999986D-01 9.999985D-01 9.999985D-01 9.999982D-01
 Alpha virt Sing. vals= 9.999976D-01 9.999976D-01 9.999976D-01 9.999965D-01 9.999965D-01 9.999965D-01 9.999958D-01 9.999948D-01 9.999948D-01 9.999942D-01
 Alpha virt Sing. vals= 9.999942D-01 9.999936D-01 9.999919D-01 9.999918D-01 9.999918D-01 9.999876D-01 9.999811D-01 9.999772D-01 9.999772D-01 9.999748D-01
 Alpha virt Sing. vals= 9.999740D-01 9.999740D-01 9.999740D-01 9.999740D-01 9.999684D-01 9.999388D-01 9.999388D-01 9.999360D-01 9.999221D-01 9.999172D-01
 Alpha virt Sing. vals= 9.999156D-01 9.999156D-01 9.999101D-01 9.999101D-01 9.999098D-01 9.998888D-01 9.998888D-01 9.998616D-01 9.998096D-01 9.998096D-01
 Alpha virt Sing. vals= 9.998066D-01 9.997946D-01 9.997946D-01 9.997922D-01 9.997922D-01 9.997830D-01 9.997830D-01 9.997827D-01 9.997726D-01 9.997726D-01
 Alpha virt Sing. vals= 9.996856D-01 9.996504D-01 9.995973D-01 9.995973D-01 9.995842D-01 9.995828D-01 9.995828D-01 9.995822D-01 9.995822D-01 9.995494D-01
 Alpha virt Sing. vals= 9.995494D-01 9.994902D-01 9.994866D-01 9.994866D-01 9.994858D-01 9.994858D-01 9.994745D-01 9.992818D-01 9.991024D-01 9.991024D-01
 Alpha virt Sing. vals= 9.989093D-01 9.987090D-01 9.987090D-01 9.986801D-01 9.986073D-01 9.986073D-01 9.985333D-01 9.985333D-01 9.980677D-01 9.978920D-01
 Alpha virt Sing. vals= 9.978920D-01 9.976316D-01 9.976316D-01 9.971161D-01 9.971161D-01 9.969721D-01 9.966974D-01 9.966974D-01 9.965305D-01 9.963251D-01
 Alpha virt Sing. vals= 9.962932D-01 9.962932D-01 9.960140D-01 9.959204D-01 9.959204D-01 9.959096D-01 9.959096D-01 9.954733D-01 9.951957D-01 9.951957D-01
 Alpha virt Sing. vals= 9.951937D-01 9.946107D-01 9.946107D-01 9.945687D-01 9.945687D-01 9.942705D-01 9.942705D-01 9.932239D-01 9.920672D-01 9.912424D-01
 Alpha virt Sing. vals= 9.912424D-01 9.852440D-01 9.850305D-01 9.850305D-01 9.841785D-01 9.841081D-01 9.841081D-01 9.828665D-01 9.828665D-01 9.822096D-01
 Alpha virt Sing. vals= 9.822096D-01 9.814481D-01 9.801716D-01 9.801716D-01 9.786998D-01 9.786998D-01 9.732181D-01 9.653053D-01 9.653053D-01 9.651779D-01
 Alpha virt Sing. vals= 9.651779D-01 9.624241D-01 9.549121D-01 9.549121D-01 9.541775D-01 9.466725D-01 9.419603D-01 9.374009D-01 9.373837D-01 9.373837D-01
 Alpha virt Sing. vals= 9.287210D-01 9.287210D-01 9.257923D-01 9.257923D-01 9.257384D-01 9.257384D-01 9.244486D-01 9.244486D-01 9.034508D-01 8.825941D-01
 Alpha virt Sing. vals= 8.825941D-01 8.757240D-01 8.529650D-01 8.529650D-01 8.424007D-01 8.424007D-01 8.380164D-01 7.968188D-01 7.968188D-01 6.490842D-01
 Alpha virt Sing. vals= 5.009868D-01
 Alpha virt NOrbO=   201 NOrbN=   292 NSVal=   189 ThrEig=  0.900000.
 TrMax= 9.981743D-01 PrMax= 9.998863D-01 Trace(Pr)= 1.890000D+02
 B after Tr=     0.000000    0.000000    0.000000
         Rot=    1.000000    0.000000    0.000000    0.000000 Ang=   0.00 deg.
 Beta  occ  Sing. vals= 9.999997D-01 9.999997D-01 9.999990D-01 9.999967D-01 9.999927D-01
 Beta  occ  NOrbO=     5 NOrbN=     5 NSVal=     5 ThrEig=  0.900000.
 TrMax= 1.000000D+00 PrMax= 1.000000D+00 Trace(Pr)= 5.000000D+00
 B after Tr=     0.000000    0.000000    0.000000
         Rot=    1.000000    0.000000    0.000000    0.000000 Ang=   0.00 deg.
 Beta  virt Sing. vals= 1.000000D+00 1.000000D+00 1.000000D+00 1.000000D+00 1.000000D+00 1.000000D+00 1.000000D+00 1.000000D+00 1.000000D+00 1.000000D+00
 Beta  virt Sing. vals= 1.000000D+00 1.000000D+00 1.000000D+00 1.000000D+00 1.000000D+00 1.000000D+00 1.000000D+00 1.000000D+00 1.000000D+00 1.000000D+00
 Beta  virt Sing. vals= 1.000000D+00 1.000000D+00 1.000000D+00 1.000000D+00 1.000000D+00 9.999999D-01 9.999999D-01 9.999999D-01 9.999999D-01 9.999999D-01
 Beta  virt Sing. vals= 9.999999D-01 9.999998D-01 9.999997D-01 9.999996D-01 9.999996D-01 9.999996D-01 9.999994D-01 9.999994D-01 9.999994D-01 9.999991D-01
 Beta  virt Sing. vals= 9.999988D-01 9.999986D-01 9.999986D-01 9.999986D-01 9.999986D-01 9.999982D-01 9.999976D-01 9.999976D-01 9.999976D-01 9.999965D-01
 Beta  virt Sing. vals= 9.999965D-01 9.999965D-01 9.999957D-01 9.999947D-01 9.999947D-01 9.999942D-01 9.999942D-01 9.999933D-01 9.999919D-01 9.999918D-01
 Beta  virt Sing. vals= 9.999918D-01 9.999876D-01 9.999811D-01 9.999772D-01 9.999772D-01 9.999748D-01 9.999740D-01 9.999740D-01 9.999739D-01 9.999739D-01
 Beta  virt Sing. vals= 9.999683D-01 9.999377D-01 9.999377D-01 9.999360D-01 9.999220D-01 9.999172D-01 9.999154D-01 9.999154D-01 9.999101D-01 9.999101D-01
 Beta  virt Sing. vals= 9.999098D-01 9.998885D-01 9.998885D-01 9.998615D-01 9.998094D-01 9.998094D-01 9.998066D-01 9.997946D-01 9.997946D-01 9.997922D-01
 Beta  virt Sing. vals= 9.997922D-01 9.997830D-01 9.997830D-01 9.997827D-01 9.997726D-01 9.997726D-01 9.996856D-01 9.996504D-01 9.995972D-01 9.995972D-01
 Beta  virt Sing. vals= 9.995842D-01 9.995828D-01 9.995828D-01 9.995822D-01 9.995822D-01 9.995494D-01 9.995494D-01 9.994898D-01 9.994866D-01 9.994866D-01
 Beta  virt Sing. vals= 9.994858D-01 9.994858D-01 9.994741D-01 9.992811D-01 9.991023D-01 9.991023D-01 9.989093D-01 9.987089D-01 9.987089D-01 9.986802D-01
 Beta  virt Sing. vals= 9.986065D-01 9.986065D-01 9.985316D-01 9.985316D-01 9.980677D-01 9.978916D-01 9.978916D-01 9.976316D-01 9.976316D-01 9.971161D-01
 Beta  virt Sing. vals= 9.971161D-01 9.969719D-01 9.966972D-01 9.966972D-01 9.965303D-01 9.963251D-01 9.962924D-01 9.962924D-01 9.960141D-01 9.959205D-01
 Beta  virt Sing. vals= 9.959205D-01 9.959098D-01 9.959098D-01 9.954734D-01 9.951957D-01 9.951957D-01 9.951937D-01 9.946107D-01 9.946107D-01 9.945687D-01
 Beta  virt Sing. vals= 9.945687D-01 9.942705D-01 9.942705D-01 9.932236D-01 9.920672D-01 9.912420D-01 9.912420D-01 9.852439D-01 9.850305D-01 9.850305D-01
 Beta  virt Sing. vals= 9.841785D-01 9.841081D-01 9.841081D-01 9.828664D-01 9.828664D-01 9.822096D-01 9.822096D-01 9.814475D-01 9.801716D-01 9.801716D-01
 Beta  virt Sing. vals= 9.786998D-01 9.786998D-01 9.732175D-01 9.653049D-01 9.653049D-01 9.651780D-01 9.651780D-01 9.624240D-01 9.549120D-01 9.549120D-01
 Beta  virt Sing. vals= 9.541773D-01 9.466725D-01 9.419603D-01 9.374009D-01 9.373837D-01 9.373837D-01 9.287209D-01 9.287209D-01 9.257923D-01 9.257923D-01
 Beta  virt Sing. vals= 9.257384D-01 9.257384D-01 9.244486D-01 9.244486D-01 9.034509D-01 8.825937D-01 8.825937D-01 8.757239D-01 8.529650D-01 8.529650D-01
 Beta  virt Sing. vals= 8.424006D-01 8.424006D-01 8.380160D-01 7.968188D-01 7.968188D-01 6.490832D-01 5.009870D-01
 Beta  virt NOrbO=   207 NOrbN=   298 NSVal=   195 ThrEig=  0.900000.
 TrMax= 9.975245D-01 PrMax= 9.998863D-01 Trace(Pr)= 1.950000D+02
 Leave Link  804 at Sun Feb 25 20:09:52 2018, MaxMem=  8589934592 cpu:            7752.6 elap:             484.9
 (Enter /home1/apps/gaussian/16rA.03/g16/l913.exe)
 CIDS:  MDV=  8589934592.
 IFCWin=0 IBDFC=1 NFBD=     0     0 NFCmp=     0     0 NFFFC=     0     0
 Amplitudes recovered.
 Using DD4UQ or CC4UQ for all iterations.
 Keep R2 and R3 ints in memory in symmetry-blocked form, NReq=1456566738.
 FoFCou: FMM=F IPFlag=           8 FMFlag=           0 FMFlg1=           0
         NFxFlg=           0 DoJE=F BraDBF=F KetDBF=F FulRan=T
         wScrn=  0.000000 ICntrl=       600 IOpCl=  0 I1Cent=           0 NGrid=           0
         NMat0=    1 NMatS0=  48205 NMatT0=    0 NMatD0=    1 NMtDS0=    0 NMtDT0=    0
 Petite list used in FoFCou.
 CIDS: In Core Option IDoMem=           1.
 CCSD(T)
 =======
 Iterations= 150 Convergence= 0.100D-06
 Produce multiple copies of IABC intergrals
 Iteration Nr.   1
 **********************
 DD1Dir will call FoFMem   1 times, MxPair=       176
 NAB=    55 NAA=    55 NBB=    10.
 Maximum subspace dimension=  5
 A-vector RMS=  1.2165339D-04 Max=  1.0367899D-03 conv= 1.00D-05.
 RLE energy=       -0.6468153169
 DE(Corr)= -0.64680888     E(Corr)=     -104.71082655    
 NORM(A)=   0.10619453D+01
 Iteration Nr.   2
 **********************
 DD1Dir will call FoFMem   1 times, MxPair=       176
 NAB=    55 NAA=    55 NBB=    10.
 A-vector RMS=  4.0643594D-05 Max=  6.1705889D-04 conv= 1.00D-05.
 RLE energy=       -0.6470643804
 DE(Corr)= -0.64705893     E(CORR)=     -104.71107661     Delta=-2.50D-04
 NORM(A)=   0.10621625D+01
 Iteration Nr.   3
 **********************
 DD1Dir will call FoFMem   1 times, MxPair=       176
 NAB=    55 NAA=    55 NBB=    10.
 A-vector RMS=  2.5778066D-05 Max=  3.0363155D-04 conv= 1.00D-05.
 RLE energy=       -0.6471391718
 DE(Corr)= -0.64712800     E(CORR)=     -104.71114568     Delta=-6.91D-05
 NORM(A)=   0.10622669D+01
 Iteration Nr.   4
 **********************
 DD1Dir will call FoFMem   1 times, MxPair=       176
 NAB=    55 NAA=    55 NBB=    10.
 A-vector RMS=  1.5720172D-05 Max=  2.3929786D-04 conv= 1.00D-05.
 RLE energy=       -0.6471439081
 DE(Corr)= -0.64713327     E(CORR)=     -104.71115094     Delta=-5.27D-06
 NORM(A)=   0.10623797D+01
 Iteration Nr.   5
 **********************
 DD1Dir will call FoFMem   1 times, MxPair=       176
 NAB=    55 NAA=    55 NBB=    10.
 A-vector RMS=  8.8802049D-06 Max=  1.1969515D-04 conv= 1.00D-05.
 RLE energy=       -0.6471697004
 DE(Corr)= -0.64715786     E(CORR)=     -104.71117553     Delta=-2.46D-05
 NORM(A)=   0.10624958D+01
 Iteration Nr.   6
 **********************
 DD1Dir will call FoFMem   1 times, MxPair=       176
 NAB=    55 NAA=    55 NBB=    10.
 A-vector RMS=  3.0011093D-06 Max=  3.3346515D-05 conv= 1.00D-05.
 RLE energy=       -0.6471812381
 DE(Corr)= -0.64717533     E(CORR)=     -104.71119301     Delta=-1.75D-05
 NORM(A)=   0.10625276D+01
 Iteration Nr.   7
 **********************
 DD1Dir will call FoFMem   1 times, MxPair=       176
 NAB=    55 NAA=    55 NBB=    10.
 A-vector RMS=  1.1682457D-06 Max=  1.1630020D-05 conv= 1.00D-05.
 RLE energy=       -0.6471817812
 DE(Corr)= -0.64718052     E(CORR)=     -104.71119820     Delta=-5.19D-06
 NORM(A)=   0.10625372D+01
 Iteration Nr.   8
 **********************
 DD1Dir will call FoFMem   1 times, MxPair=       176
 NAB=    55 NAA=    55 NBB=    10.
 A-vector RMS=  3.9509687D-07 Max=  5.9873589D-06 conv= 1.00D-05.
 RLE energy=       -0.6471829012
 DE(Corr)= -0.64718261     E(CORR)=     -104.71120028     Delta=-2.08D-06
 NORM(A)=   0.10625392D+01
 Iteration Nr.   9
 **********************
 DD1Dir will call FoFMem   1 times, MxPair=       176
 NAB=    55 NAA=    55 NBB=    10.
 A-vector RMS=  1.5718009D-07 Max=  2.0349496D-06 conv= 1.00D-05.
 RLE energy=       -0.6471828074
 DE(Corr)= -0.64718274     E(CORR)=     -104.71120041     Delta=-1.34D-07
 NORM(A)=   0.10625396D+01
 Iteration Nr.  10
 **********************
 DD1Dir will call FoFMem   1 times, MxPair=       176
 NAB=    55 NAA=    55 NBB=    10.
 A-vector RMS=  8.0887186D-08 Max=  1.1811058D-06 conv= 1.00D-05.
 RLE energy=       -0.6471828261
 DE(Corr)= -0.64718286     E(CORR)=     -104.71120054     Delta=-1.25D-07
 NORM(A)=   0.10625397D+01
 Iteration Nr.  11
 **********************
 DD1Dir will call FoFMem   1 times, MxPair=       176
 NAB=    55 NAA=    55 NBB=    10.
 A-vector RMS=  2.8189865D-08 Max=  2.4748953D-07 conv= 1.00D-05.
 RLE energy=       -0.6471828299
 DE(Corr)= -0.64718283     E(CORR)=     -104.71120051     Delta= 3.23D-08
 NORM(A)=   0.10625397D+01
 CI/CC converged in   11 iterations to DelEn= 3.23D-08 Conv= 1.00D-07 ErrA1= 2.82D-08 Conv= 1.00D-05
 Wavefunction amplitudes converged. E(Corr)=     -104.71120051    
 Largest amplitude= 8.30D-02
 Time for triples=    17652.00 seconds.
 T4(CCSD)= -0.20249603D-01
 T5(CCSD)=  0.10908363D-02
 CCSD(T)= -0.10473035927D+03
 Discarding MO integrals.
 Leave Link  913 at Sun Feb 25 20:33:01 2018, MaxMem=  8589934592 cpu:           22190.1 elap:            1389.1
 (Enter /home1/apps/gaussian/16rA.03/g16/l601.exe)
 Copying SCF densities to generalized density rwf, IOpCl= 0 IROHF=1.

 **********************************************************************

            Population analysis using the SCF density.

 **********************************************************************

 Orbital symmetries:
       Occupied  (SG) (SG) (PI) (PI) (SG) (SG) (PI) (PI) (DLTA)
                 (DLTA) (SG)
       Virtual   (PI) (PI) (SG) (SG) (DLTA) (DLTA) (SG) (PI) (PI)
                 (PI) (PI) (SG) (SG) (SG) (PI) (PI) (DLTA) (DLTA)
                 (PI) (PI) (SG) (SG) (PI) (PI) (SG) (DLTA) (DLTA)
                 (PHI) (PHI) (SG) (PI) (PI) (SG) (DLTA) (DLTA)
                 (PI) (PI) (SG) (PI) (PI) (SG) (PI) (PI) (SG) (DLTA)
                 (DLTA) (SG) (PI) (PI) (SG) (DLTA) (DLTA) (PI)
                 (PI) (PHI) (PHI) (?A) (?A) (PHI) (PHI) (DLTA)
                 (DLTA) (SG) (SG) (PI) (PI) (SG) (DLTA) (DLTA)
                 (PI) (PI) (PI) (PI) (PHI) (PHI) (SG) (DLTA) (DLTA)
                 (SG) (PI) (PI) (SG) (SG) (PI) (PI) (DLTA) (DLTA)
                 (DLTA) (DLTA) (SG) (PI) (PI) (SG) (PI) (PI) (SG)
                 (PHI) (PHI) (DLTA) (DLTA) (?B) (?B) (?A) (?A)
                 (PHI) (PHI) (?A) (?A) (PI) (PI) (DLTA) (DLTA)
                 (SG) (PHI) (PHI) (PI) (PI) (SG) (PI) (PI) (DLTA)
                 (DLTA) (SG) (SG) (PI) (PI) (PHI) (PHI) (SG) (DLTA)
                 (DLTA) (PI) (PI) (SG) (SG) (PI) (PI) (DLTA) (DLTA)
                 (SG) (DLTA) (DLTA) (PI) (PI) (SG) (PI) (PI) (PHI)
                 (PHI) (DLTA) (DLTA) (SG) (?A) (?A) (PHI) (PHI)
                 (PI) (PI) (DLTA) (DLTA) (SG) (PI) (PI) (?B) (?B)
                 (?A) (?A) (PHI) (PHI) (DLTA) (DLTA) (PI) (PI)
                 (SG) (SG) (PI) (PI) (DLTA) (DLTA) (SG) (PI) (PI)
                 (SG) (SG) (PHI) (PHI) (DLTA) (DLTA) (PI) (PI)
                 (DLTA) (DLTA) (PI) (PI) (SG) (SG) (?A) (?A) (PHI)
                 (PHI) (DLTA) (DLTA) (PI) (PI) (SG) (SG) (PI) (PI)
                 (SG) (?A) (?A) (?B) (?B) (PHI) (PHI) (DLTA) (DLTA)
                 (PI) (PI) (SG) (SG) (DLTA) (DLTA) (PI) (PI) (SG)
                 (PI) (PI) (SG) (SG) (DLTA) (DLTA) (PI) (PI) (SG)
                 (SG) (PI) (PI) (SG) (SG) (DLTA) (DLTA) (PI) (PI)
                 (SG) (SG) (PI) (PI) (SG) (DLTA) (DLTA) (PI) (PI)
                 (SG) (SG) (PI) (PI) (SG) (SG) (PI) (PI) (SG) (DLTA)
                 (DLTA) (PI) (PI) (SG) (SG) (PI) (PI) (SG) (SG)
                 (PI) (PI) (SG) (SG) (PI) (PI) (SG) (SG) (PI) (PI)
                 (SG) (SG) (PI) (PI) (SG) (SG) (SG) (SG) (SG) (SG)
 The electronic state is 7-SG.
 Alpha  occ. eigenvalues --   -4.09466  -2.76713  -2.74966  -2.74966  -0.69717
 Alpha  occ. eigenvalues --   -0.63699  -0.63699  -0.63064  -0.63064  -0.40214
 Alpha  occ. eigenvalues --   -0.23087
 Alpha virt. eigenvalues --    0.01240   0.01240   0.01832   0.03245   0.05036
 Alpha virt. eigenvalues --    0.05036   0.05767   0.05829   0.05829   0.06118
 Alpha virt. eigenvalues --    0.06118   0.08013   0.14026   0.15886   0.17657
 Alpha virt. eigenvalues --    0.17657   0.18581   0.18581   0.18739   0.18739
 Alpha virt. eigenvalues --    0.19597   0.28304   0.29264   0.29264   0.32981
 Alpha virt. eigenvalues --    0.46424   0.46424   0.47238   0.47238   0.48299
 Alpha virt. eigenvalues --    0.49865   0.49865   0.50831   0.50831   0.51277
 Alpha virt. eigenvalues --    0.56612   0.56612   0.62107   0.62553   0.62553
 Alpha virt. eigenvalues --    0.67604   0.77525   0.77525   0.78793   0.80818
 Alpha virt. eigenvalues --    0.80818   1.07820   1.20142   1.20142   1.24359
 Alpha virt. eigenvalues --    1.34354   1.34354   1.39580   1.39580   1.43424
 Alpha virt. eigenvalues --    1.43424   1.46209   1.46209   1.46251   1.46251
 Alpha virt. eigenvalues --    1.46988   1.46988   1.48398   1.62627   1.64563
 Alpha virt. eigenvalues --    1.64563   1.65629   1.72177   1.72177   1.78349
 Alpha virt. eigenvalues --    1.78349   1.91016   1.91016   1.94053   1.94053
 Alpha virt. eigenvalues --    1.96689   2.00204   2.00746   2.00746   2.24447
 Alpha virt. eigenvalues --    2.24447   2.70554   2.84510   3.21030   3.21030
 Alpha virt. eigenvalues --    3.27486   3.27486   3.33521   3.33521   3.34656
 Alpha virt. eigenvalues --    3.41235   3.41235   3.54520   3.59969   3.59969
 Alpha virt. eigenvalues --    3.82738   3.97876   3.97876   3.98813   3.98813
 Alpha virt. eigenvalues --    4.26977   4.26977   4.27732   4.27732   4.28040
 Alpha virt. eigenvalues --    4.28040   4.28239   4.28239   4.34891   4.34891
 Alpha virt. eigenvalues --    4.45726   4.45726   4.52568   4.57304   4.57304
 Alpha virt. eigenvalues --    5.01199   5.01199   5.03347   5.06907   5.06907
 Alpha virt. eigenvalues --    5.24923   5.24923   5.55231   5.97318   5.97869
 Alpha virt. eigenvalues --    5.97869   6.90617   6.90617   6.90750   7.24119
 Alpha virt. eigenvalues --    7.24119   7.27918   7.27918   7.42422   7.80667
 Alpha virt. eigenvalues --    7.98315   7.98315   8.00052   8.00052   8.21796
 Alpha virt. eigenvalues --    8.87185   8.87185   9.22059   9.22059   9.47465
 Alpha virt. eigenvalues --    9.49799   9.49799   9.73980   9.73980  10.02142
 Alpha virt. eigenvalues --   10.02142  10.50601  11.24524  11.24524  11.27577
 Alpha virt. eigenvalues --   11.27577  11.49349  11.49349  11.49577  11.49577
 Alpha virt. eigenvalues --   11.72733  11.81889  11.81889  11.95792  11.95792
 Alpha virt. eigenvalues --   11.96102  11.96102  12.08726  12.08726  12.35712
 Alpha virt. eigenvalues --   12.35712  12.66180  12.66180  12.90899  13.20231
 Alpha virt. eigenvalues --   13.65220  13.65220  14.24542  14.24542  14.41372
 Alpha virt. eigenvalues --   14.53587  14.53587  14.93008  16.48620  24.49027
 Alpha virt. eigenvalues --   24.49027  24.59118  24.59118  25.54068  25.54068
 Alpha virt. eigenvalues --   25.83960  25.83960  25.98554  25.98554  26.10791
 Alpha virt. eigenvalues --   26.13440  26.62756  26.62756  26.63987  26.63987
 Alpha virt. eigenvalues --   26.76999  26.76999  27.02231  27.02231  27.56416
 Alpha virt. eigenvalues --   28.34736  28.49594  28.49594  29.60285  30.33573
 Alpha virt. eigenvalues --   30.33573  30.33809  30.33809  30.39374  30.39374
 Alpha virt. eigenvalues --   30.48966  30.48966  30.80705  30.80705  31.12524
 Alpha virt. eigenvalues --   31.83358  44.46609  44.46609  44.60368  44.60368
 Alpha virt. eigenvalues --   44.79825  60.02208  60.02208  60.68981  64.49580
 Alpha virt. eigenvalues --   79.65235  79.65235  79.77563  79.77563  79.95068
 Alpha virt. eigenvalues --  120.74334 121.10407 121.10407 121.80896 164.31854
 Alpha virt. eigenvalues --  168.26355 168.26355 168.36712 168.36712 168.51755
 Alpha virt. eigenvalues --  227.36316 239.46449 239.46449 240.05645 426.11617
 Alpha virt. eigenvalues --  426.11617 426.19629 426.19629 426.31436 439.43281
 Alpha virt. eigenvalues --  474.06040 474.06040 474.61311 870.46157 958.31107
 Alpha virt. eigenvalues --  958.31107 958.822971346.630911346.630911346.68413
 Alpha virt. eigenvalues -- 1346.684131346.764201774.563902015.604762015.60476
 Alpha virt. eigenvalues -- 2016.072183744.324444503.015504503.015504503.43340
 Alpha virt. eigenvalues -- 8223.66923****************************************
 Alpha virt. eigenvalues -- **************************************************
 Alpha virt. eigenvalues -- **************************************************
 Alpha virt. eigenvalues -- ********************
     Molecular Orbital Coefficients:
                           1         2         3         4         5
                           O         O         O         O         O
     Eigenvalues --    -4.09466  -2.76713  -2.74966  -2.74966  -0.69717
   1 1   Mn 1S         -0.00000  -0.00000   0.00000   0.00000   0.00000
   2        2S          0.00000   0.00000   0.00000   0.00000  -0.00000
   3        3S         -0.00000  -0.00000   0.00000   0.00000   0.00000
   4        4S          0.00000   0.00000   0.00000   0.00000  -0.00000
   5        5S         -0.00000  -0.00000   0.00000   0.00000   0.00000
   6        6S          0.00002   0.00000   0.00000   0.00000  -0.00000
   7        7S         -0.00005  -0.00000   0.00000   0.00000   0.00001
   8        8S          0.00018   0.00000   0.00000   0.00000  -0.00004
   9        9S         -0.00054  -0.00001   0.00000   0.00000   0.00011
  10       10S          0.00153   0.00004   0.00000   0.00000  -0.00031
  11       11S         -0.00408  -0.00010   0.00000   0.00000   0.00084
  12       12S          0.01025   0.00025   0.00000   0.00000  -0.00211
  13       13S         -0.02461  -0.00059   0.00000   0.00000   0.00514
  14       14S          0.07329   0.00175   0.00000   0.00000  -0.01600
  15       15S         -0.04456  -0.00164   0.00000   0.00000   0.01453
  16       16S         -0.57659  -0.00690   0.00000   0.00000   0.11696
  17       17S          0.65036   0.00979   0.00000   0.00000  -0.13368
  18       18S          1.22832   0.01215   0.00000   0.00000  -0.30840
  19       19S          0.21418   0.00786   0.00000   0.00000  -0.14753
  20       20S         -0.07533   0.01576   0.00000   0.00000   0.15687
  21       21S         -0.03737   0.01089   0.00000   0.00000   0.04926
  22       22S          0.00207  -0.00134   0.00000   0.00000   0.01131
  23       23S          0.03534  -0.00351   0.00000   0.00000  -0.01173
  24       24S         -0.72065   0.00004   0.00000   0.00000   0.15219
  25       25S         -0.00138  -0.00059   0.00000   0.00000  -0.00389
  26       26PX         0.00000   0.00000   0.00000   0.00000   0.00000
  27       26PY         0.00000   0.00000   0.00000   0.00000   0.00000
  28       26PZ         0.00000   0.00000   0.00000   0.00000   0.00000
  29       27PX         0.00000   0.00000  -0.00000   0.00000   0.00000
  30       27PY         0.00000   0.00000   0.00000  -0.00000   0.00000
  31       27PZ        -0.00000  -0.00000   0.00000   0.00000  -0.00000
  32       28PX         0.00000   0.00000   0.00001   0.00000   0.00000
  33       28PY         0.00000   0.00000   0.00000   0.00001   0.00000
  34       28PZ         0.00000   0.00001   0.00000   0.00000   0.00000
  35       29PX         0.00000   0.00000  -0.00003   0.00000   0.00000
  36       29PY         0.00000   0.00000   0.00000  -0.00003   0.00000
  37       29PZ        -0.00000  -0.00003   0.00000   0.00000  -0.00001
  38       30PX         0.00000   0.00000   0.00010   0.00000   0.00000
  39       30PY         0.00000   0.00000   0.00000   0.00010   0.00000
  40       30PZ         0.00000   0.00010   0.00000   0.00000   0.00002
  41       31PX         0.00000   0.00000  -0.00034   0.00000   0.00000
  42       31PY         0.00000   0.00000   0.00000  -0.00034   0.00000
  43       31PZ        -0.00001  -0.00033   0.00000   0.00000  -0.00007
  44       32PX         0.00000   0.00000   0.00103   0.00000   0.00000
  45       32PY         0.00000   0.00000   0.00000   0.00103   0.00000
  46       32PZ         0.00004   0.00101   0.00000   0.00000   0.00022
  47       33PX         0.00000   0.00000  -0.00300   0.00000   0.00000
  48       33PY         0.00000   0.00000   0.00000  -0.00300   0.00000
  49       33PZ        -0.00010  -0.00294   0.00000   0.00000  -0.00064
  50       34PX         0.00000   0.00000   0.00929   0.00000   0.00000
  51       34PY         0.00000   0.00000   0.00000   0.00929   0.00000
  52       34PZ         0.00023   0.00912   0.00000   0.00000   0.00205
  53       35PX         0.00000   0.00000  -0.02733   0.00000   0.00000
  54       35PY         0.00000   0.00000   0.00000  -0.02733   0.00000
  55       35PZ        -0.00054  -0.02688   0.00000   0.00000  -0.00655
  56       36PX         0.00000   0.00000  -0.02363   0.00000   0.00000
  57       36PY         0.00000   0.00000   0.00000  -0.02363   0.00000
  58       36PZ        -0.00683  -0.02283   0.00000   0.00000  -0.00282
  59       37PX         0.00000   0.00000   0.23757   0.00000   0.00000
  60       37PY         0.00000   0.00000   0.00000   0.23757   0.00000
  61       37PZ        -0.00470   0.23574   0.00000   0.00000   0.05615
  62       38PX         0.00000   0.00000   0.18741   0.00000   0.00000
  63       38PY         0.00000   0.00000   0.00000   0.18741   0.00000
  64       38PZ         0.00331   0.18427   0.00000   0.00000   0.04329
  65       39PX         0.00000   0.00000   0.38122   0.00000   0.00000
  66       39PY         0.00000   0.00000   0.00000   0.38122   0.00000
  67       39PZ        -0.01585   0.37899   0.00000   0.00000   0.10170
  68       40PX         0.00000   0.00000   0.15208   0.00000   0.00000
  69       40PY         0.00000   0.00000   0.00000   0.15208   0.00000
  70       40PZ         0.02876   0.14561   0.00000   0.00000   0.03487
  71       41PX         0.00000   0.00000   0.01417   0.00000   0.00000
  72       41PY         0.00000   0.00000   0.00000   0.01417   0.00000
  73       41PZ         0.04935   0.00797   0.00000   0.00000  -0.06897
  74       42PX         0.00000   0.00000  -0.00353   0.00000   0.00000
  75       42PY         0.00000   0.00000   0.00000  -0.00353   0.00000
  76       42PZ         0.02081  -0.00583   0.00000   0.00000  -0.04374
  77       43PX         0.00000   0.00000   0.00103   0.00000   0.00000
  78       43PY         0.00000   0.00000   0.00000   0.00103   0.00000
  79       43PZ        -0.00028   0.00303   0.00000   0.00000  -0.01616
  80       44PX         0.00000   0.00000  -0.03346   0.00000   0.00000
  81       44PY         0.00000   0.00000   0.00000  -0.03346   0.00000
  82       44PZ         0.00867  -0.03393   0.00000   0.00000  -0.00801
  83       45PX         0.00000   0.00000   0.18752   0.00000   0.00000
  84       45PY         0.00000   0.00000   0.00000   0.18752   0.00000
  85       45PZ        -0.00365   0.18497   0.00000   0.00000   0.04468
  86       46PX         0.00000   0.00000  -0.00032   0.00000   0.00000
  87       46PY         0.00000   0.00000   0.00000  -0.00032   0.00000
  88       46PZ         0.00031  -0.00008   0.00000   0.00000  -0.00005
  89       47D 0        0.00000  -0.00000   0.00000   0.00000  -0.00001
  90       47D+1        0.00000   0.00000   0.00000   0.00000   0.00000
  91       47D-1        0.00000   0.00000   0.00000   0.00000   0.00000
  92       47D+2       -0.00000   0.00000   0.00000   0.00000   0.00000
  93       47D-2        0.00000   0.00000   0.00000   0.00000   0.00000
  94       48D 0       -0.00000   0.00000   0.00000   0.00000   0.00004
  95       48D+1        0.00000   0.00000  -0.00000   0.00000   0.00000
  96       48D-1        0.00000   0.00000   0.00000  -0.00000   0.00000
  97       48D+2        0.00000  -0.00000   0.00000   0.00000  -0.00000
  98       48D-2        0.00000   0.00000   0.00000   0.00000   0.00000
  99       49D 0        0.00001  -0.00000   0.00000   0.00000  -0.00025
 100       49D+1        0.00000   0.00000   0.00000   0.00000   0.00000
 101       49D-1        0.00000   0.00000   0.00000   0.00000   0.00000
 102       49D+2        0.00000   0.00000   0.00000   0.00000   0.00000
 103       49D-2        0.00000   0.00000   0.00000   0.00000   0.00000
 104       50D 0       -0.00010   0.00006   0.00000   0.00000   0.00452
 105       50D+1        0.00000   0.00000  -0.00008   0.00000   0.00000
 106       50D-1        0.00000   0.00000   0.00000  -0.00008   0.00000
 107       50D+2        0.00000  -0.00000   0.00000   0.00000  -0.00000
 108       50D-2        0.00000   0.00000   0.00000   0.00000   0.00000
 109       51D 0        0.00024   0.00081   0.00000   0.00000   0.05201
 110       51D+1        0.00000   0.00000  -0.00092   0.00000   0.00000
 111       51D-1        0.00000   0.00000   0.00000  -0.00092   0.00000
 112       51D+2       -0.00000   0.00000   0.00000   0.00000   0.00000
 113       51D-2        0.00000   0.00000   0.00000   0.00000   0.00000
 114       52D 0        0.00594   0.00107   0.00000   0.00000   0.09015
 115       52D+1        0.00000   0.00000  -0.00197   0.00000   0.00000
 116       52D-1        0.00000   0.00000   0.00000  -0.00197   0.00000
 117       52D+2       -0.00000   0.00000   0.00000   0.00000   0.00000
 118       52D-2        0.00000   0.00000   0.00000   0.00000   0.00000
 119       53D 0        0.00503  -0.00034   0.00000   0.00000   0.11403
 120       53D+1        0.00000   0.00000  -0.00247   0.00000   0.00000
 121       53D-1        0.00000   0.00000   0.00000  -0.00247   0.00000
 122       53D+2       -0.00000   0.00000   0.00000   0.00000   0.00000
 123       53D-2        0.00000   0.00000   0.00000   0.00000   0.00000
 124       54D 0       -0.00816  -0.00066   0.00000   0.00000   0.11103
 125       54D+1        0.00000   0.00000  -0.00121   0.00000   0.00000
 126       54D-1        0.00000   0.00000   0.00000  -0.00121   0.00000
 127       54D+2        0.00000  -0.00000   0.00000   0.00000  -0.00000
 128       54D-2        0.00000   0.00000   0.00000   0.00000   0.00000
 129       55D 0       -0.01823   0.00536   0.00000   0.00000   0.08383
 130       55D+1        0.00000   0.00000   0.00109   0.00000   0.00000
 131       55D-1        0.00000   0.00000   0.00000   0.00109   0.00000
 132       55D+2       -0.00000   0.00000   0.00000   0.00000   0.00000
 133       55D-2        0.00000   0.00000   0.00000   0.00000   0.00000
 134       56D 0       -0.01212   0.00372   0.00000   0.00000   0.02662
 135       56D+1        0.00000   0.00000   0.00092   0.00000   0.00000
 136       56D-1        0.00000   0.00000   0.00000   0.00092   0.00000
 137       56D+2        0.00000  -0.00000   0.00000   0.00000   0.00000
 138       56D-2        0.00000   0.00000   0.00000   0.00000   0.00000
 139       57D 0       -0.00079   0.00110   0.00000   0.00000   0.00212
 140       57D+1        0.00000   0.00000   0.00032   0.00000   0.00000
 141       57D-1        0.00000   0.00000   0.00000   0.00032   0.00000
 142       57D+2       -0.00000   0.00000   0.00000   0.00000  -0.00000
 143       57D-2        0.00000   0.00000   0.00000   0.00000   0.00000
 144       58D 0       -0.00277  -0.00028   0.00000   0.00000   0.00652
 145       58D+1        0.00000   0.00000   0.00001   0.00000   0.00000
 146       58D-1        0.00000   0.00000   0.00000   0.00001   0.00000
 147       58D+2        0.00000  -0.00000   0.00000   0.00000  -0.00000
 148       58D-2        0.00000   0.00000   0.00000   0.00000   0.00000
 149       59D 0       -0.00788   0.00070   0.00000   0.00000  -0.00259
 150       59D+1        0.00000   0.00000   0.00048   0.00000   0.00000
 151       59D-1        0.00000   0.00000   0.00000   0.00048   0.00000
 152       59D+2        0.00000  -0.00000   0.00000   0.00000  -0.00000
 153       59D-2        0.00000   0.00000   0.00000   0.00000   0.00000
 154       60D 0        0.00009  -0.00028   0.00000   0.00000   0.00043
 155       60D+1        0.00000   0.00000  -0.00001   0.00000   0.00000
 156       60D-1        0.00000   0.00000   0.00000  -0.00001   0.00000
 157       60D+2        0.00000  -0.00000   0.00000   0.00000   0.00000
 158       60D-2        0.00000   0.00000   0.00000   0.00000   0.00000
 159       61F 0        0.00018   0.00009   0.00000   0.00000  -0.00078
 160       61F+1        0.00000   0.00000  -0.00004   0.00000   0.00000
 161       61F-1        0.00000   0.00000   0.00000  -0.00004   0.00000
 162       61F+2        0.00000   0.00000   0.00000   0.00000   0.00000
 163       61F-2        0.00000   0.00000   0.00000   0.00000   0.00000
 164       61F+3        0.00000   0.00000   0.00000   0.00000   0.00000
 165       61F-3        0.00000   0.00000   0.00000  -0.00000   0.00000
 166       62F 0       -0.00056   0.00036   0.00000   0.00000  -0.00263
 167       62F+1        0.00000   0.00000   0.00003   0.00000   0.00000
 168       62F-1        0.00000   0.00000   0.00000   0.00003   0.00000
 169       62F+2       -0.00000  -0.00000   0.00000   0.00000  -0.00000
 170       62F-2        0.00000   0.00000   0.00000   0.00000   0.00000
 171       62F+3        0.00000   0.00000   0.00000   0.00000   0.00000
 172       62F-3        0.00000   0.00000   0.00000  -0.00000   0.00000
 173       63F 0        0.00104   0.00145   0.00000   0.00000  -0.00660
 174       63F+1        0.00000   0.00000  -0.00047   0.00000   0.00000
 175       63F-1        0.00000   0.00000   0.00000  -0.00047   0.00000
 176       63F+2        0.00000   0.00000   0.00000   0.00000   0.00000
 177       63F-2        0.00000   0.00000   0.00000   0.00000   0.00000
 178       63F+3        0.00000   0.00000   0.00000   0.00000   0.00000
 179       63F-3        0.00000   0.00000   0.00000  -0.00000   0.00000
 180       64F 0        0.00654  -0.00148   0.00000   0.00000  -0.01074
 181       64F+1        0.00000   0.00000  -0.00148   0.00000   0.00000
 182       64F-1        0.00000   0.00000   0.00000  -0.00148   0.00000
 183       64F+2       -0.00000   0.00000   0.00000   0.00000  -0.00000
 184       64F-2        0.00000   0.00000   0.00000   0.00000   0.00000
 185       64F+3        0.00000   0.00000   0.00000   0.00000   0.00000
 186       64F-3        0.00000   0.00000   0.00000  -0.00000   0.00000
 187       65F 0        0.00256  -0.00051   0.00000   0.00000  -0.00172
 188       65F+1        0.00000   0.00000  -0.00023   0.00000   0.00000
 189       65F-1        0.00000   0.00000   0.00000  -0.00023   0.00000
 190       65F+2       -0.00000   0.00000   0.00000   0.00000  -0.00000
 191       65F-2        0.00000   0.00000   0.00000   0.00000   0.00000
 192       65F+3        0.00000   0.00000  -0.00000   0.00000   0.00000
 193       65F-3        0.00000   0.00000   0.00000   0.00000   0.00000
 194       66G 0       -0.00007  -0.00000   0.00000   0.00000   0.00002
 195       66G+1        0.00000   0.00000  -0.00001   0.00000   0.00000
 196       66G-1        0.00000   0.00000   0.00000  -0.00001   0.00000
 197       66G+2       -0.00000   0.00000   0.00000   0.00000   0.00000
 198       66G-2        0.00000   0.00000   0.00000   0.00000   0.00000
 199       66G+3        0.00000   0.00000   0.00000   0.00000   0.00000
 200       66G-3        0.00000   0.00000   0.00000  -0.00000   0.00000
 201       66G+4        0.00000   0.00000   0.00000   0.00000   0.00000
 202       66G-4        0.00000   0.00000   0.00000   0.00000   0.00000
 203       67G 0        0.00043  -0.00061   0.00000   0.00000   0.00085
 204       67G+1        0.00000   0.00000  -0.00023   0.00000   0.00000
 205       67G-1        0.00000   0.00000   0.00000  -0.00023   0.00000
 206       67G+2        0.00000  -0.00000   0.00000   0.00000  -0.00000
 207       67G-2        0.00000   0.00000   0.00000   0.00000   0.00000
 208       67G+3        0.00000   0.00000   0.00000   0.00000   0.00000
 209       67G-3        0.00000   0.00000   0.00000  -0.00000   0.00000
 210       67G+4        0.00000  -0.00000   0.00000   0.00000  -0.00000
 211       67G-4        0.00000   0.00000   0.00000   0.00000   0.00000
 212       68G 0       -0.00116  -0.00070   0.00000   0.00000   0.00036
 213       68G+1        0.00000   0.00000  -0.00021   0.00000   0.00000
 214       68G-1        0.00000   0.00000   0.00000  -0.00021   0.00000
 215       68G+2       -0.00000   0.00000   0.00000   0.00000   0.00000
 216       68G-2        0.00000   0.00000   0.00000   0.00000   0.00000
 217       68G+3        0.00000   0.00000  -0.00000   0.00000   0.00000
 218       68G-3        0.00000   0.00000   0.00000  -0.00000   0.00000
 219       68G+4        0.00000   0.00000   0.00000   0.00000   0.00000
 220       68G-4        0.00000   0.00000   0.00000   0.00000   0.00000
 221       69G 0       -0.00079   0.00060   0.00000   0.00000   0.00063
 222       69G+1        0.00000   0.00000   0.00038   0.00000   0.00000
 223       69G-1        0.00000   0.00000   0.00000   0.00038   0.00000
 224       69G+2        0.00000  -0.00000   0.00000   0.00000   0.00000
 225       69G-2        0.00000   0.00000   0.00000   0.00000   0.00000
 226       69G+3        0.00000   0.00000   0.00000   0.00000   0.00000
 227       69G-3        0.00000   0.00000   0.00000  -0.00000   0.00000
 228       69G+4       -0.00000  -0.00000   0.00000   0.00000  -0.00000
 229       69G-4        0.00000   0.00000   0.00000   0.00000   0.00000
 230       70H 0        0.00000  -0.00002   0.00000   0.00000  -0.00006
 231       70H+1        0.00000   0.00000  -0.00002   0.00000   0.00000
 232       70H-1        0.00000   0.00000   0.00000  -0.00002   0.00000
 233       70H+2       -0.00000   0.00000   0.00000   0.00000   0.00000
 234       70H-2        0.00000   0.00000   0.00000   0.00000   0.00000
 235       70H+3        0.00000   0.00000   0.00000   0.00000   0.00000
 236       70H-3        0.00000   0.00000   0.00000  -0.00000   0.00000
 237       70H+4        0.00000  -0.00000   0.00000   0.00000  -0.00000
 238       70H-4        0.00000   0.00000   0.00000   0.00000   0.00000
 239       70H+5        0.00000   0.00000  -0.00000   0.00000   0.00000
 240       70H-5        0.00000   0.00000   0.00000  -0.00000   0.00000
 241       71H 0       -0.00014   0.00030   0.00000   0.00000  -0.00035
 242       71H+1        0.00000   0.00000   0.00016   0.00000   0.00000
 243       71H-1        0.00000   0.00000   0.00000   0.00016   0.00000
 244       71H+2        0.00000  -0.00000   0.00000   0.00000  -0.00000
 245       71H-2        0.00000   0.00000   0.00000   0.00000   0.00000
 246       71H+3        0.00000   0.00000  -0.00000   0.00000   0.00000
 247       71H-3        0.00000   0.00000   0.00000  -0.00000   0.00000
 248       71H+4       -0.00000   0.00000   0.00000   0.00000   0.00000
 249       71H-4        0.00000   0.00000   0.00000   0.00000   0.00000
 250       71H+5        0.00000   0.00000  -0.00000   0.00000   0.00000
 251       71H-5        0.00000   0.00000   0.00000  -0.00000   0.00000
 252       72H 0        0.00041   0.00006   0.00000   0.00000  -0.00008
[...]
  95       48D+1        0.00000   0.00000   0.00000   0.00000
  96       48D-1        0.00000   0.00000   0.00000   0.00000
  97       48D+2        0.00000   0.00000  -0.00000   0.00000
  98       48D-2        0.00000   0.00000   0.00000   0.00000
  99       49D 0       -0.00008  -0.00007  -0.00001  -0.00006
 100       49D+1       -0.00008  -0.00008  -0.00000  -0.00008
 101       49D-1       -0.00008  -0.00008  -0.00000  -0.00008
 102       49D+2       -0.00008  -0.00008   0.00000  -0.00008
 103       49D-2       -0.00008  -0.00008  -0.00000  -0.00008
 104       50D 0        0.00376   0.00327   0.00049   0.00279
 105       50D+1        0.00376   0.00376   0.00000   0.00376
 106       50D-1        0.00376   0.00376   0.00000   0.00376
 107       50D+2        0.00378   0.00378  -0.00000   0.00378
 108       50D-2        0.00378   0.00378   0.00000   0.00378
 109       51D 0        0.08349   0.07282   0.01067   0.06214
 110       51D+1        0.08434   0.08434   0.00000   0.08434
 111       51D-1        0.08434   0.08434   0.00000   0.08434
 112       51D+2        0.08449   0.08449   0.00000   0.08449
 113       51D-2        0.08449   0.08449  -0.00000   0.08449
 114       52D 0        0.21397   0.18629   0.02768   0.15861
 115       52D+1        0.21724   0.21723   0.00001   0.21722
 116       52D-1        0.21724   0.21723   0.00001   0.21722
 117       52D+2        0.21581   0.21581  -0.00000   0.21581
 118       52D-2        0.21581   0.21581  -0.00000   0.21581
 119       53D 0        0.31071   0.26474   0.04597   0.21878
 120       53D+1        0.29618   0.29617   0.00001   0.29616
 121       53D-1        0.29618   0.29617   0.00001   0.29616
 122       53D+2        0.29543   0.29543   0.00000   0.29543
 123       53D-2        0.29543   0.29543  -0.00000   0.29543
 124       54D 0        0.29577   0.24104   0.05473   0.18630
 125       54D+1        0.25659   0.25659   0.00001   0.25658
 126       54D-1        0.25659   0.25659   0.00001   0.25658
 127       54D+2        0.26080   0.26080   0.00000   0.26080
 128       54D-2        0.26080   0.26080  -0.00000   0.26080
 129       55D 0        0.17487   0.13247   0.04241   0.09006
 130       55D+1        0.12449   0.12449  -0.00000   0.12450
 131       55D-1        0.12449   0.12449  -0.00000   0.12450
 132       55D+2        0.12722   0.12722   0.00000   0.12722
 133       55D-2        0.12722   0.12722  -0.00000   0.12722
 134       56D 0        0.03436   0.02452   0.00985   0.01467
 135       56D+1        0.02184   0.02184  -0.00000   0.02184
 136       56D-1        0.02184   0.02184  -0.00000   0.02184
 137       56D+2        0.02063   0.02063   0.00000   0.02063
 138       56D-2        0.02063   0.02063   0.00000   0.02063
 139       57D 0        0.00144   0.00108   0.00036   0.00071
 140       57D+1        0.00052   0.00052  -0.00000   0.00052
 141       57D-1        0.00052   0.00052  -0.00000   0.00052
 142       57D+2        0.00023   0.00023  -0.00000   0.00023
 143       57D-2        0.00023   0.00023  -0.00000   0.00023
 144       58D 0        0.00849   0.00680   0.00169   0.00511
 145       58D+1        0.00570   0.00570  -0.00000   0.00570
 146       58D-1        0.00570   0.00570  -0.00000   0.00570
 147       58D+2        0.00639   0.00639   0.00000   0.00639
 148       58D-2        0.00639   0.00639   0.00000   0.00639
 149       59D 0       -0.01303  -0.01214  -0.00089  -0.01125
 150       59D+1       -0.01732  -0.01732  -0.00000  -0.01731
 151       59D-1       -0.01732  -0.01732  -0.00000  -0.01731
 152       59D+2       -0.01491  -0.01491  -0.00000  -0.01491
 153       59D-2       -0.01491  -0.01491   0.00000  -0.01491
 154       60D 0        0.00006   0.00003   0.00002   0.00001
 155       60D+1       -0.00000  -0.00000   0.00000  -0.00000
 156       60D-1       -0.00000  -0.00000   0.00000  -0.00000
 157       60D+2        0.00001   0.00001   0.00000   0.00001
 158       60D-2        0.00001   0.00001   0.00000   0.00001
 159       61F 0        0.00001   0.00001   0.00001   0.00000
 160       61F+1        0.00000   0.00000   0.00000   0.00000
 161       61F-1        0.00000   0.00000   0.00000   0.00000
 162       61F+2        0.00000   0.00000  -0.00000   0.00000
 163       61F-2        0.00000   0.00000  -0.00000   0.00000
 164       61F+3        0.00000   0.00000   0.00000   0.00000
 165       61F-3        0.00000   0.00000   0.00000   0.00000
 166       62F 0        0.00015   0.00008   0.00007   0.00001
 167       62F+1        0.00000   0.00000  -0.00000   0.00000
 168       62F-1        0.00000   0.00000  -0.00000   0.00000
 169       62F+2        0.00000   0.00000  -0.00000   0.00000
 170       62F-2        0.00000   0.00000   0.00000   0.00000
 171       62F+3        0.00000   0.00000   0.00000   0.00000
 172       62F-3        0.00000   0.00000   0.00000   0.00000
 173       63F 0        0.00123   0.00062   0.00060   0.00002
 174       63F+1        0.00002   0.00002   0.00000   0.00002
 175       63F-1        0.00002   0.00002   0.00000   0.00002
 176       63F+2        0.00000   0.00000  -0.00000   0.00000
 177       63F-2        0.00000   0.00000  -0.00000   0.00000
 178       63F+3        0.00000   0.00000   0.00000   0.00000
 179       63F-3       -0.00000  -0.00000   0.00000  -0.00000
 180       64F 0        0.00372   0.00192   0.00180   0.00012
 181       64F+1        0.00001   0.00001  -0.00000   0.00001
 182       64F-1        0.00001   0.00001  -0.00000   0.00001
 183       64F+2       -0.00000  -0.00000   0.00000  -0.00000
 184       64F-2       -0.00000  -0.00000   0.00000  -0.00000
 185       64F+3       -0.00000  -0.00000  -0.00000  -0.00000
 186       64F-3       -0.00000  -0.00000  -0.00000  -0.00000
 187       65F 0        0.00048   0.00030   0.00018   0.00013
 188       65F+1       -0.00000  -0.00000  -0.00000  -0.00000
 189       65F-1       -0.00000  -0.00000  -0.00000  -0.00000
 190       65F+2        0.00000   0.00000   0.00000   0.00000
 191       65F-2        0.00000   0.00000   0.00000   0.00000
 192       65F+3        0.00000   0.00000   0.00000   0.00000
 193       65F-3       -0.00000  -0.00000  -0.00000  -0.00000
 194       66G 0        0.00000  -0.00000   0.00000  -0.00000
 195       66G+1        0.00000  -0.00000   0.00000  -0.00000
 196       66G-1        0.00000  -0.00000   0.00000  -0.00000
 197       66G+2        0.00000   0.00000   0.00000   0.00000
 198       66G-2        0.00000   0.00000   0.00000   0.00000
 199       66G+3        0.00000   0.00000   0.00000   0.00000
 200       66G-3       -0.00000  -0.00000  -0.00000  -0.00000
 201       66G+4        0.00000   0.00000   0.00000   0.00000
 202       66G-4       -0.00000  -0.00000  -0.00000  -0.00000
 203       67G 0        0.00003   0.00002   0.00002   0.00000
 204       67G+1        0.00000   0.00000   0.00000   0.00000
 205       67G-1        0.00000   0.00000   0.00000   0.00000
 206       67G+2       -0.00000  -0.00000   0.00000  -0.00000
 207       67G-2       -0.00000  -0.00000   0.00000  -0.00000
 208       67G+3       -0.00000  -0.00000  -0.00000  -0.00000
 209       67G-3        0.00000   0.00000  -0.00000   0.00000
 210       67G+4       -0.00000  -0.00000  -0.00000   0.00000
 211       67G-4        0.00000   0.00000   0.00000   0.00000
 212       68G 0        0.00007   0.00004   0.00003   0.00001
 213       68G+1       -0.00000  -0.00000   0.00000  -0.00000
 214       68G-1       -0.00000  -0.00000   0.00000  -0.00000
 215       68G+2        0.00000   0.00000  -0.00000   0.00000
 216       68G-2        0.00000   0.00000   0.00000   0.00000
 217       68G+3       -0.00000  -0.00000   0.00000  -0.00000
 218       68G-3       -0.00000  -0.00000  -0.00000  -0.00000
 219       68G+4       -0.00000  -0.00000   0.00000  -0.00000
 220       68G-4       -0.00000  -0.00000   0.00000  -0.00000
 221       69G 0        0.00014   0.00009   0.00005   0.00004
 222       69G+1       -0.00001  -0.00001  -0.00000  -0.00001
 223       69G-1       -0.00001  -0.00001  -0.00000  -0.00001
 224       69G+2        0.00000   0.00000   0.00000   0.00000
 225       69G-2        0.00000   0.00000   0.00000   0.00000
 226       69G+3       -0.00000  -0.00000  -0.00000  -0.00000
 227       69G-3        0.00000   0.00000   0.00000   0.00000
 228       69G+4        0.00000   0.00000   0.00000   0.00000
 229       69G-4       -0.00000  -0.00000   0.00000  -0.00000
 230       70H 0        0.00000   0.00000   0.00000   0.00000
 231       70H+1        0.00000   0.00000  -0.00000   0.00000
 232       70H-1        0.00000   0.00000  -0.00000   0.00000
 233       70H+2        0.00000   0.00000   0.00000   0.00000
 234       70H-2        0.00000   0.00000   0.00000   0.00000
 235       70H+3       -0.00000  -0.00000   0.00000  -0.00000
 236       70H-3        0.00000   0.00000   0.00000   0.00000
 237       70H+4        0.00000   0.00000   0.00000  -0.00000
 238       70H-4       -0.00000  -0.00000   0.00000  -0.00000
 239       70H+5        0.00000   0.00000   0.00000   0.00000
 240       70H-5        0.00000   0.00000   0.00000   0.00000
 241       71H 0        0.00001   0.00001   0.00001   0.00000
 242       71H+1        0.00000   0.00000   0.00000   0.00000
 243       71H-1        0.00000   0.00000   0.00000   0.00000
 244       71H+2        0.00000   0.00000  -0.00000   0.00000
 245       71H-2        0.00000   0.00000  -0.00000   0.00000
 246       71H+3       -0.00000  -0.00000  -0.00000  -0.00000
 247       71H-3        0.00000   0.00000   0.00000   0.00000
 248       71H+4        0.00000   0.00000  -0.00000   0.00000
 249       71H-4       -0.00000  -0.00000  -0.00000  -0.00000
 250       71H+5       -0.00000  -0.00000   0.00000  -0.00000
 251       71H-5        0.00000   0.00000  -0.00000   0.00000
 252       72H 0        0.00001   0.00000   0.00000  -0.00000
 253       72H+1        0.00000   0.00000   0.00000   0.00000
 254       72H-1        0.00000   0.00000   0.00000   0.00000
 255       72H+2        0.00000   0.00000  -0.00000   0.00000
 256       72H-2        0.00000   0.00000  -0.00000   0.00000
 257       72H+3        0.00000   0.00000   0.00000   0.00000
 258       72H-3        0.00000   0.00000   0.00000   0.00000
 259       72H+4       -0.00000  -0.00000   0.00000  -0.00000
 260       72H-4        0.00000   0.00000   0.00000   0.00000
 261       72H+5       -0.00000  -0.00000  -0.00000  -0.00000
 262       72H-5        0.00000   0.00000   0.00000   0.00000
 263 2   H  1S          0.00006   0.00003   0.00003   0.00000
 264        2S          0.00767   0.00390   0.00377   0.00014
 265        3S          0.07667   0.03900   0.03767   0.00134
 266        4S          0.36631   0.18638   0.17993   0.00645
 267        5S          0.65067   0.34721   0.30346   0.04375
 268        6S          0.43327   0.24667   0.18660   0.06007
 269        7S          0.00519   0.00310   0.00209   0.00101
 270        8PX         0.00065   0.00062   0.00003   0.00059
 271        8PY         0.00065   0.00062   0.00003   0.00059
 272        8PZ         0.00291   0.00204   0.00087   0.00117
 273        9PX         0.00292   0.00274   0.00018   0.00256
 274        9PY         0.00292   0.00274   0.00018   0.00256
 275        9PZ         0.00873   0.00520   0.00352   0.00168
 276       10PX         0.00371   0.00302   0.00068   0.00234
 277       10PY         0.00371   0.00302   0.00068   0.00234
 278       10PZ         0.02740   0.01409   0.01331   0.00078
 279       11PX         0.00057   0.00031   0.00026   0.00005
 280       11PY         0.00057   0.00031   0.00026   0.00005
 281       11PZ         0.01867   0.01461   0.00407   0.01054
 282       12D 0        0.00089   0.00064   0.00025   0.00040
 283       12D+1        0.00037   0.00034   0.00004   0.00030
 284       12D-1        0.00037   0.00034   0.00004   0.00030
 285       12D+2        0.00003   0.00003   0.00000   0.00003
 286       12D-2        0.00003   0.00003   0.00000   0.00003
 287       13D 0        0.00194   0.00104   0.00090   0.00015
 288       13D+1        0.00112   0.00091   0.00021   0.00070
 289       13D-1        0.00112   0.00091   0.00021   0.00070
 290       13D+2        0.00016   0.00016  -0.00000   0.00016
 291       13D-2        0.00016   0.00016  -0.00000   0.00016
 292       14D 0        0.00310   0.00159   0.00150   0.00009
 293       14D+1        0.00055   0.00028   0.00027   0.00001
 294       14D-1        0.00055   0.00028   0.00027   0.00001
 295       14D+2        0.00001   0.00001  -0.00000   0.00001
 296       14D-2        0.00001   0.00001  -0.00000   0.00001
 297       15F 0        0.00019   0.00016   0.00003   0.00013
 298       15F+1        0.00023   0.00020   0.00004   0.00016
 299       15F-1        0.00023   0.00020   0.00004   0.00016
 300       15F+2        0.00005   0.00005  -0.00000   0.00005
 301       15F-2        0.00005   0.00005   0.00000   0.00005
 302       15F+3       -0.00000  -0.00000   0.00000  -0.00000
 303       15F-3        0.00000   0.00000   0.00000   0.00000
 304       16F 0        0.00026   0.00018   0.00008   0.00009
 305       16F+1       -0.00001  -0.00001  -0.00000  -0.00000
 306       16F-1       -0.00001  -0.00001  -0.00000  -0.00000
 307       16F+2       -0.00007  -0.00007  -0.00000  -0.00007
 308       16F-2       -0.00007  -0.00007  -0.00000  -0.00007
 309       16F+3       -0.00000  -0.00000  -0.00000  -0.00000
 310       16F-3        0.00000   0.00000  -0.00000   0.00000
          Condensed to atoms (all electrons):
               1          2
     1  Mn  14.017384   0.358077
     2  H    0.358077   1.266462
          Atomic-Atomic Spin Densities.
               1          2
     1  Mn   5.811500   0.046978
     2  H    0.046978   0.094544
 Mulliken charges and spin densities:
               1          2
     1  Mn   0.624539   5.858478
     2  H   -0.624539   0.141522
 Sum of Mulliken charges =  -0.00000   6.00000
 Mulliken charges and spin densities with hydrogens summed into heavy atoms:
               1          2
     1  Mn  -0.000000   6.000000
 Electronic spatial extent (au):  <R**2>=             46.4471
 Charge=             -0.0000 electrons
 Dipole moment (field-independent basis, Debye):
    X=              0.0000    Y=              0.0000    Z=             -0.6708  Tot=              0.6708
 Quadrupole moment (field-independent basis, Debye-Ang):
   XX=            -15.8701   YY=            -15.8701   ZZ=            -25.2303
   XY=              0.0000   XZ=              0.0000   YZ=              0.0000
 Traceless Quadrupole moment (field-independent basis, Debye-Ang):
   XX=              3.1201   YY=              3.1201   ZZ=             -6.2402
   XY=              0.0000   XZ=              0.0000   YZ=              0.0000
 Octapole moment (field-independent basis, Debye-Ang**2):
  XXX=              0.0000  YYY=              0.0000  ZZZ=             -7.7399  XYY=              0.0000
  XXY=              0.0000  XXZ=             -2.8084  XZZ=              0.0000  YZZ=              0.0000
  YYZ=             -2.8084  XYZ=              0.0000
 Hexadecapole moment (field-independent basis, Debye-Ang**3):
 XXXX=            -28.2127 YYYY=            -28.2127 ZZZZ=            -85.7154 XXXY=              0.0000
 XXXZ=              0.0000 YYYX=              0.0000 YYYZ=              0.0000 ZZZX=              0.0000
 ZZZY=              0.0000 XXYY=             -9.4042 XXZZ=            -18.4002 YYZZ=            -18.4002
 XXYZ=              0.0000 YYXZ=              0.0000 ZZXY=              0.0000
 N-N= 7.216052876182D+00 E-N=-2.521500077233D+02  KE= 5.667399446662D+01
 Symmetry A1   KE= 2.480095868466D+01
 Symmetry A2   KE= 5.882006323995D+00
 Symmetry B1   KE= 1.299551472899D+01
 Symmetry B2   KE= 1.299551472898D+01
 Symmetry A1   SP= 3.000000000000D+00
 Symmetry A2   SP= 1.000000000000D+00
 Symmetry B1   SP= 1.000000000000D+00
 Symmetry B2   SP= 1.000000000000D+00
 Orbital energies and kinetic energies (alpha):
                                 1                 2
   1         O                -4.094656          1.962972
   2         O                -2.767133          3.496463
   3         O                -2.749659          3.566626
   4         O                -2.749659          3.566626
   5         O                -0.697170          1.557558
   6         O                -0.636990          3.488574
   7         O                -0.636990          5.862263
   8         O                -0.630638          5.862263
   9         O                -0.630638          5.882006
  10         O                -0.402137          5.882006
  11         O                -0.230868          1.396394
  12         V                 0.012397          0.057162
  13         V                 0.012397          0.057162
  14         V                 0.018317          0.027249
  15         V                 0.032450          0.044080
  16         V                 0.050356          0.066000
 Total kinetic energy from orbitals= 8.504750095579D+01
                          Isotropic Fermi Contact Couplings
        Atom                 a.u.       MegaHertz       Gauss      10(-4) cm-1
     1  Mn(55)             0.00036       0.06545       0.02336       0.02183
     2  H(1)               0.00933       6.95169       2.48054       2.31883
 --------------------------------------------------------
       Center         ----  Spin Dipole Couplings  ----
                      3XX-RR        3YY-RR        3ZZ-RR
 --------------------------------------------------------
     1   Atom       -0.086337     -0.086337      0.172674
     2   Atom       -0.416798     -0.416798      0.833596
 --------------------------------------------------------
                        XY            XZ            YZ
 --------------------------------------------------------
     1   Atom        0.000000      0.000000      0.000000
     2   Atom        0.000000      0.000000      0.000000
 --------------------------------------------------------


 ---------------------------------------------------------------------------------
              Anisotropic Spin Dipole Couplings in Principal Axis System
 ---------------------------------------------------------------------------------

       Atom             a.u.   MegaHertz   Gauss  10(-4) cm-1        Axes

              Baa    -0.0863   -11.391    -4.065    -3.800  1.0000  0.0000  0.0000
     1 Mn(55) Bbb    -0.0863   -11.391    -4.065    -3.800 -0.0000  1.0000  0.0000
              Bcc     0.1727    22.783     8.129     7.600  0.0000  0.0000  1.0000
 
              Baa    -0.4168  -222.384   -79.352   -74.179 -0.0000  1.0000  0.0000
     2 H(1)   Bbb    -0.4168  -222.384   -79.352   -74.179  1.0000  0.0000  0.0000
              Bcc     0.8336   444.767   158.704   148.358  0.0000  0.0000  1.0000
 

 ---------------------------------------------------------------------------------

 No NMR shielding tensors so no spin-rotation constants.
 Leave Link  601 at Sun Feb 25 20:33:07 2018, MaxMem=  8589934592 cpu:              86.8 elap:               5.6
 (Enter /home1/apps/gaussian/16rA.03/g16/l9999.exe)
 1\1\GINC-C401-001\SP\ROCCSD(T)-Full\Gen\H1Mn1(7)\AANNABE\25-Feb-2018\0
 \\#P ROCCSD(T)=(maxcyc=150, Full, SaveAmplitudes, ReadAmplitudes)/Gen 
 5d 7f SCF=(maxcycles=300) Integral(NoXCTest) MaxDisk=500GB Pop=Regular
  Pseudo=Read Guess=Read\\MnH\\0,7\Mn,0,0.,0.,0.\H,0,0.,0.,1.1\\Version
 =ES64L-G16RevA.03\State=7-SG\HF=-104.0640177\MP2=-104.7125236\PUHF=-10
 4.0640177\PMP2-0=-104.7125236\CCSD=-104.7112005\CCSD(T)=-104.7303593\R
 MSD=7.620e-09\PG=C*V [C*(H1Mn1)]\\@


 LET US PLACE AT THE END OF EVERY CHAPTER.....THE
 TWO LETTERS USED BY THE ROMAN JUDGES WHEN THEY DID
 NOT UNDERSTAND A PLEADING.
 N. L. -NON LIQUET- IT IS NOT CLEAR.
                                              -- VOLTAIRE
 Job cpu time:       0 days  8 hours 42 minutes 28.3 seconds.
 Elapsed time:       0 days  0 hours 32 minutes 49.5 seconds.
 File lengths (MBytes):  RWF=   7810 Int=      0 D2E=      0 Chk=     35 Scr=      1
 Normal termination of Gaussian 16 at Sun Feb 25 20:33:07 2018.
