<?xml version="1.0"?>
<molpro xmlns="http://www.molpro.net/schema/molpro-output"
  xmlns:xsd="http://www.w3.org/1999/XMLSchema"
  xmlns:cml="http://www.xml-cml.org/schema"
  xmlns:stm="http://www.xml-cml.org/schema"
  xmlns:xhtml="http://www.w3.org/1999/xhtml">
 <!--

 Primary working directories    : /tmp/cmelton
 Secondary working directories  : /tmp/cmelton
 Wavefunction directory         : /remote/cmelton/wfu/
 Main file repository           : /tmp/cmelton/

 SHA1      : 4c1979699e6aeda0524d0210415ba82a958648b0
 NAME      : 2012.1.39
 ARCHNAME  : Linux/x86_64
 FC        : /projects/sems/install/rhel6-x86_64/sems/compiler/intel/16.0.1/base/bin/ifort
 FCVERSION : 16.0.1
 BLASLIB   : -L/projects/sems/install/rhel6-x86_64/sems/compiler/intel/16.0.1/base/compilers_and_libraries_2016.1.150/linux/mkl/lib/intel64 -lmkl_intel_ilp64 -lmkl_sequential -lmkl_core
 id        : sandiacon

 Nodes            nprocs
 doppio.sandia.gov    1

 Using customized tuning parameters: mindgm=7; mindgv=16; mindgc=1; mindgr=1; noblas=0; minvec=7
 default implementation of scratch files=df  

 --><job>
  <!--
 ***,Calculation for Be atom, singlet and triplet
 memory,512,m
 gthresh,twoint=1.e-12
 geometry={
 1
 Ti
 Ti  0.0 0.0 0.0
 }
 
 basis={
 Including file /remote/cmelton/data/corrECP/Ti/ae/dkh/basis/aug-cc-pwCV5Z-dk.basis
 }
 
 set,dkroll=1,dkho=10,dkhp=4
 
 Including file /remote/cmelton/data/corrECP/Ti/ae/dkh/basis/states.proc
 
 do i=1,10
    if (i.eq.1) then
       Is2d2
    else if (i.eq.2) then
       Is1d3
    else if (i.eq.3) then
       Id4
    else if (i.eq.4) then
       IIs1d2
    else if (i.eq.5) then
       IId3
    else if (i.eq.6) then
       IIId2
    else if (i.eq.7) then
       IVd1
    else if (i.eq.8) then
       V
    else if (i.eq.9) then
       XI
    else if (i.eq.10) then
       As2d3
    end if
    scf(i)=energy
     _CC_NORM_MAX=2.0
     {rccsd(t),maxit=100;core}
     ccsd(i)=energy
 enddo
 
 table,scf,ccsd
 save
 type,csv

 Variables initialized (782), CPU time= 0.01 sec
 Commands  initialized (547), CPU time= 0.01 sec, 517 directives.
 Default parameters read. Elapsed time= 0.07 sec

 Checking input...
 Passed
1


                                         ***  PROGRAM SYSTEM MOLPRO  ***
                         Copyright, University College Cardiff Consultants Limited, 2008

                                    Version 2012.1 linked Aug  2 2016 14:07:26


 **********************************************************************************************************************************
 LABEL *   Calculation for Be atom, singlet and triplet                                  
 Linux-3.10.0-693.5.2.el7.x86_64/doppio.sandia.gov(x86_64) 64 bit serial version         DATE: 16-Jan-18          TIME: 15:53:40  
 **********************************************************************************************************************************

 SHA1:             4c1979699e6aeda0524d0210415ba82a958648b0
 **********************************************************************************************************************************
  -->
  <!--

 THRESHOLDS:

 ZERO    =  1.00D-12  ONEINT  =  1.00D-12  TWOINT  =  1.00D-12  PREFAC  =  1.00D-14  LOCALI  =  1.00D-09  EORDER  =  1.00D-04
 ENERGY  =  0.00D+00  ETEST   =  0.00D+00  EDENS   =  0.00D+00  THRDEDEF=  1.00D-06  GRADIENT=  1.00D-02  STEP    =  1.00D-03
 ORBITAL =  1.00D-05  CIVEC   =  1.00D-05  COEFF   =  1.00D-04  PRINTCI =  5.00D-02  PUNCHCI =  9.90D+01  OPTGRAD =  3.00D-04
 OPTENERG=  1.00D-06  OPTSTEP =  3.00D-04  THRGRAD =  1.00D-10  COMPRESS=  1.00D-11  VARMIN  =  1.00D-07  VARMAX  =  1.00D-03
 THRDOUB =  0.00D+00  THRDIV  =  1.00D-05  THRRED  =  1.00D-07  THRPSP  =  1.00D+00  THRDC   =  1.00D-10  THRCS   =  1.00D-10
 THRNRM  =  1.00D-08  THREQ   =  0.00D+00  THRDE   =  1.00D+00  THRREF  =  1.00D-05  SPARFAC =  1.00D+00  THRDLP  =  1.00D-07
 THRDIA  =  1.00D-10  THRDLS  =  1.00D-07  THRGPS  =  0.00D+00  THRKEX  =  0.00D+00  THRDIS  =  2.00D-01  THRVAR  =  1.00D-10
 THRLOC  =  1.00D-06  THRGAP  =  1.00D-06  THRLOCT = -1.00D+00  THRGAPT = -1.00D+00  THRORB  =  1.00D-06  THRMLTP =  0.00D+00
 THRCPQCI=  1.00D-10  KEXTA   =  0.00D+00  THRCOARS=  0.00D+00  SYMTOL  =  1.00D-06  GRADTOL =  1.00D-06  THROVL  =  1.00D-08
 THRORTH =  1.00D-08  GRID    =  1.00D-06  GRIDMAX =  1.00D-03  DTMAX   =  0.00D+00  THROCCDE=  1.00D-01  THROCCDE=  1.00D-01



Geometry recognized as XYZ


 Variable memory set to  512000000 words,  buffer space   230000 words

 SETTING BASIS          =    USERDEF
 SETTING DKROLL         =         1.00000000                                  
 SETTING DKHO           =        10.00000000                                  
 SETTING DKHP           =         4.00000000                                  

 DO I                   =         1.00000000   

 Running procedure=IS2D2
  --><jobstep command="RHF-SCF" commandset="SCFPRO">
   <!--


 Recomputing integrals since basis changed


 Using spherical harmonics


1PROGRAM * SEWARD (Integral evaluation for generally contracted gaussian basis sets)     Author: Roland Lindh, 1990

 Geometry written to block  1 of record 700

 Orientation using atomic masses  
 Molecule type: Atom
 Symmetry elements: X,Y,Z
 Rotational constants:       0.0000000      0.0000000      0.0000000 GHz  (calculated with average atomic masses)

 Point group  D2h 


   --><cml:symmetry pointGroup="D2h"/><!--
   --><cml:atomArray>
    <cml:atom id="a1" elementType="Ti" x3="0.0" y3="0.0" z3="0.0"/>
   </cml:atomArray><!--
   --><cml:bondArray>
   </cml:bondArray><!--

 ATOMIC COORDINATES

 NR  ATOM    CHARGE       X              Y              Z

   1  TI     22.00    0.000000000    0.000000000    0.000000000

 NUCLEAR CHARGE:                   22
 NUMBER OF PRIMITIVE AOS:         493
 NUMBER OF SYMMETRY AOS:          345
 NUMBER OF CONTRACTIONS:          345   (  88Ag  +  47B3u +  47B2u +  34B1g +  47B1u +  34B2g +  34B3g +  14Au  )
 NUMBER OF CORE ORBITALS:           9   (   3Ag  +   2B3u +   2B2u +   0B1g +   2B1u +   0B2g +   0B3g +   0Au  )
 NUMBER OF VALENCE ORBITALS:        6   (   3Ag  +   0B3u +   0B2u +   1B1g +   0B1u +   1B2g +   1B3g +   0Au  )


 NUCLEAR REPULSION ENERGY    0.00000000

 One-electron integrals computed with SEWARD

 10nd-order Douglas-Kroll-Hess method activated. McWeeny DKH parametrization is used.

 Computing Douglas-Kroll integrals

 AO integral compression algorithm  1   Integral accuracy      1.0D-12

     829.161 MB (compressed) written to integral file ( 32.3%)


 NUMBER OF SORTED TWO-ELECTRON INTEGRALS:  228231103.     BUFFER LENGTH:  32768
 NUMBER OF SEGMENTS:   8  SEGMENT LENGTH:   31998948      RECORD LENGTH: 524288

 Memory used in sort:      32.56 MW

 SORT1 READ   320603050. AND WROTE   109642323. INTEGRALS IN    317 RECORDS. CPU TIME:     7.42 SEC, REAL TIME:     8.49 SEC
 SORT2 READ   109642323. AND WROTE   228231103. INTEGRALS IN   3163 RECORDS. CPU TIME:     2.70 SEC, REAL TIME:     3.31 SEC

 FILE SIZES:   FILE 1:   840.1 MBYTE,  FILE 4:  1329.6 MBYTE,   TOTAL:   2169.7 MBYTE

 OPERATOR DM      FOR CENTER  0  COORDINATES:    0.000000    0.000000    0.000000

 EXTRA SYMMETRY OF AOS IN SYMMETRY 1:   1 1 1 1 1 1 1 1 1 1   1 1 1 1 1 1 1 1 1 1   1 1 1 1 1 1 1 1 1 1   1 2 3 2 3 2 3 2 3 2
                                        3 2 3 2 3 2 3 2 3 2   3 2 3 2 3 2 3 2 3 2   3 4 5 6 4 5 6 4 5 6   4 5 6 4 5 6 7 8 910
                                        7 8 910 7 8 910
 EXTRA SYMMETRY OF AOS IN SYMMETRY 2:   1 1 1 1 1 1 1 1 1 1   1 1 1 1 1 1 1 1 1 1   1 1 1 2 3 2 3 2 3 2   3 2 3 2 3 4 5 6 4 5
                                        6 4 5 6 4 5 6
 EXTRA SYMMETRY OF AOS IN SYMMETRY 3:   1 1 1 1 1 1 1 1 1 1   1 1 1 1 1 1 1 1 1 1   1 1 1 2 3 2 3 2 3 2   3 2 3 2 3 4 5 6 4 5
                                        6 4 5 6 4 5 6
 EXTRA SYMMETRY OF AOS IN SYMMETRY 4:   1 1 1 1 1 1 1 1 1 1   1 1 1 1 1 2 3 2 3 2   3 2 3 2 3 4 5 6 4 5   6 4 5 6
 EXTRA SYMMETRY OF AOS IN SYMMETRY 5:   1 1 1 1 1 1 1 1 1 1   1 1 1 1 1 1 1 1 1 1   1 1 1 2 3 2 3 2 3 2   3 2 3 2 3 4 5 6 4 5
                                        6 4 5 6 4 5 6
 EXTRA SYMMETRY OF AOS IN SYMMETRY 6:   1 1 1 1 1 1 1 1 1 1   1 1 1 1 1 2 3 2 3 2   3 2 3 2 3 4 5 6 4 5   6 4 5 6
 EXTRA SYMMETRY OF AOS IN SYMMETRY 7:   1 1 1 1 1 1 1 1 1 1   1 1 1 1 1 2 3 2 3 2   3 2 3 2 3 4 5 6 4 5   6 4 5 6
 EXTRA SYMMETRY OF AOS IN SYMMETRY 8:   1 1 1 1 1 1 2 3 2 3   2 3 2 3

 Eigenvalues of metric

         1 0.208E-06 0.316E-05 0.995E-05 0.995E-05 0.332E-04 0.105E-03 0.262E-03 0.505E-03
         2 0.116E-05 0.136E-04 0.226E-03 0.804E-03 0.224E-02 0.505E-02 0.987E-02 0.177E-01
         3 0.116E-05 0.136E-04 0.226E-03 0.804E-03 0.224E-02 0.505E-02 0.987E-02 0.177E-01
         4 0.995E-05 0.505E-03 0.718E-02 0.193E-01 0.471E-01 0.901E-01 0.141E+00 0.141E+00
         5 0.116E-05 0.136E-04 0.226E-03 0.804E-03 0.224E-02 0.505E-02 0.987E-02 0.177E-01
         6 0.995E-05 0.505E-03 0.718E-02 0.193E-01 0.471E-01 0.901E-01 0.141E+00 0.141E+00
         7 0.995E-05 0.505E-03 0.718E-02 0.193E-01 0.471E-01 0.901E-01 0.141E+00 0.141E+00
         8 0.786E-01 0.273E+00 0.321E+00 0.321E+00 0.538E+00 0.661E+00 0.661E+00 0.106E+01


 **********************************************************************************************************************************
 DATASETS  * FILE   NREC   LENGTH (MB)   RECORD NAMES
              1      23      517.28       500      610      700      900      950      970     1000      129      960     1700   
                                          VAR    BASINP    GEOM    SYMINP    ZMAT    AOBASIS   BASIS     P2S    ABASIS    OPER   
                                         1101     1401     1411     1412     1650     1100     1400     1410     1200     1210   
                                          SR      EKINR    POTR     PVPR    MOLCAS      S      EKIN      POT      H0       H01  
                                         1300     1080     1600   
                                         ERIS     AOSYM     SMH  

 PROGRAMS   *        TOTAL       INT
 CPU TIMES  *       105.70    105.56
 REAL TIME  *       109.05 SEC
 DISK USED  *         2.17 GB      
 **********************************************************************************************************************************

1PROGRAM * RHF-SCF (OPEN SHELL)       Authors: W. Meyer, H.-J. Werner


 NUMBER OF ELECTRONS:      12+   10-    SPACE SYMMETRY=1    SPIN SYMMETRY: Triplet 
 CONVERGENCE THRESHOLDS:    1.00E-05 (Density)    1.00E-07 (Energy)
 MAX. NUMBER OF ITERATIONS:       60
 INTERPOLATION TYPE:            DIIS
 INTERPOLATION STEPS:              2 (START)      1 (STEP)
 LEVEL SHIFTS:                 -0.30 (CLOSED)  0.00 (OPEN) 


 Singly occupied orbitals:      5.1       6.1
 
 Extra symmetries of mos in symmetry 1:   1   1   1   1   3   2
 Orbital guess generated from atomic densities. Full valence occupancy:    6   2   2   1   2   1   1   0


 Molecular orbital dump at record        4202.2

 ITERATION    DDIFF          GRAD             ENERGY        2-EL.EN.            DIPOLE MOMENTS         DIIS   ORB.
    1      0.000D+00      0.000D+00      -852.66808204    623.015674    0.00000    0.00000    0.00000    0    start
    2      0.000D+00      0.733D-02      -852.74464313    633.457666    0.00000    0.00000    0.00000    1    diag,B
    3      0.224D-02      0.417D-02      -852.75319709    631.773482    0.00000    0.00000    0.00000    2    diag,B
    4      0.972D-03      0.135D-02      -852.75588923    631.980081    0.00000    0.00000    0.00000    3    diag,B
    5      0.705D-03      0.660D-03      -852.75661878    631.807606    0.00000    0.00000    0.00000    4    diag,B
    6      0.665D-03      0.118D-03      -852.75668116    631.779623    0.00000    0.00000    0.00000    5    diag,B
    7      0.386D-03      0.523D-04      -852.75669632    631.722923    0.00000    0.00000    0.00000    6    fixocc
    8      0.297D-03      0.181D-04      -852.75669827    631.710522    0.00000    0.00000    0.00000    7    diag,B
    9      0.138D-03      0.609D-05      -852.75669853    631.706698    0.00000    0.00000    0.00000    8    diag,B
   10      0.959D-04      0.195D-05      -852.75669856    631.706072    0.00000    0.00000    0.00000    9    orth
   11      0.350D-04      0.604D-06      -852.75669856    631.705843    0.00000    0.00000    0.00000    9    diag,B
   12      0.982D-05      0.221D-06      -852.75669857    631.705926    0.00000    0.00000    0.00000    0    orth

 Final alpha occupancy:   6   2   2   0   2   0   0   0
 Final beta  occupancy:   4   2   2   0   2   0   0   0

 !RHF STATE 1.1 Energy               -852.756698565161
   --><property name="Energy" method="RHF" principal="true" stateSymmetry="1" stateNumber="1"
     value="-852.756698565161"/><!--
 Nuclear energy                         0.00000000
 One-electron energy                -1168.60966134
 Two-electron energy                  315.85296278
 Virial quotient                       -0.96989860
 !RHF STATE 1.1 Dipole moment           0.00000000     0.00000000     0.00000000
 Dipole moment /Debye                   0.00000000     0.00000000     0.00000000
   --><property name="Dipole moment" method="RHF" principal="true" stateSymmetry="1"
     stateNumber="1" value="0.0 0.0 0.0"/><!--

 ELECTRON ORBITALS
 =================


   Orb  Occ    Energy  Couls-En    Coefficients

                                   1 1s      1 1s      1 1s      1 1s      1 1s      1 1s      1 1s      1 1s      1 1s      1 1s   
                                   1 1s      1 1s      1 1s      1 1s      1 1s      1 1s      1 1s      1 1s      1 1s      1 1s   
                                   1 1s      1 1s      1 1s      1 1s      1 1s      1 1s      1 1s      1 1s      1 1s      1 1s   
                                   1 1s      1 3d0     1 3d2+    1 3d0     1 3d2+    1 3d0     1 3d2+    1 3d0     1 3d2+    1 3d0  
                                   1 3d2+    1 3d0     1 3d2+    1 3d0     1 3d2+    1 3d0     1 3d2+    1 3d0     1 3d2+    1 3d0  
                                   1 3d2+    1 3d0     1 3d2+    1 3d0     1 3d2+    1 3d0     1 3d2+    1 3d0     1 3d2+    1 3d0  
                                   1 3d2+    1 5g0     1 5g4+    1 5g2+    1 5g0     1 5g4+    1 5g2+    1 5g0     1 5g4+    1 5g2+ 
                                   1 5g0     1 5g4+    1 5g2+    1 5g0     1 5g4+    1 5g2+    1 7i6+    1 7i4+    1 7i2+    1 7i0  
                                   1 7i6+    1 7i4+    1 7i2+    1 7i0     1 7i6+    1 7i4+    1 7i2+    1 7i0  

   1.1   2  -184.4016 -427.8387  0.000007  0.000018  0.000051  0.000121  0.000274  0.000589  0.001250  0.002657  0.005742  0.012596
                                 0.027619  0.058655  0.115894  0.201553  0.282520  0.272945  0.143570  0.029270  0.002519 -0.000486
                                -0.001353  0.000642  0.000265 -0.000051  0.000013 -0.000006  0.000003 -0.000001  0.001722 -0.000656
                                 0.000000 -0.000000 -0.000000  0.000000 -0.000000 -0.000000  0.000000  0.000000  0.000000 -0.000000
                                -0.000000 -0.000000  0.000000 -0.000000  0.000000  0.000000 -0.000000 -0.000000  0.000000  0.000000
                                -0.000000 -0.000000 -0.000000  0.000000  0.000000  0.000000  0.000000  0.000000 -0.000000 -0.000000
                                -0.000000  0.000001  0.000001 -0.000000 -0.000000 -0.000000  0.000000  0.000000  0.000000 -0.000000
                                -0.000000 -0.000000  0.000000  0.000000  0.000000 -0.000000 -0.000000 -0.000000 -0.000000  0.000000
                                 0.000000  0.000000  0.000000 -0.000000 -0.000000 -0.000000 -0.000000  0.000000

   2.1   2   -21.6490  -80.9189 -0.000002 -0.000005 -0.000015 -0.000036 -0.000082 -0.000176 -0.000375 -0.000798 -0.001733 -0.003831
                                -0.008518 -0.018579 -0.038587 -0.073681 -0.122557 -0.156750 -0.101815  0.101830  0.393943  0.469133
                                 0.206323  0.010817 -0.003653  0.001489 -0.000274  0.000150 -0.000069  0.000030 -0.017541  0.012076
                                -0.000008  0.000000  0.000000 -0.000000 -0.000000  0.000000  0.000000 -0.000000  0.000000  0.000000
                                 0.000000  0.000000  0.000000  0.000000  0.000000 -0.000000 -0.000000  0.000000  0.000000 -0.000000
                                -0.000000  0.000000  0.000000 -0.000000 -0.000000 -0.000000 -0.000000 -0.000000 -0.000000  0.000000
                                -0.000000  0.000051  0.000043 -0.000000  0.000091  0.000077  0.000000  0.000014  0.000012 -0.000000
                                 0.000006  0.000005 -0.000000 -0.000001 -0.000001 -0.000000 -0.000000 -0.000000 -0.000000  0.000000
                                 0.000000 -0.000000  0.000000  0.000000  0.000000 -0.000000 -0.000000  0.000000

   3.1   2    -2.9047  -25.1935  0.000001  0.000002  0.000005  0.000013  0.000029  0.000063  0.000134  0.000286  0.000621  0.001373
                                 0.003058  0.006690  0.013969  0.026969  0.045755  0.060685  0.041207 -0.045230 -0.212773 -0.373667
                                -0.199055  0.319424  0.621990  0.340968  0.035197 -0.001583  0.000552 -0.000178  0.013665 -0.009585
                                 0.000040 -0.000000 -0.000000  0.000000 -0.000000 -0.000000 -0.000000  0.000000 -0.000000 -0.000000
                                -0.000000 -0.000000 -0.000000 -0.000000 -0.000000  0.000000  0.000000 -0.000000  0.000000  0.000000
                                 0.000000 -0.000000  0.000000  0.000000 -0.000000  0.000000  0.000000  0.000000  0.000000 -0.000000
                                 0.000000  0.000237  0.000200  0.000000  0.000151  0.000128  0.000000  0.001075  0.000909  0.000000
                                 0.000394  0.000333 -0.000000 -0.000042 -0.000036 -0.000000 -0.000000 -0.000002  0.000000  0.000001
                                -0.000000 -0.000006 -0.000000  0.000002 -0.000000 -0.000002 -0.000000  0.000001

   4.1   2    -0.2224   -7.0475 -0.000000 -0.000000 -0.000001 -0.000003 -0.000007 -0.000015 -0.000031 -0.000067 -0.000145 -0.000320
                                -0.000712 -0.001561 -0.003258 -0.006309 -0.010707 -0.014318 -0.009675  0.010602  0.053074  0.093607
                                 0.040020 -0.083886 -0.203845 -0.251202 -0.034545  0.412084  0.596408  0.182251  0.006807 -0.018665
                                 0.000445 -0.000000 -0.000000 -0.000000 -0.000000 -0.000000 -0.000000 -0.000000 -0.000000  0.000000
                                -0.000000  0.000000 -0.000000  0.000000 -0.000000 -0.000000 -0.000000  0.000000 -0.000000 -0.000000
                                -0.000000  0.000000 -0.000000 -0.000000  0.000000 -0.000000  0.000000 -0.000000  0.000000  0.000000
                                -0.000000  0.000006  0.000005  0.000000  0.000239  0.000202  0.000000  0.000078  0.000066  0.000000
                                -0.000381 -0.000322  0.000000 -0.000169 -0.000143 -0.000000  0.000000  0.000000  0.000000 -0.000000
                                 0.000000 -0.000003  0.000000  0.000001  0.000000 -0.000005  0.000000  0.000002

   5.1   +    -0.4342  -16.4002 -0.000000  0.000000  0.000000 -0.000000 -0.000000 -0.000000 -0.000000 -0.000000 -0.000000 -0.000000
                                -0.000000 -0.000000 -0.000000 -0.000000 -0.000000 -0.000000  0.000000 -0.000000  0.000000 -0.000000
                                -0.000000  0.000000  0.000000 -0.000000  0.000000  0.000000  0.000000  0.000000  0.000000 -0.000000
                                -0.000000 -0.000004  0.000238 -0.000038  0.002123 -0.000196  0.010904 -0.000663  0.036941 -0.001734
                                 0.096645 -0.003404  0.189720 -0.004989  0.278078 -0.005656  0.315270 -0.004701  0.262047 -0.002401
                                 0.133808 -0.000489  0.027248 -0.000004  0.000230 -0.000022  0.001239 -0.000026  0.001428 -0.000002
                                 0.000114 -0.000009  0.000010 -0.000741 -0.000017  0.000020 -0.001450 -0.000044  0.000052 -0.003811
                                -0.000035  0.000041 -0.003028 -0.000001  0.000001 -0.000082 -0.000017  0.000000 -0.000011  0.000000
                                -0.000018  0.000000 -0.000012  0.000000  0.000004 -0.000000  0.000003 -0.000000

   6.1   +    -0.4342  -16.4002  0.000000 -0.000000 -0.000000  0.000000  0.000000 -0.000000  0.000000 -0.000000  0.000000 -0.000000
                                 0.000000 -0.000000  0.000000 -0.000000  0.000000 -0.000000  0.000000 -0.000000  0.000000 -0.000000
                                -0.000000  0.000000  0.000000 -0.000000  0.000000 -0.000000  0.000000 -0.000000  0.000000 -0.000000
                                 0.000000 -0.000238 -0.000004 -0.002123 -0.000038 -0.010904 -0.000196 -0.036941 -0.000663 -0.096645
                                -0.001734 -0.189720 -0.003404 -0.278078 -0.004989 -0.315270 -0.005656 -0.262047 -0.004701 -0.133808
                                -0.002401 -0.027248 -0.000489 -0.000230 -0.000004 -0.001239 -0.000022 -0.001428 -0.000026 -0.000114
                                -0.000002 -0.000478  0.000566  0.000013 -0.000936  0.001108  0.000026 -0.002460  0.002911  0.000068
                                -0.001955  0.002313  0.000054 -0.000053  0.000063  0.000001  0.000000  0.000007  0.000000  0.000019
                                 0.000000  0.000008  0.000000  0.000020 -0.000000 -0.000002 -0.000000 -0.000004

   7.1   0     0.0203   -1.9984  0.000000  0.000000  0.000000  0.000001  0.000001  0.000003  0.000007  0.000013  0.000034  0.000057
                                 0.000178  0.000253  0.000874  0.000860  0.003365  0.000348  0.008452 -0.018638  0.038388 -0.283051
                                -0.904778  1.153915  1.353788 -0.522516  0.624273 -1.034339  1.498379 -3.009170  0.813915 -1.811007
                                 2.676159  0.000000  0.000000 -0.000000  0.000000  0.000000  0.000000 -0.000000 -0.000000  0.000000
                                 0.000000  0.000000  0.000000  0.000000  0.000000 -0.000000 -0.000000  0.000000  0.000000 -0.000000
                                -0.000000  0.000000  0.000000 -0.000000 -0.000000 -0.000000 -0.000000 -0.000000 -0.000000  0.000000
                                 0.000000  0.000017  0.000014 -0.000000  0.000003  0.000003 -0.000000 -0.000258 -0.000218 -0.000000
                                -0.000350 -0.000296 -0.000000 -0.000203 -0.000172  0.000000 -0.000000 -0.000000  0.000000  0.000000
                                 0.000000  0.000002  0.000000 -0.000001 -0.000000  0.000003 -0.000000 -0.000001

   8.1   0     0.0351   -1.6925  0.000000  0.000000 -0.000000  0.000000 -0.000000  0.000000 -0.000000  0.000000 -0.000000  0.000000
                                -0.000000  0.000000 -0.000000  0.000000 -0.000000  0.000000 -0.000000  0.000000 -0.000000  0.000000
                                 0.000000 -0.000000 -0.000000  0.000000 -0.000000  0.000000 -0.000000  0.000000 -0.000000  0.000000
                                -0.000000  0.000001 -0.000001  0.000052 -0.000059  0.000041 -0.000046  0.001125 -0.001266 -0.003814
                                 0.004292 -0.083398  0.093851 -0.046925  0.052807  0.032341 -0.036394 -0.033821  0.038060  0.068513
                                -0.077101 -0.149427  0.168156  0.348894 -0.392625  0.049230 -0.055400  0.079035 -0.088941 -0.858661
                                 0.966286  0.000006 -0.000007  0.000011  0.000012 -0.000015  0.000021  0.000022 -0.000027  0.000039
                                 0.000008 -0.000009  0.000014  0.000038 -0.000044  0.000065  0.000000 -0.000000  0.000000 -0.000000
                                 0.000002 -0.000001  0.000001 -0.000002 -0.000012  0.000005 -0.000008  0.000012

                                   1 2px     1 2px     1 2px     1 2px     1 2px     1 2px     1 2px     1 2px     1 2px     1 2px  
                                   1 2px     1 2px     1 2px     1 2px     1 2px     1 2px     1 2px     1 2px     1 2px     1 2px  
                                   1 2px     1 2px     1 2px     1 4f1+    1 4f3+    1 4f1+    1 4f3+    1 4f1+    1 4f3+    1 4f1+ 
                                   1 4f3+    1 4f1+    1 4f3+    1 4f1+    1 4f3+    1 6h1+    1 6h3+    1 6h5+    1 6h1+    1 6h3+ 
                                   1 6h5+    1 6h1+    1 6h3+    1 6h5+    1 6h1+    1 6h3+    1 6h5+ 

   1.2   2   -17.8163  -76.1127  0.000016  0.000055  0.000227  0.000821  0.002819  0.008816  0.025078  0.063318  0.135179  0.229202
                                 0.299337  0.270552  0.134414  0.026820  0.001684  0.000397 -0.000002  0.000015 -0.000011  0.000004
                                -0.000400  0.000291 -0.000001 -0.000142  0.000183 -0.000176  0.000227 -0.000107  0.000139 -0.000023
                                 0.000030 -0.000005  0.000007  0.000001 -0.000001 -0.000016  0.000002 -0.000016  0.000026 -0.000005
                                 0.000028 -0.000003  0.000000 -0.000003  0.000001 -0.000000  0.000001

   2.2   2    -1.7970  -22.3400 -0.000006 -0.000019 -0.000078 -0.000283 -0.000973 -0.003056 -0.008785 -0.022570 -0.049590 -0.086661
                                -0.119146 -0.106651  0.023250  0.244226  0.403297  0.341174  0.117545  0.009556  0.000771  0.000016
                                -0.003206  0.006382  0.000014 -0.000583  0.000752 -0.001423  0.001836 -0.002762  0.003566 -0.002426
                                 0.003132 -0.000484  0.000625  0.000058 -0.000074 -0.000128  0.000018 -0.000132 -0.000225  0.000025
                                -0.000229  0.000083 -0.000029  0.000093  0.000024 -0.000007  0.000026

   3.2   0     0.0136   -2.9046  0.000000  0.000001  0.000007  0.000021  0.000086  0.000223  0.000785  0.001622  0.004631  0.005269
                                 0.016274 -0.041216 -0.083928  0.132304  0.103168 -0.111570  0.062189 -0.024231  0.373600 -0.260968
                                 0.091133 -0.223753  1.019986  0.000044 -0.000057  0.000049 -0.000064 -0.000111  0.000144 -0.001215
                                 0.001569 -0.001403  0.001811 -0.000273  0.000353 -0.000010  0.000002 -0.000010  0.000022 -0.000005
                                 0.000023  0.000042 -0.000016  0.000048 -0.000133  0.000011 -0.000134

   4.2   0     0.0467   -3.2458 -0.000001 -0.000002 -0.000008 -0.000039 -0.000091 -0.000431 -0.000801 -0.003281 -0.003986 -0.015688
                                 0.005806 -0.165338 -0.243913  0.507858  0.489140 -0.162126  0.223000 -0.448983  0.461716 -1.961477
                                 0.277373 -0.680425  1.582131 -0.000063  0.000082 -0.000071  0.000092  0.000162 -0.000209  0.001742
                                -0.002249  0.002052 -0.002649  0.000823 -0.001062  0.000014 -0.000003  0.000015 -0.000033  0.000007
                                -0.000035 -0.000053  0.000021 -0.000061  0.000171 -0.000013  0.000172

                                   1 2py     1 2py     1 2py     1 2py     1 2py     1 2py     1 2py     1 2py     1 2py     1 2py  
                                   1 2py     1 2py     1 2py     1 2py     1 2py     1 2py     1 2py     1 2py     1 2py     1 2py  
                                   1 2py     1 2py     1 2py     1 4f1-    1 4f3-    1 4f1-    1 4f3-    1 4f1-    1 4f3-    1 4f1- 
                                   1 4f3-    1 4f1-    1 4f3-    1 4f1-    1 4f3-    1 6h1-    1 6h3-    1 6h5-    1 6h1-    1 6h3- 
                                   1 6h5-    1 6h1-    1 6h3-    1 6h5-    1 6h1-    1 6h3-    1 6h5- 

   1.3   2   -17.8163  -76.1127  0.000016  0.000055  0.000227  0.000821  0.002819  0.008816  0.025078  0.063318  0.135179  0.229202
                                 0.299337  0.270552  0.134414  0.026820  0.001684  0.000397 -0.000002  0.000015 -0.000011  0.000004
                                -0.000400  0.000291 -0.000001 -0.000142 -0.000183 -0.000176 -0.000227 -0.000107 -0.000139 -0.000023
                                -0.000030 -0.000005 -0.000007  0.000001  0.000001 -0.000016 -0.000002 -0.000016  0.000026  0.000005
                                 0.000028 -0.000003 -0.000000 -0.000003  0.000001  0.000000  0.000001

   2.3   2    -1.7970  -22.3400 -0.000006 -0.000019 -0.000078 -0.000283 -0.000973 -0.003056 -0.008785 -0.022570 -0.049590 -0.086661
                                -0.119146 -0.106651  0.023250  0.244226  0.403297  0.341174  0.117545  0.009556  0.000771  0.000016
                                -0.003206  0.006382  0.000014 -0.000583 -0.000752 -0.001423 -0.001836 -0.002762 -0.003566 -0.002426
                                -0.003132 -0.000484 -0.000625  0.000058  0.000074 -0.000128 -0.000018 -0.000132 -0.000225 -0.000025
                                -0.000229  0.000083  0.000029  0.000093  0.000024  0.000007  0.000026

   3.3   0     0.0136   -2.9046  0.000000  0.000001  0.000007  0.000021  0.000086  0.000223  0.000785  0.001622  0.004631  0.005269
                                 0.016274 -0.041216 -0.083928  0.132304  0.103168 -0.111570  0.062189 -0.024231  0.373600 -0.260968
                                 0.091133 -0.223753  1.019986  0.000044  0.000057  0.000049  0.000064 -0.000111 -0.000144 -0.001215
                                -0.001569 -0.001403 -0.001811 -0.000273 -0.000353 -0.000010 -0.000002 -0.000010  0.000022  0.000005
                                 0.000023  0.000042  0.000016  0.000048 -0.000133 -0.000011 -0.000134

   4.3   0     0.0467   -3.2458 -0.000001 -0.000002 -0.000008 -0.000039 -0.000091 -0.000431 -0.000801 -0.003281 -0.003986 -0.015688
                                 0.005806 -0.165338 -0.243913  0.507858  0.489140 -0.162126  0.223000 -0.448983  0.461716 -1.961477
                                 0.277373 -0.680425  1.582131 -0.000063 -0.000082 -0.000071 -0.000092  0.000162  0.000209  0.001742
                                 0.002249  0.002052  0.002649  0.000823  0.001062  0.000014  0.000003  0.000015 -0.000033 -0.000007
                                -0.000035 -0.000053 -0.000021 -0.000061  0.000171  0.000013  0.000172

                                   1 3d2-    1 3d2-    1 3d2-    1 3d2-    1 3d2-    1 3d2-    1 3d2-    1 3d2-    1 3d2-    1 3d2- 
                                   1 3d2-    1 3d2-    1 3d2-    1 3d2-    1 3d2-    1 5g2-    1 5g4-    1 5g2-    1 5g4-    1 5g2- 
                                   1 5g4-    1 5g2-    1 5g4-    1 5g2-    1 5g4-    1 7i2-    1 7i6-    1 7i4-    1 7i2-    1 7i6- 
                                   1 7i4-    1 7i2-    1 7i6-    1 7i4- 

   1.4   0     0.0348   -1.7321  0.000011  0.000026  0.000474  0.000144  0.010364  0.132677  0.083165 -0.031755  0.065663 -0.088148
                                 0.231431 -0.506373 -0.072782 -0.116870  1.278508 -0.000012 -0.000000 -0.000023 -0.000000 -0.000081
                                -0.000000 -0.000090 -0.000000  0.000028 -0.000000 -0.000000  0.000000  0.000000  0.000000  0.000002
                                -0.000000 -0.000014 -0.000022  0.000000

   2.4   0     0.0950   -4.4910  0.000057  0.000643  0.002642  0.011767  0.011179 -0.196957 -0.070211  0.174006 -0.009781  0.322674
                                -0.319919  1.500673  0.142227  0.228771 -0.852815 -0.000115  0.000000 -0.000222 -0.000000 -0.000719
                                 0.000000 -0.000750 -0.000000 -0.000020 -0.000000 -0.000001  0.000001  0.000000 -0.000006  0.000002
                                -0.000000 -0.000089 -0.000140 -0.000000

                                   1 2pz     1 2pz     1 2pz     1 2pz     1 2pz     1 2pz     1 2pz     1 2pz     1 2pz     1 2pz  
                                   1 2pz     1 2pz     1 2pz     1 2pz     1 2pz     1 2pz     1 2pz     1 2pz     1 2pz     1 2pz  
                                   1 2pz     1 2pz     1 2pz     1 4f0     1 4f2+    1 4f0     1 4f2+    1 4f0     1 4f2+    1 4f0  
                                   1 4f2+    1 4f0     1 4f2+    1 4f0     1 4f2+    1 6h2+    1 6h4+    1 6h0     1 6h2+    1 6h4+ 
                                   1 6h0     1 6h2+    1 6h4+    1 6h0     1 6h2+    1 6h4+    1 6h0  

   1.5   2   -17.8163  -76.1127  0.000016  0.000055  0.000227  0.000821  0.002819  0.008816  0.025078  0.063318  0.135179  0.229202
                                 0.299337  0.270552  0.134414  0.026820  0.001684  0.000397 -0.000002  0.000015 -0.000011  0.000004
                                -0.000400  0.000291 -0.000001  0.000231  0.000000  0.000287 -0.000000  0.000175  0.000000  0.000037
                                -0.000000  0.000009  0.000000 -0.000001 -0.000000 -0.000000 -0.000011 -0.000020  0.000000  0.000017
                                 0.000035 -0.000000 -0.000002 -0.000003  0.000000  0.000001  0.000002

   2.5   2    -1.7970  -22.3400 -0.000006 -0.000019 -0.000078 -0.000283 -0.000973 -0.003056 -0.008785 -0.022570 -0.049590 -0.086661
                                -0.119146 -0.106651  0.023250  0.244226  0.403297  0.341174  0.117545  0.009556  0.000771  0.000016
                                -0.003206  0.006382  0.000014  0.000952 -0.000000  0.002323  0.000000  0.004511 -0.000000  0.003962
                                -0.000000  0.000790  0.000000 -0.000094 -0.000000  0.000000 -0.000085 -0.000164 -0.000000 -0.000154
                                -0.000282 -0.000000  0.000043  0.000120 -0.000000  0.000013  0.000033

   3.5   0     0.0136   -2.9046  0.000000  0.000001  0.000007  0.000021  0.000086  0.000223  0.000785  0.001622  0.004631  0.005269
                                 0.016274 -0.041216 -0.083928  0.132304  0.103168 -0.111570  0.062189 -0.024231  0.373600 -0.260968
                                 0.091133 -0.223753  1.019986 -0.000072 -0.000000 -0.000080 -0.000000  0.000182 -0.000000  0.001984
                                -0.000000  0.002291 -0.000000  0.000446  0.000000  0.000000 -0.000006 -0.000013  0.000000  0.000013
                                 0.000029 -0.000000  0.000021  0.000062  0.000000 -0.000094 -0.000164

   4.5   0     0.0467   -3.2458 -0.000001 -0.000002 -0.000008 -0.000039 -0.000091 -0.000431 -0.000801 -0.003281 -0.003986 -0.015688
                                 0.005806 -0.165338 -0.243913  0.507858  0.489140 -0.162126  0.223000 -0.448983  0.461716 -1.961477
                                 0.277373 -0.680425  1.582131  0.000104 -0.000000  0.000116  0.000000 -0.000264 -0.000000 -0.002845
                                 0.000000 -0.003351 -0.000000 -0.001343  0.000000  0.000000  0.000009  0.000019  0.000000 -0.000020
                                -0.000044  0.000000 -0.000026 -0.000079  0.000000  0.000121  0.000210

                                   1 3d1+    1 3d1+    1 3d1+    1 3d1+    1 3d1+    1 3d1+    1 3d1+    1 3d1+    1 3d1+    1 3d1+ 
                                   1 3d1+    1 3d1+    1 3d1+    1 3d1+    1 3d1+    1 5g1+    1 5g3+    1 5g1+    1 5g3+    1 5g1+ 
                                   1 5g3+    1 5g1+    1 5g3+    1 5g1+    1 5g3+    1 7i5+    1 7i3+    1 7i1+    1 7i5+    1 7i3+ 
                                   1 7i1+    1 7i5+    1 7i3+    1 7i1+ 

   1.6   0     0.0348   -1.7321  0.000011  0.000026  0.000474  0.000144  0.010364  0.132677  0.083165 -0.031755  0.065663 -0.088148
                                 0.231431 -0.506373 -0.072782 -0.116870  1.278508  0.000004  0.000011  0.000008  0.000022  0.000028
                                 0.000075  0.000032  0.000085 -0.000010 -0.000026  0.000000 -0.000000  0.000000  0.000000 -0.000001
                                 0.000001 -0.000014  0.000003 -0.000023

   2.6   0     0.0950   -4.4910  0.000057  0.000643  0.002642  0.011767  0.011179 -0.196957 -0.070211  0.174006 -0.009781  0.322674
                                -0.319919  1.500673  0.142227  0.228771 -0.852815  0.000041  0.000107  0.000079  0.000208  0.000254
                                 0.000673  0.000265  0.000702  0.000007  0.000018 -0.000000 -0.000001  0.000001 -0.000004 -0.000004
                                 0.000001 -0.000087  0.000015 -0.000141

                                   1 3d1-    1 3d1-    1 3d1-    1 3d1-    1 3d1-    1 3d1-    1 3d1-    1 3d1-    1 3d1-    1 3d1- 
                                   1 3d1-    1 3d1-    1 3d1-    1 3d1-    1 3d1-    1 5g1-    1 5g3-    1 5g1-    1 5g3-    1 5g1- 
                                   1 5g3-    1 5g1-    1 5g3-    1 5g1-    1 5g3-    1 7i5-    1 7i3-    1 7i1-    1 7i5-    1 7i3- 
                                   1 7i1-    1 7i5-    1 7i3-    1 7i1- 

   1.7   0     0.0348   -1.7321  0.000011  0.000026  0.000474  0.000144  0.010364  0.132677  0.083165 -0.031755  0.065663 -0.088148
                                 0.231431 -0.506373 -0.072782 -0.116870  1.278508  0.000004 -0.000011  0.000008 -0.000022  0.000028
                                -0.000075  0.000032 -0.000085 -0.000010  0.000026  0.000000  0.000000  0.000000  0.000000  0.000001
                                 0.000001 -0.000014 -0.000003 -0.000023

   2.7   0     0.0950   -4.4910  0.000057  0.000643  0.002642  0.011767  0.011179 -0.196957 -0.070211  0.174006 -0.009781  0.322674
                                -0.319919  1.500673  0.142227  0.228771 -0.852815  0.000041 -0.000107  0.000079 -0.000208  0.000254
                                -0.000673  0.000265 -0.000702  0.000007 -0.000018 -0.000000  0.000001  0.000001 -0.000004  0.000004
                                 0.000001 -0.000087 -0.000015 -0.000141

                                   1 4f2-    1 4f2-    1 4f2-    1 4f2-    1 4f2-    1 4f2-    1 6h4-    1 6h2-    1 6h4-    1 6h2- 
                                   1 6h4-    1 6h2-    1 6h4-    1 6h2- 

   1.8   0     0.1688   -2.7379 -0.001175  0.005211 -0.014467  0.039405 -0.129743  1.055879  0.000000 -0.000000 -0.000000 -0.000000
                                 0.000000 -0.000000 -0.000000  0.000000

   2.8   0     0.5447   -4.4030  0.005363 -0.015964  0.068423 -0.116370  1.197631 -0.483581 -0.000000  0.000000  0.000000 -0.000000
                                -0.000000  0.000000 -0.000000 -0.000000

 HOMO      6.1    -0.434174 =     -11.8145eV
 LUMO      3.2     0.013625 =       0.3708eV
 LUMO-HOMO         0.447799 =      12.1852eV


 **********************************************************************************************************************************
 DATASETS  * FILE   NREC   LENGTH (MB)   RECORD NAMES
              1      23      517.28       500      610      700      900      950      970     1000      129      960     1700   
                                          VAR    BASINP    GEOM    SYMINP    ZMAT    AOBASIS   BASIS     P2S    ABASIS    OPER   
                                         1101     1401     1411     1412     1650     1100     1400     1410     1200     1210   
                                          SR      EKINR    POTR     PVPR    MOLCAS      S      EKIN      POT      H0       H01  
                                         1300     1080     1600   
                                         ERIS     AOSYM     SMH  

              2       5        5.91       200      700     1000      520     4202   
                                        OPTIONS   GEOM     BASIS   MCVARS     RHF  

 PROGRAMS   *        TOTAL       RHF       INT
 CPU TIMES  *       111.66      5.96    105.56
 REAL TIME  *       115.54 SEC
 DISK USED  *         2.17 GB      
 **********************************************************************************************************************************
   -->
   <time start="15:53:40" end="15:55:35" cpu="111.66" system="3.46" real="115.54"/>
   <storage units="megabyte" memory="4097.84" sf="0.0" df="2172.66" eaf="0.0"/>
  </jobstep><!--
  --><jobstep command="POP" commandset="POP">
   <!--

1PROGRAM * POP (Mulliken population analysis)

 
 Density matrix read from record         4202.2  Type=RHF/CHARGE (state 1.1)
 
 Population analysis by basis function type

 Unique atom        s        p        d        f        g    Total    Charge
   1  TI      7.99999 11.99942  1.99991  0.00057  0.00010 22.00000  + 0.00000


 **********************************************************************************************************************************
 DATASETS  * FILE   NREC   LENGTH (MB)   RECORD NAMES
              1      23      517.28       500      610      700      900      950      970     1000      129      960     1700   
                                          VAR    BASINP    GEOM    SYMINP    ZMAT    AOBASIS   BASIS     P2S    ABASIS    OPER   
                                         1101     1401     1411     1412     1650     1100     1400     1410     1200     1210   
                                          SR      EKINR    POTR     PVPR    MOLCAS      S      EKIN      POT      H0       H01  
                                         1300     1080     1600   
                                         ERIS     AOSYM     SMH  

              2       5        5.91       200      700     1000      520     4202   
                                        OPTIONS   GEOM     BASIS   MCVARS     RHF  

 PROGRAMS   *        TOTAL       POP       RHF       INT
 CPU TIMES  *       111.67      0.01      5.96    105.56
 REAL TIME  *       115.56 SEC
 DISK USED  *         2.17 GB      
 **********************************************************************************************************************************
   -->
   <time start="15:55:35" end="15:55:35" cpu="0.01" system="0.01" real="0.02"/>
   <storage units="megabyte" memory="4097.84" sf="0.0" df="2172.66" eaf="0.0"/>
  </jobstep><!--
  --><jobstep command="MULTI" commandset="MULTI">
   <!--

1PROGRAM * MULTI (Direct Multiconfiguration SCF)       Authors: P.J. Knowles, H.-J. Werner (1984)     S.T. Elbert (1988)


 Number of closed-shell orbitals:  10 (   4   2   2   0   2   0   0   0 )
 Number of active  orbitals:        5 (   2   0   0   1   0   1   1   0 )
 Number of external orbitals:     330 (  82  45  45  33  45  33  33  14 )

 State symmetry 1

 Number of electrons:     2    Spin symmetry=Triplet   Space symmetry=1
 Number of states:        1
 Number of CSFs:          1   (1 determinants, 10 intermediate states)

 State symmetry 2

 Number of electrons:     2    Spin symmetry=Triplet   Space symmetry=4
 Number of states:        3
 Number of CSFs:          3   (3 determinants, 10 intermediate states)

 State symmetry 3

 Number of electrons:     2    Spin symmetry=Triplet   Space symmetry=6
 Number of states:        3
 Number of CSFs:          3   (3 determinants, 10 intermediate states)

 State symmetry 4

 Number of electrons:     2    Spin symmetry=Triplet   Space symmetry=7
 Number of states:        3
 Number of CSFs:          3   (3 determinants, 10 intermediate states)

 Molecular orbitals read from record     4202.2  Type=RHF/CANONICAL (state 1.1)
 *** IN SYMMETRY 1 ORBITAL  2 SYMMETRY CONTAMINATION OF 0.173D-03 HAS BEEN REMOVED
 *** IN SYMMETRY 1 ORBITAL  3 SYMMETRY CONTAMINATION OF 0.148D-02 HAS BEEN REMOVED
 *** IN SYMMETRY 1 ORBITAL  4 SYMMETRY CONTAMINATION OF 0.797D-03 HAS BEEN REMOVED
 *** IN SYMMETRY 1 ORBITAL  5 SYMMETRY CONTAMINATION OF 0.243D-01 HAS BEEN REMOVED
 *** IN SYMMETRY 1 ORBITAL  6 SYMMETRY CONTAMINATION OF 0.268D-01 HAS BEEN REMOVED

 EXTRA SYMMETRY OF MOS IN SYMMETRY 1:   1 1 1 1 3 2 1 3 2 1   3 2 2 3 1 6 5 4 2 3   1 4 6 5 2 3 8 910 7   1 2 3 4 6 5 1 2 3 8
                                        910 7 4 5 6 1 2 3 1   2 3 6 5 4 8 9 710 1   2 3 1 2 3 1 2 3 1 2   3 1 1 2 3 1 1 1 1 1
                                        1 1 1 1 1 1 1 1
 *** IN SYMMETRY 2 ORBITAL  1 SYMMETRY CONTAMINATION OF 0.951D-03 HAS BEEN REMOVED
 *** IN SYMMETRY 2 ORBITAL  2 SYMMETRY CONTAMINATION OF 0.120D-01 HAS BEEN REMOVED
 EXTRA SYMMETRY OF MOS IN SYMMETRY 2:   1 1 1 1 1 2 3 1 3 2   5 6 4 1 3 2 1 5 6 4   3 2 1 3 2 5 6 4 1 3   2 1 5 6 4 1 1 1 1 1
                                        1 1 1 1 1 1 1
 *** IN SYMMETRY 3 ORBITAL  1 SYMMETRY CONTAMINATION OF 0.951D-03 HAS BEEN REMOVED
 *** IN SYMMETRY 3 ORBITAL  2 SYMMETRY CONTAMINATION OF 0.120D-01 HAS BEEN REMOVED
 EXTRA SYMMETRY OF MOS IN SYMMETRY 3:   1 1 1 1 1 2 3 1 3 2   5 6 4 1 3 2 1 5 6 4   3 2 1 3 2 5 6 4 1 3   2 1 5 6 4 1 1 1 1 1
                                        1 1 1 1 1 1 1
 *** IN SYMMETRY 4 ORBITAL  1 SYMMETRY CONTAMINATION OF 0.104D-03 HAS BEEN REMOVED
 EXTRA SYMMETRY OF MOS IN SYMMETRY 4:   1 1 1 1 2 3 1 3 2 1   6 4 5 1 3 2 1 6 4 5   3 2 1 1 2 3 6 4 5 1   1 1 1 1
 *** IN SYMMETRY 5 ORBITAL  1 SYMMETRY CONTAMINATION OF 0.693D-03 HAS BEEN REMOVED
 *** IN SYMMETRY 5 ORBITAL  2 SYMMETRY CONTAMINATION OF 0.867D-02 HAS BEEN REMOVED
 EXTRA SYMMETRY OF MOS IN SYMMETRY 5:   1 1 1 1 1 3 2 1 2 3   5 4 6 1 2 3 1 5 4 6   2 3 1 2 3 5 4 6 1 2   3 1 5 4 6 1 1 1 1 1
                                        1 1 1 1 1 1 1
 *** IN SYMMETRY 6 ORBITAL  1 SYMMETRY CONTAMINATION OF 0.131D-03 HAS BEEN REMOVED
 EXTRA SYMMETRY OF MOS IN SYMMETRY 6:   1 1 1 1 3 2 1 2 3 1   5 4 6 1 2 3 1 5 4 6   2 3 1 1 3 2 5 4 6 1   1 1 1 1
 *** IN SYMMETRY 7 ORBITAL  1 SYMMETRY CONTAMINATION OF 0.131D-03 HAS BEEN REMOVED
 EXTRA SYMMETRY OF MOS IN SYMMETRY 7:   1 1 1 1 3 2 1 2 3 1   5 4 6 1 2 3 1 5 4 6   2 3 1 1 3 2 5 4 6 1   1 1 1 1
 EXTRA SYMMETRY OF MOS IN SYMMETRY 8:   1 1 2 3 1 3 2 1 1 2   3 1 2 3

 Wavefunction dump at record             5202.2

 Convergence thresholds  0.10E-01 (gradient)  0.10E-05 (energy)  0.10E-02 (step length)

 Weight factors for state symmetry  1:    0.10000
 Weight factors for state symmetry  2:    0.10000   0.10000   0.10000
 Weight factors for state symmetry  3:    0.10000   0.10000   0.10000
 Weight factors for state symmetry  4:    0.10000   0.10000   0.10000

 Number of orbital rotations:      869   (     8 Core/Active    598 Core/Virtual   0 Active/Active    263 Active/Virtual)
 Total number of variables:        897


 ITER. MIC  NCI  NEG     ENERGY(VAR)     ENERGY(PROJ)   ENERGY CHANGE     GRAD(0)  GRAD(ORB)   GRAD(CI)     STEP       TIME

   1   58   16    9    -852.14875302    -852.91500583   -0.76625281    0.61242691 0.00000000 0.00000000  0.17D+01      2.25
   2   21   20    0    -852.64596093    -852.73203027   -0.08606934    0.61430584 0.00000007 0.00000000  0.30D+00      4.47
   3   19   20    0    -852.73620432    -852.73696566   -0.00076134    0.03972198 0.00000000 0.00000000  0.33D-01      6.70
   4   21   20    0    -852.73697218    -852.73697232   -0.00000014    0.00042822 0.00000000 0.00000000  0.47D-03      8.91

 ** WVFN ****  CONVERGENCE REACHED, FINAL GRADIENT:  0.74D-07



 Results for state 1.1
 =====================

 !MCSCF STATE 1.1 Energy             -852.754208508394
   --><property name="Energy" method="MCSCF" principal="true" stateSymmetry="1" stateNumber="1"
     value="-852.754208508394"/><!--
 Nuclear energy                         0.00000000
 Kinetic energy                       879.20345063
 One electron energy                -1168.51473581
 Two electron energy                  315.76052730
 Virial ratio                           1.96991681

 !MCSCF STATE 1.1 Dipole moment         0.00000000     0.00000000     0.00000000
 Dipole moment /Debye                   0.00000000     0.00000000     0.00000000
   --><property name="Dipole moment" method="MCSCF" principal="true" stateSymmetry="1"
     stateNumber="1" value="0.0 0.0 0.0"/><!--



 Results for state 1.4
 =====================

 !MCSCF STATE 1.4 Energy             -852.754208508496
   --><property name="Energy" method="MCSCF" principal="true" stateSymmetry="4" stateNumber="1"
     value="-852.754208508496"/><!--
 Nuclear energy                         0.00000000
 Kinetic energy                       879.20345068
 One electron energy                -1168.51473591
 Two electron energy                  315.76052740
 Virial ratio                           1.96991681

 !MCSCF STATE 1.4 Dipole moment         0.00000000     0.00000000     0.00000000
 Dipole moment /Debye                   0.00000000     0.00000000     0.00000000
   --><property name="Dipole moment" method="MCSCF" principal="true" stateSymmetry="4"
     stateNumber="1" value="0.0 0.0 0.0"/><!--

 Results for state 2.4
 =====================

 !MCSCF STATE 2.4 Energy             -852.754208508452
   --><property name="Energy" method="MCSCF" principal="true" stateSymmetry="4" stateNumber="2"
     value="-852.754208508452"/><!--
 Nuclear energy                         0.00000000
 Kinetic energy                       879.20345066
 One electron energy                -1168.51473587
 Two electron energy                  315.76052736
 Virial ratio                           1.96991681

 !MCSCF STATE 2.4 Dipole moment         0.00000000     0.00000000     0.00000000
 Dipole moment /Debye                   0.00000000     0.00000000     0.00000000
   --><property name="Dipole moment" method="MCSCF" principal="true" stateSymmetry="4"
     stateNumber="2" value="0.0 0.0 0.0"/><!--

 Results for state 3.4
 =====================

 !MCSCF STATE 3.4 Energy             -852.696754541482
   --><property name="Energy" method="MCSCF" principal="true" stateSymmetry="4" stateNumber="3"
     value="-852.696754541482"/><!--
 Nuclear energy                         0.00000000
 Kinetic energy                       879.20345066
 One electron energy                -1168.51473588
 Two electron energy                  315.81798134
 Virial ratio                           1.96985146

 !MCSCF STATE 3.4 Dipole moment         0.00000000     0.00000000     0.00000000
 Dipole moment /Debye                   0.00000000     0.00000000     0.00000000
   --><property name="Dipole moment" method="MCSCF" principal="true" stateSymmetry="4"
     stateNumber="3" value="0.0 0.0 0.0"/><!--



 Results for state 1.6
 =====================

 !MCSCF STATE 1.6 Energy             -852.754208508496
   --><property name="Energy" method="MCSCF" principal="true" stateSymmetry="6" stateNumber="1"
     value="-852.754208508496"/><!--
 Nuclear energy                         0.00000000
 Kinetic energy                       879.20345068
 One electron energy                -1168.51473591
 Two electron energy                  315.76052740
 Virial ratio                           1.96991681

 !MCSCF STATE 1.6 Dipole moment         0.00000000     0.00000000     0.00000000
 Dipole moment /Debye                   0.00000000     0.00000000     0.00000000
   --><property name="Dipole moment" method="MCSCF" principal="true" stateSymmetry="6"
     stateNumber="1" value="0.0 0.0 0.0"/><!--

 Results for state 2.6
 =====================

 !MCSCF STATE 2.6 Energy             -852.754208508449
   --><property name="Energy" method="MCSCF" principal="true" stateSymmetry="6" stateNumber="2"
     value="-852.754208508449"/><!--
 Nuclear energy                         0.00000000
 Kinetic energy                       879.20345066
 One electron energy                -1168.51473587
 Two electron energy                  315.76052736
 Virial ratio                           1.96991681

 !MCSCF STATE 2.6 Dipole moment         0.00000000     0.00000000     0.00000000
 Dipole moment /Debye                   0.00000000     0.00000000     0.00000000
   --><property name="Dipole moment" method="MCSCF" principal="true" stateSymmetry="6"
     stateNumber="2" value="0.0 0.0 0.0"/><!--

 Results for state 3.6
 =====================

 !MCSCF STATE 3.6 Energy             -852.696754541485
   --><property name="Energy" method="MCSCF" principal="true" stateSymmetry="6" stateNumber="3"
     value="-852.696754541485"/><!--
 Nuclear energy                         0.00000000
 Kinetic energy                       879.20345066
 One electron energy                -1168.51473588
 Two electron energy                  315.81798134
 Virial ratio                           1.96985146

 !MCSCF STATE 3.6 Dipole moment         0.00000000     0.00000000     0.00000000
 Dipole moment /Debye                   0.00000000     0.00000000     0.00000000
   --><property name="Dipole moment" method="MCSCF" principal="true" stateSymmetry="6"
     stateNumber="3" value="0.0 0.0 0.0"/><!--



 Results for state 1.7
 =====================

 !MCSCF STATE 1.7 Energy             -852.754208508496
   --><property name="Energy" method="MCSCF" principal="true" stateSymmetry="7" stateNumber="1"
     value="-852.754208508496"/><!--
 Nuclear energy                         0.00000000
 Kinetic energy                       879.20345068
 One electron energy                -1168.51473591
 Two electron energy                  315.76052740
 Virial ratio                           1.96991681

 !MCSCF STATE 1.7 Dipole moment         0.00000000     0.00000000     0.00000000
 Dipole moment /Debye                   0.00000000     0.00000000     0.00000000
   --><property name="Dipole moment" method="MCSCF" principal="true" stateSymmetry="7"
     stateNumber="1" value="0.0 0.0 0.0"/><!--

 Results for state 2.7
 =====================

 !MCSCF STATE 2.7 Energy             -852.754208508449
   --><property name="Energy" method="MCSCF" principal="true" stateSymmetry="7" stateNumber="2"
     value="-852.754208508449"/><!--
 Nuclear energy                         0.00000000
 Kinetic energy                       879.20345066
 One electron energy                -1168.51473587
 Two electron energy                  315.76052736
 Virial ratio                           1.96991681

 !MCSCF STATE 2.7 Dipole moment         0.00000000     0.00000000     0.00000000
 Dipole moment /Debye                   0.00000000     0.00000000     0.00000000
   --><property name="Dipole moment" method="MCSCF" principal="true" stateSymmetry="7"
     stateNumber="2" value="0.0 0.0 0.0"/><!--

 Results for state 3.7
 =====================

 !MCSCF STATE 3.7 Energy             -852.696754541485
   --><property name="Energy" method="MCSCF" principal="true" stateSymmetry="7" stateNumber="3"
     value="-852.696754541485"/><!--
 Nuclear energy                         0.00000000
 Kinetic energy                       879.20345066
 One electron energy                -1168.51473588
 Two electron energy                  315.81798134
 Virial ratio                           1.96985146

 !MCSCF STATE 3.7 Dipole moment         0.00000000     0.00000000     0.00000000
 Dipole moment /Debye                   0.00000000     0.00000000     0.00000000
   --><property name="Dipole moment" method="MCSCF" principal="true" stateSymmetry="7"
     stateNumber="3" value="0.0 0.0 0.0"/><!--

 State-averaged charge density matrix saved on record  5202.2 (density set 1)


 NATURAL ORBITALS (state averaged)
 =================================

   Orb     Occ        Energy       Coefficients

                                   1 1s      1 1s      1 1s      1 1s      1 1s      1 1s      1 1s      1 1s      1 1s      1 1s   
                                   1 1s      1 1s      1 1s      1 1s      1 1s      1 1s      1 1s      1 1s      1 1s      1 1s   
                                   1 1s      1 1s      1 1s      1 1s      1 1s      1 1s      1 1s      1 1s      1 1s      1 1s   
                                   1 1s      1 3d0     1 3d2+    1 3d0     1 3d2+    1 3d0     1 3d2+    1 3d0     1 3d2+    1 3d0  
                                   1 3d2+    1 3d0     1 3d2+    1 3d0     1 3d2+    1 3d0     1 3d2+    1 3d0     1 3d2+    1 3d0  
                                   1 3d2+    1 3d0     1 3d2+    1 3d0     1 3d2+    1 3d0     1 3d2+    1 3d0     1 3d2+    1 3d0  
                                   1 3d2+    1 5g0     1 5g4+    1 5g2+    1 5g0     1 5g4+    1 5g2+    1 5g0     1 5g4+    1 5g2+ 
                                   1 5g0     1 5g4+    1 5g2+    1 5g0     1 5g4+    1 5g2+    1 7i6+    1 7i4+    1 7i2+    1 7i0  
                                   1 7i6+    1 7i4+    1 7i2+    1 7i0     1 7i6+    1 7i4+    1 7i2+    1 7i0  

   1.1  2.00000  -184.407182     0.000007  0.000018  0.000051  0.000121  0.000274  0.000589  0.001250  0.002657  0.005742  0.012596
                                 0.027619  0.058655  0.115894  0.201552  0.282520  0.272945  0.143570  0.029271  0.002519 -0.000486
                                -0.001353  0.000642  0.000265 -0.000051  0.000013 -0.000006  0.000003 -0.000001  0.001721 -0.000656
                                 0.000000  0.000000  0.000000  0.000000  0.000000  0.000000  0.000000  0.000000  0.000000  0.000000
                                 0.000000  0.000000  0.000000  0.000000  0.000000  0.000000  0.000000  0.000000  0.000000  0.000000
                                 0.000000  0.000000  0.000000  0.000000  0.000000  0.000000  0.000000  0.000000  0.000000  0.000000
                                 0.000000  0.000000  0.000000  0.000000  0.000000  0.000000  0.000000  0.000000  0.000000  0.000000
                                 0.000000  0.000000  0.000000  0.000000  0.000000  0.000000  0.000000  0.000000  0.000000  0.000000
                                 0.000000  0.000000  0.000000  0.000000  0.000000  0.000000  0.000000  0.000000

   2.1  2.00000   -21.655294    -0.000002 -0.000005 -0.000015 -0.000036 -0.000082 -0.000176 -0.000375 -0.000798 -0.001733 -0.003831
                                -0.008518 -0.018579 -0.038587 -0.073681 -0.122557 -0.156750 -0.101816  0.101824  0.393948  0.469147
                                 0.206322  0.010805 -0.003657  0.001488 -0.000274  0.000150 -0.000069  0.000030 -0.017546  0.012080
                                -0.000008  0.000000  0.000000  0.000000  0.000000  0.000000  0.000000  0.000000  0.000000  0.000000
                                 0.000000  0.000000  0.000000  0.000000  0.000000  0.000000  0.000000  0.000000  0.000000  0.000000
                                 0.000000  0.000000  0.000000  0.000000  0.000000  0.000000  0.000000  0.000000  0.000000  0.000000
                                 0.000000  0.000000  0.000000  0.000000  0.000000  0.000000  0.000000  0.000000  0.000000  0.000000
                                 0.000000  0.000000  0.000000  0.000000  0.000000  0.000000  0.000000  0.000000  0.000000  0.000000
                                 0.000000  0.000000  0.000000  0.000000  0.000000  0.000000  0.000000  0.000000

   3.1  2.00000    -2.909271     0.000001  0.000002  0.000005  0.000013  0.000029  0.000063  0.000134  0.000286  0.000621  0.001374
                                 0.003059  0.006692  0.013974  0.026979  0.045773  0.060709  0.041225 -0.045247 -0.212859 -0.373926
                                -0.199332  0.319986  0.622655  0.340265  0.034951 -0.001535  0.000538 -0.000172  0.013830 -0.009656
                                 0.000039  0.000000  0.000000  0.000000  0.000000  0.000000  0.000000  0.000000  0.000000  0.000000
                                 0.000000  0.000000  0.000000  0.000000  0.000000  0.000000  0.000000  0.000000  0.000000  0.000000
                                 0.000000  0.000000  0.000000  0.000000  0.000000  0.000000  0.000000  0.000000  0.000000  0.000000
                                 0.000000  0.000000  0.000000  0.000000  0.000000  0.000000  0.000000  0.000000  0.000000  0.000000
                                 0.000000  0.000000  0.000000  0.000000  0.000000  0.000000  0.000000  0.000000  0.000000  0.000000
                                 0.000000  0.000000  0.000000  0.000000  0.000000  0.000000  0.000000  0.000000

   4.1  2.00000    -0.222965    -0.000000 -0.000000 -0.000001 -0.000003 -0.000007 -0.000015 -0.000031 -0.000067 -0.000145 -0.000321
                                -0.000715 -0.001566 -0.003267 -0.006328 -0.010739 -0.014360 -0.009706  0.010637  0.053226  0.093984
                                 0.040401 -0.084583 -0.205428 -0.251669 -0.032735  0.414491  0.595507  0.180143  0.006610 -0.018147
                                 0.000451  0.000000  0.000000  0.000000  0.000000  0.000000  0.000000  0.000000  0.000000  0.000000
                                 0.000000  0.000000  0.000000  0.000000  0.000000  0.000000  0.000000  0.000000  0.000000  0.000000
                                 0.000000  0.000000  0.000000  0.000000  0.000000  0.000000  0.000000  0.000000  0.000000  0.000000
                                 0.000000  0.000000  0.000000  0.000000  0.000000  0.000000  0.000000  0.000000  0.000000  0.000000
                                 0.000000  0.000000  0.000000  0.000000  0.000000  0.000000  0.000000  0.000000  0.000000  0.000000
                                 0.000000  0.000000  0.000000  0.000000  0.000000  0.000000  0.000000  0.000000

   5.1  0.40000     0.092720     0.000000  0.000000  0.000000  0.000000  0.000000  0.000000  0.000000  0.000000  0.000000  0.000000
                                 0.000000  0.000000  0.000000  0.000000  0.000000  0.000000  0.000000 -0.000000 -0.000000 -0.000000
                                -0.000000  0.000000  0.000000  0.000000  0.000000 -0.000000 -0.000000 -0.000000  0.000000  0.000000
                                -0.000000 -0.000237 -0.000000 -0.002112 -0.000000 -0.010846 -0.000000 -0.036753 -0.000000 -0.096145
                                -0.000000 -0.188542 -0.000000 -0.275900 -0.000000 -0.312997 -0.000000 -0.263412 -0.000000 -0.139624
                                -0.000000 -0.030773 -0.000000 -0.000388 -0.000000 -0.001204 -0.000000 -0.001398 -0.000000 -0.000130
                                -0.000000  0.000000  0.000000  0.000000  0.000000  0.000000  0.000000  0.000000  0.000000  0.000000
                                 0.000000  0.000000  0.000000  0.000000  0.000000  0.000000  0.000000  0.000000  0.000000  0.000000
                                 0.000000  0.000000  0.000000  0.000000  0.000000  0.000000  0.000000  0.000000

   6.1  0.40000     0.092720    -0.000000 -0.000000 -0.000000 -0.000000 -0.000000 -0.000000 -0.000000 -0.000000 -0.000000 -0.000000
                                -0.000000 -0.000000 -0.000000 -0.000000 -0.000000 -0.000000 -0.000000  0.000000  0.000000  0.000000
                                 0.000000 -0.000000 -0.000000 -0.000000 -0.000000  0.000000  0.000000  0.000000 -0.000000  0.000000
                                 0.000000  0.000000  0.000237  0.000000  0.002112  0.000000  0.010846  0.000000  0.036753  0.000000
                                 0.096145  0.000000  0.188542  0.000000  0.275900  0.000000  0.312997  0.000000  0.263412  0.000000
                                 0.139624  0.000000  0.030773  0.000000  0.000388  0.000000  0.001204  0.000000  0.001398  0.000000
                                 0.000130  0.000000  0.000000  0.000000  0.000000  0.000000  0.000000  0.000000  0.000000  0.000000
                                 0.000000  0.000000  0.000000  0.000000  0.000000  0.000000  0.000000  0.000000  0.000000  0.000000
                                 0.000000  0.000000  0.000000  0.000000  0.000000  0.000000  0.000000  0.000000

                                   1 2px     1 2px     1 2px     1 2px     1 2px     1 2px     1 2px     1 2px     1 2px     1 2px  
                                   1 2px     1 2px     1 2px     1 2px     1 2px     1 2px     1 2px     1 2px     1 2px     1 2px  
                                   1 2px     1 2px     1 2px     1 4f1+    1 4f3+    1 4f1+    1 4f3+    1 4f1+    1 4f3+    1 4f1+ 
                                   1 4f3+    1 4f1+    1 4f3+    1 4f1+    1 4f3+    1 6h1+    1 6h3+    1 6h5+    1 6h1+    1 6h3+ 
                                   1 6h5+    1 6h1+    1 6h3+    1 6h5+    1 6h1+    1 6h3+    1 6h5+ 

   1.2  2.00000   -17.822520     0.000016  0.000055  0.000227  0.000821  0.002819  0.008816  0.025078  0.063318  0.135178  0.229201
                                 0.299342  0.270559  0.134412  0.026810  0.001678  0.000394 -0.000002  0.000015 -0.000011  0.000004
                                -0.000401  0.000290 -0.000001  0.000000  0.000000  0.000000  0.000000  0.000000  0.000000  0.000000
                                 0.000000  0.000000  0.000000  0.000000  0.000000  0.000000  0.000000  0.000000  0.000000  0.000000
                                 0.000000  0.000000  0.000000  0.000000  0.000000  0.000000  0.000000

   2.2  2.00000    -1.800860    -0.000006 -0.000019 -0.000078 -0.000283 -0.000974 -0.003058 -0.008790 -0.022584 -0.049618 -0.086713
                                -0.119217 -0.106761  0.023230  0.244619  0.403828  0.340898  0.117053  0.009523  0.000778  0.000014
                                -0.003138  0.006233  0.000015  0.000000  0.000000  0.000000  0.000000  0.000000  0.000000  0.000000
                                 0.000000  0.000000  0.000000  0.000000  0.000000  0.000000  0.000000  0.000000  0.000000  0.000000
                                 0.000000  0.000000  0.000000  0.000000  0.000000  0.000000  0.000000

                                   1 2py     1 2py     1 2py     1 2py     1 2py     1 2py     1 2py     1 2py     1 2py     1 2py  
                                   1 2py     1 2py     1 2py     1 2py     1 2py     1 2py     1 2py     1 2py     1 2py     1 2py  
                                   1 2py     1 2py     1 2py     1 4f1-    1 4f3-    1 4f1-    1 4f3-    1 4f1-    1 4f3-    1 4f1- 
                                   1 4f3-    1 4f1-    1 4f3-    1 4f1-    1 4f3-    1 6h1-    1 6h3-    1 6h5-    1 6h1-    1 6h3- 
                                   1 6h5-    1 6h1-    1 6h3-    1 6h5-    1 6h1-    1 6h3-    1 6h5- 

   1.3  2.00000   -17.822520     0.000016  0.000055  0.000227  0.000821  0.002819  0.008816  0.025078  0.063318  0.135178  0.229201
                                 0.299342  0.270559  0.134412  0.026810  0.001678  0.000394 -0.000002  0.000015 -0.000011  0.000004
                                -0.000401  0.000290 -0.000001  0.000000  0.000000  0.000000  0.000000  0.000000  0.000000  0.000000
                                 0.000000  0.000000  0.000000  0.000000  0.000000  0.000000  0.000000  0.000000  0.000000  0.000000
                                 0.000000  0.000000  0.000000  0.000000  0.000000  0.000000  0.000000

   2.3  2.00000    -1.800860    -0.000006 -0.000019 -0.000078 -0.000283 -0.000974 -0.003058 -0.008790 -0.022584 -0.049618 -0.086713
                                -0.119217 -0.106761  0.023230  0.244619  0.403828  0.340898  0.117053  0.009523  0.000778  0.000014
                                -0.003138  0.006233  0.000015  0.000000  0.000000  0.000000  0.000000  0.000000  0.000000  0.000000
                                 0.000000  0.000000  0.000000  0.000000  0.000000  0.000000  0.000000  0.000000  0.000000  0.000000
                                 0.000000  0.000000  0.000000  0.000000  0.000000  0.000000  0.000000

                                   1 3d2-    1 3d2-    1 3d2-    1 3d2-    1 3d2-    1 3d2-    1 3d2-    1 3d2-    1 3d2-    1 3d2- 
                                   1 3d2-    1 3d2-    1 3d2-    1 3d2-    1 3d2-    1 5g2-    1 5g4-    1 5g2-    1 5g4-    1 5g2- 
                                   1 5g4-    1 5g2-    1 5g4-    1 5g2-    1 5g4-    1 7i2-    1 7i6-    1 7i4-    1 7i2-    1 7i6- 
                                   1 7i4-    1 7i2-    1 7i6-    1 7i4- 

   1.4  0.40000     0.092720     0.000237  0.002112  0.010846  0.036753  0.096145  0.188542  0.275900  0.312997  0.263412  0.139624
                                 0.030773  0.000388  0.001204  0.001398  0.000130  0.000000  0.000000  0.000000  0.000000  0.000000
                                 0.000000  0.000000  0.000000  0.000000  0.000000  0.000000  0.000000  0.000000  0.000000  0.000000
                                 0.000000  0.000000  0.000000  0.000000

                                   1 2pz     1 2pz     1 2pz     1 2pz     1 2pz     1 2pz     1 2pz     1 2pz     1 2pz     1 2pz  
                                   1 2pz     1 2pz     1 2pz     1 2pz     1 2pz     1 2pz     1 2pz     1 2pz     1 2pz     1 2pz  
                                   1 2pz     1 2pz     1 2pz     1 4f0     1 4f2+    1 4f0     1 4f2+    1 4f0     1 4f2+    1 4f0  
                                   1 4f2+    1 4f0     1 4f2+    1 4f0     1 4f2+    1 6h2+    1 6h4+    1 6h0     1 6h2+    1 6h4+ 
                                   1 6h0     1 6h2+    1 6h4+    1 6h0     1 6h2+    1 6h4+    1 6h0  

   1.5  2.00000   -17.822520     0.000016  0.000055  0.000227  0.000821  0.002819  0.008816  0.025078  0.063318  0.135178  0.229201
                                 0.299342  0.270559  0.134412  0.026810  0.001678  0.000394 -0.000002  0.000015 -0.000011  0.000004
                                -0.000401  0.000290 -0.000001  0.000000  0.000000  0.000000  0.000000  0.000000  0.000000  0.000000
                                 0.000000  0.000000  0.000000  0.000000  0.000000  0.000000  0.000000  0.000000  0.000000  0.000000
                                 0.000000  0.000000  0.000000  0.000000  0.000000  0.000000  0.000000

   2.5  2.00000    -1.800860    -0.000006 -0.000019 -0.000078 -0.000283 -0.000974 -0.003058 -0.008790 -0.022584 -0.049618 -0.086713
                                -0.119217 -0.106761  0.023230  0.244619  0.403828  0.340898  0.117053  0.009523  0.000778  0.000014
                                -0.003138  0.006233  0.000015  0.000000  0.000000  0.000000  0.000000  0.000000  0.000000  0.000000
                                 0.000000  0.000000  0.000000  0.000000  0.000000  0.000000  0.000000  0.000000  0.000000  0.000000
                                 0.000000  0.000000  0.000000  0.000000  0.000000  0.000000  0.000000

                                   1 3d1+    1 3d1+    1 3d1+    1 3d1+    1 3d1+    1 3d1+    1 3d1+    1 3d1+    1 3d1+    1 3d1+ 
                                   1 3d1+    1 3d1+    1 3d1+    1 3d1+    1 3d1+    1 5g1+    1 5g3+    1 5g1+    1 5g3+    1 5g1+ 
                                   1 5g3+    1 5g1+    1 5g3+    1 5g1+    1 5g3+    1 7i5+    1 7i3+    1 7i1+    1 7i5+    1 7i3+ 
                                   1 7i1+    1 7i5+    1 7i3+    1 7i1+ 

   1.6  0.40000     0.092720     0.000237  0.002112  0.010846  0.036753  0.096145  0.188542  0.275900  0.312997  0.263412  0.139624
                                 0.030773  0.000388  0.001204  0.001398  0.000130  0.000000  0.000000  0.000000  0.000000  0.000000
                                 0.000000  0.000000  0.000000  0.000000  0.000000  0.000000  0.000000  0.000000  0.000000  0.000000
                                 0.000000  0.000000  0.000000  0.000000

                                   1 3d1-    1 3d1-    1 3d1-    1 3d1-    1 3d1-    1 3d1-    1 3d1-    1 3d1-    1 3d1-    1 3d1- 
                                   1 3d1-    1 3d1-    1 3d1-    1 3d1-    1 3d1-    1 5g1-    1 5g3-    1 5g1-    1 5g3-    1 5g1- 
                                   1 5g3-    1 5g1-    1 5g3-    1 5g1-    1 5g3-    1 7i5-    1 7i3-    1 7i1-    1 7i5-    1 7i3- 
                                   1 7i1-    1 7i5-    1 7i3-    1 7i1- 

   1.7  0.40000     0.092720     0.000237  0.002112  0.010846  0.036753  0.096145  0.188542  0.275900  0.312997  0.263412  0.139624
                                 0.030773  0.000388  0.001204  0.001398  0.000130  0.000000  0.000000  0.000000  0.000000  0.000000
                                 0.000000  0.000000  0.000000  0.000000  0.000000  0.000000  0.000000  0.000000  0.000000  0.000000
                                 0.000000  0.000000  0.000000  0.000000
 

 EXTRA SYMMETRY OF MOS IN SYMMETRY 1:   1 1 1 1 2 3 1 3 2 1   3 2 3 2 1 5 4 6 3 2   1 5 4 6 3 210 8 7 9   1 2 3 5 6 4 1 2 3 7
                                        810 9 5 6 4 1 2 3 1   2 3 5 4 610 7 8 9 1   2 3 1 2 3 1 2 3 1 2   3 1 1 2 3 1 1 1 1 1
                                        1 1 1 1 1 1 1 1
 EXTRA SYMMETRY OF MOS IN SYMMETRY 2:   1 1 1 1 1 2 3 1 3 2   5 4 6 1 3 2 1 6 5 4   3 2 1 2 3 4 5 6 1 3   2 1 6 4 5 1 1 1 1 1
                                        1 1 1 1 1 1 1
 EXTRA SYMMETRY OF MOS IN SYMMETRY 3:   1 1 1 1 1 2 3 1 2 3   5 4 6 1 3 2 1 5 4 6   2 3 1 2 3 6 4 5 1 2   3 1 6 4 5 1 1 1 1 1
                                        1 1 1 1 1 1 1
 EXTRA SYMMETRY OF MOS IN SYMMETRY 4:   1 1 1 1 2 3 1 2 3 1   6 4 5 1 2 3 1 6 4 5   3 2 1 1 3 2 5 4 6 1   1 1 1 1
 EXTRA SYMMETRY OF MOS IN SYMMETRY 5:   1 1 1 1 1 2 3 1 3 2   5 6 4 1 3 2 1 5 6 4   3 2 1 3 2 6 4 5 1 2   3 1 4 6 5 1 1 1 1 1
                                        1 1 1 1 1 1 1
 EXTRA SYMMETRY OF MOS IN SYMMETRY 6:   1 1 1 1 3 2 1 3 2 1   4 5 6 1 3 2 1 4 5 6   2 3 1 1 2 3 6 5 4 1   1 1 1 1
 EXTRA SYMMETRY OF MOS IN SYMMETRY 7:   1 1 1 1 3 2 1 3 2 1   4 5 6 1 3 2 1 4 5 6   2 3 1 1 2 3 6 5 4 1   1 1 1 1

 Natural orbital dump (state averaged) at molpro section  5202.2    (Orbital set 2)


 CI vector for state symmetry 1
 ==============================

 aa 0 0 0          1.0000000

 TOTAL ENERGIES                      -852.75420851

 CI vector for state symmetry 2
 ==============================

 a0 a 0 0          0.0000307   1.0000000   0.0000000
 0a a 0 0         -0.4472136   0.0000137   0.8944272
 00 0 a a          0.8944272  -0.0000274   0.4472136

 TOTAL ENERGIES                      -852.75420851  -852.75420851  -852.69675454

 CI vector for state symmetry 3
 ==============================

 00 a 0 a          0.8942846   0.0159728   0.4472136
 0a 0 a 0         -0.2390368   0.8618941   0.4472136
 a0 0 a 0         -0.3783075  -0.5068367   0.7745967

 TOTAL ENERGIES                      -852.75420851  -852.75420851  -852.69675454

 CI vector for state symmetry 4
 ==============================

 00 a a 0          0.8942843  -0.0159899   0.4472136
 0a 0 0 a          0.2390532   0.8618895  -0.4472136
 a0 0 0 a         -0.3782978   0.5068439   0.7745967

 TOTAL ENERGIES                      -852.75420851  -852.75420851  -852.69675454



 **********************************************************************************************************************************
 DATASETS  * FILE   NREC   LENGTH (MB)   RECORD NAMES
              1      24      540.18       500      610      700      900      950      970     1000      129      960     1700   
                                          VAR    BASINP    GEOM    SYMINP    ZMAT    AOBASIS   BASIS     P2S    ABASIS    OPER   
                                         1101     1401     1411     1412     1650     1100     1400     1410     1200     1210   
                                          SR      EKINR    POTR     PVPR    MOLCAS      S      EKIN      POT      H0       H01  
                                         1300     1080     1600     1380   
                                         ERIS     AOSYM     SMH     JKOP   

              2       6        8.99       200      700     1000      520     4202     5202   
                                        OPTIONS   GEOM     BASIS   MCVARS     RHF     MCSCF   

 PROGRAMS   *        TOTAL     MULTI       POP       RHF       INT
 CPU TIMES  *       122.86     11.19      0.01      5.96    105.56
 REAL TIME  *       128.00 SEC
 DISK USED  *         2.17 GB      
 **********************************************************************************************************************************
   -->
   <time start="15:55:35" end="15:55:48" cpu="11.19" system="0.96" real="12.44"/>
   <storage units="megabyte" memory="4097.84" sf="0.0" df="2172.66" eaf="0.0"/>
  </jobstep><!--
  --><jobstep command="RHF-SCF" commandset="SCFPRO">
   <!--

1PROGRAM * RHF-SCF (OPEN SHELL)       Authors: W. Meyer, H.-J. Werner


 NUMBER OF ELECTRONS:      12+   10-    SPACE SYMMETRY=1    SPIN SYMMETRY: Triplet 
 CONVERGENCE THRESHOLDS:    1.00E-05 (Density)    1.00E-07 (Energy)
 MAX. NUMBER OF ITERATIONS:        0
 INTERPOLATION TYPE:            DIIS
 INTERPOLATION STEPS:              2 (START)      1 (STEP)
 LEVEL SHIFTS:                 -0.30 (CLOSED)  0.00 (OPEN) 


 Singly occupied orbitals:      5.1       6.1
 Molecular orbitals read from record     5202.2  Type=MCSCF/NATURAL  

 Molecular orbital dump at record        2101.2

 ITERATION    DDIFF          GRAD             ENERGY        2-EL.EN.            DIPOLE MOMENTS         DIIS   ORB.
    1      0.000D+00      0.000D+00      -852.75420851    631.521055    0.00000    0.00000    0.00000    0    start

 Final alpha occupancy:   6   2   2   0   2   0   0   0
 Final beta  occupancy:   4   2   2   0   2   0   0   0

 !RHF STATE 1.1 Energy               -852.754208508394
   --><property name="Energy" method="RHF" principal="true" stateSymmetry="1" stateNumber="1"
     value="-852.754208508394"/><!--
 Nuclear energy                         0.00000000
 One-electron energy                -1168.51473581
 Two-electron energy                  315.76052730
 Virial quotient                       -0.96991681
 !RHF STATE 1.1 Dipole moment           0.00000000     0.00000000     0.00000000
 Dipole moment /Debye                   0.00000000     0.00000000     0.00000000
   --><property name="Dipole moment" method="RHF" principal="true" stateSymmetry="1"
     stateNumber="1" value="0.0 0.0 0.0"/><!--

 Orbital energies:

         1.1          2.1          3.1          4.1          5.1          6.1          7.1          8.1
   -184.407182   -21.655294    -2.909271    -0.222965     0.092720     0.092720     0.020515     0.035206

         1.2          2.2          3.2          4.2
    -17.822520    -1.800860     0.014464     0.048417

         1.3          2.3          3.3          4.3
    -17.822520    -1.800860     0.014464     0.048417

         1.4          2.4
      0.092720     0.035206

         1.5          2.5          3.5          4.5
    -17.822520    -1.800860     0.014464     0.048417

         1.6          2.6
      0.092720     0.035206

         1.7          2.7
      0.092720     0.035206

         1.8          2.8
      0.169006     0.544892

 HOMO      6.1     0.092720 =       2.5230eV
 LUMO      3.2     0.014464 =       0.3936eV
 LUMO-HOMO        -0.078256 =      -2.1294eV


 **********************************************************************************************************************************
 DATASETS  * FILE   NREC   LENGTH (MB)   RECORD NAMES
              1      24      540.18       500      610      700      900      950      970     1000      129      960     1700   
                                          VAR    BASINP    GEOM    SYMINP    ZMAT    AOBASIS   BASIS     P2S    ABASIS    OPER   
                                         1101     1401     1411     1412     1650     1100     1400     1410     1200     1210   
                                          SR      EKINR    POTR     PVPR    MOLCAS      S      EKIN      POT      H0       H01  
                                         1300     1080     1600     1380   
                                         ERIS     AOSYM     SMH     JKOP   

              2       7       12.88       200      700     1000      520     4202     5202     2101   
                                        OPTIONS   GEOM     BASIS   MCVARS     RHF     MCSCF     RHF  

 PROGRAMS   *        TOTAL       RHF     MULTI       POP       RHF       INT
 CPU TIMES  *       123.37      0.51     11.19      0.01      5.96    105.56
 REAL TIME  *       128.56 SEC
 DISK USED  *         2.17 GB      
 **********************************************************************************************************************************
   -->
   <time start="15:55:48" end="15:55:48" cpu="0.51" system="0.03" real="0.56"/>
   <storage units="megabyte" memory="4097.84" sf="0.0" df="2172.66" eaf="0.0"/>
  </jobstep><!--
 SETTING SCF(1)         =      -852.75420851  AU                              
 SETTING _CC_NORM_MAX   =         2.00000000                                  
  --><jobstep command="RCCSD(T)" commandset="CCSD">
   <!--


1PROGRAM * CCSD (Restricted open-shell coupled cluster)     Authors: C. Hampel, H.-J. Werner, 1991, M. Deegan, P.J. Knowles, 1992


 Convergence thresholds:  THRVAR = 1.00D-08  THRDEN = 1.00D-06

 CCSD(T)     terms to be evaluated (factor= 1.000)

[...]
 Virial quotient                       -0.96993605
 !RHF STATE 1.1 Dipole moment           0.00000000     0.00000000     0.00000000
 Dipole moment /Debye                   0.00000000     0.00000000     0.00000000
   --><property name="Dipole moment" method="RHF" principal="true" stateSymmetry="1"
     stateNumber="1" value="0.0 0.0 0.0"/><!--

 Orbital energies:

         1.1          2.1          3.1          4.1          5.1          6.1
   -184.093799   -21.319047    -2.583759    -0.015874     0.299107     0.299107

         1.2          2.2          3.2          4.2
    -17.490204    -1.490830     0.098668     0.168878

         1.3          2.3          3.3          4.3
    -17.490204    -1.490830     0.098668     0.168878

         1.4          2.4          3.4
      0.299107     0.110020     0.221586

         1.5          2.5          3.5          4.5
    -17.490204    -1.490830     0.098668     0.168878

         1.6          2.6          3.6
      0.299107     0.110020     0.221586

         1.7          2.7          3.7
      0.299107     0.110020     0.221586

         1.8          2.8
      0.288075     0.709919

 HOMO      1.4     0.299107 =       8.1391eV
 LUMO      3.2     0.098668 =       2.6849eV
 LUMO-HOMO        -0.200439 =      -5.4542eV


 **********************************************************************************************************************************
 DATASETS  * FILE   NREC   LENGTH (MB)   RECORD NAMES
              1      24      540.18       500      610      700      900      950      970     1000      129      960     1700   
                                          VAR    BASINP    GEOM    SYMINP    ZMAT    AOBASIS   BASIS     P2S    ABASIS    OPER   
                                         1101     1401     1411     1412     1650     1100     1400     1410     1200     1210   
                                          SR      EKINR    POTR     PVPR    MOLCAS      S      EKIN      POT      H0       H01  
                                         1300     1080     1600     1380   
                                         ERIS     AOSYM     SMH     JKOP   

              2      16       41.91       200      700     1000      520     4202     5202     2101     2103     2105     2107   
                                        OPTIONS   GEOM     BASIS   MCVARS     RHF     MCSCF     RHF      RHF      RHF      RHF  
                                         2109     2115     2117     2110     2111     2113   
                                          RHF      RHF      RHF      RHF      RHF      RHF  

 PROGRAMS   *        TOTAL       RHF     MULTI       POP       RHF  RCCSD(T)       RHF  RCCSD(T)       RHF  RCCSD(T)       RHF
 CPU TIMES  *      2583.29      0.47     12.88      0.00      7.62     65.46      2.89    178.04      3.30    209.33      0.47
 REAL TIME  *      2688.06 SEC
 DISK USED  *         2.44 GB      
 **********************************************************************************************************************************
   -->
   <time start="16:38:27" end="16:38:28" cpu="0.47" system="0.04" real="0.54"/>
   <storage units="megabyte" memory="4097.84" sf="0.0" df="2442.62" eaf="0.0"/>
  </jobstep><!--
 SETTING SCF(10)        =      -852.71505189  AU                              
 SETTING _CC_NORM_MAX   =         2.00000000                                  
  --><jobstep command="RCCSD(T)" commandset="CCSD">
   <!--


1PROGRAM * CCSD (Restricted open-shell coupled cluster)     Authors: C. Hampel, H.-J. Werner, 1991, M. Deegan, P.J. Knowles, 1992


 Convergence thresholds:  THRVAR = 1.00D-08  THRDEN = 1.00D-06

 CCSD(T)     terms to be evaluated (factor= 1.000)


 Number of closed-shell orbitals:  10 (   4   2   2   0   2   0   0   0 )
 Number of active  orbitals:        3 (   0   0   0   1   0   1   1   0 )
 Number of external orbitals:     332 (  84  45  45  33  45  33  33  14 )

 Memory could be reduced to 103.42 Mwords without degradation in triples

 Number of N-1 electron functions:              23
 Number of N-2 electron functions:             253
 Number of singly external CSFs:              1314
 Number of doubly external CSFs:           2820240
 Total number of CSFs:                     2821554

 Molecular orbitals read from record     2113.2  Type=RHF/CANONICAL (state 1.1)

 Integral transformation finished. Total CPU:   2.98 sec, npass=  1  Memory used:  20.60 MW

 Starting RMP2 calculation

 Wavefunction is spin-projected

 ITER.      SQ.NORM     CORR.ENERGY   TOTAL ENERGY   ENERGY CHANGE        DEN1      VAR(S)    VAR(P)  DIIS     TIME
   1      1.12284126    -0.85164439  -853.56669628    -0.85164439    -0.00239929  0.29D-04  0.26D-02  1  1     3.14
   2      1.13100304    -0.85435398  -853.56940587    -0.00270959    -0.00010034  0.99D-06  0.16D-03  2  2     3.28
   3      1.13351231    -0.85486581  -853.56991771    -0.00051184    -0.00000277  0.11D-07  0.48D-05  3  3     3.44
   4      1.13386300    -0.85491363  -853.56996552    -0.00004782    -0.00000008  0.12D-08  0.15D-06  4  4     3.61
   5      1.13388366    -0.85491436  -853.56996625    -0.00000073    -0.00000000  0.11D-09  0.56D-08  5  5     3.80

 Norm of t1 vector:      0.04671205      S-energy:    -0.00552227      T1 diagnostic:  0.00319382
 Norm of t2 vector:      0.36290721      P-energy:    -0.84939209
                                         Alpha-Beta:  -0.60329899
                                         Alpha-Alpha: -0.15486487
                                         Beta-Beta:   -0.09122823

 Spin contamination <S**2-Sz**2-Sz>     0.00000000
  Reference energy                   -852.715051893234
   --><property name="energy" method="Reference" stateSymmetry="1" stateNumber="1"
     value="-852.715051893234"/><!--
  RHF-RMP2 correlation energy          -0.854914361566
   --><property name="energy" method="RHF-RMP2 correlation" stateSymmetry="1" stateNumber="1"
     value="-0.854914361566234"/><!--
 !RHF-RMP2 energy                    -853.569966254800
   --><property name="energy" method="RHF-RMP2" principal="true" stateSymmetry="1"
     stateNumber="1" value="-853.5699662548"/><!--
 (NB above energy spin projected)

 Starting RCCSD calculation

 ITER.      SQ.NORM     CORR.ENERGY   TOTAL ENERGY   ENERGY CHANGE        DEN1      VAR(S)    VAR(P)  DIIS     TIME
   1      1.12705198    -0.84206544  -853.55711733    -0.84206544    -0.01011680  0.46D-02  0.43D-02  1  1    10.27
   2      1.15257053    -0.85136572  -853.56641761    -0.00930028    -0.00205386  0.19D-02  0.15D-02  2  2    16.57
   3      1.17896005    -0.85488558  -853.56993747    -0.00351986    -0.00071691  0.11D-02  0.41D-03  3  3    22.90
   4      1.21511396    -0.85817219  -853.57322409    -0.00328661    -0.00015867  0.26D-03  0.71D-04  4  4    29.27
   5      1.23595498    -0.85921418  -853.57426607    -0.00104198    -0.00004186  0.60D-04  0.30D-04  5  5    35.74
   6      1.24655191    -0.85960466  -853.57465655    -0.00039048    -0.00001405  0.17D-04  0.12D-04  6  6    42.28
   7      1.25085055    -0.85968501  -853.57473690    -0.00008035    -0.00000389  0.57D-05  0.27D-05  6  1    48.97
   8      1.25281439    -0.85968916  -853.57474105    -0.00000415    -0.00000089  0.15D-05  0.42D-06  6  2    55.49
   9      1.25453520    -0.85974454  -853.57479643    -0.00005538    -0.00000023  0.34D-06  0.11D-06  6  3    61.94
  10      1.25451606    -0.85973643  -853.57478832     0.00000811    -0.00000008  0.11D-06  0.38D-07  6  4    68.49
  11      1.25460023    -0.85973415  -853.57478605     0.00000228    -0.00000002  0.23D-07  0.92D-08  6  5    75.06
  12      1.25444201    -0.85972858  -853.57478047     0.00000557    -0.00000001  0.84D-08  0.31D-08  6  3    81.60
  13      1.25443542    -0.85972831  -853.57478021     0.00000027    -0.00000000  0.25D-08  0.77D-09  6  1    88.05

 Norm of t1 vector:      0.27298781      S-energy:    -0.00500644      T1 diagnostic:  0.03911362
                                                                       D1 diagnostic:  0.17517202
 Norm of t2 vector:      0.42416162      P-energy:    -0.85472187
                                         Alpha-Beta:  -0.61823878
                                         Alpha-Alpha: -0.14846505
                                         Beta-Beta:   -0.08801805

 Singles amplitudes (print threshold =  0.500E-01):

         I         SYM. A    A   T(IA) [Alpha-Alpha]

         4         1         3     -0.16602867
         4         1         8     -0.12311087
         4         1        11     -0.05581308
 
         I         SYM. A    A   T(IA) [Beta-Beta]

         4         1         3     -0.11707768
         4         1         8     -0.06579889

 Doubles amplitudes (print threshold =  0.500E-01):

         I         J         SYM. A    SYM. B    A         B      T(IJ, AB) [Alpha-Beta]

         4         4         2         2         2         2     -0.08608042
         4         4         2         2         2         5     -0.05072619
         4         4         2         2         5         2     -0.05072619
         4         4         3         3         2         2     -0.08608042
         4         4         3         3         2         5     -0.05072619
         4         4         3         3         5         2     -0.05072619
         4         4         5         5         2         2     -0.08608042
         4         4         5         5         2         5     -0.05072619
         4         4         5         5         5         2     -0.05072619

 Spin contamination <S**2-Sz**2-Sz>     0.00000000

 Memory could be reduced to 109.48 Mwords without degradation in triples
 

  Correlated core orbitals:             1.1       2.1       3.1       1.2       2.2       1.3       2.3       1.5       2.5
  Orbital energies:                  -184.0940  -21.3379   -2.6630  -17.5096   -1.5899  -17.5096   -1.5899  -17.5096   -1.5899
 
  RCCSD core-core energy               -0.609642683616
   --><property name="core-core energy" method="RCCSD" stateSymmetry="1" stateNumber="1"
     value="-0.60964268361572"/><!--
  RCCSD core-valence energy            -0.178523758936
   --><property name="core-valence energy" method="RCCSD" stateSymmetry="1" stateNumber="1"
     value="-0.178523758935519"/><!--
  RCCSD valence correlation energy     -0.071561870911
   --><property name="valence correlation energy" method="RCCSD" stateSymmetry="1"
     stateNumber="1" value="-0.715618709113356E-01"/><!--
 

 RESULTS
 =======

  Reference energy                   -852.715051893234
   --><property name="energy" method="Reference" stateSymmetry="1" stateNumber="1"
     value="-852.715051893234"/><!--
  RCCSD singles energy                 -0.005006441704
   --><property name="energy" method="RCCSD singles" stateSymmetry="1" stateNumber="1"
     value="-0.500644170428188E-02"/><!--
  RCCSD pair energy                    -0.854721871758
   --><property name="energy" method="RCCSD pair" stateSymmetry="1" stateNumber="1"
     value="-0.854721871758292"/><!--
  RCCSD correlation energy             -0.859728313463
   --><property name="energy" method="RCCSD correlation" stateSymmetry="1" stateNumber="1"
     value="-0.859728313462574"/><!--
  Triples (T) contribution             -0.023264794518
   --><property name="contribution" method="Triples (T)" stateSymmetry="1" stateNumber="1"
     value="-0.232647945177125E-01"/><!--
  Total correlation energy             -0.882993107980
   --><property name="energy" method="Total correlation" stateSymmetry="1" stateNumber="1"
     value="-0.882993107980286"/><!--
 
  RHF-RCCSD energy                   -853.574780206697
   --><property name="energy" method="RHF-RCCSD" stateSymmetry="1" stateNumber="1"
     value="-853.574780206697"/><!--
  RHF-RCCSD[T] energy                -853.598860983831
   --><property name="energy" method="RHF-RCCSD[T]" stateSymmetry="1" stateNumber="1"
     value="-853.598860983831"/><!--
  RHF-RCCSD-T energy                 -853.598065051475
   --><property name="energy" method="RHF-RCCSD-T" stateSymmetry="1" stateNumber="1"
     value="-853.598065051475"/><!--
 !RHF-RCCSD(T) energy                -853.598045001214
   --><property name="energy" method="RHF-RCCSD(T)" principal="true" stateSymmetry="1"
     stateNumber="1" value="-853.598045001214"/><!--

 Program statistics:

 Available memory in ccsd:               511998418
 Min. memory needed in ccsd:               8149322
 Max. memory used in ccsd:                11658276
 Max. memory used in cckext:               8639178 (13 integral passes)
 Max. memory used in cckint:              20599288 ( 1 integral passes)



 **********************************************************************************************************************************
 DATASETS  * FILE   NREC   LENGTH (MB)   RECORD NAMES
              1      24      540.18       500      610      700      900      950      970     1000      129      960     1700   
                                          VAR    BASINP    GEOM    SYMINP    ZMAT    AOBASIS   BASIS     P2S    ABASIS    OPER   
                                         1101     1401     1411     1412     1650     1100     1400     1410     1200     1210   
                                          SR      EKINR    POTR     PVPR    MOLCAS      S      EKIN      POT      H0       H01  
                                         1300     1080     1600     1380   
                                         ERIS     AOSYM     SMH     JKOP   

              2      16       41.91       200      700     1000      520     4202     5202     2101     2103     2105     2107   
                                        OPTIONS   GEOM     BASIS   MCVARS     RHF     MCSCF     RHF      RHF      RHF      RHF  
                                         2109     2115     2117     2110     2111     2113   
                                          RHF      RHF      RHF      RHF      RHF      RHF  

 PROGRAMS   *        TOTAL  RCCSD(T)       RHF     MULTI       POP       RHF  RCCSD(T)       RHF  RCCSD(T)       RHF  RCCSD(T)
 CPU TIMES  *      2991.41    408.11      0.47     12.88      0.00      7.62     65.46      2.89    178.04      3.30    209.33
 REAL TIME  *      3111.15 SEC
 DISK USED  *         2.49 GB      
 **********************************************************************************************************************************
   -->
   <time start="16:38:28" end="16:45:31" cpu="408.12" system="13.87" real="423.09"/>
   <storage units="megabyte" memory="4097.84" sf="0.0" df="2486.78" eaf="0.0"/>
  </jobstep><!--
 SETTING CCSD(10)       =      -853.59804500  AU                              
 Output type csv         
                                                                                                                                                                                                                                                                

        SCF,CCSD
   -852.7542085,   -853.5995527
   -852.7290839,   -853.5693941
   -852.5895166,   -853.4652460
   -852.5504320,   -853.3495740
   -852.5272470,   -853.3442569
   -852.0747209,   -852.8504847
   -851.0993577,   -851.8425137
   -849.5485385,   -850.2566255
   -815.3665372,   -815.8115201
   -852.7150519,   -853.5980450
                                                  
-->
<table xmlns="http://www.w3.org/1999/xhtml" id="table1">
<thead><tr><th>SCF</th><th>CCSD</th></tr></thead><tbody>
<tr><td>   -852.7542085</td><td>   -853.5995527</td></tr>
<tr><td>   -852.7290839</td><td>   -853.5693941</td></tr>
<tr><td>   -852.5895166</td><td>   -853.4652460</td></tr>
<tr><td>   -852.5504320</td><td>   -853.3495740</td></tr>
<tr><td>   -852.5272470</td><td>   -853.3442569</td></tr>
<tr><td>   -852.0747209</td><td>   -852.8504847</td></tr>
<tr><td>   -851.0993577</td><td>   -851.8425137</td></tr>
<tr><td>   -849.5485385</td><td>   -850.2566255</td></tr>
<tr><td>   -815.3665372</td><td>   -815.8115201</td></tr>
<tr><td>   -852.7150519</td><td>   -853.5980450</td></tr>
</tbody></table>
<!--

        RCCSD(T)        RHF-SCF         MULTI           RHF-SCF         RCCSD(T)        RHF-SCF         RCCSD(T)        RHF-SCF 
   -853.59804500   -852.71505189   -852.66725788   -852.70861695   -815.81152013   -815.36653716   -850.25662548   -849.54853851
 **********************************************************************************************************************************
 Variable memory released
  --><stm:metadataList>
   <stm:metadata name="dc:date" content="2018-01-16T16:45:31-07:00"/>
   <stm:metadata name="dc:creator" content="cmelton"/>
   <stm:metadata name="dc:title" content="Calculation for Be atom, singlet and triplet"/>
   <stm:metadata name="cmlm:insilico" content="Molpro"/>
  </stm:metadataList><!--
  --><platform>
   <version major="2012" minor="1" SHA="4c1979699e6aeda0524d0210415ba82a958648b0"
     integer_bits="64" parallelism="serial">
    2012.1
    <date year="2018" month="1" day="16" hour="15" minute="53" second="40">
     2018-01-16T15:53:40
    </date>
   </version>
   <licence id="sandiacon"/>
   <parallel processes="1" nodes="1" all_processes="1" openmp="1"/>
   <machine hostname="doppio.sandia.gov" architecture="x86_64">
    Linux-3.10.0-693.5.2.el7.x86_64/doppio.sandia.gov(x86_64) 64 bit serial version
    <sysinfo name="cpu MHz" content="1499.941"/>
    <sysinfo name="MemTotal" content="394701572 kB"/>
    <sysinfo name="vendor_id" content="GenuineIntel"/>
    <sysinfo name="cpu family" content="6"/>
    <sysinfo name="model name" content="Intel(R) Xeon(R) Gold 6130 CPU @ 2.10GHz"/>
    <sysinfo name="flags"
      content="fpu vme de pse tsc msr pae mce cx8 apic sep mtrr pge mca cmov pat pse36 clflush dts acpi mmx fxsr sse sse2 ss ht tm pbe syscall nx pdpe1gb rdtscp lm constant_tsc art arch_perfmon pebs bts rep_good nopl xtopology nonstop_tsc aperfmperf eagerfpu pni pclmulqdq dtes64 monitor ds_cpl vmx smx est tm2 ssse3 fma cx16 xtpr pdcm pcid dca sse4_1 sse4_2 x2apic movbe popcnt tsc_deadline_timer aes xsave avx f16c rdrand lahf_lm abm 3dnowprefetch epb cat_l3 cdp_l3 intel_pt tpr_shadow vnmi flexpriority ept vpid fsgsbase tsc_adjust bmi1 hle avx2 smep bmi2 erms invpcid rtm cqm mpx rdt_a avx512f avx512dq rdseed adx smap clflushopt clwb avx512cd avx512bw avx512vl xsaveopt xsavec xgetbv1 cqm_llc cqm_occup_llc cqm_mbm_total cqm_mbm_local dtherm ida arat pln pts hwp hwp_act_window hwp_epp hwp_pkg_req"/>
    <sysinfo name="MemTotal" content="394701572 kB"/>
    <sysinfo name="cache size" content="22528 KB"/>
    <sysinfo name="ncpu" content="64"/>
   </machine>
  </platform><!--
  -->
  <input>
   <p> ***,Calculation for Be atom, singlet and triplet </p>
   <p> memory,512,m </p>
   <p> gthresh,twoint=1.e-12 </p>
   <p> geometry={ </p>
   <p> 1 </p>
   <p> Ti </p>
   <p> Ti  0.0 0.0 0.0 </p>
   <p> } </p>
   <p> basis={ </p>
   <include file="/remote/cmelton/data/corrECP/Ti/ae/dkh/basis/aug-cc-pwCV5Z-dk.basis"/>
   <p> } </p>
   <p> set,dkroll=1,dkho=10,dkhp=4 </p>
   <include file="/remote/cmelton/data/corrECP/Ti/ae/dkh/basis/states.proc"/>
   <p> do i=1,10 </p>
   <p>    if (i.eq.1) then </p>
   <p>       Is2d2 </p>
   <p>    else if (i.eq.2) then </p>
   <p>       Is1d3 </p>
   <p>    else if (i.eq.3) then </p>
   <p>       Id4 </p>
   <p>    else if (i.eq.4) then </p>
   <p>       IIs1d2 </p>
   <p>    else if (i.eq.5) then </p>
   <p>       IId3 </p>
   <p>    else if (i.eq.6) then </p>
   <p>       IIId2 </p>
   <p>    else if (i.eq.7) then </p>
   <p>       IVd1 </p>
   <p>    else if (i.eq.8) then </p>
   <p>       V </p>
   <p>    else if (i.eq.9) then </p>
   <p>       XI </p>
   <p>    else if (i.eq.10) then </p>
   <p>       As2d3 </p>
   <p>    end if </p>
   <p>    scf(i)=energy </p>
   <p>     _CC_NORM_MAX=2.0 </p>
   <p>     {rccsd(t),maxit=100;core} </p>
   <p>     ccsd(i)=energy </p>
   <p> enddo </p>
   <p> table,scf,ccsd </p>
   <p> save </p>
   <p> type,csv </p>
  </input>
  <!--
 --></job><!--
--></molpro>
