 Entering Gaussian System, Link 0=g16
 Initial command:
 /home1/apps/gaussian/16rA.03/g16/l1.exe "/tmp/Gau-197484.inp" -scrdir="/tmp/"
 Entering Link 1 = /home1/apps/gaussian/16rA.03/g16/l1.exe PID=    197485.
  
 Copyright (c) 1988,1990,1992,1993,1995,1998,2003,2009,2016,
            Gaussian, Inc.  All Rights Reserved.
  
 This is part of the Gaussian(R) 16 program.  It is based on
 the Gaussian(R) 09 system (copyright 2009, Gaussian, Inc.),
 the Gaussian(R) 03 system (copyright 2003, Gaussian, Inc.),
 the Gaussian(R) 98 system (copyright 1998, Gaussian, Inc.),
 the Gaussian(R) 94 system (copyright 1995, Gaussian, Inc.),
 the Gaussian 92(TM) system (copyright 1992, Gaussian, Inc.),
 the Gaussian 90(TM) system (copyright 1990, Gaussian, Inc.),
 the Gaussian 88(TM) system (copyright 1988, Gaussian, Inc.),
 the Gaussian 86(TM) system (copyright 1986, Carnegie Mellon
 University), and the Gaussian 82(TM) system (copyright 1983,
 Carnegie Mellon University). Gaussian is a federally registered
 trademark of Gaussian, Inc.
  
 This software contains proprietary and confidential information,
 including trade secrets, belonging to Gaussian, Inc.
  
 This software is provided under written license and may be
 used, copied, transmitted, or stored only in accord with that
 written license.
  
 The following legend is applicable only to US Government
 contracts under FAR:
  
                    RESTRICTED RIGHTS LEGEND
  
 Use, reproduction and disclosure by the US Government is
 subject to restrictions as set forth in subparagraphs (a)
 and (c) of the Commercial Computer Software - Restricted
 Rights clause in FAR 52.227-19.
  
 Gaussian, Inc.
 340 Quinnipiac St., Bldg. 40, Wallingford CT 06492
  
  
 ---------------------------------------------------------------
 Warning -- This program may not be used in any manner that
 competes with the business of Gaussian, Inc. or will provide
 assistance to any competitor of Gaussian, Inc.  The licensee
 of this program is prohibited from giving any competitor of
 Gaussian, Inc. access to this program.  By using this program,
 the user acknowledges that Gaussian, Inc. is engaged in the
 business of creating and licensing software in the field of
 computational chemistry and represents and warrants to the
 licensee that it is not a competitor of Gaussian, Inc. and that
 it will not use this program in any manner prohibited above.
 ---------------------------------------------------------------
  

 Cite this work as:
 Gaussian 16, Revision A.03,
 M. J. Frisch, G. W. Trucks, H. B. Schlegel, G. E. Scuseria, 
 M. A. Robb, J. R. Cheeseman, G. Scalmani, V. Barone, 
 G. A. Petersson, H. Nakatsuji, X. Li, M. Caricato, A. V. Marenich, 
 J. Bloino, B. G. Janesko, R. Gomperts, B. Mennucci, H. P. Hratchian, 
 J. V. Ortiz, A. F. Izmaylov, J. L. Sonnenberg, D. Williams-Young, 
 F. Ding, F. Lipparini, F. Egidi, J. Goings, B. Peng, A. Petrone, 
 T. Henderson, D. Ranasinghe, V. G. Zakrzewski, J. Gao, N. Rega, 
 G. Zheng, W. Liang, M. Hada, M. Ehara, K. Toyota, R. Fukuda, 
 J. Hasegawa, M. Ishida, T. Nakajima, Y. Honda, O. Kitao, H. Nakai, 
 T. Vreven, K. Throssell, J. A. Montgomery, Jr., J. E. Peralta, 
 F. Ogliaro, M. J. Bearpark, J. J. Heyd, E. N. Brothers, K. N. Kudin, 
 V. N. Staroverov, T. A. Keith, R. Kobayashi, J. Normand, 
 K. Raghavachari, A. P. Rendell, J. C. Burant, S. S. Iyengar, 
 J. Tomasi, M. Cossi, J. M. Millam, M. Klene, C. Adamo, R. Cammi, 
 J. W. Ochterski, R. L. Martin, K. Morokuma, O. Farkas, 
 J. B. Foresman, and D. J. Fox, Gaussian, Inc., Wallingford CT, 2016.
 
 ******************************************
 Gaussian 16:  ES64L-G16RevA.03 25-Dec-2016
                13-Feb-2018 
 ******************************************
 %mem=64GB
 %cpu=0-31
 SetSPE:  set environment variable "MP_BIND" = "yes"
 SetSPE:  set environment variable "MP_BLIST" = "0,1,2,3,4,5,6,7,8,9,10,11,12,13,14,15,16,17,18,19,20,21,22,23,24,25,26,27,28,29,30,31"
 Will use up to   32 processors via shared memory.
 %chk=ScH
 ----------------------------------------------------------------------
 #P ROCCSD(T)=(maxcyc=150, Full)/Gen 5d 7f SCF=(maxcycles=300) Integral
 (NoXCTest, DKHSO) MaxDisk=500GB Pop=Regular IOp(5/15=2) Guess=Read
 ----------------------------------------------------------------------
 1/38=1,172=1/1;
 2/12=2,17=6,18=5,40=1/2;
 3/5=7,8=11,11=2,25=1,30=1,47=8,91=5,116=101/1,2,3;
 4/5=1/1;
 5/5=2,7=300,15=2,38=6/2;
 8/5=-1,6=4,9=120000,10=90/1,4;
 9/5=7,6=150,14=2/13;
 6//1;
 99/5=1,9=1/99;
 Leave Link    1 at Tue Feb 13 14:13:15 2018, MaxMem=  8589934592 cpu:               8.4 elap:               0.3
 (Enter /home1/apps/gaussian/16rA.03/g16/l101.exe)
 ---
 ScH
 ---
 Symbolic Z-matrix:
 Charge =  0 Multiplicity = 1
 Sc                    0.        0.        0. 
 H                     0.        0.        1.7 
 
 ITRead=  0  0
 MicOpt= -1 -1
 NAtoms=      2 NQM=        2 NQMF=       0 NMMI=      0 NMMIF=      0
                NMic=       0 NMicF=      0.
                    Isotopes and Nuclear Properties:
 (Nuclear quadrupole moments (NQMom) in fm**2, nuclear magnetic moments (NMagM)
  in nuclear magnetons)

  Atom         1           2
 IAtWgt=          45           1
 AtmWgt=  44.9559136   1.0078250
 NucSpn=           7           1
 AtZEff=  -0.0000000  -0.0000000
 NQMom=  -22.0000000   0.0000000
 NMagM=    4.7564830   2.7928460
 AtZNuc=  21.0000000   1.0000000
 Leave Link  101 at Tue Feb 13 14:13:15 2018, MaxMem=  8589934592 cpu:               2.9 elap:               0.1
 (Enter /home1/apps/gaussian/16rA.03/g16/l202.exe)
                          Input orientation:                          
 ---------------------------------------------------------------------
 Center     Atomic      Atomic             Coordinates (Angstroms)
 Number     Number       Type             X           Y           Z
 ---------------------------------------------------------------------
      1         21           0        0.000000    0.000000    0.000000
      2          1           0        0.000000    0.000000    1.700000
 ---------------------------------------------------------------------
 Stoichiometry    HSc
 Framework group  C*V[C*(HSc)]
 Deg. of freedom     1
 Full point group                 C*V     NOp   4
 Largest Abelian subgroup         C2V     NOp   4
 Largest concise Abelian subgroup C1      NOp   1
                         Standard orientation:                         
 ---------------------------------------------------------------------
 Center     Atomic      Atomic             Coordinates (Angstroms)
 Number     Number       Type             X           Y           Z
 ---------------------------------------------------------------------
      1         21           0        0.000000    0.000000    0.077273
      2          1           0        0.000000    0.000000   -1.622727
 ---------------------------------------------------------------------
 Rotational constants (GHZ):           0.0000000         177.4037241         177.4037241
 Leave Link  202 at Tue Feb 13 14:13:16 2018, MaxMem=  8589934592 cpu:               0.7 elap:               0.1
 (Enter /home1/apps/gaussian/16rA.03/g16/l301.exe)
 General basis read from cards:  (5D, 7F)
 Centers:       1
 S 1 1.00
     Exponent=  1.1949500000D+08 Coefficients=  1.0000000000D+00
 S 1 1.00
     Exponent=  2.1499200000D+07 Coefficients=  1.0000000000D+00
 S 1 1.00
     Exponent=  4.8070300000D+06 Coefficients=  1.0000000000D+00
 S 1 1.00
     Exponent=  1.2844000000D+06 Coefficients=  1.0000000000D+00
 S 1 1.00
     Exponent=  3.9659500000D+05 Coefficients=  1.0000000000D+00
 S 1 1.00
     Exponent=  1.3757500000D+05 Coefficients=  1.0000000000D+00
 S 1 1.00
     Exponent=  5.2366800000D+04 Coefficients=  1.0000000000D+00
 S 1 1.00
     Exponent=  2.1454900000D+04 Coefficients=  1.0000000000D+00
 S 1 1.00
     Exponent=  9.3160600000D+03 Coefficients=  1.0000000000D+00
 S 1 1.00
     Exponent=  4.2354000000D+03 Coefficients=  1.0000000000D+00
 S 1 1.00
     Exponent=  1.9974400000D+03 Coefficients=  1.0000000000D+00
 S 1 1.00
     Exponent=  9.7043000000D+02 Coefficients=  1.0000000000D+00
 S 1 1.00
     Exponent=  4.8327100000D+02 Coefficients=  1.0000000000D+00
 S 1 1.00
     Exponent=  2.4580600000D+02 Coefficients=  1.0000000000D+00
 S 1 1.00
     Exponent=  1.2736000000D+02 Coefficients=  1.0000000000D+00
 S 1 1.00
     Exponent=  6.7078800000D+01 Coefficients=  1.0000000000D+00
 S 1 1.00
     Exponent=  3.5837100000D+01 Coefficients=  1.0000000000D+00
 S 1 1.00
     Exponent=  1.9371300000D+01 Coefficients=  1.0000000000D+00
 S 1 1.00
     Exponent=  1.0557100000D+01 Coefficients=  1.0000000000D+00
 S 1 1.00
     Exponent=  5.7724900000D+00 Coefficients=  1.0000000000D+00
 S 1 1.00
     Exponent=  3.1454000000D+00 Coefficients=  1.0000000000D+00
 S 1 1.00
     Exponent=  1.6924900000D+00 Coefficients=  1.0000000000D+00
 S 1 1.00
     Exponent=  8.8864900000D-01 Coefficients=  1.0000000000D+00
 S 1 1.00
     Exponent=  4.7109300000D-01 Coefficients=  1.0000000000D+00
 S 1 1.00
     Exponent=  2.4928600000D-01 Coefficients=  1.0000000000D+00
 S 1 1.00
     Exponent=  9.9988000000D-02 Coefficients=  1.0000000000D+00
 S 1 1.00
     Exponent=  4.6369000000D-02 Coefficients=  1.0000000000D+00
 S 1 1.00
     Exponent=  2.1606000000D-02 Coefficients=  1.0000000000D+00
 S 1 1.00
     Exponent=  4.3955000000D+00 Coefficients=  1.0000000000D+00
 S 1 1.00
     Exponent=  1.1564000000D+00 Coefficients=  1.0000000000D+00
 S 1 1.00
     Exponent=  1.0070000000D-02 Coefficients=  1.0000000000D+00
 P 1 1.00
     Exponent=  5.5070500000D+04 Coefficients=  1.0000000000D+00
 P 1 1.00
     Exponent=  1.3741700000D+04 Coefficients=  1.0000000000D+00
 P 1 1.00
     Exponent=  4.3654000000D+03 Coefficients=  1.0000000000D+00
 P 1 1.00
     Exponent=  1.6422600000D+03 Coefficients=  1.0000000000D+00
 P 1 1.00
     Exponent=  6.9406600000D+02 Coefficients=  1.0000000000D+00
 P 1 1.00
     Exponent=  3.1774200000D+02 Coefficients=  1.0000000000D+00
 P 1 1.00
     Exponent=  1.5389900000D+02 Coefficients=  1.0000000000D+00
 P 1 1.00
     Exponent=  7.7766500000D+01 Coefficients=  1.0000000000D+00
 P 1 1.00
     Exponent=  4.0673600000D+01 Coefficients=  1.0000000000D+00
 P 1 1.00
     Exponent=  2.1906100000D+01 Coefficients=  1.0000000000D+00
 P 1 1.00
     Exponent=  1.2079500000D+01 Coefficients=  1.0000000000D+00
 P 1 1.00
     Exponent=  6.7534900000D+00 Coefficients=  1.0000000000D+00
 P 1 1.00
     Exponent=  3.7632100000D+00 Coefficients=  1.0000000000D+00
 P 1 1.00
     Exponent=  2.0497300000D+00 Coefficients=  1.0000000000D+00
 P 1 1.00
     Exponent=  1.0864500000D+00 Coefficients=  1.0000000000D+00
 P 1 1.00
     Exponent=  5.6408700000D-01 Coefficients=  1.0000000000D+00
 P 1 1.00
     Exponent=  2.8102000000D-01 Coefficients=  1.0000000000D+00
 P 1 1.00
     Exponent=  1.2143200000D-01 Coefficients=  1.0000000000D+00
 P 1 1.00
     Exponent=  5.3345000000D-02 Coefficients=  1.0000000000D+00
 P 1 1.00
     Exponent=  2.3143000000D-02 Coefficients=  1.0000000000D+00
 P 1 1.00
     Exponent=  5.1300000000D+00 Coefficients=  1.0000000000D+00
 P 1 1.00
     Exponent=  1.2315000000D+00 Coefficients=  1.0000000000D+00
 P 1 1.00
     Exponent=  1.0040000000D-02 Coefficients=  1.0000000000D+00
 D 1 1.00
     Exponent=  2.0684900000D+02 Coefficients=  1.0000000000D+00
 D 1 1.00
     Exponent=  6.0997700000D+01 Coefficients=  1.0000000000D+00
 D 1 1.00
     Exponent=  2.3308500000D+01 Coefficients=  1.0000000000D+00
 D 1 1.00
     Exponent=  9.9288100000D+00 Coefficients=  1.0000000000D+00
 D 1 1.00
     Exponent=  4.4867000000D+00 Coefficients=  1.0000000000D+00
 D 1 1.00
     Exponent=  2.1263200000D+00 Coefficients=  1.0000000000D+00
 D 1 1.00
     Exponent=  1.0200800000D+00 Coefficients=  1.0000000000D+00
 D 1 1.00
     Exponent=  4.8537300000D-01 Coefficients=  1.0000000000D+00
 D 1 1.00
     Exponent=  2.2719800000D-01 Coefficients=  1.0000000000D+00
 D 1 1.00
     Exponent=  1.0420400000D-01 Coefficients=  1.0000000000D+00
 D 1 1.00
     Exponent=  4.6835000000D-02 Coefficients=  1.0000000000D+00
 D 1 1.00
     Exponent=  2.0259000000D-02 Coefficients=  1.0000000000D+00
 D 1 1.00
     Exponent=  2.6491000000D+00 Coefficients=  1.0000000000D+00
 D 1 1.00
     Exponent=  1.4102000000D+00 Coefficients=  1.0000000000D+00
 D 1 1.00
     Exponent=  8.7600000000D-03 Coefficients=  1.0000000000D+00
 F 1 1.00
     Exponent=  3.5989000000D+00 Coefficients=  1.0000000000D+00
 F 1 1.00
     Exponent=  1.5145000000D+00 Coefficients=  1.0000000000D+00
 F 1 1.00
     Exponent=  6.3730000000D-01 Coefficients=  1.0000000000D+00
 F 1 1.00
     Exponent=  2.6820000000D-01 Coefficients=  1.0000000000D+00
 F 1 1.00
     Exponent=  8.0900000000D-02 Coefficients=  1.0000000000D+00
 F 1 1.00
     Exponent=  2.4400000000D-02 Coefficients=  1.0000000000D+00
 G 1 1.00
     Exponent=  3.1618000000D+00 Coefficients=  1.0000000000D+00
 G 1 1.00
     Exponent=  1.3736000000D+00 Coefficients=  1.0000000000D+00
 G 1 1.00
     Exponent=  5.9680000000D-01 Coefficients=  1.0000000000D+00
 G 1 1.00
     Exponent=  1.7110000000D-01 Coefficients=  1.0000000000D+00
 G 1 1.00
     Exponent=  4.9050000000D-02 Coefficients=  1.0000000000D+00
 H 1 1.00
     Exponent=  2.9441000000D+00 Coefficients=  1.0000000000D+00
 H 1 1.00
     Exponent=  1.1635000000D+00 Coefficients=  1.0000000000D+00
 H 1 1.00
     Exponent=  3.2900000000D-01 Coefficients=  1.0000000000D+00
 H 1 1.00
     Exponent=  9.3030000000D-02 Coefficients=  1.0000000000D+00
 I 1 1.00
     Exponent=  3.1150000000D+00 Coefficients=  1.0000000000D+00
 I 1 1.00
     Exponent=  1.1682000000D+00 Coefficients=  1.0000000000D+00
 I 1 1.00
     Exponent=  4.3810000000D-01 Coefficients=  1.0000000000D+00
 ****
 Centers:       2
 S 1 1.00
     Exponent=  4.0200000000D+02 Coefficients=  1.0000000000D+00
 S 1 1.00
     Exponent=  6.0240000000D+01 Coefficients=  1.0000000000D+00
 S 1 1.00
     Exponent=  1.3730000000D+01 Coefficients=  1.0000000000D+00
 S 1 1.00
     Exponent=  3.9050000000D+00 Coefficients=  1.0000000000D+00
 S 1 1.00
     Exponent=  1.2830000000D+00 Coefficients=  1.0000000000D+00
 S 1 1.00
     Exponent=  4.6550000000D-01 Coefficients=  1.0000000000D+00
 S 1 1.00
     Exponent=  1.8110000000D-01 Coefficients=  1.0000000000D+00
 S 1 1.00
     Exponent=  7.2790000000D-02 Coefficients=  1.0000000000D+00
 S 1 1.00
     Exponent=  2.0700000000D-02 Coefficients=  1.0000000000D+00
 P 1 1.00
     Exponent=  4.5160000000D+00 Coefficients=  1.0000000000D+00
 P 1 1.00
     Exponent=  1.7120000000D+00 Coefficients=  1.0000000000D+00
 P 1 1.00
     Exponent=  6.4900000000D-01 Coefficients=  1.0000000000D+00
 P 1 1.00
     Exponent=  2.4600000000D-01 Coefficients=  1.0000000000D+00
 P 1 1.00
     Exponent=  7.4400000000D-02 Coefficients=  1.0000000000D+00
 D 1 1.00
     Exponent=  2.9500000000D+00 Coefficients=  1.0000000000D+00
 D 1 1.00
     Exponent=  1.2060000000D+00 Coefficients=  1.0000000000D+00
 D 1 1.00
     Exponent=  4.9300000000D-01 Coefficients=  1.0000000000D+00
 D 1 1.00
     Exponent=  1.5600000000D-01 Coefficients=  1.0000000000D+00
 F 1 1.00
     Exponent=  2.5060000000D+00 Coefficients=  1.0000000000D+00
 F 1 1.00
     Exponent=  8.7500000000D-01 Coefficients=  1.0000000000D+00
 F 1 1.00
     Exponent=  2.7400000000D-01 Coefficients=  1.0000000000D+00
 G 1 1.00
     Exponent=  2.3580000000D+00 Coefficients=  1.0000000000D+00
 G 1 1.00
     Exponent=  5.4300000000D-01 Coefficients=  1.0000000000D+00
 ****
 Ernie: Thresh=  0.10000D-02 Tol=  0.10000D-05 Strict=F.
 There are   248 symmetry adapted cartesian basis functions of A1  symmetry.
 There are    79 symmetry adapted cartesian basis functions of A2  symmetry.
 There are   137 symmetry adapted cartesian basis functions of B1  symmetry.
 There are   137 symmetry adapted cartesian basis functions of B2  symmetry.
 There are   169 symmetry adapted basis functions of A1  symmetry.
 There are    59 symmetry adapted basis functions of A2  symmetry.
 There are   100 symmetry adapted basis functions of B1  symmetry.
 There are   100 symmetry adapted basis functions of B2  symmetry.
   428 basis functions,   601 primitive gaussians,   601 cartesian basis functions
    11 alpha electrons       11 beta electrons
       nuclear repulsion energy         6.5368949584 Hartrees.
 IExCor=    0 DFT=F Ex=HF Corr=None ExCW=0 ScaHFX=  1.000000
 ScaDFX=  1.000000  1.000000  1.000000  1.000000 ScalE2=  1.000000  1.000000
 IRadAn=      5 IRanWt=     -1 IRanGd=            0 ICorTp=0 IEmpDi=  4
 NAtoms=    2 NActive=    2 NUniq=    2 SFac= 1.00D+00 NAtFMM=   60 NAOKFM=F Big=F
 Integral buffers will be    131072 words long.
 Raffenetti 2 integral format.
 Two-electron integral symmetry is turned on.
 FoFCou: FMM=F IPFlag=           8 FMFlag=           0 FMFlg1=           0
         NFxFlg=           0 DoJE=F BraDBF=T KetDBF=T FulRan=T
         wScrn=  0.000000 ICntrl=       600 IOpCl=  3 I1Cent=           6 NGrid=           0
         NMat0=    1 NMatS0=      2 NMatT0=    0 NMatD0=    1 NMtDS0=    0 NMtDT0=    0
 Symmetry not used in FoFCou.
 Finite nuclear repulsion energy         6.5368949584.
 Leave Link  301 at Tue Feb 13 14:13:17 2018, MaxMem=  8589934592 cpu:              16.7 elap:               0.6
 (Enter /home1/apps/gaussian/16rA.03/g16/l302.exe)
 Using DK4 one-electron Hamiltonian with SO, DoBoet=T.
 NPDir=0 NMtPBC=     1 NCelOv=     1 NCel=       1 NClECP=     1 NCelD=      1
         NCelK=      1 NCelE2=     1 NClLst=     1 CellRange=     0.0.
 One-electron integrals computed using PRISM.
 One-electron integral symmetry used in STVInt
 FoFCou: FMM=F IPFlag=           8 FMFlag=      100000 FMFlg1=           0
         NFxFlg=           0 DoJE=T BraDBF=F KetDBF=T FulRan=T
         wScrn=  0.000000 ICntrl=       500 IOpCl=  0 I1Cent=           4 NGrid=           0
         NMat0=    1 NMatS0=      1 NMatT0=    0 NMatD0=    1 NMtDS0=    0 NMtDT0=    0
 Symmetry not used in FoFCou.
 UnConB:  Uncontracting AO basis from    428 functions to    428 functions (excluding duplicates).
 GSVD:  received Info=                   1 from GESDD.
 RelInt: Using uncontracted basis, NUnBas=   428 NBsUse=   428 0.100E-13 EigKep=  2.08D-07 EigRej= -1.00D+00
 NBasis=   428 RedAO= T EigKep=  1.08D-06  NBF=   169    59   100   100
 NBsUse=   426 1.00D-06 EigRej=  9.05D-07 NBFU=   167    59   100   100
 Leave Link  302 at Tue Feb 13 14:13:44 2018, MaxMem=  8589934592 cpu:             704.6 elap:              26.6
 (Enter /home1/apps/gaussian/16rA.03/g16/l303.exe)
 DipDrv:  MaxL=1.
 Leave Link  303 at Tue Feb 13 14:13:44 2018, MaxMem=  8589934592 cpu:               4.6 elap:               0.2
 (Enter /home1/apps/gaussian/16rA.03/g16/l401.exe)
 Initial guess from the checkpoint file:  "ScH.chk"
 B after Tr=     0.000000    0.000000    0.000000
         Rot=    1.000000    0.000000    0.000000    0.000000 Ang=   0.00 deg.
 Guess basis will be translated and rotated to current coordinates.
 JPrj=2 DoOrth=T DoCkMO=T.
 Initial guess orbital symmetries:
       Occupied  (SG) (SG) (PI) (PI) (SG) (SG) (SG) (PI) (PI) (SG)
                 (SG)
       Virtual   (PI) (PI) (SG) (SG) (SG) (DLTA) (DLTA) (PI) (PI)
                 (PI) (PI) (SG) (DLTA) (DLTA) (SG) (PI) (PI) (SG)
                 (SG) (PI) (PI) (SG) (PI) (PI) (PHI) (PHI) (DLTA)
                 (DLTA) (DLTA) (DLTA) (PI) (PI) (SG) (SG) (SG)
                 (PI) (PI) (SG) (DLTA) (DLTA) (DLTA) (DLTA) (PI)
                 (PI) (?A) (?A) (PHI) (PHI) (SG) (PI) (PI) (SG)
                 (PI) (PI) (PHI) (PHI) (DLTA) (DLTA) (SG) (SG)
                 (PI) (PI) (SG) (SG) (PI) (PI) (DLTA) (DLTA) (SG)
                 (DLTA) (DLTA) (PI) (PI) (SG) (PI) (PI) (PI) (PI)
                 (SG) (SG) (?A) (?A) (PHI) (PHI) (DLTA) (DLTA)
                 (PI) (PI) (PHI) (PHI) (DLTA) (DLTA) (SG) (PI)
                 (PI) (SG) (DLTA) (DLTA) (SG) (PI) (PI) (SG) (SG)
                 (PI) (PI) (DLTA) (DLTA) (SG) (PI) (PI) (PI) (PI)
                 (SG) (SG) (DLTA) (DLTA) (PI) (PI) (SG) (PHI) (PHI)
                 (DLTA) (DLTA) (PI) (PI) (SG) (?A) (?A) (PHI) (PHI)
                 (DLTA) (DLTA) (PI) (PI) (SG) (SG) (PI) (PI) (SG)
                 (SG) (DLTA) (DLTA) (PI) (PI) (SG) (SG) (PI) (PI)
                 (SG) (DLTA) (DLTA) (PI) (PI) (SG) (SG) (PI) (PI)
                 (SG) (DLTA) (DLTA) (PI) (PI) (SG) (SG) (SG) (PI)
                 (PI) (SG) (DLTA) (DLTA) (PI) (PI) (SG) (PI) (PI)
                 (SG) (SG) (PI) (PI) (SG) (SG) (PI) (PI) (SG) (SG)
                 (PI) (PI) (SG) (SG) (PI) (PI) (SG) (SG) (SG) (PI)
                 (PI) (SG) (SG) (SG) (SG) (SG) (SG) (DLTA) (SG)
                 (SG) (SG) (DLTA) (SG) (SG) (SG) (SG) (SG) (DLTA)
                 (SG) (DLTA) (SG) (SG) (DLTA) (SG) (SG) (DLTA)
                 (SG) (?A) (SG) (DLTA) (SG) (SG) (DLTA) (SG) (?A)
                 (DLTA) (SG) (SG) (DLTA) (?A) (SG) (SG) (DLTA)
                 (SG) (SG) (DLTA) (?A) (SG) (?A) (SG) (DLTA) (SG)
                 (DLTA) (SG) (DLTA) (SG) (?A) (SG) (DLTA) (SG)
                 (SG) (SG) (DLTA) (?A) (DLTA) (?A) (DLTA) (SG)
                 (DLTA) (?A) (SG) (DLTA) (SG) (?A) (DLTA) (SG)
                 (SG) (SG) (?A) (SG) (DLTA) (DLTA) (DLTA) (DLTA)
                 (DLTA) (DLTA) (?A) (DLTA) (DLTA) (?A) (DLTA) (DLTA)
                 (?A) (SG) (DLTA) (DLTA) (?A) (?A) (DLTA) (DLTA)
                 (DLTA) (?A) (DLTA) (SG) (DLTA) (?A) (DLTA) (?A)
                 (DLTA) (DLTA) (?A) (DLTA) (?A) (DLTA) (SG) (?A)
                 (PI) (PI) (PI) (PI) (PI) (PI) (PI) (PHI) (PI)
                 (PI) (PHI) (PI) (PI) (PI) (PHI) (PI) (PI) (PI)
                 (PHI) (?B) (PHI) (PI) (?B) (PHI) (PI) (PI) (PI)
                 (PHI) (PI) (PHI) (PI) (PHI) (?B) (PI) (PI) (PI)
                 (PHI) (PI) (?B) (PI) (PHI) (PHI) (PI) (PHI) (PI)
                 (?B) (PHI) (PI) (PHI) (PHI) (?B) (?B) (PI) (PI)
                 (PI) (PI) (PI) (PI) (PI) (PHI) (PI) (PI) (PHI)
                 (PI) (PI) (PI) (PHI) (PI) (PI) (PI) (PHI) (?B)
                 (PHI) (PI) (?B) (PHI) (PI) (PI) (PI) (PHI) (PI)
                 (PHI) (PI) (PHI) (?B) (PI) (PI) (PI) (PHI) (PI)
                 (?B) (PI) (PHI) (PHI) (PI) (PHI) (PI) (?B) (PHI)
                 (PI) (PHI) (PHI) (?B) (?B)
 The electronic state of the initial guess is 1-SG.
 Leave Link  401 at Tue Feb 13 14:13:46 2018, MaxMem=  8589934592 cpu:              34.2 elap:               1.3
 (Enter /home1/apps/gaussian/16rA.03/g16/l502.exe)
 Keep R1 and R2 ints in memory in symmetry-blocked form, NReq=5277864979.
 FoFCou: FMM=F IPFlag=           8 FMFlag=           0 FMFlg1=           0
         NFxFlg=           0 DoJE=F BraDBF=F KetDBF=F FulRan=T
         wScrn=  0.000000 ICntrl=       600 IOpCl=  0 I1Cent=           0 NGrid=           0
         NMat0=    1 NMatS0=  91806 NMatT0=    0 NMatD0=    1 NMtDS0=    0 NMtDT0=    0
 Petite list used in FoFCou.
 Restricted open shell SCF:
 Using DIIS extrapolation, IDIIS=  1040.
 NGot=  8589934592 LenX=  6462098699 LenY=  6461736897
 Requested convergence on RMS density matrix=1.00D-08 within 300 cycles.
 Requested convergence on MAX density matrix=1.00D-06.
 Requested convergence on             energy=1.00D-06.
 No special actions if energy rises.

 Cycle   1  Pass 1  IDiag  1:
 E= -763.829760929428    
 DIIS: error= 2.27D+00 at cycle   1 NSaved=   1.
 NSaved= 1 IEnMin= 1 EnMin= -763.829760929428     IErMin= 1 ErrMin= 2.27D+00
 ErrMax= 2.27D+00  0.00D+00 EMaxC= 1.00D-01 BMatC= 6.31D+02 BMatP= 6.31D+02
 IDIUse=3 WtCom= 0.00D+00 WtEn= 1.00D+00
 Coeff-Com:  0.100D+01
 Coeff-En:   0.100D+01
 Coeff:      0.100D+01
 Fock symm off for IB=3 I1=   75 I=  301 J=  106 Cut=1.00D-07 Err=1.33D-07
 Fock matrix is not symmetric: symmetry in diagonalization turned off.
 Gap=     0.031 Goal=   None    Shift=    0.000
 GapD=    0.031 DampG=0.250 DampE=0.125 DampFc=0.1250 IDamp=-1.
 Damping current iteration by 1.25D-01
 RMSDP=9.60D-04 MaxDP=7.19D-02              OVMax= 1.00D+00

 Cycle   2  Pass 1  IDiag  1:
 E= -763.829985550382     Delta-E=       -0.000224620953 Rises=F Damp=T
 DIIS: error= 1.98D+00 at cycle   2 NSaved=   2.
 NSaved= 2 IEnMin= 2 EnMin= -763.829985550382     IErMin= 2 ErrMin= 1.98D+00
 ErrMax= 1.98D+00  0.00D+00 EMaxC= 1.00D-01 BMatC= 4.83D+02 BMatP= 6.31D+02
 IDIUse=3 WtCom= 0.00D+00 WtEn= 1.00D+00
 Coeff-Com: -0.700D+01 0.800D+01
 Coeff-En:   0.000D+00 0.100D+01
 Coeff:      0.000D+00 0.100D+01
 Gap=     0.239 Goal=   None    Shift=    0.000
 RMSDP=8.45D-04 MaxDP=6.33D-02 DE=-2.25D-04 OVMax= 8.56D-04

 Cycle   3  Pass 1  IDiag  1:
 E= -763.831709204772     Delta-E=       -0.001723654390 Rises=F Damp=F
 DIIS: error= 7.26D-04 at cycle   3 NSaved=   3.
 NSaved= 3 IEnMin= 3 EnMin= -763.831709204772     IErMin= 3 ErrMin= 7.26D-04
 ErrMax= 7.26D-04  0.00D+00 EMaxC= 1.00D-01 BMatC= 2.52D-05 BMatP= 4.83D+02
 IDIUse=3 WtCom= 9.93D-01 WtEn= 7.26D-03
 Large coefficients: NSaved=  3 BigCof=   92.58 CofMax=   10.00 Det=-2.51D-09
 Inversion failed.  Reducing to  2 matrices.
 Coeff-Com: -0.174D-04 0.100D+01
 Coeff-En:   0.000D+00 0.100D+01
 Coeff:     -0.173D-04 0.100D+01
 Gap=     0.240 Goal=   None    Shift=    0.000
 RMSDP=4.84D-05 MaxDP=3.45D-03 DE=-1.72D-03 OVMax= 6.40D-03

 Cycle   4  Pass 1  IDiag  1:
 E= -763.831803492803     Delta-E=       -0.000094288032 Rises=F Damp=F
 DIIS: error= 3.67D-04 at cycle   4 NSaved=   3.
 NSaved= 3 IEnMin= 3 EnMin= -763.831803492803     IErMin= 3 ErrMin= 3.67D-04
 ErrMax= 3.67D-04  0.00D+00 EMaxC= 1.00D-01 BMatC= 6.46D-06 BMatP= 2.52D-05
 IDIUse=3 WtCom= 9.96D-01 WtEn= 3.67D-03
 Coeff-Com:  0.111D-04-0.639D+00 0.164D+01
 Coeff-En:   0.000D+00 0.000D+00 0.100D+01
 Coeff:      0.110D-04-0.636D+00 0.164D+01
 Gap=     0.241 Goal=   None    Shift=    0.000
 DSYEVD-2 returned Info=      159697 IAlg= 4 N=   426 NDim=   426 NE2=    15168395 trying  DSYEV.
 RMSDP=2.02D-05 MaxDP=2.85D-03 DE=-9.43D-05 OVMax= 5.33D-03

 Cycle   5  Pass 1  IDiag  1:
 E= -763.831843362229     Delta-E=       -0.000039869426 Rises=F Damp=F
 DIIS: error= 1.26D-04 at cycle   5 NSaved=   4.
 NSaved= 4 IEnMin= 4 EnMin= -763.831843362229     IErMin= 4 ErrMin= 1.26D-04
 ErrMax= 1.26D-04  0.00D+00 EMaxC= 1.00D-01 BMatC= 8.04D-07 BMatP= 6.46D-06
 IDIUse=3 WtCom= 9.99D-01 WtEn= 1.26D-03
 Coeff-Com:  0.216D-05-0.124D+00 0.356D-01 0.109D+01
 Coeff-En:   0.000D+00 0.000D+00 0.000D+00 0.100D+01
 Coeff:      0.216D-05-0.124D+00 0.356D-01 0.109D+01
 Gap=     0.241 Goal=   None    Shift=    0.000
 RMSDP=7.65D-06 MaxDP=1.24D-03 DE=-3.99D-05 OVMax= 2.14D-03

 Cycle   6  Pass 1  IDiag  1:
 E= -763.831848690113     Delta-E=       -0.000005327884 Rises=F Damp=F
 DIIS: error= 5.01D-05 at cycle   6 NSaved=   5.
 NSaved= 5 IEnMin= 5 EnMin= -763.831848690113     IErMin= 5 ErrMin= 5.01D-05
 ErrMax= 5.01D-05  0.00D+00 EMaxC= 1.00D-01 BMatC= 1.83D-07 BMatP= 8.04D-07
 IDIUse=1 WtCom= 1.00D+00 WtEn= 0.00D+00
 Coeff-Com: -0.142D-05 0.821D-01-0.227D+00-0.126D+00 0.127D+01
 Coeff:     -0.142D-05 0.821D-01-0.227D+00-0.126D+00 0.127D+01
 Gap=     0.241 Goal=   None    Shift=    0.000
 RMSDP=5.13D-06 MaxDP=8.00D-04 DE=-5.33D-06 OVMax= 1.62D-03

 Cycle   7  Pass 1  IDiag  1:
 E= -763.831850360153     Delta-E=       -0.000001670040 Rises=F Damp=F
 DIIS: error= 2.80D-05 at cycle   7 NSaved=   6.
 NSaved= 6 IEnMin= 6 EnMin= -763.831850360153     IErMin= 6 ErrMin= 2.80D-05
 ErrMax= 2.80D-05  0.00D+00 EMaxC= 1.00D-01 BMatC= 5.33D-08 BMatP= 1.83D-07
 IDIUse=1 WtCom= 1.00D+00 WtEn= 0.00D+00
 Coeff-Com:  0.134D-05-0.774D-01 0.271D+00-0.142D+00-0.134D+01 0.229D+01
 Coeff:      0.134D-05-0.774D-01 0.271D+00-0.142D+00-0.134D+01 0.229D+01
 Gap=     0.241 Goal=   None    Shift=    0.000
 RMSDP=3.85D-06 MaxDP=5.22D-04 DE=-1.67D-06 OVMax= 1.53D-03

 Cycle   8  Pass 1  IDiag  1:
 E= -763.831851007252     Delta-E=       -0.000000647098 Rises=F Damp=F
 DIIS: error= 6.43D-06 at cycle   8 NSaved=   7.
 NSaved= 7 IEnMin= 7 EnMin= -763.831851007252     IErMin= 7 ErrMin= 6.43D-06
 ErrMax= 6.43D-06  0.00D+00 EMaxC= 1.00D-01 BMatC= 3.54D-09 BMatP= 5.33D-08
 IDIUse=1 WtCom= 1.00D+00 WtEn= 0.00D+00
 Coeff-Com: -0.294D-06 0.170D-01-0.676D-01 0.601D-01 0.351D+00-0.869D+00
 Coeff-Com:  0.151D+01
 Coeff:     -0.294D-06 0.170D-01-0.676D-01 0.601D-01 0.351D+00-0.869D+00
 Coeff:      0.151D+01
 Gap=     0.241 Goal=   None    Shift=    0.000
 RMSDP=7.50D-07 MaxDP=5.93D-05 DE=-6.47D-07 OVMax= 3.34D-04

 Cycle   9  Pass 1  IDiag  1:
 E= -763.831851035858     Delta-E=       -0.000000028607 Rises=F Damp=F
 DIIS: error= 1.54D-06 at cycle   9 NSaved=   8.
 NSaved= 8 IEnMin= 8 EnMin= -763.831851035858     IErMin= 8 ErrMin= 1.54D-06
 ErrMax= 1.54D-06  0.00D+00 EMaxC= 1.00D-01 BMatC= 2.03D-10 BMatP= 3.54D-09
 IDIUse=1 WtCom= 1.00D+00 WtEn= 0.00D+00
 Coeff-Com: -0.823D-07 0.475D-02-0.175D-01 0.177D-01 0.663D-01-0.101D+00
 Coeff-Com: -0.281D-01 0.106D+01
 Coeff:     -0.823D-07 0.475D-02-0.175D-01 0.177D-01 0.663D-01-0.101D+00
 Coeff:     -0.281D-01 0.106D+01
 Gap=     0.241 Goal=   None    Shift=    0.000
 RMSDP=1.52D-07 MaxDP=1.83D-05 DE=-2.86D-08 OVMax= 3.14D-05

 Cycle  10  Pass 1  IDiag  1:
 E= -763.831851036469     Delta-E=       -0.000000000610 Rises=F Damp=F
 DIIS: error= 4.20D-07 at cycle  10 NSaved=   9.
 NSaved= 9 IEnMin= 9 EnMin= -763.831851036469     IErMin= 9 ErrMin= 4.20D-07
 ErrMax= 4.20D-07  0.00D+00 EMaxC= 1.00D-01 BMatC= 2.34D-11 BMatP= 2.03D-10
 IDIUse=1 WtCom= 1.00D+00 WtEn= 0.00D+00
 Coeff-Com:  0.171D-07-0.992D-03 0.417D-02-0.262D-02-0.310D-01 0.715D-01
 Coeff-Com: -0.161D+00 0.619D-01 0.106D+01
 Coeff:      0.171D-07-0.992D-03 0.417D-02-0.262D-02-0.310D-01 0.715D-01
 Coeff:     -0.161D+00 0.619D-01 0.106D+01
 Gap=     0.241 Goal=   None    Shift=    0.000
 RMSDP=4.22D-08 MaxDP=5.12D-06 DE=-6.10D-10 OVMax= 1.44D-05

 Cycle  11  Pass 1  IDiag  1:
 E= -763.831851036559     Delta-E=       -0.000000000090 Rises=F Damp=F
 DIIS: error= 4.72D-08 at cycle  11 NSaved=  10.
 NSaved=10 IEnMin=10 EnMin= -763.831851036559     IErMin=10 ErrMin= 4.72D-08
 ErrMax= 4.72D-08  0.00D+00 EMaxC= 1.00D-01 BMatC= 3.55D-13 BMatP= 2.34D-11
 IDIUse=1 WtCom= 1.00D+00 WtEn= 0.00D+00
 Coeff-Com:  0.257D-08-0.149D-03 0.577D-03-0.778D-03-0.471D-03-0.335D-03
 Coeff-Com:  0.142D-01-0.456D-01-0.107D+00 0.114D+01
 Coeff:      0.257D-08-0.149D-03 0.577D-03-0.778D-03-0.471D-03-0.335D-03
 Coeff:      0.142D-01-0.456D-01-0.107D+00 0.114D+01
 Gap=     0.241 Goal=   None    Shift=    0.000
 RMSDP=8.98D-09 MaxDP=9.55D-07 DE=-9.03D-11 OVMax= 1.13D-06

 SCF Done:  E(ROHF) =  -763.831851037     A.U. after   11 cycles
            NFock= 11  Conv=0.90D-08     -V/T= 1.9723
 <Sx>= 0.0000 <Sy>= 0.0000 <Sz>= 0.0000 <S**2>=-0.0000 S=-0.0000
 <L.S>=  0.00000000000    
 KE= 7.855822815239D+02 PE=-1.842481225967D+03 EE= 2.865301984479D+02
 Annihilation of the first spin contaminant:
 S**2 before annihilation    -0.0000,   after    -0.0000
 Leave Link  502 at Tue Feb 13 14:16:16 2018, MaxMem=  8589934592 cpu:            4577.8 elap:             150.3
 (Enter /home1/apps/gaussian/16rA.03/g16/l801.exe)
 Windowed orbitals will be sorted by symmetry type.
 An orbital has undefined symmetry, so N**3 symmetry is turned off.
 GenMOA:  NOpAll=  4 NOp2=4 NOpUse=  4 JSym2X=1
 FoFJK:  IHMeth= 1 ICntrl=       0 DoSepK=F KAlg= 0 I1Cent=           0 FoldK=F
 IRaf=         0 NMat=       1 IRICut=       1 DoRegI=T DoRafI=F ISym2E= 1 IDoP0=0 IntGTp=1.
 FoFCou: FMM=F IPFlag=           8 FMFlag=      100000 FMFlg1=           0
         NFxFlg=           0 DoJE=F BraDBF=F KetDBF=F FulRan=T
         wScrn=  0.000000 ICntrl=         0 IOpCl=  1 I1Cent=           0 NGrid=           0
         NMat0=    1 NMatS0=      1 NMatT0=    0 NMatD0=    1 NMtDS0=    0 NMtDT0=    0
 Petite list used in FoFCou.
 <Sx>= 0.0000 <Sy>= 0.0000 <Sz>= 0.0000 <S**2>=-0.0000 S=-0.0000
 Range of M.O.s used for correlation:     1   426
 NBasis=   428 NAE=    11 NBE=    11 NFC=     0 NFV=     0
 NROrb=    426 NOA=    11 NOB=    11 NVA=   415 NVB=   415

 **** Warning!!: The largest alpha MO coefficient is  0.26593561D+03


 **** Warning!!: The largest beta MO coefficient is  0.26593561D+03

 Singles contribution to E2=   -0.2022318628D-13
 Leave Link  801 at Tue Feb 13 14:17:14 2018, MaxMem=  8589934592 cpu:            1823.3 elap:              57.0
 (Enter /home1/apps/gaussian/16rA.03/g16/l804.exe)
 Open-shell transformation, MDV=  8589934592 ITran=4 ISComp=1.
 Unit  1 TFree=       5593373 TCopy=       4360680.
 Semi-Direct transformation.
 ModeAB=           2 MOrb=            11 LenV=    8584455215
 LASXX=    417972940 LTotXX=   417972940 LenRXX=   417972940
 LTotAB=   421194081 MaxLAS=   847702086 LenRXY=   847702086
 NonZer=   862875354 LenScr=  1299389440 LnRSAI=           0
 LnScr1=           0 LExtra=    34668656 Total=   2599733122
 MaxDsk= 67108864000 SrtSym=           F ITran=            4
 DoSDTr:  NPSUse= 32
 JobTyp=1 Pass  1:  I=   1 to  11.
 (rs|ai) integrals will be sorted in core.
 Complete sort for first half transformation.
 First half transformation complete.
 Begin second half transformation for I=  10.
 Begin second half transformation for I=  10.
 Complete sort for second half transformation.
 Second half transformation complete.
 ModeAB=           2 MOrb=            11 LenV=    8584455215
 LASXX=    417972940 LTotXX=   417972940 LenRXX=   847702086
 LTotAB=   399747920 MaxLAS=   847702086 LenRXY=   399747920
 NonZer=   862875354 LenScr=  1299389440 LnRSAI=           0
 LnScr1=           0 LExtra=  1300343682 Total=   3847183128
 MaxDsk= 67108864000 SrtSym=           F ITran=            4
 DoSDTr:  NPSUse= 32
 JobTyp=2 Pass  1:  I=   1 to  11.
 (rs|ai) integrals will be sorted in core.
 Complete sort for first half transformation.
 First half transformation complete.
 Begin second half transformation for I=  10.
 Begin second half transformation for I=  10.
 Complete sort for second half transformation.
 Second half transformation complete.
 SymMOI:  orbitals are not symmetric.
 Spin components of T(2) and E(2):
     alpha-alpha T2 =       0.1227439516D-01 E2=     -0.1020347373D+00
     alpha-beta  T2 =       0.9675761767D-01 E2=     -0.5889271179D+00
     beta-beta   T2 =       0.1227439516D-01 E2=     -0.1020347373D+00
 ANorm=    0.1058917564D+01
 E2 =    -0.7929965926D+00 EUMP2 =    -0.76462484762915D+03
 (S**2,0)=  0.00000D+00           (S**2,1)=  0.00000D+00
 E(PUHF)=      -0.76383185104D+03        E(PMP2)=      -0.76462484763D+03
 Leave Link  804 at Tue Feb 13 14:53:03 2018, MaxMem=  8589934592 cpu:           68717.7 elap:            2147.8
 (Enter /home1/apps/gaussian/16rA.03/g16/l913.exe)
 CIDS:  MDV=  8589934592.
 IFCWin=0 IBDFC=1 NFBD=     0     0 NFCmp=     0     0 NFFFC=     0     0
 Using original routines for 1st iteration.
 Using DD4UQ or CC4UQ for 2nd and later iterations.
 Keep R2 and R3 ints in memory in symmetry-blocked form, NReq=5277895991.
 FoFCou: FMM=F IPFlag=           8 FMFlag=           0 FMFlg1=           0
         NFxFlg=           0 DoJE=F BraDBF=F KetDBF=F FulRan=T
         wScrn=  0.000000 ICntrl=       600 IOpCl=  0 I1Cent=           0 NGrid=           0
         NMat0=    1 NMatS0=  91806 NMatT0=    0 NMatD0=    1 NMtDS0=    0 NMtDT0=    0
 Petite list used in FoFCou.
 CIDS: In Core Option IDoMem=           1.
 CCSD(T)
 =======
 Iterations= 150 Convergence= 0.100D-06
 Produce multiple copies of IABC intergrals
 Iteration Nr.   1
 **********************
 DD1Dir will call FoFMem   1 times, MxPair=       352
 NAB=   121 NAA=    55 NBB=    55.
 DD1Dir will call FoFMem   1 times, MxPair=       352
 NAB=   121 NAA=    55 NBB=    55.
 MP4(R+Q)=  0.25212451D-01
 Maximum subspace dimension=  5
 A-vector RMS=  1.0255911D-05 Max=  5.5567631D-03 conv= 1.00D-05.
 RLE energy=       -0.7805479769
 E3=       -0.12565297D-01        EROMP3=      -0.76463741293D+03
 E4(SDQ)=  -0.21165968D-02        ROMP4(SDQ)=  -0.76463952952D+03
 VARIATIONAL ENERGIES WITH THE FIRST-ORDER WAVEFUNCTION:
 DE(Corr)= -0.78034944     E(Corr)=     -764.61220048    
 NORM(A)=   0.10524439D+01
 Iteration Nr.   2
 **********************
 DD1Dir will call FoFMem   1 times, MxPair=       352
 NAB=   121 NAA=    55 NBB=    55.
 A-vector RMS=  1.9852349D-03 Max=  2.6655890D-02 conv= 1.00D-05.
 RLE energy=       -0.7846197637
 DE(Corr)= -0.79219034     E(CORR)=     -764.62404137     Delta=-1.18D-02
 NORM(A)=   0.10562521D+01
 Iteration Nr.   3
 **********************
 DD1Dir will call FoFMem   1 times, MxPair=       352
 NAB=   121 NAA=    55 NBB=    55.
 A-vector RMS=  1.4048518D-03 Max=  1.9028228D-02 conv= 1.00D-05.
 RLE energy=       -0.7941201910
 DE(Corr)= -0.79627411     E(CORR)=     -764.62812515     Delta=-4.08D-03
 NORM(A)=   0.10638108D+01
 Iteration Nr.   4
 **********************
 DD1Dir will call FoFMem   1 times, MxPair=       352
 NAB=   121 NAA=    55 NBB=    55.
 A-vector RMS=  1.2243696D-03 Max=  1.6361509D-02 conv= 1.00D-05.
 RLE energy=       -0.8150335966
 DE(Corr)= -0.79930423     E(CORR)=     -764.63115526     Delta=-3.03D-03
 NORM(A)=   0.11048843D+01
 Iteration Nr.   5
 **********************
 DD1Dir will call FoFMem   1 times, MxPair=       352
 NAB=   121 NAA=    55 NBB=    55.
 A-vector RMS=  5.7144822D-04 Max=  6.7082979D-03 conv= 1.00D-05.
 RLE energy=       -0.8123745896
 DE(Corr)= -0.81207399     E(CORR)=     -764.64392503     Delta=-1.28D-02
 NORM(A)=   0.11030302D+01
 Iteration Nr.   6
 **********************
 DD1Dir will call FoFMem   1 times, MxPair=       352
 NAB=   121 NAA=    55 NBB=    55.
 A-vector RMS=  2.8995675D-04 Max=  3.9140562D-03 conv= 1.00D-05.
 RLE energy=       -0.8079447387
 DE(Corr)= -0.81047804     E(CORR)=     -764.64232907     Delta= 1.60D-03
 NORM(A)=   0.10948409D+01
 Iteration Nr.   7
 **********************
 DD1Dir will call FoFMem   1 times, MxPair=       352
 NAB=   121 NAA=    55 NBB=    55.
 A-vector RMS=  8.3430043D-05 Max=  1.8637371D-03 conv= 1.00D-05.
 RLE energy=       -0.8079850383
 DE(Corr)= -0.80788226     E(CORR)=     -764.63973330     Delta= 2.60D-03
 NORM(A)=   0.10971834D+01
 Iteration Nr.   8
 **********************
 DD1Dir will call FoFMem   1 times, MxPair=       352
 NAB=   121 NAA=    55 NBB=    55.
 A-vector RMS=  2.7188243D-05 Max=  4.8908603D-04 conv= 1.00D-05.
 RLE energy=       -0.8079943435
 DE(Corr)= -0.80805335     E(CORR)=     -764.63990439     Delta=-1.71D-04
 NORM(A)=   0.10972110D+01
 Iteration Nr.   9
 **********************
 DD1Dir will call FoFMem   1 times, MxPair=       352
 NAB=   121 NAA=    55 NBB=    55.
 A-vector RMS=  1.7094763D-05 Max=  2.8011070D-04 conv= 1.00D-05.
 RLE energy=       -0.8079879102
 DE(Corr)= -0.80796532     E(CORR)=     -764.63981636     Delta= 8.80D-05
 NORM(A)=   0.10974647D+01
 Iteration Nr.  10
 **********************
 DD1Dir will call FoFMem   1 times, MxPair=       352
 NAB=   121 NAA=    55 NBB=    55.
 A-vector RMS=  3.4856897D-06 Max=  5.6399743D-05 conv= 1.00D-05.
 RLE energy=       -0.8079818912
 DE(Corr)= -0.80798835     E(CORR)=     -764.63983939     Delta=-2.30D-05
 NORM(A)=   0.10974089D+01
 Iteration Nr.  11
 **********************
 DD1Dir will call FoFMem   1 times, MxPair=       352
 NAB=   121 NAA=    55 NBB=    55.
 A-vector RMS=  2.7605802D-06 Max=  4.2594359D-05 conv= 1.00D-05.
 RLE energy=       -0.8079854867
 DE(Corr)= -0.80797802     E(CORR)=     -764.63982906     Delta= 1.03D-05
 NORM(A)=   0.10974632D+01
 Iteration Nr.  12
 **********************
 DD1Dir will call FoFMem   1 times, MxPair=       352
 NAB=   121 NAA=    55 NBB=    55.
 A-vector RMS=  5.8548142D-07 Max=  9.0721513D-06 conv= 1.00D-05.
 RLE energy=       -0.8079812836
 DE(Corr)= -0.80798114     E(CORR)=     -764.63983217     Delta=-3.12D-06
 NORM(A)=   0.10974645D+01
 Iteration Nr.  13
 **********************
 DD1Dir will call FoFMem   1 times, MxPair=       352
 NAB=   121 NAA=    55 NBB=    55.
 A-vector RMS=  3.6472534D-07 Max=  4.8500228D-06 conv= 1.00D-05.
 RLE energy=       -0.8079823990
 DE(Corr)= -0.80798179     E(CORR)=     -764.63983282     Delta=-6.49D-07
 NORM(A)=   0.10974714D+01
 Iteration Nr.  14
 **********************
 DD1Dir will call FoFMem   1 times, MxPair=       352
 NAB=   121 NAA=    55 NBB=    55.
 A-vector RMS=  1.0349459D-07 Max=  2.1945992D-06 conv= 1.00D-05.
 RLE energy=       -0.8079817830
 DE(Corr)= -0.80798184     E(CORR)=     -764.63983287     Delta=-4.95D-08
 NORM(A)=   0.10974721D+01
 CI/CC converged in   14 iterations to DelEn=-4.95D-08 Conv= 1.00D-07 ErrA1= 1.03D-07 Conv= 1.00D-05
 Wavefunction amplitudes converged. E(Corr)=     -764.63983287    
 Largest amplitude= 7.79D-02
 Time for triples=   455900.34 seconds.
 T4(CCSD)= -0.21970546D-01
 T5(CCSD)=  0.18962089D-02
 CCSD(T)= -0.76465990721D+03
 Discarding MO integrals.
 Leave Link  913 at Tue Feb 13 20:22:16 2018, MaxMem=  8589934592 cpu:          624997.7 elap:           19753.0
 (Enter /home1/apps/gaussian/16rA.03/g16/l601.exe)
 Copying SCF densities to generalized density rwf, IOpCl= 0 IROHF=1.

 **********************************************************************

            Population analysis using the SCF density.

 **********************************************************************

 Orbital symmetries:
       Occupied  (SG) (SG) (PI) (PI) (SG) (SG) (SG) (PI) (PI) (SG)
                 (SG)
       Virtual   (PI) (PI) (SG) (SG) (DLTA) (DLTA) (PI) (PI) (SG)
                 (SG) (PI) (PI) (SG) (DLTA) (DLTA) (PI) (PI) (SG)
                 (SG) (PI) (PI) (DLTA) (DLTA) (PHI) (PHI) (DLTA)
                 (DLTA) (PI) (PI) (SG) (PI) (PI) (SG) (SG) (PI)
                 (PI) (DLTA) (DLTA) (SG) (PI) (PI) (DLTA) (DLTA)
                 (?A) (?A) (PHI) (PHI) (SG) (PI) (PI) (SG) (DLTA)
                 (DLTA) (SG) (PHI) (PHI) (PI) (PI) (SG) (PI) (PI)
                 (SG) (DLTA) (DLTA) (PI) (PI) (SG) (DLTA) (DLTA)
                 (PHI) (PHI) (?B) (?B) (?A) (?A) (PI) (PI) (SG)
                 (SG) (PI) (PI) (DLTA) (DLTA) (SG) (DLTA) (DLTA)
                 (PHI) (PHI) (?A) (?A) (SG) (PI) (PI) (SG) (PHI)
                 (PHI) (PI) (PI) (PI) (PI) (SG) (DLTA) (DLTA) (PI)
                 (PI) (DLTA) (DLTA) (SG) (SG) (PI) (PI) (PHI) (PHI)
                 (SG) (PI) (PI) (DLTA) (DLTA) (SG) (SG) (DLTA)
                 (DLTA) (?A) (?A) (?B) (?B) (PI) (PI) (PHI) (PHI)
                 (SG) (PI) (PI) (DLTA) (DLTA) (SG) (DLTA) (DLTA)
                 (PI) (PI) (PHI) (PHI) (SG) (SG) (DLTA) (DLTA)
                 (PI) (PI) (SG) (PI) (PI) (PHI) (PHI) (?A) (?A)
                 (PI) (PI) (DLTA) (DLTA) (?A) (?A) (SG) (SG) (?B)
                 (?B) (SG) (SG) (PHI) (PHI) (PI) (PI) (?A) (?A)
                 (DLTA) (DLTA) (SG) (PI) (PI) (PHI) (PHI) (SG)
                 (PI) (PI) (DLTA) (DLTA) (SG) (PHI) (PHI) (SG)
                 (DLTA) (DLTA) (SG) (PI) (PI) (DLTA) (DLTA) (PI)
                 (PI) (DLTA) (DLTA) (PI) (PI) (SG) (SG) (PHI) (PHI)
                 (PI) (PI) (DLTA) (DLTA) (SG) (PI) (PI) (SG) (PI)
                 (PI) (?B) (?B) (?A) (?A) (PHI) (PHI) (SG) (DLTA)
                 (DLTA) (?A) (?A) (PHI) (PHI) (SG) (PI) (PI) (DLTA)
                 (DLTA) (PI) (PI) (SG) (?B) (?B) (SG) (SG) (?A)
                 (?A) (PHI) (PHI) (SG) (DLTA) (DLTA) (PI) (PI)
                 (DLTA) (DLTA) (PI) (PI) (SG) (SG) (PI) (PI) (SG)
                 (SG) (PHI) (PHI) (DLTA) (DLTA) (?A) (?A) (PHI)
                 (PHI) (SG) (PI) (PI) (DLTA) (DLTA) (PI) (PI) (PHI)
                 (PHI) (DLTA) (DLTA) (SG) (DLTA) (DLTA) (SG) (PI)
                 (PI) (SG) (PI) (PI) (DLTA) (DLTA) (SG) (PI) (PI)
                 (SG) (?A) (?A) (PHI) (PHI) (DLTA) (DLTA) (PI)
                 (PI) (SG) (PI) (PI) (?B) (?B) (?A) (?A) (PHI)
                 (PHI) (DLTA) (DLTA) (SG) (PI) (PI) (PI) (PI) (SG)
                 (SG) (SG) (?B) (?B) (?A) (?A) (PHI) (PHI) (DLTA)
                 (DLTA) (PI) (PI) (SG) (SG) (DLTA) (DLTA) (PI)
                 (PI) (SG) (SG) (PI) (PI) (SG) (SG) (DLTA) (DLTA)
                 (PI) (PI) (SG) (SG) (PI) (PI) (SG) (SG) (DLTA)
                 (DLTA) (PI) (PI) (SG) (PI) (PI) (SG) (SG) (PI)
                 (PI) (SG) (DLTA) (DLTA) (PI) (PI) (SG) (SG) (PI)
                 (PI) (SG) (SG) (PI) (PI) (DLTA) (DLTA) (PI) (PI)
                 (SG) (SG) (SG) (SG) (PI) (PI) (SG) (SG) (PI) (PI)
                 (SG) (SG) (PI) (PI) (SG) (SG) (SG) (PI) (PI) (SG)
                 (SG) (PI) (PI) (SG) (SG) (PI) (PI) (SG) (SG) (SG)
                 (SG) (SG) (SG) (SG)
 The electronic state is 1-SG.
 Alpha  occ. eigenvalues -- -166.91054 -19.36527 -15.78859 -15.78859 -15.78117
 Alpha  occ. eigenvalues --   -2.67715  -1.65440  -1.65292  -1.65292  -0.41837
 Alpha  occ. eigenvalues --   -0.22935
 Alpha virt. eigenvalues --    0.01138   0.01138   0.01528   0.01664   0.02602
 Alpha virt. eigenvalues --    0.02602   0.02649   0.02649   0.02679   0.04077
 Alpha virt. eigenvalues --    0.04079   0.04079   0.06978   0.07001   0.07001
 Alpha virt. eigenvalues --    0.07292   0.07292   0.08252   0.09748   0.09857
 Alpha virt. eigenvalues --    0.09857   0.10364   0.10364   0.10375   0.10375
 Alpha virt. eigenvalues --    0.10844   0.10844   0.11450   0.11450   0.11531
 Alpha virt. eigenvalues --    0.14141   0.14141   0.16234   0.19561   0.21656
 Alpha virt. eigenvalues --    0.21656   0.22595   0.22595   0.23266   0.24094
 Alpha virt. eigenvalues --    0.24094   0.25445   0.25445   0.25846   0.25846
 Alpha virt. eigenvalues --    0.25959   0.25959   0.26004   0.28658   0.28658
 Alpha virt. eigenvalues --    0.32057   0.33731   0.33731   0.34540   0.35145
 Alpha virt. eigenvalues --    0.35145   0.40729   0.40729   0.42657   0.44665
 Alpha virt. eigenvalues --    0.44665   0.45890   0.50408   0.50408   0.51510
 Alpha virt. eigenvalues --    0.51510   0.54154   0.55764   0.55764   0.57593
 Alpha virt. eigenvalues --    0.57593   0.58098   0.58098   0.58235   0.58235
 Alpha virt. eigenvalues --    0.58320   0.58320   0.58597   0.65057   0.68465
 Alpha virt. eigenvalues --    0.68465   0.71344   0.71344   0.80589   0.88347
 Alpha virt. eigenvalues --    0.88347   0.88960   0.88960   0.89014   0.89014
 Alpha virt. eigenvalues --    0.91055   0.93104   0.93104   0.99497   1.00185
 Alpha virt. eigenvalues --    1.00185   1.00343   1.00343   1.09503   1.09503
 Alpha virt. eigenvalues --    1.11164   1.11893   1.11893   1.15062   1.15062
 Alpha virt. eigenvalues --    1.17235   1.17235   1.20062   1.24573   1.44126
 Alpha virt. eigenvalues --    1.44126   1.45645   1.45645   1.49992   1.62211
 Alpha virt. eigenvalues --    1.62211   1.62776   1.62776   1.62922   1.79015
 Alpha virt. eigenvalues --    1.90349   1.90349   2.00650   2.00650   2.00791
 Alpha virt. eigenvalues --    2.00791   2.02584   2.02584   2.10167   2.10167
 Alpha virt. eigenvalues --    2.13813   2.15277   2.15277   2.23533   2.23533
 Alpha virt. eigenvalues --    2.36752   2.39996   2.39996   2.42490   2.42490
 Alpha virt. eigenvalues --    2.47077   2.47077   2.51046   2.53753   2.62313
 Alpha virt. eigenvalues --    2.62313   2.63171   2.63171   2.64162   2.67460
 Alpha virt. eigenvalues --    2.67460   2.69836   2.69836   2.76833   2.76833
 Alpha virt. eigenvalues --    2.77990   2.77990   2.84212   2.84212   2.84298
 Alpha virt. eigenvalues --    2.84298   2.98726   2.98726   2.98779   2.98779
 Alpha virt. eigenvalues --    3.04121   3.08841   3.13245   3.13245   3.35275
 Alpha virt. eigenvalues --    3.35275   3.35962   3.35962   3.41046   3.41046
 Alpha virt. eigenvalues --    3.47657   3.63948   3.63948   3.81356   3.81356
 Alpha virt. eigenvalues --    3.81381   3.93141   3.93141   3.93956   3.93956
 Alpha virt. eigenvalues --    3.96426   4.45131   4.45131   4.45156   4.75338
 Alpha virt. eigenvalues --    4.75338   4.81146   4.83916   4.83916   4.85299
 Alpha virt. eigenvalues --    4.85299   4.98906   4.98906   5.53890   5.53890
 Alpha virt. eigenvalues --    5.56854   5.56854   5.62516   5.73160   5.82959
 Alpha virt. eigenvalues --    5.82959   6.00343   6.00343   6.00346   6.00346
 Alpha virt. eigenvalues --    6.09189   6.31402   6.31402   6.43647   6.48293
 Alpha virt. eigenvalues --    6.48293   6.62211   6.62211   6.62795   6.62795
 Alpha virt. eigenvalues --    6.65954   6.65954   6.76194   6.83113   6.83113
 Alpha virt. eigenvalues --    6.93319   6.93319   7.01279   7.01279   7.04183
 Alpha virt. eigenvalues --    7.41719   7.41719   7.52304   7.52304   7.95798
 Alpha virt. eigenvalues --    7.95798   8.00422   8.31295   8.31295   8.31330
 Alpha virt. eigenvalues --    8.31330   8.34318   8.34318   8.40705   8.40705
 Alpha virt. eigenvalues --    8.41750   8.48230   8.48230   8.70641   8.70641
 Alpha virt. eigenvalues --    8.85511   8.85511   8.90495   8.90495   9.03047
 Alpha virt. eigenvalues --    9.57798  10.54888  10.54888  10.93208  11.67967
 Alpha virt. eigenvalues --   13.06552  13.06552  13.23819  13.23819  13.24871
 Alpha virt. eigenvalues --   13.24871  13.34733  13.34733  13.35351  13.37108
 Alpha virt. eigenvalues --   13.37108  13.46909  13.46909  13.81774  13.81774
 Alpha virt. eigenvalues --   13.93592  13.93592  14.06936  14.06936  14.12509
 Alpha virt. eigenvalues --   14.22573  14.22573  14.31176  14.57507  14.57507
 Alpha virt. eigenvalues --   14.73016  14.73476  14.73476  15.39311  15.39311
 Alpha virt. eigenvalues --   15.41520  15.47624  15.47624  16.03904  16.35920
 Alpha virt. eigenvalues --   16.35920  16.40715  16.40715  16.69852  16.69852
 Alpha virt. eigenvalues --   16.84058  16.84058  17.15876  17.35893  17.35893
 Alpha virt. eigenvalues --   17.72492  17.72492  17.73157  17.73157  17.75416
 Alpha virt. eigenvalues --   17.75416  17.85903  17.85903  18.20653  18.35181
 Alpha virt. eigenvalues --   18.35181  18.83808  18.83808  19.77814  22.11747
 Alpha virt. eigenvalues --   22.11747  22.12009  22.12009  22.13721  22.13721
 Alpha virt. eigenvalues --   22.17095  22.17095  22.20704  22.20704  22.33200
 Alpha virt. eigenvalues --   22.33200  22.40675  22.69741  25.86744  25.86744
 Alpha virt. eigenvalues --   25.91555  25.91555  26.19825  26.40309  32.52204
 Alpha virt. eigenvalues --   32.52204  34.10621  43.67778  45.03162  45.03162
 Alpha virt. eigenvalues --   45.07325  45.07325  45.32235  47.20442  55.03817
 Alpha virt. eigenvalues --   55.03817  83.74126  88.13715  90.38002  90.38002
 Alpha virt. eigenvalues --   90.41235  90.41235  90.61945  93.93411  93.93411
 Alpha virt. eigenvalues --  136.04056 156.86281 166.88889 166.88889 178.75804
 Alpha virt. eigenvalues --  220.93899 220.93899 220.96116 220.96116 221.11779
 Alpha virt. eigenvalues --  302.51094 311.92778 311.92778 367.59172 600.99566
 Alpha virt. eigenvalues --  609.52648 609.52648 700.87675 700.87675 700.88978
 Alpha virt. eigenvalues --  700.88978 700.98843 753.00975 779.515181226.55537
 Alpha virt. eigenvalues -- 1234.106311234.106311525.083902564.650512571.14454
 Alpha virt. eigenvalues -- 2571.144543036.144275476.332145481.632135481.63213
 Alpha virt. eigenvalues -- 5898.90936****************************************
 Alpha virt. eigenvalues -- **************************************************
 Alpha virt. eigenvalues -- **************************************************
 Alpha virt. eigenvalues -- **************************************************
     Molecular Orbital Coefficients:
                           7         8         9        10        11
                           O         O         O         O         O
     Eigenvalues --    -1.65440  -1.65292  -1.65292  -0.41837  -0.22935
   1 1   Sc 1S         -0.00000  -0.00000   0.00000  -0.00000  -0.00000
   2        2S         -0.00000  -0.00000   0.00000  -0.00000  -0.00000
   3        3S         -0.00000  -0.00000   0.00000  -0.00000  -0.00000
   4        4S         -0.00000  -0.00000   0.00000  -0.00000  -0.00000
   5        5S         -0.00000  -0.00000   0.00000  -0.00000  -0.00001
   6        6S         -0.00000  -0.00000   0.00000  -0.00001  -0.00001
   7        7S         -0.00000  -0.00000   0.00000  -0.00002  -0.00003
   8        8S         -0.00000  -0.00000   0.00000  -0.00003  -0.00005
   9        9S         -0.00000  -0.00000   0.00000  -0.00008  -0.00012
  10       10S         -0.00000  -0.00000   0.00000  -0.00017  -0.00026
  11       11S         -0.00001  -0.00000   0.00000  -0.00038  -0.00058
  12       12S         -0.00000  -0.00000   0.00000  -0.00083  -0.00129
  13       13S         -0.00003  -0.00000   0.00000  -0.00174  -0.00269
  14       14S          0.00001  -0.00000   0.00000  -0.00342  -0.00532
  15       15S         -0.00013  -0.00000   0.00000  -0.00588  -0.00909
  16       16S          0.00011  -0.00000   0.00000  -0.00827  -0.01291
  17       17S         -0.00045  -0.00000   0.00000  -0.00610  -0.00933
  18       18S          0.00096   0.00000  -0.00000   0.00403   0.00593
  19       19S         -0.00216  -0.00000   0.00000   0.02872   0.04565
  20       20S          0.01046   0.00000  -0.00000   0.04373   0.06556
  21       21S          0.00933   0.00000  -0.00000   0.01430   0.02097
  22       22S          0.00209   0.00000  -0.00000  -0.01240  -0.02385
  23       23S          0.02206   0.00000  -0.00000  -0.07747  -0.12176
  24       24S         -0.00829  -0.00000   0.00000  -0.15421  -0.26114
  25       25S          0.01208   0.00000  -0.00000   0.02308  -0.03798
  26       26S          0.00411   0.00000  -0.00000   0.12433   0.40704
  27       27S         -0.00648  -0.00000   0.00000   0.04781   0.52711
  28       28S          0.00271   0.00000  -0.00000   0.01682   0.12402
  29       29S         -0.01505  -0.00000   0.00000   0.02170   0.03784
  30       30S         -0.02478  -0.00000   0.00000  -0.05511  -0.08350
  31       31S         -0.00008  -0.00000   0.00000  -0.00028  -0.00081
  32       32PX         0.00000  -0.00000   0.00000   0.00000   0.00000
  33       32PY        -0.00000  -0.00000  -0.00000  -0.00000   0.00000
  34       32PZ        -0.00000  -0.00000   0.00000  -0.00000   0.00000
  35       33PX         0.00000  -0.00002   0.00000   0.00000   0.00000
  36       33PY        -0.00000  -0.00000  -0.00002  -0.00000   0.00000
  37       33PZ        -0.00002  -0.00000   0.00000  -0.00000   0.00000
  38       34PX         0.00000  -0.00007   0.00001   0.00000   0.00000
  39       34PY        -0.00000  -0.00001  -0.00007  -0.00000   0.00000
  40       34PZ        -0.00007  -0.00000   0.00000  -0.00001   0.00001
  41       35PX         0.00000  -0.00025   0.00003   0.00000  -0.00000
  42       35PY        -0.00000  -0.00003  -0.00025  -0.00000   0.00000
  43       35PZ        -0.00025  -0.00000   0.00000  -0.00004   0.00002
  44       36PX         0.00000  -0.00090   0.00009   0.00000   0.00000
  45       36PY        -0.00000  -0.00009  -0.00090  -0.00000   0.00000
  46       36PZ        -0.00092  -0.00000   0.00000  -0.00016   0.00007
  47       37PX         0.00000  -0.00290   0.00030   0.00000   0.00000
  48       37PY        -0.00000  -0.00030  -0.00290  -0.00000   0.00000
  49       37PZ        -0.00290  -0.00000   0.00000  -0.00050   0.00022
  50       38PX         0.00000  -0.00841   0.00088   0.00000   0.00000
  51       38PY        -0.00000  -0.00088  -0.00841  -0.00000   0.00000
  52       38PZ        -0.00853  -0.00000   0.00000  -0.00148   0.00063
  53       39PX         0.00000  -0.02153   0.00225   0.00000   0.00000
  54       39PY        -0.00000  -0.00225  -0.02153  -0.00000   0.00000
  55       39PZ        -0.02142  -0.00000   0.00000  -0.00371   0.00160
  56       40PX         0.00000  -0.04695   0.00490   0.00000   0.00000
  57       40PY        -0.00000  -0.00490  -0.04695  -0.00000   0.00000
  58       40PZ        -0.04781  -0.00000   0.00000  -0.00831   0.00354
  59       41PX         0.00000  -0.08182   0.00854   0.00000   0.00000
  60       41PY        -0.00000  -0.00854  -0.08182  -0.00000   0.00000
  61       41PZ        -0.08052  -0.00000   0.00000  -0.01400   0.00607
  62       42PX         0.00000  -0.11334   0.01182   0.00000   0.00000
  63       42PY        -0.00000  -0.01182  -0.11334  -0.00000   0.00000
  64       42PZ        -0.11953  -0.00000   0.00000  -0.02100   0.00885
  65       43PX         0.00000  -0.10961   0.01143   0.00000  -0.00000
  66       43PY        -0.00000  -0.01143  -0.10961  -0.00000   0.00000
  67       43PZ        -0.07874  -0.00000   0.00000  -0.01316   0.00651
  68       44PX        -0.00000   0.00170  -0.00018  -0.00000  -0.00000
  69       44PY         0.00000   0.00018   0.00170  -0.00000  -0.00000
  70       44PZ         0.05541   0.00000  -0.00000   0.01288  -0.00458
  71       45PX        -0.00000   0.22089  -0.02304  -0.00000  -0.00000
  72       45PY         0.00000   0.02304   0.22089   0.00000  -0.00000
  73       45PZ         0.17368   0.00000  -0.00000   0.03467  -0.01559
  74       46PX        -0.00000   0.39929  -0.04165  -0.00000   0.00000
  75       46PY         0.00000   0.04165   0.39929   0.00000  -0.00000
  76       46PZ         0.24644   0.00000  -0.00000   0.05576  -0.01834
  77       47PX        -0.00000   0.36061  -0.03762  -0.00000  -0.00000
  78       47PY         0.00000   0.03762   0.36061   0.00000  -0.00000
  79       47PZ         0.38572   0.00000  -0.00000   0.08579  -0.04835
  80       48PX        -0.00000   0.12837  -0.01339  -0.00000   0.00000
  81       48PY         0.00000   0.01339   0.12837   0.00000  -0.00000
  82       48PZ         0.11362   0.00000  -0.00000  -0.00651  -0.00177
  83       49PX        -0.00000   0.01128  -0.00118   0.00000   0.00000
  84       49PY         0.00000   0.00118   0.01128  -0.00000   0.00000
  85       49PZ         0.00446   0.00000  -0.00000  -0.06119   0.11248
  86       50PX        -0.00000   0.00046  -0.00005   0.00000   0.00000
  87       50PY         0.00000   0.00005   0.00046  -0.00000   0.00000
  88       50PZ         0.00244   0.00000  -0.00000  -0.02687   0.13580
  89       51PX        -0.00000   0.00007  -0.00001   0.00000  -0.00000
  90       51PY         0.00000   0.00001   0.00007  -0.00000   0.00000
  91       51PZ        -0.00074   0.00000   0.00000  -0.00714   0.03447
  92       52PX         0.00000  -0.00167   0.00017   0.00000   0.00000
  93       52PY        -0.00000  -0.00017  -0.00167   0.00000   0.00000
  94       52PZ        -0.06395  -0.00000   0.00000  -0.01278   0.00380
  95       53PX        -0.00000   0.00549  -0.00057  -0.00000  -0.00000
  96       53PY         0.00000   0.00057   0.00549  -0.00000  -0.00000
  97       53PZ         0.17424   0.00000  -0.00000   0.03207  -0.01732
  98       54PX        -0.00000   0.00000  -0.00000   0.00000   0.00000
  99       54PY         0.00000   0.00000   0.00000  -0.00000   0.00000
 100       54PZ        -0.00011  -0.00000   0.00000  -0.00019  -0.00066
 101       55D 0        0.00001   0.00000  -0.00000   0.00008  -0.00010
 102       55D+1        0.00000  -0.00000   0.00000  -0.00000  -0.00000
 103       55D-1        0.00000  -0.00000  -0.00000  -0.00000  -0.00000
 104       55D+2       -0.00000   0.00000   0.00000   0.00000   0.00000
 105       55D-2       -0.00000   0.00000   0.00000  -0.00000  -0.00000
 106       56D 0        0.00005   0.00000  -0.00000   0.00075  -0.00089
 107       56D+1        0.00000  -0.00001   0.00000  -0.00000  -0.00000
 108       56D-1        0.00000  -0.00000  -0.00001  -0.00000  -0.00000
 109       56D+2       -0.00000   0.00000   0.00000   0.00000   0.00000
 110       56D-2       -0.00000   0.00000   0.00000  -0.00000  -0.00000
 111       57D 0        0.00025   0.00000  -0.00000   0.00369  -0.00443
 112       57D+1        0.00000  -0.00006   0.00001  -0.00000  -0.00000
 113       57D-1        0.00000  -0.00001  -0.00006  -0.00000  -0.00000
 114       57D+2       -0.00000   0.00000   0.00000   0.00000   0.00000
 115       57D-2       -0.00000   0.00000   0.00000  -0.00000  -0.00000
 116       58D 0        0.00092   0.00000  -0.00000   0.01218  -0.01461
 117       58D+1        0.00000  -0.00012   0.00001  -0.00000  -0.00000
 118       58D-1        0.00000  -0.00001  -0.00012  -0.00000  -0.00000
 119       58D+2       -0.00000   0.00000   0.00000   0.00000   0.00000
 120       58D-2       -0.00000   0.00000   0.00000  -0.00000  -0.00000
 121       59D 0        0.00232   0.00000  -0.00000   0.03105  -0.03769
 122       59D+1        0.00000  -0.00050   0.00005  -0.00000  -0.00000
 123       59D-1        0.00000  -0.00005  -0.00050  -0.00000  -0.00000
 124       59D+2       -0.00000   0.00000   0.00000   0.00000   0.00000
 125       59D-2        0.00000   0.00000   0.00000  -0.00000  -0.00000
 126       60D 0        0.00311   0.00000  -0.00000   0.05717  -0.07189
 127       60D+1        0.00000  -0.00198   0.00021  -0.00000  -0.00000
 128       60D-1       -0.00000  -0.00021  -0.00198  -0.00000  -0.00000
 129       60D+2       -0.00000   0.00000  -0.00000   0.00000   0.00000
 130       60D-2        0.00000   0.00000   0.00000  -0.00000  -0.00000
 131       61D 0        0.00752   0.00000  -0.00000   0.08408  -0.10401
 132       61D+1        0.00000  -0.00145   0.00015  -0.00000  -0.00000
 133       61D-1       -0.00000  -0.00015  -0.00145  -0.00000  -0.00000
 134       61D+2       -0.00000   0.00000   0.00000   0.00000   0.00000
 135       61D-2        0.00000   0.00000   0.00000  -0.00000  -0.00000
 136       62D 0        0.00545   0.00000  -0.00000   0.11016  -0.12444
 137       62D+1       -0.00000   0.00213  -0.00022  -0.00000  -0.00000
 138       62D-1        0.00000   0.00022   0.00213  -0.00000  -0.00000
 139       62D+2       -0.00000   0.00000   0.00000   0.00000   0.00000
 140       62D-2        0.00000  -0.00000  -0.00000  -0.00000  -0.00000
 141       63D 0        0.00479   0.00000  -0.00000   0.08982  -0.12018
 142       63D+1       -0.00000   0.00209  -0.00022  -0.00000  -0.00000
 143       63D-1        0.00000   0.00022   0.00209  -0.00000  -0.00000
 144       63D+2       -0.00000  -0.00000   0.00000   0.00000  -0.00000
 145       63D-2        0.00000  -0.00000  -0.00000  -0.00000  -0.00000
 146       64D 0       -0.00050  -0.00000  -0.00000   0.04057  -0.08362
 147       64D+1       -0.00000   0.00101  -0.00011  -0.00000  -0.00000
 148       64D-1        0.00000   0.00011   0.00101   0.00000  -0.00000
 149       64D+2       -0.00000  -0.00000   0.00000   0.00000  -0.00000
 150       64D-2        0.00000   0.00000  -0.00000  -0.00000  -0.00000
 151       65D 0       -0.00081  -0.00000   0.00000   0.00923  -0.03034
 152       65D+1       -0.00000   0.00046  -0.00005  -0.00000  -0.00000
 153       65D-1        0.00000   0.00005   0.00046  -0.00000   0.00000
 154       65D+2       -0.00000  -0.00000   0.00000   0.00000  -0.00000
 155       65D-2        0.00000   0.00000   0.00000  -0.00000  -0.00000
 156       66D 0        0.00029   0.00000  -0.00000   0.00129  -0.00298
 157       66D+1       -0.00000  -0.00005   0.00001   0.00000  -0.00000
 158       66D-1        0.00000  -0.00001  -0.00005  -0.00000   0.00000
 159       66D+2       -0.00000  -0.00000   0.00000   0.00000  -0.00000
 160       66D-2        0.00000   0.00000   0.00000  -0.00000  -0.00000
 161       67D 0        0.00033   0.00000   0.00000   0.00211  -0.00042
 162       67D+1       -0.00000   0.00013  -0.00001  -0.00000  -0.00000
 163       67D-1        0.00000   0.00001   0.00013   0.00000   0.00000
 164       67D+2        0.00000   0.00000   0.00000  -0.00000   0.00000
 165       67D-2        0.00000   0.00000   0.00000   0.00000   0.00000
 166       68D 0       -0.00095  -0.00000   0.00000   0.00378  -0.00049
 167       68D+1        0.00000  -0.00004   0.00000  -0.00000  -0.00000
 168       68D-1        0.00000  -0.00000  -0.00004   0.00000   0.00000
 169       68D+2       -0.00000   0.00000   0.00000  -0.00000   0.00000
 170       68D-2        0.00000   0.00000   0.00000   0.00000   0.00000
 171       69D 0       -0.00002   0.00000  -0.00000   0.00002   0.00006
 172       69D+1       -0.00000   0.00001  -0.00000   0.00000   0.00000
 173       69D-1        0.00000   0.00000   0.00001  -0.00000   0.00000
 174       69D+2       -0.00000  -0.00000   0.00000   0.00000  -0.00000
 175       69D-2        0.00000   0.00000   0.00000  -0.00000  -0.00000
 176       70F 0        0.00033   0.00000  -0.00000  -0.00085   0.00008
 177       70F+1        0.00000  -0.00060   0.00006   0.00000   0.00000
 178       70F-1       -0.00000  -0.00006  -0.00060  -0.00000  -0.00000
 179       70F+2        0.00000  -0.00000  -0.00000   0.00000   0.00000
 180       70F-2       -0.00000   0.00000   0.00000  -0.00000  -0.00000
 181       70F+3       -0.00000   0.00000  -0.00000   0.00000  -0.00000
 182       70F-3       -0.00000   0.00000   0.00000   0.00000  -0.00000
 183       71F 0       -0.00045  -0.00000   0.00000  -0.00258   0.00033
 184       71F+1        0.00000  -0.00207   0.00022   0.00000   0.00000
 185       71F-1       -0.00000  -0.00022  -0.00207  -0.00000  -0.00000
 186       71F+2        0.00000  -0.00000  -0.00000   0.00000   0.00000
 187       71F-2       -0.00000   0.00000   0.00000  -0.00000  -0.00000
 188       71F+3       -0.00000   0.00000  -0.00000   0.00000  -0.00000
 189       71F-3       -0.00000   0.00000   0.00000   0.00000  -0.00000
 190       72F 0        0.00210   0.00000  -0.00000  -0.00973  -0.00140
 191       72F+1        0.00000  -0.00285   0.00030   0.00000  -0.00000
 192       72F-1       -0.00000  -0.00030  -0.00285  -0.00000  -0.00000
 193       72F+2        0.00000  -0.00000  -0.00000   0.00000   0.00000
 194       72F-2       -0.00000   0.00000   0.00000  -0.00000  -0.00000
 195       72F+3       -0.00000   0.00000  -0.00000   0.00000  -0.00000
 196       72F-3       -0.00000   0.00000   0.00000   0.00000  -0.00000
 197       73F 0        0.00022  -0.00000   0.00000  -0.01099  -0.00205
 198       73F+1        0.00000  -0.00196   0.00020   0.00000   0.00000
 199       73F-1       -0.00000  -0.00020  -0.00196  -0.00000  -0.00000
 200       73F+2        0.00000  -0.00000   0.00000   0.00000  -0.00000
 201       73F-2       -0.00000   0.00000   0.00000   0.00000  -0.00000
 202       73F+3       -0.00000   0.00000  -0.00000   0.00000  -0.00000
 203       73F-3       -0.00000   0.00000   0.00000   0.00000  -0.00000
 204       74F 0        0.00023   0.00000  -0.00000  -0.00509  -0.00082
 205       74F+1        0.00000  -0.00050   0.00005   0.00000  -0.00000
 206       74F-1       -0.00000  -0.00005  -0.00050  -0.00000  -0.00000
 207       74F+2        0.00000  -0.00000   0.00000   0.00000  -0.00000
 208       74F-2       -0.00000   0.00000  -0.00000   0.00000  -0.00000
 209       74F+3       -0.00000  -0.00000  -0.00000   0.00000  -0.00000
 210       74F-3       -0.00000  -0.00000  -0.00000   0.00000  -0.00000
 211       75F 0        0.00001  -0.00000   0.00000  -0.00081   0.00003
 212       75F+1       -0.00000  -0.00002   0.00000   0.00000  -0.00000
 213       75F-1       -0.00000  -0.00000  -0.00002   0.00000   0.00000
 214       75F+2        0.00000  -0.00000   0.00000  -0.00000  -0.00000
 215       75F-2       -0.00000   0.00000  -0.00000   0.00000  -0.00000
 216       75F+3       -0.00000  -0.00000  -0.00000  -0.00000  -0.00000
 217       75F-3       -0.00000  -0.00000  -0.00000  -0.00000  -0.00000
 218       76G 0       -0.00013  -0.00000   0.00000  -0.00009   0.00017
 219       76G+1        0.00000  -0.00009   0.00001   0.00000   0.00000
 220       76G-1       -0.00000  -0.00001  -0.00009   0.00000   0.00000
 221       76G+2        0.00000   0.00000   0.00000  -0.00000  -0.00000
 222       76G-2        0.00000  -0.00000  -0.00000   0.00000   0.00000
 223       76G+3        0.00000   0.00000   0.00000  -0.00000   0.00000
 224       76G-3        0.00000   0.00000   0.00000  -0.00000   0.00000
 225       76G+4       -0.00000   0.00000   0.00000  -0.00000  -0.00000
 226       76G-4       -0.00000  -0.00000  -0.00000   0.00000   0.00000
 227       77G 0       -0.00008  -0.00000   0.00000   0.00031   0.00048
 228       77G+1       -0.00000   0.00005  -0.00001  -0.00000   0.00000
 229       77G-1        0.00000   0.00001   0.00005   0.00000   0.00000
 230       77G+2        0.00000   0.00000   0.00000  -0.00000  -0.00000
 231       77G-2       -0.00000  -0.00000  -0.00000   0.00000   0.00000
 232       77G+3        0.00000   0.00000   0.00000  -0.00000   0.00000
 233       77G-3        0.00000   0.00000   0.00000  -0.00000   0.00000
 234       77G+4        0.00000  -0.00000   0.00000   0.00000   0.00000
 235       77G-4        0.00000  -0.00000   0.00000  -0.00000  -0.00000
 236       78G 0        0.00015   0.00000  -0.00000   0.00216   0.00030
 237       78G+1       -0.00000   0.00056  -0.00006  -0.00000   0.00000
 238       78G-1        0.00000   0.00006   0.00056   0.00000   0.00000
 239       78G+2       -0.00000   0.00000  -0.00000  -0.00000   0.00000
 240       78G-2        0.00000  -0.00000  -0.00000   0.00000   0.00000
 241       78G+3        0.00000   0.00000   0.00000  -0.00000   0.00000
 242       78G-3        0.00000   0.00000   0.00000  -0.00000   0.00000
 243       78G+4       -0.00000  -0.00000   0.00000  -0.00000  -0.00000
 244       78G-4       -0.00000  -0.00000  -0.00000   0.00000   0.00000
 245       79G 0       -0.00005   0.00000   0.00000   0.00036   0.00079
 246       79G+1       -0.00000   0.00001  -0.00000   0.00000   0.00000
 247       79G-1        0.00000   0.00000   0.00001   0.00000   0.00000
 248       79G+2       -0.00000   0.00000  -0.00000  -0.00000   0.00000
 249       79G-2        0.00000  -0.00000  -0.00000  -0.00000   0.00000
 250       79G+3        0.00000  -0.00000   0.00000  -0.00000   0.00000
 251       79G-3        0.00000  -0.00000  -0.00000  -0.00000   0.00000
 252       79G+4        0.00000  -0.00000   0.00000   0.00000   0.00000
 253       79G-4        0.00000  -0.00000   0.00000  -0.00000  -0.00000
 254       80G 0        0.00003   0.00000   0.00000   0.00056   0.00018
 255       80G+1       -0.00000   0.00006  -0.00001  -0.00000   0.00000
 256       80G-1        0.00000   0.00001   0.00006  -0.00000  -0.00000
 257       80G+2       -0.00000   0.00000  -0.00000  -0.00000   0.00000
 258       80G-2        0.00000  -0.00000   0.00000  -0.00000   0.00000
 259       80G+3        0.00000  -0.00000   0.00000  -0.00000   0.00000
 260       80G-3        0.00000  -0.00000  -0.00000  -0.00000   0.00000
 261       80G+4       -0.00000  -0.00000  -0.00000  -0.00000  -0.00000
 262       80G-4       -0.00000  -0.00000  -0.00000   0.00000   0.00000
 263       81H 0       -0.00012  -0.00000   0.00000  -0.00006   0.00008
 264       81H+1        0.00000  -0.00007   0.00001   0.00000   0.00000
 265       81H-1       -0.00000  -0.00001  -0.00007  -0.00000  -0.00000
 266       81H+2        0.00000  -0.00000  -0.00000   0.00000  -0.00000
 267       81H-2        0.00000   0.00000  -0.00000   0.00000   0.00000
 268       81H+3        0.00000  -0.00000  -0.00000   0.00000   0.00000
 269       81H-3        0.00000  -0.00000  -0.00000   0.00000   0.00000
 270       81H+4       -0.00000   0.00000   0.00000  -0.00000  -0.00000
 271       81H-4       -0.00000   0.00000  -0.00000  -0.00000  -0.00000
 272       81H+5        0.00000  -0.00000   0.00000   0.00000   0.00000
 273       81H-5       -0.00000   0.00000   0.00000  -0.00000  -0.00000
 274       82H 0       -0.00004  -0.00000  -0.00000  -0.00038   0.00005
 275       82H+1        0.00000  -0.00014   0.00001   0.00000  -0.00000
 276       82H-1       -0.00000  -0.00001  -0.00014  -0.00000  -0.00000
 277       82H+2        0.00000  -0.00000  -0.00000   0.00000  -0.00000
 278       82H-2       -0.00000   0.00000   0.00000  -0.00000  -0.00000
 279       82H+3       -0.00000  -0.00000  -0.00000  -0.00000  -0.00000
 280       82H-3       -0.00000  -0.00000  -0.00000   0.00000  -0.00000
 281       82H+4        0.00000  -0.00000   0.00000   0.00000   0.00000
 282       82H-4        0.00000  -0.00000   0.00000   0.00000   0.00000
 283       82H+5       -0.00000   0.00000  -0.00000  -0.00000  -0.00000
 284       82H-5        0.00000  -0.00000   0.00000   0.00000   0.00000
 285       83H 0        0.00025   0.00000  -0.00000   0.00072  -0.00068
 286       83H+1       -0.00000   0.00005  -0.00001  -0.00000  -0.00000
 287       83H-1        0.00000   0.00001   0.00005  -0.00000  -0.00000
 288       83H+2        0.00000  -0.00000   0.00000   0.00000  -0.00000
 289       83H-2       -0.00000   0.00000   0.00000  -0.00000  -0.00000
 290       83H+3       -0.00000   0.00000  -0.00000   0.00000  -0.00000
 291       83H-3       -0.00000   0.00000   0.00000   0.00000  -0.00000
 292       83H+4       -0.00000  -0.00000   0.00000  -0.00000  -0.00000
 293       83H-4       -0.00000   0.00000   0.00000  -0.00000  -0.00000
 294       83H+5       -0.00000   0.00000  -0.00000   0.00000   0.00000
 295       83H-5       -0.00000   0.00000   0.00000  -0.00000  -0.00000
 296       84H 0       -0.00003  -0.00000  -0.00000   0.00002  -0.00024
 297       84H+1       -0.00000  -0.00000   0.00000   0.00000  -0.00000
 298       84H-1       -0.00000  -0.00000  -0.00000   0.00000   0.00000
 299       84H+2        0.00000  -0.00000   0.00000   0.00000  -0.00000
 300       84H-2       -0.00000   0.00000   0.00000  -0.00000  -0.00000
 301       84H+3       -0.00000   0.00000  -0.00000   0.00000  -0.00000
 302       84H-3       -0.00000   0.00000   0.00000   0.00000  -0.00000
 303       84H+4        0.00000   0.00000   0.00000   0.00000   0.00000
 304       84H-4       -0.00000   0.00000  -0.00000   0.00000   0.00000
 305       84H+5       -0.00000  -0.00000   0.00000  -0.00000  -0.00000
 306       84H-5       -0.00000  -0.00000  -0.00000   0.00000   0.00000
 307       85I 0        0.00001   0.00000   0.00000  -0.00003   0.00004
 308       85I+1       -0.00000   0.00001  -0.00000   0.00000   0.00000
 309       85I-1        0.00000   0.00000   0.00001   0.00000   0.00000
 310       85I+2       -0.00000   0.00000   0.00000  -0.00000  -0.00000
 311       85I-2       -0.00000  -0.00000   0.00000   0.00000   0.00000
 312       85I+3        0.00000   0.00000   0.00000  -0.00000   0.00000
 313       85I-3        0.00000   0.00000   0.00000   0.00000   0.00000
 314       85I+4        0.00000   0.00000  -0.00000  -0.00000   0.00000
 315       85I-4       -0.00000   0.00000  -0.00000  -0.00000   0.00000
 316       85I+5        0.00000   0.00000  -0.00000   0.00000  -0.00000
 317       85I-5       -0.00000  -0.00000  -0.00000  -0.00000   0.00000
 318       85I+6        0.00000  -0.00000  -0.00000   0.00000   0.00000
 319       85I-6       -0.00000  -0.00000   0.00000  -0.00000   0.00000
 320       86I 0       -0.00007  -0.00000  -0.00000   0.00001   0.00009
 321       86I+1        0.00000  -0.00001   0.00000   0.00000   0.00000
 322       86I-1       -0.00000  -0.00000  -0.00001   0.00000   0.00000
 323       86I+2       -0.00000   0.00000   0.00000   0.00000   0.00000
 324       86I-2       -0.00000  -0.00000  -0.00000   0.00000   0.00000
 325       86I+3        0.00000  -0.00000   0.00000  -0.00000   0.00000
 326       86I-3        0.00000  -0.00000  -0.00000  -0.00000   0.00000
 327       86I+4        0.00000  -0.00000  -0.00000   0.00000   0.00000
 328       86I-4        0.00000  -0.00000   0.00000   0.00000  -0.00000
 329       86I+5       -0.00000  -0.00000   0.00000  -0.00000   0.00000
 330       86I-5        0.00000   0.00000   0.00000   0.00000  -0.00000
 331       86I+6       -0.00000   0.00000  -0.00000  -0.00000  -0.00000
 332       86I-6        0.00000   0.00000  -0.00000   0.00000  -0.00000
 333       87I 0       -0.00010  -0.00000  -0.00000  -0.00043   0.00012
 334       87I+1        0.00000  -0.00001   0.00000   0.00000   0.00000
 335       87I-1       -0.00000  -0.00000  -0.00001   0.00000   0.00000
 336       87I+2       -0.00000   0.00000  -0.00000  -0.00000   0.00000
 337       87I-2        0.00000  -0.00000  -0.00000   0.00000   0.00000
 338       87I+3        0.00000  -0.00000   0.00000  -0.00000   0.00000
 339       87I-3        0.00000  -0.00000  -0.00000  -0.00000   0.00000
 340       87I+4       -0.00000  -0.00000  -0.00000  -0.00000   0.00000
 341       87I-4       -0.00000  -0.00000  -0.00000  -0.00000   0.00000
 342       87I+5        0.00000  -0.00000  -0.00000   0.00000  -0.00000
 343       87I-5       -0.00000  -0.00000  -0.00000  -0.00000   0.00000
 344       87I+6        0.00000  -0.00000   0.00000   0.00000   0.00000
 345       87I-6       -0.00000   0.00000  -0.00000  -0.00000   0.00000
 346 2   H  1S         -0.00002  -0.00000   0.00000   0.00023  -0.00003
 347        2S         -0.00014  -0.00000   0.00000   0.00179  -0.00023
 348        3S         -0.00073  -0.00000   0.00000   0.00913  -0.00121
 349        4S         -0.00265  -0.00000   0.00000   0.03590  -0.00465
 350        5S         -0.00742  -0.00000   0.00000   0.10295  -0.01426
 351        6S         -0.01591  -0.00000   0.00000   0.22839  -0.02916
 352        7S         -0.01879  -0.00000   0.00000   0.32786  -0.03550
 353        8S          0.00536   0.00000   0.00000   0.15645  -0.02935
 354        9S         -0.00163   0.00000   0.00000  -0.00687   0.00470
 355       10PX        -0.00000   0.00004  -0.00000   0.00000   0.00000
 356       10PY         0.00000   0.00000   0.00004  -0.00000  -0.00000
 357       10PZ        -0.00022  -0.00000   0.00000   0.00062  -0.00015
 358       11PX        -0.00000   0.00010  -0.00001   0.00000   0.00000
 359       11PY         0.00000   0.00001   0.00010  -0.00000  -0.00000
 360       11PZ        -0.00100  -0.00000   0.00000   0.00165  -0.00066
 361       12PX        -0.00000   0.00061  -0.00006   0.00000   0.00000
 362       12PY         0.00000   0.00006   0.00061  -0.00000  -0.00000
 363       12PZ        -0.00429  -0.00000   0.00000   0.01535  -0.00284
 364       13PX        -0.00000   0.00051  -0.00005   0.00000   0.00000
 365       13PY        -0.00000   0.00005   0.00051  -0.00000  -0.00000
 366       13PZ        -0.00661  -0.00000   0.00000   0.03178  -0.00296
 367       14PX        -0.00000   0.00075  -0.00008   0.00000  -0.00000
 368       14PY        -0.00000   0.00008   0.00075   0.00000  -0.00000
 369       14PZ         0.00086   0.00000   0.00000   0.01316  -0.00346
 370       15D 0       -0.00008  -0.00000   0.00000   0.00001  -0.00006
 371       15D+1       -0.00000   0.00001  -0.00000   0.00000   0.00000
 372       15D-1       -0.00000   0.00000   0.00001  -0.00000  -0.00000
 373       15D+2       -0.00000   0.00000   0.00000  -0.00000  -0.00000
 374       15D-2        0.00000  -0.00000  -0.00000   0.00000   0.00000
 375       16D 0       -0.00063  -0.00000   0.00000   0.00118  -0.00046
 376       16D+1       -0.00000   0.00018  -0.00002   0.00000   0.00000
 377       16D-1        0.00000   0.00002   0.00018  -0.00000  -0.00000
 378       16D+2       -0.00000   0.00000   0.00000  -0.00000  -0.00000
 379       16D-2        0.00000  -0.00000  -0.00000   0.00000   0.00000
 380       17D 0       -0.00104  -0.00000   0.00000   0.00341  -0.00112
 381       17D+1       -0.00000   0.00037  -0.00004   0.00000   0.00000
 382       17D-1       -0.00000   0.00004   0.00037  -0.00000  -0.00000
 383       17D+2       -0.00000   0.00000  -0.00000  -0.00000  -0.00000
 384       17D-2        0.00000  -0.00000  -0.00000   0.00000   0.00000
 385       18D 0       -0.00033  -0.00000  -0.00000  -0.00102   0.00015
 386       18D+1       -0.00000   0.00021  -0.00002   0.00000  -0.00000
 387       18D-1        0.00000   0.00002   0.00021  -0.00000  -0.00000
 388       18D+2       -0.00000   0.00000  -0.00000  -0.00000  -0.00000
 389       18D-2        0.00000  -0.00000  -0.00000  -0.00000   0.00000
 390       19F 0       -0.00008  -0.00000   0.00000   0.00008  -0.00004
 391       19F+1       -0.00000   0.00001  -0.00000   0.00000  -0.00000
 392       19F-1        0.00000   0.00000   0.00001  -0.00000  -0.00000
 393       19F+2       -0.00000   0.00000   0.00000  -0.00000  -0.00000
 394       19F-2        0.00000  -0.00000  -0.00000  -0.00000   0.00000
 395       19F+3       -0.00000  -0.00000  -0.00000   0.00000  -0.00000
 396       19F-3       -0.00000  -0.00000  -0.00000   0.00000  -0.00000
 397       20F 0       -0.00003   0.00000   0.00000   0.00031  -0.00029
 398       20F+1       -0.00000   0.00017  -0.00002   0.00000   0.00000
 399       20F-1        0.00000   0.00002   0.00017  -0.00000  -0.00000
 400       20F+2       -0.00000   0.00000   0.00000  -0.00000  -0.00000
[...]
 209       74F+3        0.00000   0.00000   0.00000   0.00000
 210       74F-3        0.00000   0.00000   0.00000   0.00000
 211       75F 0        0.00008   0.00004   0.00004   0.00000
 212       75F+1        0.00000   0.00000   0.00000   0.00000
 213       75F-1        0.00000   0.00000   0.00000   0.00000
 214       75F+2        0.00000   0.00000   0.00000   0.00000
 215       75F-2        0.00000   0.00000   0.00000   0.00000
 216       75F+3        0.00000   0.00000   0.00000   0.00000
 217       75F-3        0.00000   0.00000   0.00000   0.00000
 218       76G 0       -0.00000  -0.00000  -0.00000   0.00000
 219       76G+1       -0.00000  -0.00000  -0.00000   0.00000
 220       76G-1       -0.00000  -0.00000  -0.00000   0.00000
 221       76G+2        0.00000   0.00000   0.00000   0.00000
 222       76G-2        0.00000   0.00000   0.00000   0.00000
 223       76G+3        0.00000   0.00000   0.00000   0.00000
 224       76G-3        0.00000   0.00000   0.00000   0.00000
 225       76G+4       -0.00000  -0.00000  -0.00000   0.00000
 226       76G-4       -0.00000  -0.00000  -0.00000   0.00000
 227       77G 0        0.00001   0.00000   0.00000   0.00000
 228       77G+1        0.00000   0.00000   0.00000   0.00000
 229       77G-1        0.00000   0.00000   0.00000   0.00000
 230       77G+2        0.00000   0.00000   0.00000   0.00000
 231       77G-2        0.00000   0.00000   0.00000   0.00000
 232       77G+3        0.00000   0.00000   0.00000   0.00000
 233       77G-3        0.00000   0.00000   0.00000   0.00000
 234       77G+4        0.00000   0.00000   0.00000   0.00000
 235       77G-4        0.00000   0.00000   0.00000   0.00000
 236       78G 0        0.00030   0.00015   0.00015   0.00000
 237       78G+1        0.00000   0.00000   0.00000   0.00000
 238       78G-1        0.00000   0.00000   0.00000   0.00000
 239       78G+2        0.00000   0.00000   0.00000   0.00000
 240       78G-2        0.00000   0.00000   0.00000   0.00000
 241       78G+3        0.00000   0.00000   0.00000   0.00000
 242       78G-3        0.00000   0.00000   0.00000   0.00000
 243       78G+4        0.00000   0.00000   0.00000   0.00000
 244       78G-4        0.00000   0.00000   0.00000   0.00000
 245       79G 0        0.00008   0.00004   0.00004   0.00000
 246       79G+1       -0.00000  -0.00000  -0.00000   0.00000
 247       79G-1       -0.00000  -0.00000  -0.00000   0.00000
 248       79G+2        0.00000   0.00000   0.00000   0.00000
 249       79G-2        0.00000   0.00000   0.00000   0.00000
 250       79G+3        0.00000   0.00000   0.00000   0.00000
 251       79G-3        0.00000   0.00000   0.00000   0.00000
 252       79G+4        0.00000   0.00000   0.00000   0.00000
 253       79G-4        0.00000   0.00000   0.00000   0.00000
 254       80G 0        0.00005   0.00003   0.00003   0.00000
 255       80G+1       -0.00000  -0.00000  -0.00000   0.00000
 256       80G-1       -0.00000  -0.00000  -0.00000   0.00000
 257       80G+2        0.00000   0.00000   0.00000   0.00000
 258       80G-2        0.00000   0.00000   0.00000   0.00000
 259       80G+3        0.00000   0.00000   0.00000   0.00000
 260       80G-3        0.00000   0.00000   0.00000   0.00000
 261       80G+4       -0.00000  -0.00000  -0.00000   0.00000
 262       80G-4        0.00000   0.00000   0.00000   0.00000
 263       81H 0        0.00000   0.00000   0.00000   0.00000
 264       81H+1        0.00000   0.00000   0.00000   0.00000
 265       81H-1        0.00000   0.00000   0.00000   0.00000
 266       81H+2        0.00000   0.00000   0.00000   0.00000
 267       81H-2        0.00000   0.00000   0.00000   0.00000
 268       81H+3        0.00000   0.00000   0.00000   0.00000
 269       81H-3       -0.00000  -0.00000  -0.00000   0.00000
 270       81H+4       -0.00000  -0.00000  -0.00000   0.00000
 271       81H-4       -0.00000  -0.00000  -0.00000   0.00000
 272       81H+5        0.00000   0.00000   0.00000   0.00000
 273       81H-5        0.00000   0.00000   0.00000   0.00000
 274       82H 0        0.00001   0.00000   0.00000   0.00000
 275       82H+1        0.00000   0.00000   0.00000   0.00000
 276       82H-1        0.00000   0.00000   0.00000   0.00000
 277       82H+2        0.00000   0.00000   0.00000   0.00000
 278       82H-2        0.00000   0.00000   0.00000   0.00000
 279       82H+3        0.00000   0.00000   0.00000   0.00000
 280       82H-3        0.00000   0.00000   0.00000   0.00000
 281       82H+4        0.00000   0.00000   0.00000   0.00000
 282       82H-4        0.00000   0.00000   0.00000   0.00000
 283       82H+5        0.00000   0.00000   0.00000   0.00000
 284       82H-5       -0.00000  -0.00000  -0.00000   0.00000
 285       83H 0       -0.00016  -0.00008  -0.00008   0.00000
 286       83H+1        0.00000   0.00000   0.00000   0.00000
 287       83H-1        0.00000   0.00000   0.00000   0.00000
 288       83H+2        0.00000   0.00000   0.00000   0.00000
 289       83H-2        0.00000   0.00000   0.00000   0.00000
 290       83H+3        0.00000   0.00000   0.00000   0.00000
 291       83H-3        0.00000   0.00000   0.00000   0.00000
 292       83H+4       -0.00000  -0.00000  -0.00000   0.00000
 293       83H-4       -0.00000  -0.00000  -0.00000   0.00000
 294       83H+5        0.00000   0.00000   0.00000   0.00000
 295       83H-5        0.00000   0.00000   0.00000   0.00000
 296       84H 0       -0.00000  -0.00000  -0.00000   0.00000
 297       84H+1       -0.00000  -0.00000  -0.00000   0.00000
 298       84H-1       -0.00000  -0.00000  -0.00000   0.00000
 299       84H+2        0.00000   0.00000   0.00000   0.00000
 300       84H-2        0.00000   0.00000   0.00000   0.00000
 301       84H+3        0.00000   0.00000   0.00000   0.00000
 302       84H-3        0.00000   0.00000   0.00000   0.00000
 303       84H+4       -0.00000  -0.00000  -0.00000   0.00000
 304       84H-4        0.00000   0.00000   0.00000   0.00000
 305       84H+5        0.00000   0.00000   0.00000   0.00000
 306       84H-5       -0.00000  -0.00000  -0.00000   0.00000
 307       85I 0       -0.00000  -0.00000  -0.00000   0.00000
 308       85I+1       -0.00000  -0.00000  -0.00000   0.00000
 309       85I-1       -0.00000  -0.00000  -0.00000   0.00000
 310       85I+2        0.00000   0.00000   0.00000   0.00000
 311       85I-2        0.00000   0.00000   0.00000   0.00000
 312       85I+3        0.00000   0.00000   0.00000   0.00000
 313       85I-3        0.00000   0.00000   0.00000   0.00000
 314       85I+4        0.00000   0.00000   0.00000   0.00000
 315       85I-4        0.00000   0.00000   0.00000   0.00000
 316       85I+5        0.00000   0.00000   0.00000   0.00000
 317       85I-5        0.00000   0.00000   0.00000   0.00000
 318       85I+6       -0.00000  -0.00000  -0.00000   0.00000
 319       85I-6        0.00000   0.00000   0.00000   0.00000
 320       86I 0        0.00000   0.00000   0.00000   0.00000
 321       86I+1        0.00000   0.00000   0.00000   0.00000
 322       86I-1        0.00000   0.00000   0.00000   0.00000
 323       86I+2        0.00000   0.00000   0.00000   0.00000
 324       86I-2        0.00000   0.00000   0.00000   0.00000
 325       86I+3        0.00000   0.00000   0.00000   0.00000
 326       86I-3        0.00000   0.00000   0.00000   0.00000
 327       86I+4        0.00000   0.00000   0.00000   0.00000
 328       86I-4       -0.00000  -0.00000  -0.00000   0.00000
 329       86I+5       -0.00000  -0.00000  -0.00000   0.00000
 330       86I-5       -0.00000  -0.00000  -0.00000   0.00000
 331       86I+6        0.00000   0.00000   0.00000   0.00000
 332       86I-6       -0.00000  -0.00000  -0.00000   0.00000
 333       87I 0       -0.00006  -0.00003  -0.00003   0.00000
 334       87I+1        0.00000   0.00000   0.00000   0.00000
 335       87I-1        0.00000   0.00000   0.00000   0.00000
 336       87I+2        0.00000   0.00000   0.00000   0.00000
 337       87I-2        0.00000   0.00000   0.00000   0.00000
 338       87I+3        0.00000   0.00000   0.00000   0.00000
 339       87I-3        0.00000   0.00000   0.00000   0.00000
 340       87I+4        0.00000   0.00000   0.00000   0.00000
 341       87I-4        0.00000   0.00000   0.00000   0.00000
 342       87I+5       -0.00000  -0.00000  -0.00000   0.00000
 343       87I-5        0.00000   0.00000   0.00000   0.00000
 344       87I+6        0.00000   0.00000   0.00000   0.00000
 345       87I-6       -0.00000  -0.00000  -0.00000   0.00000
 346 2   H  1S          0.00001   0.00000   0.00000   0.00000
 347        2S          0.00027   0.00014   0.00014   0.00000
 348        3S          0.00362   0.00181   0.00181   0.00000
 349        4S          0.02912   0.01456   0.01456   0.00000
 350        5S          0.13848   0.06924   0.06924   0.00000
 351        6S          0.40621   0.20311   0.20311   0.00000
 352        7S          0.58644   0.29322   0.29322   0.00000
 353        8S          0.20897   0.10448   0.10448   0.00000
 354        9S         -0.00154  -0.00077  -0.00077   0.00000
 355       10PX         0.00000   0.00000   0.00000   0.00000
 356       10PY         0.00000   0.00000   0.00000   0.00000
 357       10PZ         0.00004   0.00002   0.00002   0.00000
 358       11PX         0.00000   0.00000   0.00000   0.00000
 359       11PY         0.00000   0.00000   0.00000   0.00000
 360       11PZ         0.00035   0.00017   0.00017   0.00000
 361       12PX         0.00004   0.00002   0.00002   0.00000
 362       12PY         0.00004   0.00002   0.00002   0.00000
 363       12PZ         0.00515   0.00258   0.00258   0.00000
 364       13PX         0.00012   0.00006   0.00006   0.00000
 365       13PY         0.00012   0.00006   0.00006   0.00000
 366       13PZ         0.00754   0.00377   0.00377   0.00000
 367       14PX         0.00022   0.00011   0.00011   0.00000
 368       14PY         0.00022   0.00011   0.00011   0.00000
 369       14PZ        -0.00308  -0.00154  -0.00154   0.00000
 370       15D 0        0.00000   0.00000   0.00000   0.00000
 371       15D+1        0.00000   0.00000   0.00000   0.00000
 372       15D-1        0.00000   0.00000   0.00000   0.00000
 373       15D+2        0.00000   0.00000   0.00000   0.00000
 374       15D-2        0.00000   0.00000   0.00000   0.00000
 375       16D 0        0.00019   0.00010   0.00010   0.00000
 376       16D+1        0.00001   0.00000   0.00000   0.00000
 377       16D-1        0.00001   0.00000   0.00000   0.00000
 378       16D+2        0.00000   0.00000   0.00000   0.00000
 379       16D-2        0.00000   0.00000   0.00000   0.00000
 380       17D 0        0.00080   0.00040   0.00040   0.00000
 381       17D+1        0.00009   0.00005   0.00005   0.00000
 382       17D-1        0.00009   0.00005   0.00005   0.00000
 383       17D+2        0.00000   0.00000   0.00000   0.00000
 384       17D-2        0.00000   0.00000   0.00000   0.00000
 385       18D 0        0.00097   0.00049   0.00049   0.00000
 386       18D+1        0.00012   0.00006   0.00006   0.00000
 387       18D-1        0.00012   0.00006   0.00006   0.00000
 388       18D+2        0.00000   0.00000   0.00000   0.00000
 389       18D-2        0.00000   0.00000   0.00000   0.00000
 390       19F 0        0.00000   0.00000   0.00000   0.00000
 391       19F+1        0.00000   0.00000   0.00000   0.00000
 392       19F-1        0.00000   0.00000   0.00000   0.00000
 393       19F+2        0.00000   0.00000   0.00000   0.00000
 394       19F-2        0.00000   0.00000   0.00000   0.00000
 395       19F+3        0.00000   0.00000   0.00000   0.00000
 396       19F-3        0.00000   0.00000   0.00000   0.00000
 397       20F 0        0.00007   0.00003   0.00003   0.00000
 398       20F+1        0.00002   0.00001   0.00001   0.00000
 399       20F-1        0.00002   0.00001   0.00001   0.00000
 400       20F+2        0.00000   0.00000   0.00000   0.00000
 401       20F-2        0.00000   0.00000   0.00000   0.00000
 402       20F+3        0.00000   0.00000   0.00000   0.00000
 403       20F-3        0.00000   0.00000   0.00000   0.00000
 404       21F 0        0.00006   0.00003   0.00003   0.00000
 405       21F+1        0.00007   0.00004   0.00004   0.00000
 406       21F-1        0.00007   0.00004   0.00004   0.00000
 407       21F+2        0.00000   0.00000   0.00000   0.00000
 408       21F-2        0.00000   0.00000   0.00000   0.00000
 409       21F+3        0.00000   0.00000   0.00000   0.00000
 410       21F-3        0.00000   0.00000   0.00000   0.00000
 411       22G 0        0.00000   0.00000   0.00000   0.00000
 412       22G+1        0.00000   0.00000   0.00000   0.00000
 413       22G-1        0.00000   0.00000   0.00000   0.00000
 414       22G+2        0.00000   0.00000   0.00000   0.00000
 415       22G-2       -0.00000  -0.00000  -0.00000   0.00000
 416       22G+3        0.00000   0.00000   0.00000   0.00000
 417       22G-3        0.00000   0.00000   0.00000   0.00000
 418       22G+4        0.00000   0.00000   0.00000   0.00000
 419       22G-4        0.00000   0.00000   0.00000   0.00000
 420       23G 0       -0.00005  -0.00003  -0.00003   0.00000
 421       23G+1        0.00003   0.00002   0.00002   0.00000
 422       23G-1        0.00003   0.00002   0.00002   0.00000
 423       23G+2        0.00000   0.00000   0.00000   0.00000
 424       23G-2        0.00000   0.00000   0.00000   0.00000
 425       23G+3        0.00000   0.00000   0.00000   0.00000
 426       23G-3        0.00000   0.00000   0.00000   0.00000
 427       23G+4        0.00000   0.00000   0.00000   0.00000
 428       23G-4        0.00000   0.00000   0.00000   0.00000
          Condensed to atoms (all electrons):
               1          2
     1  Sc  20.371894   0.242993
     2  H    0.242993   1.142119
          Atomic-Atomic Spin Densities.
               1          2
     1  Sc   0.000000   0.000000
     2  H    0.000000   0.000000
 Mulliken charges and spin densities:
               1          2
     1  Sc   0.385112   0.000000
     2  H   -0.385112   0.000000
 Sum of Mulliken charges =  -0.00000   0.00000
 Mulliken charges and spin densities with hydrogens summed into heavy atoms:
               1          2
     1  Sc  -0.000000   0.000000
 Electronic spatial extent (au):  <R**2>=             64.6858
 Charge=             -0.0000 electrons
 Dipole moment (field-independent basis, Debye):
    X=              0.0000    Y=              0.0000    Z=              1.1330  Tot=              1.1330
 Quadrupole moment (field-independent basis, Debye-Ang):
   XX=            -23.5511   YY=            -23.5511   ZZ=            -26.6521
   XY=             -0.0000   XZ=              0.0000   YZ=             -0.0000
 Traceless Quadrupole moment (field-independent basis, Debye-Ang):
   XX=              1.0337   YY=              1.0337   ZZ=             -2.0674
   XY=             -0.0000   XZ=              0.0000   YZ=             -0.0000
 Octapole moment (field-independent basis, Debye-Ang**2):
  XXX=              0.0000  YYY=              0.0000  ZZZ=              2.0396  XYY=              0.0000
  XXY=              0.0000  XXZ=             -3.7243  XZZ=              0.0000  YZZ=              0.0000
  YYZ=             -3.7243  XYZ=              0.0000
 Hexadecapole moment (field-independent basis, Debye-Ang**3):
 XXXX=            -73.8580 YYYY=            -73.8580 ZZZZ=           -104.4311 XXXY=             -0.0000
 XXXZ=              0.0000 YYYX=             -0.0000 YYYZ=             -0.0000 ZZZX=              0.0000
 ZZZY=             -0.0000 XXYY=            -24.6193 XXZZ=            -27.8858 YYZZ=            -27.8858
 XXYZ=             -0.0000 YYXZ=              0.0000 ZZXY=             -0.0000
 N-N= 6.536894958424D+00 E-N=-1.842481222879D+03  KE= 7.855822815239D+02
 Orbital energies and kinetic energies (alpha):
                                 1                 2
   7         O                -1.654400          5.978652
   8         O                -1.652918          5.989265
   9         O                -1.652918          5.989265
  10         O                -0.418374          1.040310
  11         O                -0.229349          0.974641
  12         V                 0.011377          0.098639
  13         V                 0.011377          0.098639
  14         V                 0.015281          0.160811
  15         V                 0.016639          0.035245
  16         V                 0.026015          0.030234
 Total kinetic energy from orbitals= 7.855822815239D+02
 FoFCou: FMM=F IPFlag=           8 FMFlag=           0 FMFlg1=           0
         NFxFlg=           0 DoJE=F BraDBF=T KetDBF=F FulRan=T
         wScrn=  0.000000 ICntrl=   2000500 IOpCl=  0 I1Cent=           5 NGrid=           0
         NMat0=    1 NMatS0=      1 NMatT0=    0 NMatD0=    1 NMtDS0=    0 NMtDT0=    0
 Symmetry not used in FoFCou.
                          Isotropic Fermi Contact Couplings
        Atom                 a.u.       MegaHertz       Gauss      10(-4) cm-1
     1  Sc(45)             0.00000       0.00000       0.00000       0.00000
     2  H(1)               0.00000       0.00000       0.00000       0.00000
 --------------------------------------------------------
       Center         ----  Spin Dipole Couplings  ----
                      3XX-RR        3YY-RR        3ZZ-RR
 --------------------------------------------------------
     1   Atom        0.000000      0.000000      0.000000
     2   Atom        0.000000      0.000000      0.000000
 --------------------------------------------------------
                        XY            XZ            YZ
 --------------------------------------------------------
     1   Atom        0.000000      0.000000      0.000000
     2   Atom        0.000000      0.000000      0.000000
 --------------------------------------------------------


 ---------------------------------------------------------------------------------
              Anisotropic Spin Dipole Couplings in Principal Axis System
 ---------------------------------------------------------------------------------

       Atom             a.u.   MegaHertz   Gauss  10(-4) cm-1        Axes

              Baa     0.0000     0.000     0.000     0.000  1.0000  0.0000  0.0000
     1 Sc(45) Bbb     0.0000     0.000     0.000     0.000 -0.0000  1.0000  0.0000
              Bcc     0.0000     0.000     0.000     0.000  0.0000  0.0000  1.0000
 
              Baa     0.0000     0.000     0.000     0.000  1.0000  0.0000  0.0000
     2 H(1)   Bbb     0.0000     0.000     0.000     0.000 -0.0000  1.0000  0.0000
              Bcc     0.0000     0.000     0.000     0.000  0.0000  0.0000  1.0000
 

 ---------------------------------------------------------------------------------

 No NMR shielding tensors so no spin-rotation constants.
 Leave Link  601 at Tue Feb 13 20:22:35 2018, MaxMem=  8589934592 cpu:             354.8 elap:              11.8
 (Enter /home1/apps/gaussian/16rA.03/g16/l9999.exe)

 Test job not archived.
 1\1\GINC-C409-114\SP\ROCCSD(T)-Full\Gen\H1Sc1\AANNABE\13-Feb-2018\0\\#
 P ROCCSD(T)=(maxcyc=150, Full)/Gen 5d 7f SCF=(maxcycles=300) Integral(
 NoXCTest, DKHSO) MaxDisk=500GB Pop=Regular IOp(5/15=2) Guess=Read\\ScH
 \\0,1\Sc,0,0.,0.,0.\H,0,0.,0.,1.7\\Version=ES64L-G16RevA.03\State=1-SG
 \HF=-763.831851\MP2=-764.6248476\MP3=-764.6374129\PUHF=-763.831851\PMP
 2-0=-764.6248476\MP4SDQ=-764.6395295\CCSD=-764.6398329\CCSD(T)=-764.65
 99072\RMSD=8.981e-09\PG=C*V [C*(H1Sc1)]\\@


 THOSE WHO TRY TO PASS CHEMISTRY OFF AS A NEW SCIENCE
 SHOW HOW LITTLE KNOWLEDGE THEY HAVE OF THE CHARACTER
 AND LITERATURE OF THE ANCIENTS.
   -- NICOLAS LEFEVRE
 "COURS DE CHYMIE" J.-N.LELOUP, PARIS, 1751
 Job cpu time:       8 days  2 hours 47 minutes 40.6 seconds.
 Elapsed time:       0 days  6 hours  9 minutes  9.5 seconds.
 File lengths (MBytes):  RWF=  89955 Int=      0 D2E=      0 Chk=     21 Scr=      1
 Normal termination of Gaussian 16 at Tue Feb 13 20:22:48 2018.
