 Entering Gaussian System, Link 0=g16
 Initial command:
 /home1/apps/gaussian/16rA.03/g16/l1.exe "/tmp/Gau-42211.inp" -scrdir="/tmp/"
 Entering Link 1 = /home1/apps/gaussian/16rA.03/g16/l1.exe PID=     42212.
  
 Copyright (c) 1988,1990,1992,1993,1995,1998,2003,2009,2016,
            Gaussian, Inc.  All Rights Reserved.
  
 This is part of the Gaussian(R) 16 program.  It is based on
 the Gaussian(R) 09 system (copyright 2009, Gaussian, Inc.),
 the Gaussian(R) 03 system (copyright 2003, Gaussian, Inc.),
 the Gaussian(R) 98 system (copyright 1998, Gaussian, Inc.),
 the Gaussian(R) 94 system (copyright 1995, Gaussian, Inc.),
 the Gaussian 92(TM) system (copyright 1992, Gaussian, Inc.),
 the Gaussian 90(TM) system (copyright 1990, Gaussian, Inc.),
 the Gaussian 88(TM) system (copyright 1988, Gaussian, Inc.),
 the Gaussian 86(TM) system (copyright 1986, Carnegie Mellon
 University), and the Gaussian 82(TM) system (copyright 1983,
 Carnegie Mellon University). Gaussian is a federally registered
 trademark of Gaussian, Inc.
  
 This software contains proprietary and confidential information,
 including trade secrets, belonging to Gaussian, Inc.
  
 This software is provided under written license and may be
 used, copied, transmitted, or stored only in accord with that
 written license.
  
 The following legend is applicable only to US Government
 contracts under FAR:
  
                    RESTRICTED RIGHTS LEGEND
  
 Use, reproduction and disclosure by the US Government is
 subject to restrictions as set forth in subparagraphs (a)
 and (c) of the Commercial Computer Software - Restricted
 Rights clause in FAR 52.227-19.
  
 Gaussian, Inc.
 340 Quinnipiac St., Bldg. 40, Wallingford CT 06492
  
  
 ---------------------------------------------------------------
 Warning -- This program may not be used in any manner that
 competes with the business of Gaussian, Inc. or will provide
 assistance to any competitor of Gaussian, Inc.  The licensee
 of this program is prohibited from giving any competitor of
 Gaussian, Inc. access to this program.  By using this program,
 the user acknowledges that Gaussian, Inc. is engaged in the
 business of creating and licensing software in the field of
 computational chemistry and represents and warrants to the
 licensee that it is not a competitor of Gaussian, Inc. and that
 it will not use this program in any manner prohibited above.
 ---------------------------------------------------------------
  

 Cite this work as:
 Gaussian 16, Revision A.03,
 M. J. Frisch, G. W. Trucks, H. B. Schlegel, G. E. Scuseria, 
 M. A. Robb, J. R. Cheeseman, G. Scalmani, V. Barone, 
 G. A. Petersson, H. Nakatsuji, X. Li, M. Caricato, A. V. Marenich, 
 J. Bloino, B. G. Janesko, R. Gomperts, B. Mennucci, H. P. Hratchian, 
 J. V. Ortiz, A. F. Izmaylov, J. L. Sonnenberg, D. Williams-Young, 
 F. Ding, F. Lipparini, F. Egidi, J. Goings, B. Peng, A. Petrone, 
 T. Henderson, D. Ranasinghe, V. G. Zakrzewski, J. Gao, N. Rega, 
 G. Zheng, W. Liang, M. Hada, M. Ehara, K. Toyota, R. Fukuda, 
 J. Hasegawa, M. Ishida, T. Nakajima, Y. Honda, O. Kitao, H. Nakai, 
 T. Vreven, K. Throssell, J. A. Montgomery, Jr., J. E. Peralta, 
 F. Ogliaro, M. J. Bearpark, J. J. Heyd, E. N. Brothers, K. N. Kudin, 
 V. N. Staroverov, T. A. Keith, R. Kobayashi, J. Normand, 
 K. Raghavachari, A. P. Rendell, J. C. Burant, S. S. Iyengar, 
 J. Tomasi, M. Cossi, J. M. Millam, M. Klene, C. Adamo, R. Cammi, 
 J. W. Ochterski, R. L. Martin, K. Morokuma, O. Farkas, 
 J. B. Foresman, and D. J. Fox, Gaussian, Inc., Wallingford CT, 2016.
 
 ******************************************
 Gaussian 16:  ES64L-G16RevA.03 25-Dec-2016
                27-Mar-2018 
 ******************************************
 %mem=80GB
 %cpu=0-31
 SetSPE:  set environment variable "MP_BIND" = "yes"
 SetSPE:  set environment variable "MP_BLIST" = "0,1,2,3,4,5,6,7,8,9,10,11,12,13,14,15,16,17,18,19,20,21,22,23,24,25,26,27,28,29,30,31"
 Will use up to   32 processors via shared memory.
 %chk=qz.chk
 %rwf=/scratch/04843/gwang18/zno/
 ----------------------------------------------------------------------
 #P ROCCSD(T)=(MaxCyc=150, Full)/Gen SCF=(maxcycle=400) Pseudo=Read Int
 egral(NoXCTest) Pop=Regular MaxDisk=500GB Guess=Read IOp(5/15=2)
 ----------------------------------------------------------------------
 1/38=1,172=1/1;
 2/12=2,17=6,18=5,40=1/2;
 3/5=7,11=2,16=1,17=8,25=1,30=1,47=8,116=101/1,2,3;
 4/5=1/1;
 5/5=2,7=400,15=2,38=6/2;
 8/5=-1,6=4,9=120000,10=90/1,4;
 9/5=7,6=150,14=2/13;
 6//1;
 99/5=1,9=1/99;
 Leave Link    1 at Tue Mar 27 11:48:51 2018, MaxMem= 10737418240 cpu:               6.2 elap:               0.2
 (Enter /home1/apps/gaussian/16rA.03/g16/l101.exe)
 ---
 ZnO
 ---
 Symbolic Z-matrix:
 Charge =  0 Multiplicity = 1
 Zn                    0.        0.        0. 
 O                     0.        0.        1.2 
 
 ITRead=  0  0
 MicOpt= -1 -1
 NAtoms=      2 NQM=        2 NQMF=       0 NMMI=      0 NMMIF=      0
                NMic=       0 NMicF=      0.
                    Isotopes and Nuclear Properties:
 (Nuclear quadrupole moments (NQMom) in fm**2, nuclear magnetic moments (NMagM)
  in nuclear magnetons)

  Atom         1           2
 IAtWgt=          64          16
 AtmWgt=  63.9291454  15.9949146
 NucSpn=           0           0
 AtZEff=  -0.0000000  -0.0000000
 NQMom=    0.0000000   0.0000000
 NMagM=    0.0000000   0.0000000
 AtZNuc=  30.0000000   8.0000000
 Leave Link  101 at Tue Mar 27 11:48:51 2018, MaxMem= 10737418240 cpu:               3.0 elap:               0.1
 (Enter /home1/apps/gaussian/16rA.03/g16/l202.exe)
                          Input orientation:                          
 ---------------------------------------------------------------------
 Center     Atomic      Atomic             Coordinates (Angstroms)
 Number     Number       Type             X           Y           Z
 ---------------------------------------------------------------------
      1         30           0        0.000000    0.000000    0.000000
      2          8           0        0.000000    0.000000    1.200000
 ---------------------------------------------------------------------
 Stoichiometry    OZn
 Framework group  C*V[C*(OZn)]
 Deg. of freedom     1
 Full point group                 C*V     NOp   4
 Largest Abelian subgroup         C2V     NOp   4
 Largest concise Abelian subgroup C1      NOp   1
                         Standard orientation:                         
 ---------------------------------------------------------------------
 Center     Atomic      Atomic             Coordinates (Angstroms)
 Number     Number       Type             X           Y           Z
 ---------------------------------------------------------------------
      1         30           0        0.000000    0.000000    0.252632
      2          8           0        0.000000    0.000000   -0.947368
 ---------------------------------------------------------------------
 Rotational constants (GHZ):           0.0000000          27.4316177          27.4316177
 Leave Link  202 at Tue Mar 27 11:48:51 2018, MaxMem= 10737418240 cpu:               0.8 elap:               0.1
 (Enter /home1/apps/gaussian/16rA.03/g16/l301.exe)
 General basis read from cards:  (5D, 7F)
 Centers:       1
 S 1 1.00
     Exponent=  1.7852930000D+07 Coefficients=  1.0000000000D+00
 S 1 1.00
     Exponent=  2.6730380000D+06 Coefficients=  1.0000000000D+00
 S 1 1.00
     Exponent=  6.0832440000D+05 Coefficients=  1.0000000000D+00
 S 1 1.00
     Exponent=  1.7231760000D+05 Coefficients=  1.0000000000D+00
 S 1 1.00
     Exponent=  5.6222690000D+04 Coefficients=  1.0000000000D+00
 S 1 1.00
     Exponent=  2.0299850000D+04 Coefficients=  1.0000000000D+00
 S 1 1.00
     Exponent=  7.9188710000D+03 Coefficients=  1.0000000000D+00
 S 1 1.00
     Exponent=  3.2853400000D+03 Coefficients=  1.0000000000D+00
 S 1 1.00
     Exponent=  1.4335240000D+03 Coefficients=  1.0000000000D+00
 S 1 1.00
     Exponent=  6.5228890000D+02 Coefficients=  1.0000000000D+00
 S 1 1.00
     Exponent=  3.0743600000D+02 Coefficients=  1.0000000000D+00
 S 1 1.00
     Exponent=  1.4914660000D+02 Coefficients=  1.0000000000D+00
 S 1 1.00
     Exponent=  7.3451080000D+01 Coefficients=  1.0000000000D+00
 S 1 1.00
     Exponent=  3.3925620000D+01 Coefficients=  1.0000000000D+00
 S 1 1.00
     Exponent=  1.7189470000D+01 Coefficients=  1.0000000000D+00
 S 1 1.00
     Exponent=  8.6665950000D+00 Coefficients=  1.0000000000D+00
 S 1 1.00
     Exponent=  3.9725050000D+00 Coefficients=  1.0000000000D+00
 S 1 1.00
     Exponent=  1.8946650000D+00 Coefficients=  1.0000000000D+00
 S 1 1.00
     Exponent=  8.5938500000D-01 Coefficients=  1.0000000000D+00
 S 1 1.00
     Exponent=  1.9525600000D-01 Coefficients=  1.0000000000D+00
 S 1 1.00
     Exponent=  8.5854000000D-02 Coefficients=  1.0000000000D+00
 S 1 1.00
     Exponent=  3.6781000000D-02 Coefficients=  1.0000000000D+00
 S 1 1.00
     Exponent=  8.3276000000D+00 Coefficients=  1.0000000000D+00
 S 1 1.00
     Exponent=  3.4194000000D+00 Coefficients=  1.0000000000D+00
 S 1 1.00
     Exponent=  1.5760000000D-02 Coefficients=  1.0000000000D+00
 P 1 1.00
     Exponent=  5.2867930000D+04 Coefficients=  1.0000000000D+00
 P 1 1.00
     Exponent=  1.2511790000D+04 Coefficients=  1.0000000000D+00
 P 1 1.00
     Exponent=  4.0652860000D+03 Coefficients=  1.0000000000D+00
 P 1 1.00
     Exponent=  1.5575950000D+03 Coefficients=  1.0000000000D+00
 P 1 1.00
     Exponent=  6.6328920000D+02 Coefficients=  1.0000000000D+00
 P 1 1.00
     Exponent=  3.0415610000D+02 Coefficients=  1.0000000000D+00
 P 1 1.00
     Exponent=  1.4736800000D+02 Coefficients=  1.0000000000D+00
 P 1 1.00
     Exponent=  7.4454690000D+01 Coefficients=  1.0000000000D+00
 P 1 1.00
     Exponent=  3.8714930000D+01 Coefficients=  1.0000000000D+00
 P 1 1.00
     Exponent=  2.0570220000D+01 Coefficients=  1.0000000000D+00
 P 1 1.00
     Exponent=  1.1054250000D+01 Coefficients=  1.0000000000D+00
 P 1 1.00
     Exponent=  5.8746610000D+00 Coefficients=  1.0000000000D+00
 P 1 1.00
     Exponent=  3.0529360000D+00 Coefficients=  1.0000000000D+00
 P 1 1.00
     Exponent=  1.5472250000D+00 Coefficients=  1.0000000000D+00
 P 1 1.00
     Exponent=  7.5415100000D-01 Coefficients=  1.0000000000D+00
 P 1 1.00
     Exponent=  2.6534900000D-01 Coefficients=  1.0000000000D+00
 P 1 1.00
     Exponent=  1.0206700000D-01 Coefficients=  1.0000000000D+00
 P 1 1.00
     Exponent=  3.8755000000D-02 Coefficients=  1.0000000000D+00
 P 1 1.00
     Exponent=  1.2535700000D+01 Coefficients=  1.0000000000D+00
 P 1 1.00
     Exponent=  3.4227000000D+00 Coefficients=  1.0000000000D+00
 P 1 1.00
     Exponent=  1.4720000000D-02 Coefficients=  1.0000000000D+00
 D 1 1.00
     Exponent=  6.3978060000D+02 Coefficients=  1.0000000000D+00
 D 1 1.00
     Exponent=  1.9267420000D+02 Coefficients=  1.0000000000D+00
 D 1 1.00
     Exponent=  7.4843680000D+01 Coefficients=  1.0000000000D+00
 D 1 1.00
     Exponent=  3.2860480000D+01 Coefficients=  1.0000000000D+00
 D 1 1.00
     Exponent=  1.5393530000D+01 Coefficients=  1.0000000000D+00
 D 1 1.00
     Exponent=  7.5255120000D+00 Coefficients=  1.0000000000D+00
 D 1 1.00
     Exponent=  3.7154290000D+00 Coefficients=  1.0000000000D+00
 D 1 1.00
     Exponent=  1.8064590000D+00 Coefficients=  1.0000000000D+00
 D 1 1.00
     Exponent=  8.5297300000D-01 Coefficients=  1.0000000000D+00
 D 1 1.00
     Exponent=  3.8478000000D-01 Coefficients=  1.0000000000D+00
 D 1 1.00
     Exponent=  1.5933700000D-01 Coefficients=  1.0000000000D+00
 D 1 1.00
     Exponent=  9.2094000000D+00 Coefficients=  1.0000000000D+00
 D 1 1.00
     Exponent=  5.2262000000D+00 Coefficients=  1.0000000000D+00
 D 1 1.00
     Exponent=  6.5980000000D-02 Coefficients=  1.0000000000D+00
 F 1 1.00
     Exponent=  1.3235500000D+01 Coefficients=  1.0000000000D+00
 F 1 1.00
     Exponent=  5.6706000000D+00 Coefficients=  1.0000000000D+00
 F 1 1.00
     Exponent=  2.4295000000D+00 Coefficients=  1.0000000000D+00
 F 1 1.00
     Exponent=  8.5300000000D-01 Coefficients=  1.0000000000D+00
 F 1 1.00
     Exponent=  2.9949000000D-01 Coefficients=  1.0000000000D+00
 G 1 1.00
     Exponent=  1.0790200000D+01 Coefficients=  1.0000000000D+00
 G 1 1.00
     Exponent=  4.9368000000D+00 Coefficients=  1.0000000000D+00
 G 1 1.00
     Exponent=  2.0693000000D+00 Coefficients=  1.0000000000D+00
 G 1 1.00
     Exponent=  8.6736000000D-01 Coefficients=  1.0000000000D+00
 H 1 1.00
     Exponent=  9.6086000000D+00 Coefficients=  1.0000000000D+00
 H 1 1.00
     Exponent=  4.4136000000D+00 Coefficients=  1.0000000000D+00
 H 1 1.00
     Exponent=  2.0273400000D+00 Coefficients=  1.0000000000D+00
 ****
 Centers:       2
 S 1 1.00
     Exponent=  6.1420000000D+04 Coefficients=  1.0000000000D+00
 S 1 1.00
     Exponent=  9.1990000000D+03 Coefficients=  1.0000000000D+00
 S 1 1.00
     Exponent=  2.0910000000D+03 Coefficients=  1.0000000000D+00
 S 1 1.00
     Exponent=  5.9090000000D+02 Coefficients=  1.0000000000D+00
 S 1 1.00
     Exponent=  1.9230000000D+02 Coefficients=  1.0000000000D+00
 S 1 1.00
     Exponent=  6.9320000000D+01 Coefficients=  1.0000000000D+00
 S 1 1.00
     Exponent=  2.6970000000D+01 Coefficients=  1.0000000000D+00
 S 1 1.00
     Exponent=  1.1100000000D+01 Coefficients=  1.0000000000D+00
 S 1 1.00
     Exponent=  4.6820000000D+00 Coefficients=  1.0000000000D+00
 S 1 1.00
     Exponent=  1.4280000000D+00 Coefficients=  1.0000000000D+00
 S 1 1.00
     Exponent=  5.5470000000D-01 Coefficients=  1.0000000000D+00
 S 1 1.00
     Exponent=  2.0670000000D-01 Coefficients=  1.0000000000D+00
 S 1 1.00
     Exponent=  1.2974000000D+01 Coefficients=  1.0000000000D+00
 S 1 1.00
     Exponent=  3.4900000000D+01 Coefficients=  1.0000000000D+00
 S 1 1.00
     Exponent=  9.3881000000D+01 Coefficients=  1.0000000000D+00
 S 1 1.00
     Exponent=  6.9590000000D-02 Coefficients=  1.0000000000D+00
 P 1 1.00
     Exponent=  6.3420000000D+01 Coefficients=  1.0000000000D+00
 P 1 1.00
     Exponent=  1.4660000000D+01 Coefficients=  1.0000000000D+00
 P 1 1.00
     Exponent=  4.4590000000D+00 Coefficients=  1.0000000000D+00
 P 1 1.00
     Exponent=  1.5310000000D+00 Coefficients=  1.0000000000D+00
 P 1 1.00
     Exponent=  5.3020000000D-01 Coefficients=  1.0000000000D+00
 P 1 1.00
     Exponent=  1.7500000000D-01 Coefficients=  1.0000000000D+00
 P 1 1.00
     Exponent=  1.4475000000D+01 Coefficients=  1.0000000000D+00
 P 1 1.00
     Exponent=  4.2730000000D+01 Coefficients=  1.0000000000D+00
 P 1 1.00
     Exponent=  1.2614000000D+02 Coefficients=  1.0000000000D+00
 P 1 1.00
     Exponent=  5.3480000000D-02 Coefficients=  1.0000000000D+00
 D 1 1.00
     Exponent=  3.7750000000D+00 Coefficients=  1.0000000000D+00
 D 1 1.00
     Exponent=  1.3000000000D+00 Coefficients=  1.0000000000D+00
 D 1 1.00
     Exponent=  4.4400000000D-01 Coefficients=  1.0000000000D+00
 D 1 1.00
     Exponent=  1.4927000000D+01 Coefficients=  1.0000000000D+00
 D 1 1.00
     Exponent=  5.7544000000D+01 Coefficients=  1.0000000000D+00
 D 1 1.00
     Exponent=  1.5400000000D-01 Coefficients=  1.0000000000D+00
 F 1 1.00
     Exponent=  2.6660000000D+00 Coefficients=  1.0000000000D+00
 F 1 1.00
     Exponent=  8.5900000000D-01 Coefficients=  1.0000000000D+00
 F 1 1.00
     Exponent=  2.6483000000D+01 Coefficients=  1.0000000000D+00
 F 1 1.00
     Exponent=  3.2400000000D-01 Coefficients=  1.0000000000D+00
 G 1 1.00
     Exponent=  1.8460000000D+00 Coefficients=  1.0000000000D+00
 G 1 1.00
     Exponent=  7.1400000000D-01 Coefficients=  1.0000000000D+00
 ****
 ======================================================================================================
                                       Pseudopotential Parameters
 ======================================================================================================
  Center     Atomic      Valence      Angular      Power
  Number     Number     Electrons     Momentum     of R      Exponent        Coefficient   SO-Coeffient
 ======================================================================================================
    1         30           20
                                      D and up 
                                                     1       35.8777152       20.00000000    0.00000000
                                                     3       34.1078424      717.55430465    0.00000000
                                                     2       28.7174520     -203.49912625    0.00000000
                                                     2        8.3955088       -0.04450117    0.00000000
                                      S - D
                                                     2       14.4978289       95.23904949    0.00000000
                                                     2       35.1597610      430.48072035    0.00000000
                                      P - D
                                                     2       14.7119819       73.77695398    0.00000000
                                                     2       41.6286707      312.12270272    0.00000000
    2          8            6
                                      P and up 
                                                     1       12.3099744        6.00000000    0.00000000
                                                     3       14.7696229       73.85984616    0.00000000
                                                     2       13.7141954      -47.87600504    0.00000000
                                      S - P
                                                     2       13.6551200       85.86406526    0.00000000
 ======================================================================================================
 Ernie: Thresh=  0.10000D-02 Tol=  0.10000D-05 Strict=F.
 There are   213 symmetry adapted cartesian basis functions of A1  symmetry.
 There are    56 symmetry adapted cartesian basis functions of A2  symmetry.
 There are   114 symmetry adapted cartesian basis functions of B1  symmetry.
 There are   114 symmetry adapted cartesian basis functions of B2  symmetry.
 There are   157 symmetry adapted basis functions of A1  symmetry.
 There are    47 symmetry adapted basis functions of A2  symmetry.
 There are    90 symmetry adapted basis functions of B1  symmetry.
 There are    90 symmetry adapted basis functions of B2  symmetry.
   384 basis functions,   497 primitive gaussians,   497 cartesian basis functions
    13 alpha electrons       13 beta electrons
       nuclear repulsion energy        52.9177210920 Hartrees.
 IExCor=    0 DFT=F Ex=HF Corr=None ExCW=0 ScaHFX=  1.000000
 ScaDFX=  1.000000  1.000000  1.000000  1.000000 ScalE2=  1.000000  1.000000
 IRadAn=      5 IRanWt=     -1 IRanGd=            0 ICorTp=0 IEmpDi=  4
 NAtoms=    2 NActive=    2 NUniq=    2 SFac= 1.00D+00 NAtFMM=   60 NAOKFM=F Big=F
 Integral buffers will be    131072 words long.
 Raffenetti 2 integral format.
 Two-electron integral symmetry is turned on.
 Leave Link  301 at Tue Mar 27 11:48:51 2018, MaxMem= 10737418240 cpu:               9.5 elap:               0.3
 (Enter /home1/apps/gaussian/16rA.03/g16/l302.exe)
 NPDir=0 NMtPBC=     1 NCelOv=     1 NCel=       1 NClECP=     1 NCelD=      1
         NCelK=      1 NCelE2=     1 NClLst=     1 CellRange=     0.0.
 One-electron integrals computed using PRISM.
 One-electron integral symmetry used in STVInt
   4 Symmetry operations used in ECPInt.
 ECPInt:  NShTT=    6105 NPrTT=    6105 LenC2=    5651 LenP2D=    5650.
 LDataN:  DoStor=T MaxTD1=10 Len=  848
 NBasis=   384 RedAO= T EigKep=  1.97D-06  NBF=   157    47    90    90
 NBsUse=   380 1.00D-06 EigRej=  9.53D-07 NBFU=   155    47    89    89
 Leave Link  302 at Tue Mar 27 11:48:54 2018, MaxMem= 10737418240 cpu:              81.2 elap:               2.6
 (Enter /home1/apps/gaussian/16rA.03/g16/l303.exe)
 DipDrv:  MaxL=1.
 Leave Link  303 at Tue Mar 27 11:48:54 2018, MaxMem= 10737418240 cpu:               3.9 elap:               0.2
 (Enter /home1/apps/gaussian/16rA.03/g16/l401.exe)
 Initial guess from the checkpoint file:  "qz.chk"
 B after Tr=     0.000000    0.000000    0.000000
         Rot=    1.000000    0.000000    0.000000    0.000000 Ang=   0.00 deg.
 Guess basis will be translated and rotated to current coordinates.
 JPrj=2 DoOrth=T DoCkMO=T.
 Initial guess orbital symmetries:
       Occupied  (SG) (SG) (PI) (PI) (SG) (PI) (PI) (DLTA) (DLTA)
                 (SG) (PI) (PI) (SG)
       Virtual   (SG) (PI) (PI) (SG) (SG) (PI) (PI) (SG) (SG) (SG)
                 (PI) (PI) (DLTA) (DLTA) (PI) (PI) (SG) (PI) (PI)
                 (SG) (SG) (SG) (DLTA) (DLTA) (PI) (PI) (SG) (DLTA)
                 (DLTA) (PI) (PI) (SG) (PI) (PI) (SG) (PI) (PI)
                 (SG) (PHI) (PHI) (DLTA) (DLTA) (SG) (PI) (PI)
                 (SG) (PHI) (PHI) (DLTA) (DLTA) (SG) (SG) (PI)
                 (PI) (DLTA) (DLTA) (PI) (PI) (DLTA) (DLTA) (SG)
                 (PI) (PI) (PI) (PI) (SG) (SG) (PI) (PI) (SG) (DLTA)
                 (DLTA) (PHI) (PHI) (PI) (PI) (SG) (SG) (PHI) (PHI)
                 (DLTA) (DLTA) (PI) (PI) (SG) (DLTA) (DLTA) (SG)
                 (DLTA) (DLTA) (PI) (PI) (?A) (?A) (PHI) (PHI)
                 (PI) (PI) (DLTA) (DLTA) (SG) (PI) (PI) (SG) (PI)
                 (PI) (SG) (SG) (PHI) (PHI) (DLTA) (DLTA) (PI)
                 (PI) (SG) (PI) (PI) (SG) (DLTA) (DLTA) (SG) (PI)
                 (PI) (SG) (PI) (PI) (SG) (SG) (?A) (?A) (PHI)
                 (PHI) (DLTA) (DLTA) (PI) (PI) (SG) (DLTA) (DLTA)
                 (PI) (PI) (SG) (PHI) (PHI) (DLTA) (DLTA) (PI)
                 (PI) (SG) (PI) (PI) (SG) (SG) (SG) (DLTA) (DLTA)
                 (PI) (PI) (SG) (PI) (PI) (SG) (?A) (?A) (PHI)
                 (PHI) (DLTA) (DLTA) (PI) (PI) (SG) (DLTA) (DLTA)
                 (PI) (PI) (SG) (PI) (PI) (SG) (SG) (SG) (DLTA)
                 (DLTA) (PI) (PI) (SG) (PI) (PI) (SG) (PI) (PI)
                 (SG) (SG) (SG) (PI) (PI) (SG) (DLTA) (DLTA) (PI)
                 (PI) (SG) (SG) (PI) (PI) (SG) (SG) (PI) (PI) (SG)
                 (SG) (SG) (DLTA) (DLTA) (PI) (PI) (SG) (PI) (PI)
                 (SG) (SG) (SG) (PI) (PI) (SG) (SG) (PI) (PI) (SG)
                 (SG) (SG) (PI) (PI) (SG) (SG) (PI) (PI) (SG) (SG)
                 (SG) (SG) (PI) (PI) (SG) (SG) (SG) (SG) (SG) (DLTA)
                 (SG) (SG) (DLTA) (SG) (SG) (SG) (SG) (DLTA) (SG)
                 (DLTA) (SG) (SG) (DLTA) (SG) (SG) (?A) (DLTA)
                 (SG) (DLTA) (SG) (?A) (SG) (DLTA) (SG) (DLTA)
                 (SG) (DLTA) (SG) (?A) (DLTA) (DLTA) (SG) (SG)
                 (DLTA) (SG) (DLTA) (?A) (?A) (SG) (?A) (DLTA)
                 (DLTA) (DLTA) (DLTA) (DLTA) (?A) (DLTA) (DLTA)
                 (?A) (DLTA) (DLTA) (DLTA) (?A) (DLTA) (DLTA) (DLTA)
                 (DLTA) (?A) (?A) (?A) (PI) (PI) (PI) (PI) (PHI)
                 (PI) (PI) (PI) (PHI) (PI) (PI) (PI) (PHI) (PI)
                 (?B) (PHI) (PI) (PI) (PHI) (PI) (PHI) (PI) (PI)
                 (PHI) (PI) (PHI) (PHI) (?B) (?B) (PI) (PI) (PI)
                 (PI) (PHI) (PI) (PI) (PI) (PHI) (PI) (PI) (PI)
                 (PHI) (PI) (?B) (PHI) (PI) (PI) (PHI) (PI) (PHI)
                 (PI) (PI) (PHI) (PI) (PHI) (PHI) (?B) (?B)
 The electronic state of the initial guess is 1-SG.
 Leave Link  401 at Tue Mar 27 11:48:55 2018, MaxMem= 10737418240 cpu:              25.2 elap:               0.9
 (Enter /home1/apps/gaussian/16rA.03/g16/l502.exe)
 Keep R1 and R2 ints in memory in symmetry-blocked form, NReq=3425113631.
 FoFCou: FMM=F IPFlag=           8 FMFlag=           0 FMFlg1=           0
         NFxFlg=           0 DoJE=F BraDBF=F KetDBF=F FulRan=T
         wScrn=  0.000000 ICntrl=       600 IOpCl=  0 I1Cent=           0 NGrid=           0
         NMat0=    1 NMatS0=  73920 NMatT0=    0 NMatD0=    1 NMtDS0=    0 NMtDT0=    0
 Petite list used in FoFCou.
 Restricted open shell SCF:
 Using DIIS extrapolation, IDIIS=  1040.
 NGot= 10737418240 LenX=  9351085953 LenY=  9350838447
 Requested convergence on RMS density matrix=1.00D-08 within 400 cycles.
 Requested convergence on MAX density matrix=1.00D-06.
 Requested convergence on             energy=1.00D-06.
 No special actions if energy rises.

 Cycle   1  Pass 1  IDiag  1:
 E= -240.883184274233    
 DIIS: error= 1.01D+00 at cycle   1 NSaved=   1.
 NSaved= 1 IEnMin= 1 EnMin= -240.883184274233     IErMin= 1 ErrMin= 1.01D+00
 ErrMax= 1.01D+00  0.00D+00 EMaxC= 1.00D-01 BMatC= 1.12D+02 BMatP= 1.12D+02
 IDIUse=3 WtCom= 0.00D+00 WtEn= 1.00D+00
 Coeff-Com:  0.100D+01
 Coeff-En:   0.100D+01
 Coeff:      0.100D+01
 Gap=     0.373 Goal=   None    Shift=    0.000
 GapD=    0.373 DampG=1.000 DampE=0.125 DampFc=0.1250 IDamp=-1.
 Damping current iteration by 1.25D-01
 RMSDP=2.10D-03 MaxDP=1.63D-01              OVMax= 4.10D-03

 Cycle   2  Pass 1  IDiag  1:
 E= -240.883430996983     Delta-E=       -0.000246722750 Rises=F Damp=T
 DIIS: error= 8.82D-01 at cycle   2 NSaved=   2.
 NSaved= 2 IEnMin= 2 EnMin= -240.883430996983     IErMin= 2 ErrMin= 8.82D-01
 ErrMax= 8.82D-01  0.00D+00 EMaxC= 1.00D-01 BMatC= 8.57D+01 BMatP= 1.12D+02
 IDIUse=3 WtCom= 0.00D+00 WtEn= 1.00D+00
 Coeff-Com: -0.700D+01 0.800D+01
 Coeff-En:   0.000D+00 0.100D+01
 Coeff:      0.000D+00 0.100D+01
 Gap=     0.371 Goal=   None    Shift=    0.000
 RMSDP=1.85D-03 MaxDP=1.43D-01 DE=-2.47D-04 OVMax= 1.41D-04

 Cycle   3  Pass 1  IDiag  1:
 E= -240.885212367354     Delta-E=       -0.001781370371 Rises=F Damp=F
 DIIS: error= 2.63D-04 at cycle   3 NSaved=   3.
 NSaved= 3 IEnMin= 3 EnMin= -240.885212367354     IErMin= 3 ErrMin= 2.63D-04
 ErrMax= 2.63D-04  0.00D+00 EMaxC= 1.00D-01 BMatC= 1.33D-05 BMatP= 8.57D+01
 IDIUse=3 WtCom= 9.97D-01 WtEn= 2.63D-03
 Large coefficients: NSaved=  3 BigCof=   43.18 CofMax=   10.00 Det=-5.90D-09
 Inversion failed.  Reducing to  2 matrices.
 Coeff-Com: -0.604D-05 0.100D+01
 Coeff-En:   0.000D+00 0.100D+01
 Coeff:     -0.602D-05 0.100D+01
 Gap=     0.371 Goal=   None    Shift=    0.000
 RMSDP=7.49D-05 MaxDP=5.36D-03 DE=-1.78D-03 OVMax= 8.83D-04

 Cycle   4  Pass 1  IDiag  1:
 E= -240.885216521375     Delta-E=       -0.000004154021 Rises=F Damp=F
 DIIS: error= 1.22D-04 at cycle   4 NSaved=   3.
 NSaved= 3 IEnMin= 3 EnMin= -240.885216521375     IErMin= 3 ErrMin= 1.22D-04
 ErrMax= 1.22D-04  0.00D+00 EMaxC= 1.00D-01 BMatC= 1.82D-06 BMatP= 1.33D-05
 IDIUse=3 WtCom= 9.99D-01 WtEn= 1.22D-03
 Coeff-Com: -0.104D-05 0.147D+00 0.853D+00
 Coeff-En:   0.000D+00 0.000D+00 0.100D+01
 Coeff:     -0.103D-05 0.146D+00 0.854D+00
 Gap=     0.371 Goal=   None    Shift=    0.000
 RMSDP=6.26D-06 MaxDP=3.76D-04 DE=-4.15D-06 OVMax= 5.71D-04

 Cycle   5  Pass 1  IDiag  1:
 E= -240.885216933467     Delta-E=       -0.000000412092 Rises=F Damp=F
 DIIS: error= 9.24D-05 at cycle   5 NSaved=   4.
 NSaved= 4 IEnMin= 4 EnMin= -240.885216933467     IErMin= 4 ErrMin= 9.24D-05
 ErrMax= 9.24D-05  0.00D+00 EMaxC= 1.00D-01 BMatC= 1.06D-06 BMatP= 1.82D-06
 IDIUse=1 WtCom= 1.00D+00 WtEn= 0.00D+00
 Coeff-Com:  0.151D-06-0.369D-01 0.434D+00 0.603D+00
 Coeff:      0.151D-06-0.369D-01 0.434D+00 0.603D+00
 Gap=     0.371 Goal=   None    Shift=    0.000
 RMSDP=2.93D-06 MaxDP=2.75D-04 DE=-4.12D-07 OVMax= 3.80D-04

 Cycle   6  Pass 1  IDiag  1:
 E= -240.885217603455     Delta-E=       -0.000000669988 Rises=F Damp=F
 DIIS: error= 1.07D-05 at cycle   6 NSaved=   5.
 NSaved= 5 IEnMin= 5 EnMin= -240.885217603455     IErMin= 5 ErrMin= 1.07D-05
 ErrMax= 1.07D-05  0.00D+00 EMaxC= 1.00D-01 BMatC= 9.14D-09 BMatP= 1.06D-06
 IDIUse=1 WtCom= 1.00D+00 WtEn= 0.00D+00
 Coeff-Com:  0.114D-07-0.163D-02-0.241D-01 0.356D-01 0.990D+00
 Coeff:      0.114D-07-0.163D-02-0.241D-01 0.356D-01 0.990D+00
 Gap=     0.371 Goal=   None    Shift=    0.000
 RMSDP=4.57D-07 MaxDP=3.54D-05 DE=-6.70D-07 OVMax= 6.97D-05

 Cycle   7  Pass 1  IDiag  1:
 E= -240.885217618128     Delta-E=       -0.000000014673 Rises=F Damp=F
 DIIS: error= 5.91D-06 at cycle   7 NSaved=   6.
 NSaved= 6 IEnMin= 6 EnMin= -240.885217618128     IErMin= 6 ErrMin= 5.91D-06
 ErrMax= 5.91D-06  0.00D+00 EMaxC= 1.00D-01 BMatC= 3.85D-09 BMatP= 9.14D-09
 IDIUse=1 WtCom= 1.00D+00 WtEn= 0.00D+00
 Coeff-Com: -0.233D-07 0.598D-02-0.902D-01-0.709D-01 0.353D+00 0.802D+00
 Coeff:     -0.233D-07 0.598D-02-0.902D-01-0.709D-01 0.353D+00 0.802D+00
 Gap=     0.371 Goal=   None    Shift=    0.000
 RMSDP=2.07D-07 MaxDP=2.24D-05 DE=-1.47D-08 OVMax= 5.41D-05

 Cycle   8  Pass 1  IDiag  1:
 E= -240.885217625470     Delta-E=       -0.000000007343 Rises=F Damp=F
 DIIS: error= 4.54D-06 at cycle   8 NSaved=   7.
 NSaved= 7 IEnMin= 7 EnMin= -240.885217625470     IErMin= 7 ErrMin= 4.54D-06
 ErrMax= 4.54D-06  0.00D+00 EMaxC= 1.00D-01 BMatC= 1.61D-09 BMatP= 3.85D-09
 IDIUse=1 WtCom= 1.00D+00 WtEn= 0.00D+00
 Coeff-Com:  0.327D-08-0.142D-02 0.352D-01 0.389D-01-0.729D+00-0.655D-01
 Coeff-Com:  0.172D+01
 Coeff:      0.327D-08-0.142D-02 0.352D-01 0.389D-01-0.729D+00-0.655D-01
 Coeff:      0.172D+01
 Gap=     0.371 Goal=   None    Shift=    0.000
 RMSDP=2.95D-07 MaxDP=3.20D-05 DE=-7.34D-09 OVMax= 9.57D-05

 Cycle   9  Pass 1  IDiag  1:
 E= -240.885217632198     Delta-E=       -0.000000006727 Rises=F Damp=F
 DIIS: error= 1.44D-06 at cycle   9 NSaved=   8.
 NSaved= 8 IEnMin= 8 EnMin= -240.885217632198     IErMin= 8 ErrMin= 1.44D-06
 ErrMax= 1.44D-06  0.00D+00 EMaxC= 1.00D-01 BMatC= 1.74D-10 BMatP= 1.61D-09
 IDIUse=1 WtCom= 1.00D+00 WtEn= 0.00D+00
 Coeff-Com:  0.554D-08-0.138D-02 0.176D-01 0.233D-01-0.204D-01-0.255D+00
 Coeff-Com:  0.119D-01 0.122D+01
 Coeff:      0.554D-08-0.138D-02 0.176D-01 0.233D-01-0.204D-01-0.255D+00
 Coeff:      0.119D-01 0.122D+01
 Gap=     0.371 Goal=   None    Shift=    0.000
 RMSDP=1.12D-07 MaxDP=1.33D-05 DE=-6.73D-09 OVMax= 3.27D-05

 Cycle  10  Pass 1  IDiag  1:
 E= -240.885217632991     Delta-E=       -0.000000000794 Rises=F Damp=F
 DIIS: error= 3.64D-07 at cycle  10 NSaved=   9.
 NSaved= 9 IEnMin= 9 EnMin= -240.885217632991     IErMin= 9 ErrMin= 3.64D-07
 ErrMax= 3.64D-07  0.00D+00 EMaxC= 1.00D-01 BMatC= 1.25D-11 BMatP= 1.74D-10
 IDIUse=1 WtCom= 1.00D+00 WtEn= 0.00D+00
 Coeff-Com: -0.602D-09 0.246D-03-0.515D-02-0.608D-02 0.697D-01 0.447D-01
 Coeff-Com: -0.216D+00-0.208D+00 0.132D+01
 Coeff:     -0.602D-09 0.246D-03-0.515D-02-0.608D-02 0.697D-01 0.447D-01
 Coeff:     -0.216D+00-0.208D+00 0.132D+01
 Gap=     0.371 Goal=   None    Shift=    0.000
 RMSDP=4.70D-08 MaxDP=5.83D-06 DE=-7.94D-10 OVMax= 1.33D-05

 Cycle  11  Pass 1  IDiag  1:
 E= -240.885217633065     Delta-E=       -0.000000000073 Rises=F Damp=F
 DIIS: error= 6.12D-08 at cycle  11 NSaved=  10.
 NSaved=10 IEnMin=10 EnMin= -240.885217633065     IErMin=10 ErrMin= 6.12D-08
 ErrMax= 6.12D-08  0.00D+00 EMaxC= 1.00D-01 BMatC= 4.19D-13 BMatP= 1.25D-11
 IDIUse=1 WtCom= 1.00D+00 WtEn= 0.00D+00
 Coeff-Com: -0.365D-09 0.800D-04-0.107D-02-0.108D-02-0.182D-03 0.214D-01
 Coeff-Com:  0.213D-02-0.677D-01-0.463D-01 0.109D+01
 Coeff:     -0.365D-09 0.800D-04-0.107D-02-0.108D-02-0.182D-03 0.214D-01
 Coeff:      0.213D-02-0.677D-01-0.463D-01 0.109D+01
 Gap=     0.371 Goal=   None    Shift=    0.000
 RMSDP=3.94D-09 MaxDP=4.34D-07 DE=-7.32D-11 OVMax= 7.89D-07

 SCF Done:  E(ROHF) =  -240.885217633     A.U. after   11 cycles
            NFock= 11  Conv=0.39D-08     -V/T= 2.4844
 <Sx>= 0.0000 <Sy>= 0.0000 <Sz>= 0.0000 <S**2>=-0.0000 S=-0.0000
 <L.S>=  0.00000000000    
 KE= 1.622780895862D+02 PE=-6.990870130253D+02 EE= 2.430059847141D+02
 Annihilation of the first spin contaminant:
 S**2 before annihilation    -0.0000,   after     0.0000
 Leave Link  502 at Tue Mar 27 11:50:05 2018, MaxMem= 10737418240 cpu:            2069.9 elap:              69.6
 (Enter /home1/apps/gaussian/16rA.03/g16/l801.exe)
 Windowed orbitals will be sorted by symmetry type.
 GenMOA:  NOpAll=  4 NOp2=4 NOpUse=  4 JSym2X=1
 FoFJK:  IHMeth= 1 ICntrl=       0 DoSepK=F KAlg= 0 I1Cent=           0 FoldK=F
 IRaf=         0 NMat=       1 IRICut=       1 DoRegI=T DoRafI=F ISym2E= 1 IDoP0=0 IntGTp=1.
 FoFCou: FMM=F IPFlag=           8 FMFlag=      100000 FMFlg1=           0
         NFxFlg=           0 DoJE=F BraDBF=F KetDBF=F FulRan=T
         wScrn=  0.000000 ICntrl=         0 IOpCl=  1 I1Cent=           0 NGrid=           0
         NMat0=    1 NMatS0=      1 NMatT0=    0 NMatD0=    1 NMtDS0=    0 NMtDT0=    0
 Petite list used in FoFCou.
 <Sx>= 0.0000 <Sy>= 0.0000 <Sz>= 0.0000 <S**2>=-0.0000 S=-0.0000
 Range of M.O.s used for correlation:     1   380
 NBasis=   384 NAE=    13 NBE=    13 NFC=     0 NFV=     0
 NROrb=    380 NOA=    13 NOB=    13 NVA=   367 NVB=   367

 **** Warning!!: The largest alpha MO coefficient is  0.29309364D+03


 **** Warning!!: The largest beta MO coefficient is  0.29309364D+03

 Singles contribution to E2=   -0.5178190366D-13
 Leave Link  801 at Tue Mar 27 11:50:27 2018, MaxMem= 10737418240 cpu:             685.1 elap:              21.5
 (Enter /home1/apps/gaussian/16rA.03/g16/l804.exe)
 Open-shell transformation, MDV= 10737418240 ITran=4 ISComp=2.
 Unit  1 TFree=       4463824 TCopy=       3213691.
 Semi-Direct transformation.
 ModeAB=           4 MOrb=            13 LenV=   10733123366
 LASXX=     88669000 LTotXX=    88669000 LenRXX=   178270504
 LTotAB=    89601504 MaxLAS=   604097780 LenRXY=           0
 NonZer=   266939504 LenScr=   401980416 LnRSAI=   604097780
 LnScr1=   909701120 LExtra=    36575542 Total=   2130625362
 MaxDsk= 67108864000 SrtSym=           T ITran=            4
 DoSDTr:  NPSUse= 32
 JobTyp=1 Pass  1:  I=   1 to  13.
 (rs|ai) integrals will be sorted in core.
 Complete sort for first half transformation.
 First half transformation complete.
 Begin second half transformation for I=  10.
 Complete sort for second half transformation.
 Second half transformation complete.
 ModeAB=           4 MOrb=            13 LenV=   10733123366
 LASXX=     88669000 LTotXX=    88669000 LenRXX=   172217940
 LTotAB=    83548940 MaxLAS=   604097780 LenRXY=           0
 NonZer=   260886940 LenScr=   392865792 LnRSAI=   604097780
 LnScr1=   909701120 LExtra=   214846046 Total=   2293728678
 MaxDsk= 67108864000 SrtSym=           T ITran=            4
 DoSDTr:  NPSUse= 32
 JobTyp=2 Pass  1:  I=   1 to  13.
 (rs|ai) integrals will be sorted in core.
 Complete sort for first half transformation.
 First half transformation complete.
 Begin second half transformation for I=  10.
 Complete sort for second half transformation.
 Second half transformation complete.
 Spin components of T(2) and E(2):
     alpha-alpha T2 =       0.3277823189D-01 E2=     -0.2132253788D+00
     alpha-beta  T2 =       0.1504490706D+00 E2=     -0.9963958067D+00
     beta-beta   T2 =       0.3277823189D-01 E2=     -0.2132253788D+00
 ANorm=    0.1102726410D+01
 E2 =    -0.1422846564D+01 EUMP2 =    -0.24230806419744D+03
 (S**2,0)=  0.00000D+00           (S**2,1)=  0.00000D+00
 E(PUHF)=      -0.24088521763D+03        E(PMP2)=      -0.24230806420D+03
 Leave Link  804 at Tue Mar 27 12:03:30 2018, MaxMem= 10737418240 cpu:           25055.3 elap:             783.3
 (Enter /home1/apps/gaussian/16rA.03/g16/l913.exe)
 CIDS:  MDV= 10737418240.
 IFCWin=0 IBDFC=1 NFBD=     0     0 NFCmp=     0     0 NFFFC=     0     0
 Using original routines for 1st iteration.
 Using DD4UQ or CC4UQ for 2nd and later iterations.
 Keep R2 and R3 ints in memory in symmetry-blocked form, NReq=3425139157.
 FoFCou: FMM=F IPFlag=           8 FMFlag=           0 FMFlg1=           0
         NFxFlg=           0 DoJE=F BraDBF=F KetDBF=F FulRan=T
         wScrn=  0.000000 ICntrl=       600 IOpCl=  0 I1Cent=           0 NGrid=           0
         NMat0=    1 NMatS0=  73920 NMatT0=    0 NMatD0=    1 NMtDS0=    0 NMtDT0=    0
 Petite list used in FoFCou.
 CIDS: In Core Option IDoMem=           1.
 CCSD(T)
 =======
 Iterations= 150 Convergence= 0.100D-06
 Produce multiple copies of IABC intergrals
 Iteration Nr.   1
 **********************
 DD1Dir will call FoFMem   1 times, MxPair=       494
 NAB=   169 NAA=    78 NBB=    78.
 DD1Dir will call FoFMem   1 times, MxPair=       494
 NAB=   169 NAA=    78 NBB=    78.
 MP4(R+Q)= -0.17630805D+00
 Maximum subspace dimension=  5
 A-vector RMS=  1.6351586D-05 Max=  1.5589155D-02 conv= 1.00D-05.
 RLE energy=       -1.4152819703
 E3=        0.18391308D+00        EROMP3=      -0.24212415112D+03
 E4(SDQ)=  -0.10189609D+00        ROMP4(SDQ)=  -0.24222604721D+03
 VARIATIONAL ENERGIES WITH THE FIRST-ORDER WAVEFUNCTION:
 DE(Corr)=  -1.4152415     E(Corr)=     -242.30045917    
 NORM(A)=   0.10964267D+01
 Iteration Nr.   2
 **********************
 DD1Dir will call FoFMem   1 times, MxPair=       494
 NAB=   169 NAA=    78 NBB=    78.
 A-vector RMS=  3.2067030D-03 Max=  3.6509948D-02 conv= 1.00D-05.
 RLE energy=       -1.3661927105
 DE(Corr)=  -1.2272134     E(CORR)=     -242.11243106     Delta= 1.88D-01
 NORM(A)=   0.10879684D+01
 Iteration Nr.   3
 **********************
 DD1Dir will call FoFMem   1 times, MxPair=       494
 NAB=   169 NAA=    78 NBB=    78.
 A-vector RMS=  1.9472882D-03 Max=  2.1364635D-02 conv= 1.00D-05.
 RLE energy=       -1.3352094860
 DE(Corr)=  -1.2510548     E(CORR)=     -242.13627244     Delta=-2.38D-02
 NORM(A)=   0.10868469D+01
 Iteration Nr.   4
 **********************
 DD1Dir will call FoFMem   1 times, MxPair=       494
 NAB=   169 NAA=    78 NBB=    78.
 A-vector RMS=  1.6001956D-03 Max=  2.0910565D-02 conv= 1.00D-05.
 RLE energy=       -1.2838582641
 DE(Corr)=  -1.2692376     E(CORR)=     -242.15445519     Delta=-1.82D-02
 NORM(A)=   0.10902809D+01
 Iteration Nr.   5
 **********************
 DD1Dir will call FoFMem   1 times, MxPair=       494
 NAB=   169 NAA=    78 NBB=    78.
 A-vector RMS=  4.1064698D-04 Max=  6.7764005D-03 conv= 1.00D-05.
 RLE energy=       -1.3009291356
 DE(Corr)=  -1.3042183     E(CORR)=     -242.18943594     Delta=-3.50D-02
 NORM(A)=   0.10919430D+01
 Iteration Nr.   6
 **********************
 DD1Dir will call FoFMem   1 times, MxPair=       494
 NAB=   169 NAA=    78 NBB=    78.
 A-vector RMS=  2.1879288D-04 Max=  3.7368630D-03 conv= 1.00D-05.
 RLE energy=       -1.2971673587
 DE(Corr)=  -1.2945670     E(CORR)=     -242.17978462     Delta= 9.65D-03
 NORM(A)=   0.10928453D+01
 Iteration Nr.   7
 **********************
 DD1Dir will call FoFMem   1 times, MxPair=       494
 NAB=   169 NAA=    78 NBB=    78.
 A-vector RMS=  2.6540359D-05 Max=  3.2499889D-04 conv= 1.00D-05.
 RLE energy=       -1.2969950103
 DE(Corr)=  -1.2969789     E(CORR)=     -242.18219653     Delta=-2.41D-03
 NORM(A)=   0.10929927D+01
 Iteration Nr.   8
 **********************
 DD1Dir will call FoFMem   1 times, MxPair=       494
 NAB=   169 NAA=    78 NBB=    78.
 A-vector RMS=  1.6688477D-05 Max=  2.7601521D-04 conv= 1.00D-05.
 RLE energy=       -1.2970034981
 DE(Corr)=  -1.2970347     E(CORR)=     -242.18225235     Delta=-5.58D-05
 NORM(A)=   0.10930471D+01
 Iteration Nr.   9
 **********************
 DD1Dir will call FoFMem   1 times, MxPair=       494
 NAB=   169 NAA=    78 NBB=    78.
 A-vector RMS=  6.5820910D-06 Max=  1.3435878D-04 conv= 1.00D-05.
 RLE energy=       -1.2970099433
 DE(Corr)=  -1.2969957     E(CORR)=     -242.18221337     Delta= 3.90D-05
 NORM(A)=   0.10930647D+01
 Iteration Nr.  10
 **********************
 DD1Dir will call FoFMem   1 times, MxPair=       494
 NAB=   169 NAA=    78 NBB=    78.
 A-vector RMS=  3.0091682D-06 Max=  3.3325951D-05 conv= 1.00D-05.
 RLE energy=       -1.2969898916
 DE(Corr)=  -1.2969994     E(CORR)=     -242.18221704     Delta=-3.67D-06
 NORM(A)=   0.10930644D+01
 Iteration Nr.  11
 **********************
 DD1Dir will call FoFMem   1 times, MxPair=       494
 NAB=   169 NAA=    78 NBB=    78.
 A-vector RMS=  1.6592293D-06 Max=  3.3452659D-05 conv= 1.00D-05.
 RLE energy=       -1.2970022478
 DE(Corr)=  -1.2970012     E(CORR)=     -242.18221885     Delta=-1.82D-06
 NORM(A)=   0.10930624D+01
 Iteration Nr.  12
 **********************
 DD1Dir will call FoFMem   1 times, MxPair=       494
 NAB=   169 NAA=    78 NBB=    78.
 A-vector RMS=  1.1465712D-06 Max=  2.2137958D-05 conv= 1.00D-05.
 RLE energy=       -1.2969938155
 DE(Corr)=  -1.2969925     E(CORR)=     -242.18221010     Delta= 8.75D-06
 NORM(A)=   0.10930645D+01
 Iteration Nr.  13
 **********************
 DD1Dir will call FoFMem   1 times, MxPair=       494
 NAB=   169 NAA=    78 NBB=    78.
 A-vector RMS=  7.8841229D-07 Max=  1.2842629D-05 conv= 1.00D-05.
 RLE energy=       -1.2969956564
 DE(Corr)=  -1.2969984     E(CORR)=     -242.18221608     Delta=-5.98D-06
 NORM(A)=   0.10930634D+01
 Iteration Nr.  14
 **********************
 DD1Dir will call FoFMem   1 times, MxPair=       494
 NAB=   169 NAA=    78 NBB=    78.
 A-vector RMS=  3.1672073D-07 Max=  6.4145254D-06 conv= 1.00D-05.
 RLE energy=       -1.2969964192
 DE(Corr)=  -1.2969961     E(CORR)=     -242.18221373     Delta= 2.35D-06
 NORM(A)=   0.10930641D+01
 Iteration Nr.  15
 **********************
 DD1Dir will call FoFMem   1 times, MxPair=       494
 NAB=   169 NAA=    78 NBB=    78.
 A-vector RMS=  1.6972089D-07 Max=  2.0267233D-06 conv= 1.00D-05.
 RLE energy=       -1.2969959522
 DE(Corr)=  -1.2969958     E(CORR)=     -242.18221339     Delta= 3.44D-07
 NORM(A)=   0.10930644D+01
 Iteration Nr.  16
 **********************
 DD1Dir will call FoFMem   1 times, MxPair=       494
 NAB=   169 NAA=    78 NBB=    78.
 A-vector RMS=  8.0718315D-08 Max=  1.0743966D-06 conv= 1.00D-05.
 RLE energy=       -1.2969961238
 DE(Corr)=  -1.2969963     E(CORR)=     -242.18221388     Delta=-4.97D-07
 NORM(A)=   0.10930645D+01
 Iteration Nr.  17
 **********************
 DD1Dir will call FoFMem   1 times, MxPair=       494
 NAB=   169 NAA=    78 NBB=    78.
 A-vector RMS=  5.3059382D-08 Max=  6.7842407D-07 conv= 1.00D-05.
 RLE energy=       -1.2969961609
 DE(Corr)=  -1.2969961     E(CORR)=     -242.18221371     Delta= 1.73D-07
 NORM(A)=   0.10930646D+01
 Iteration Nr.  18
 **********************
 DD1Dir will call FoFMem   1 times, MxPair=       494
 NAB=   169 NAA=    78 NBB=    78.
 A-vector RMS=  1.6572678D-08 Max=  2.2567919D-07 conv= 1.00D-05.
 RLE energy=       -1.2969960979
 DE(Corr)=  -1.2969961     E(CORR)=     -242.18221375     Delta=-3.64D-08
 NORM(A)=   0.10930646D+01
 CI/CC converged in   18 iterations to DelEn=-3.64D-08 Conv= 1.00D-07 ErrA1= 1.66D-08 Conv= 1.00D-05
 Wavefunction amplitudes converged. E(Corr)=     -242.18221375    
 Largest amplitude= 5.79D-02
 Time for triples=   190166.55 seconds.
 T4(CCSD)= -0.55757792D-01
 T5(CCSD)=  0.61940348D-02
 CCSD(T)= -0.24223177750D+03
 Discarding MO integrals.
 Leave Link  913 at Tue Mar 27 14:04:51 2018, MaxMem= 10737418240 cpu:          232001.2 elap:            7280.4
 (Enter /home1/apps/gaussian/16rA.03/g16/l601.exe)
 Copying SCF densities to generalized density rwf, IOpCl= 0 IROHF=1.

 **********************************************************************

            Population analysis using the SCF density.

 **********************************************************************

 Orbital symmetries:
       Occupied  (SG) (SG) (PI) (PI) (SG) (PI) (PI) (DLTA) (DLTA)
                 (SG) (PI) (PI) (SG)
       Virtual   (SG) (PI) (PI) (SG) (SG) (PI) (PI) (SG) (SG) (SG)
                 (PI) (PI) (DLTA) (DLTA) (PI) (PI) (SG) (PI) (PI)
                 (SG) (SG) (PI) (PI) (DLTA) (DLTA) (DLTA) (DLTA)
                 (SG) (SG) (PI) (PI) (SG) (PI) (PI) (SG) (PI) (PI)
                 (PHI) (PHI) (SG) (DLTA) (DLTA) (PI) (PI) (SG)
                 (PHI) (PHI) (DLTA) (DLTA) (PI) (PI) (SG) (DLTA)
                 (DLTA) (SG) (PI) (PI) (SG) (DLTA) (DLTA) (PI)
                 (PI) (SG) (SG) (PI) (PI) (PI) (PI) (PHI) (PHI)
                 (DLTA) (DLTA) (SG) (?A) (?A) (PHI) (PHI) (SG)
                 (PI) (PI) (DLTA) (DLTA) (PI) (PI) (SG) (?A) (?A)
                 (SG) (PHI) (PHI) (DLTA) (DLTA) (PI) (PI) (SG)
                 (DLTA) (DLTA) (PI) (PI) (SG) (DLTA) (DLTA) (PHI)
                 (PHI) (PI) (PI) (SG) (SG) (DLTA) (DLTA) (SG) (PI)
                 (PI) (PI) (PI) (SG) (PHI) (PHI) (DLTA) (DLTA)
                 (PI) (PI) (DLTA) (DLTA) (SG) (PI) (PI) (SG) (DLTA)
                 (DLTA) (SG) (PI) (PI) (PHI) (PHI) (?A) (?A) (PI)
                 (PI) (?A) (?A) (SG) (PHI) (PHI) (?B) (?B) (?A)
                 (?A) (SG) (DLTA) (DLTA) (PI) (PI) (PHI) (PHI)
                 (PHI) (PHI) (PI) (PI) (SG) (DLTA) (DLTA) (DLTA)
                 (DLTA) (SG) (SG) (DLTA) (DLTA) (PI) (PI) (SG)
                 (PI) (PI) (SG) (PI) (PI) (DLTA) (DLTA) (SG) (PI)
                 (PI) (SG) (PHI) (PHI) (DLTA) (DLTA) (PI) (PI)
                 (SG) (?A) (?A) (PHI) (PHI) (SG) (DLTA) (DLTA)
                 (PI) (PI) (SG) (?B) (?B) (?A) (?A) (PHI) (PHI)
                 (DLTA) (DLTA) (PI) (PI) (SG) (PI) (PI) (SG) (DLTA)
                 (DLTA) (PI) (PI) (SG) (SG) (PI) (PI) (SG) (DLTA)
                 (DLTA) (PI) (PI) (SG) (PHI) (PHI) (DLTA) (DLTA)
                 (PI) (PI) (SG) (SG) (?A) (?A) (PHI) (PHI) (DLTA)
                 (DLTA) (PI) (PI) (SG) (DLTA) (DLTA) (PI) (PI)
                 (SG) (?B) (?B) (?A) (?A) (PHI) (PHI) (DLTA) (DLTA)
                 (PI) (PI) (SG) (SG) (PI) (PI) (PI) (PI) (SG) (SG)
                 (DLTA) (DLTA) (PI) (PI) (SG) (PHI) (PHI) (DLTA)
                 (DLTA) (PI) (PI) (SG) (SG) (SG) (PI) (PI) (SG)
                 (PI) (PI) (SG) (DLTA) (DLTA) (PI) (PI) (SG) (DLTA)
                 (DLTA) (PI) (PI) (SG) (SG) (PI) (PI) (SG) (SG)
                 (PI) (PI) (SG) (DLTA) (DLTA) (PI) (PI) (SG) (SG)
                 (SG) (PI) (PI) (SG) (SG) (PI) (PI) (SG) (SG) (PI)
                 (PI) (SG) (DLTA) (DLTA) (PI) (PI) (SG) (SG) (SG)
                 (PI) (PI) (SG) (SG) (DLTA) (DLTA) (PI) (PI) (SG)
                 (SG) (PI) (PI) (SG) (SG) (SG) (PI) (PI) (SG) (SG)
                 (PI) (PI) (SG) (SG) (SG) (PI) (PI) (SG) (SG) (SG)
                 (PI) (PI) (SG) (SG) (SG) (SG) (SG) (SG)
 The electronic state is 1-SG.
 Alpha  occ. eigenvalues --   -5.98339  -4.13276  -4.07858  -4.07858  -1.36131
 Alpha  occ. eigenvalues --   -0.95292  -0.95292  -0.86295  -0.86295  -0.82828
 Alpha  occ. eigenvalues --   -0.46238  -0.46238  -0.37905
 Alpha virt. eigenvalues --   -0.00811   0.02914   0.02914   0.03639   0.04173
 Alpha virt. eigenvalues --    0.09474   0.09474   0.12367   0.17356   0.18011
 Alpha virt. eigenvalues --    0.18618   0.18618   0.18674   0.18674   0.23153
 Alpha virt. eigenvalues --    0.23153   0.24662   0.29783   0.29783   0.34207
 Alpha virt. eigenvalues --    0.52486   0.55097   0.55097   0.56300   0.56300
 Alpha virt. eigenvalues --    0.59149   0.59149   0.61625   0.65212   0.69186
 Alpha virt. eigenvalues --    0.69186   0.70271   0.81680   0.81680   0.91596
 Alpha virt. eigenvalues --    0.96975   0.96975   1.09094   1.09094   1.15861
 Alpha virt. eigenvalues --    1.23711   1.23711   1.44124   1.44124   1.47358
 Alpha virt. eigenvalues --    1.49156   1.49156   1.52001   1.52001   1.55987
 Alpha virt. eigenvalues --    1.55987   1.57274   1.59383   1.59383   1.76975
 Alpha virt. eigenvalues --    1.82624   1.82624   1.84837   1.96092   1.96092
 Alpha virt. eigenvalues --    2.15729   2.15729   2.22700   2.64867   2.68895
 Alpha virt. eigenvalues --    2.68895   3.11678   3.11678   3.18548   3.18548
 Alpha virt. eigenvalues --    3.20215   3.20215   3.26920   3.57976   3.57976
 Alpha virt. eigenvalues --    3.66622   3.66622   3.67406   3.76738   3.76738
 Alpha virt. eigenvalues --    3.77476   3.77476   3.82783   3.82783   3.94574
 Alpha virt. eigenvalues --    4.06902   4.06902   4.10785   4.13927   4.13927
 Alpha virt. eigenvalues --    4.19722   4.19722   4.25387   4.25387   4.30247
 Alpha virt. eigenvalues --    4.34327   4.34327   4.40932   4.40932   4.57253
 Alpha virt. eigenvalues --    4.62132   4.62132   4.72203   4.72203   5.48324
 Alpha virt. eigenvalues --    5.48324   5.49263   5.73926   5.75124   5.75124
 Alpha virt. eigenvalues --    6.37837   6.62460   6.62460   7.51597   7.51597
 Alpha virt. eigenvalues --    7.81027   8.34514   8.34514   8.52925   8.52925
 Alpha virt. eigenvalues --    8.53408   8.53408   8.68063   8.68063   8.76375
 Alpha virt. eigenvalues --    8.90344   8.90344   9.52502   9.85693   9.85693
 Alpha virt. eigenvalues --    9.96469   9.98291   9.98291  10.19763  10.19763
 Alpha virt. eigenvalues --   10.40017  10.40017  10.53477  10.53477  10.69715
 Alpha virt. eigenvalues --   10.69715  10.70763  10.84934  10.84934  10.95096
 Alpha virt. eigenvalues --   10.95096  10.96378  10.96378  11.24325  11.33764
 Alpha virt. eigenvalues --   11.33764  11.39519  11.39519  11.43472  11.43472
 Alpha virt. eigenvalues --   11.96336  11.96336  12.00889  12.00889  12.03675
 Alpha virt. eigenvalues --   12.14788  12.14788  12.38163  12.38163  13.00184
 Alpha virt. eigenvalues --   13.16250  13.31838  13.31838  13.52463  13.52463
 Alpha virt. eigenvalues --   15.29499  15.93070  15.93070  16.46495  17.36656
 Alpha virt. eigenvalues --   17.36656  17.47916  17.47916  17.51454  17.78309
 Alpha virt. eigenvalues --   17.78309  19.00086  20.43664  20.43664  20.70262
 Alpha virt. eigenvalues --   20.70262  21.18382  21.18382  22.63395  24.56296
 Alpha virt. eigenvalues --   24.56296  24.67058  24.67058  24.84033  24.87884
 Alpha virt. eigenvalues --   24.87884  25.22654  25.22654  25.69762  27.16497
 Alpha virt. eigenvalues --   27.16497  27.16897  27.16897  27.29617  27.29617
 Alpha virt. eigenvalues --   27.78249  27.78249  28.09844  28.09844  28.58874
 Alpha virt. eigenvalues --   28.70465  28.70465  30.63449  32.56642  32.56642
 Alpha virt. eigenvalues --   32.72544  32.72544  33.10534  35.16273  35.73042
 Alpha virt. eigenvalues --   35.73042  36.99057  46.78258  46.78258  47.78427
 Alpha virt. eigenvalues --   47.78427  48.15658  49.74838  49.74838  49.94429
 Alpha virt. eigenvalues --   49.94429  50.28844  50.28844  51.34329  54.04896
 Alpha virt. eigenvalues --   55.74418  55.74418  55.82116  55.82116  55.95676
 Alpha virt. eigenvalues --   55.95676  56.17365  56.17365  56.40551  56.85978
 Alpha virt. eigenvalues --   56.85978  57.02075  57.02075  57.50343  61.41718
 Alpha virt. eigenvalues --   61.41718  61.42300  61.42300  61.49308  61.49308
 Alpha virt. eigenvalues --   61.77027  61.77027  62.13144  62.13144  62.30090
 Alpha virt. eigenvalues --   67.94463  68.60200  68.60200  69.85578  69.85578
 Alpha virt. eigenvalues --   70.08515  71.95993  95.73289  95.73289  95.88165
 Alpha virt. eigenvalues --   95.88165  96.22405 102.95303 102.95303 102.96689
 Alpha virt. eigenvalues --  102.96689 103.05822 103.05822 103.29981 121.50407
 Alpha virt. eigenvalues --  123.02833 130.88450 130.88450 132.46747 154.54007
 Alpha virt. eigenvalues --  154.54007 156.23305 167.33382 167.33382 167.47859
 Alpha virt. eigenvalues --  167.47859 167.81281 206.74093 206.74093 207.29645
 Alpha virt. eigenvalues --  207.29645 207.64633 209.96764 248.61409 248.61409
 Alpha virt. eigenvalues --  250.03253 258.86234 324.75171 324.75171 326.28010
 Alpha virt. eigenvalues --  341.38144 341.38144 341.50828 341.50828 341.78311
 Alpha virt. eigenvalues --  357.98850 457.85898 460.76199 460.76199 462.29408
 Alpha virt. eigenvalues --  612.11303 690.99442 690.99442 692.43668 797.11341
 Alpha virt. eigenvalues --  851.03007 851.03007 852.26589 855.00915 855.00915
 Alpha virt. eigenvalues --  855.11690 855.11690 855.497501090.013031460.14446
 Alpha virt. eigenvalues -- 1618.213501618.213501619.570072262.347602713.71774
 Alpha virt. eigenvalues -- 2713.717742713.785192713.785192713.928852811.84738
 Alpha virt. eigenvalues -- 3245.921473245.921473247.195585713.773556141.01915
 Alpha virt. eigenvalues -- 7026.568527026.568527027.72366********************
 Alpha virt. eigenvalues -- **************************************************
 Alpha virt. eigenvalues -- **************************************************
 Alpha virt. eigenvalues -- **************************************************
 Alpha virt. eigenvalues -- ********************
     Molecular Orbital Coefficients:
                           9        10        11        12        13
                           O         O         O         O         O
     Eigenvalues --    -0.86295  -0.82828  -0.46238  -0.46238  -0.37905
   1 1   Zn 1S          0.00000  -0.00000   0.00000   0.00000  -0.00000
   2        2S          0.00000   0.00000   0.00000   0.00000   0.00000
   3        3S          0.00000  -0.00000   0.00000   0.00000  -0.00000
   4        4S          0.00000   0.00000   0.00000   0.00000   0.00000
   5        5S          0.00000  -0.00000   0.00000   0.00000  -0.00000
   6        6S          0.00000   0.00000   0.00000   0.00000   0.00000
   7        7S          0.00000  -0.00000   0.00000   0.00000  -0.00000
   8        8S          0.00000   0.00000   0.00000   0.00000   0.00001
   9        9S          0.00000  -0.00001   0.00000   0.00000  -0.00002
  10       10S          0.00000   0.00002   0.00000   0.00000   0.00005
  11       11S          0.00000  -0.00006   0.00000   0.00000  -0.00014
  12       12S          0.00000   0.00014   0.00000   0.00000   0.00031
  13       13S          0.00000  -0.00014   0.00000   0.00000   0.00067
  14       14S          0.00000  -0.00221   0.00000   0.00000  -0.02145
  15       15S          0.00000   0.00493   0.00000   0.00000   0.04991
  16       16S          0.00000   0.02572   0.00000   0.00000   0.09098
  17       17S          0.00000  -0.06630   0.00000   0.00000  -0.18393
  18       18S          0.00000  -0.05511   0.00000   0.00000  -0.28081
  19       19S          0.00000  -0.01859   0.00000   0.00000  -0.18672
  20       20S          0.00000   0.09257   0.00000   0.00000   0.36736
  21       21S          0.00000   0.03628   0.00000   0.00000   0.35998
  22       22S          0.00000   0.00234   0.00000   0.00000   0.06456
  23       23S          0.00000  -0.00918   0.00000   0.00000   0.00877
  24       24S          0.00000   0.06462   0.00000   0.00000   0.09714
  25       25S          0.00000  -0.00061   0.00000   0.00000  -0.00194
  26       26PX         0.00000   0.00000   0.00000   0.00000   0.00000
  27       26PY         0.00000   0.00000   0.00000   0.00000   0.00000
  28       26PZ         0.00000  -0.00000   0.00000   0.00000  -0.00000
  29       27PX         0.00000   0.00000  -0.00000   0.00000   0.00000
  30       27PY         0.00000   0.00000   0.00000  -0.00000   0.00000
  31       27PZ         0.00000   0.00000   0.00000   0.00000   0.00000
  32       28PX         0.00000   0.00000   0.00000   0.00000   0.00000
  33       28PY         0.00000   0.00000   0.00000   0.00000   0.00000
  34       28PZ         0.00000  -0.00000   0.00000   0.00000  -0.00000
  35       29PX         0.00000   0.00000  -0.00000   0.00000   0.00000
  36       29PY         0.00000   0.00000   0.00000  -0.00000   0.00000
  37       29PZ         0.00000   0.00000   0.00000   0.00000   0.00000
  38       30PX         0.00000   0.00000   0.00001   0.00000   0.00000
  39       30PY         0.00000   0.00000   0.00000   0.00001   0.00000
  40       30PZ         0.00000  -0.00000   0.00000   0.00000  -0.00001
  41       31PX         0.00000   0.00000  -0.00002   0.00000   0.00000
  42       31PY         0.00000   0.00000   0.00000  -0.00002   0.00000
  43       31PZ         0.00000   0.00000   0.00000   0.00000   0.00003
  44       32PX         0.00000   0.00000   0.00010   0.00000   0.00000
  45       32PY         0.00000   0.00000   0.00000   0.00010   0.00000
  46       32PZ         0.00000  -0.00000   0.00000   0.00000  -0.00012
  47       33PX         0.00000   0.00000  -0.00064   0.00000   0.00000
  48       33PY         0.00000   0.00000   0.00000  -0.00064   0.00000
  49       33PZ         0.00000  -0.00000   0.00000   0.00000   0.00054
  50       34PX         0.00000   0.00000   0.00135   0.00000   0.00000
  51       34PY         0.00000   0.00000   0.00000   0.00135   0.00000
  52       34PZ         0.00000   0.00001   0.00000   0.00000  -0.00129
  53       35PX         0.00000   0.00000   0.00877   0.00000   0.00000
  54       35PY         0.00000   0.00000   0.00000   0.00877   0.00000
  55       35PZ         0.00000   0.00016   0.00000   0.00000  -0.00313
  56       36PX         0.00000   0.00000   0.00843   0.00000   0.00000
  57       36PY         0.00000   0.00000   0.00000   0.00843   0.00000
  58       36PZ         0.00000  -0.00114   0.00000   0.00000   0.00634
  59       37PX         0.00000   0.00000  -0.02886   0.00000   0.00000
  60       37PY         0.00000   0.00000   0.00000  -0.02886   0.00000
  61       37PZ         0.00000  -0.00034   0.00000   0.00000   0.01490
  62       38PX         0.00000   0.00000  -0.02016   0.00000   0.00000
  63       38PY         0.00000   0.00000   0.00000  -0.02016   0.00000
  64       38PZ         0.00000  -0.00761   0.00000   0.00000   0.03003
  65       39PX         0.00000   0.00000  -0.07383   0.00000   0.00000
  66       39PY         0.00000   0.00000   0.00000  -0.07383   0.00000
  67       39PZ         0.00000   0.00578   0.00000   0.00000   0.03246
  68       40PX         0.00000   0.00000   0.00726   0.00000   0.00000
  69       40PY         0.00000   0.00000   0.00000   0.00726   0.00000
  70       40PZ         0.00000   0.00359   0.00000   0.00000   0.01860
  71       41PX         0.00000   0.00000   0.10556   0.00000   0.00000
  72       41PY         0.00000   0.00000   0.00000   0.10556   0.00000
  73       41PZ         0.00000  -0.00748   0.00000   0.00000  -0.02053
  74       42PX         0.00000   0.00000   0.06783   0.00000   0.00000
  75       42PY         0.00000   0.00000   0.00000   0.06783   0.00000
  76       42PZ         0.00000  -0.00548   0.00000   0.00000   0.03642
  77       43PX         0.00000   0.00000   0.00604   0.00000   0.00000
  78       43PY         0.00000   0.00000   0.00000   0.00604   0.00000
  79       43PZ         0.00000   0.00041   0.00000   0.00000   0.01451
  80       44PX         0.00000   0.00000  -0.00471   0.00000   0.00000
  81       44PY         0.00000   0.00000   0.00000  -0.00471   0.00000
  82       44PZ         0.00000   0.00078   0.00000   0.00000  -0.00860
  83       45PX         0.00000   0.00000  -0.03492   0.00000   0.00000
  84       45PY         0.00000   0.00000   0.00000  -0.03492   0.00000
  85       45PZ         0.00000   0.00317   0.00000   0.00000   0.00681
  86       46PX         0.00000   0.00000  -0.00190   0.00000   0.00000
  87       46PY         0.00000   0.00000   0.00000  -0.00190   0.00000
  88       46PZ         0.00000  -0.00006   0.00000   0.00000  -0.00184
  89       47D 0        0.00000  -0.00000   0.00000   0.00000  -0.00000
  90       47D+1        0.00000   0.00000   0.00000   0.00000   0.00000
  91       47D-1        0.00000   0.00000   0.00000   0.00000   0.00000
  92       47D+2        0.00000  -0.00000   0.00000   0.00000   0.00000
  93       47D-2        0.00000   0.00000   0.00000   0.00000   0.00000
  94       48D 0        0.00000   0.00001   0.00000   0.00000   0.00000
  95       48D+1        0.00000   0.00000  -0.00000   0.00000   0.00000
  96       48D-1        0.00000   0.00000   0.00000  -0.00000   0.00000
  97       48D+2        0.00000   0.00000   0.00000   0.00000  -0.00000
  98       48D-2       -0.00001   0.00000   0.00000   0.00000   0.00000
  99       49D 0        0.00000  -0.00184   0.00000   0.00000  -0.00058
 100       49D+1        0.00000   0.00000   0.00096   0.00000   0.00000
 101       49D-1        0.00000   0.00000   0.00000   0.00096   0.00000
 102       49D+2        0.00000  -0.00000   0.00000   0.00000  -0.00000
 103       49D-2        0.00236   0.00000   0.00000   0.00000   0.00000
 104       50D 0        0.00000  -0.02352   0.00000   0.00000  -0.00733
 105       50D+1        0.00000   0.00000   0.01236   0.00000   0.00000
 106       50D-1        0.00000   0.00000   0.00000   0.01236   0.00000
 107       50D+2        0.00000  -0.00000   0.00000   0.00000  -0.00000
 108       50D-2        0.03028   0.00000   0.00000   0.00000   0.00000
 109       51D 0        0.00000  -0.08937   0.00000   0.00000  -0.02838
 110       51D+1        0.00000   0.00000   0.04691   0.00000   0.00000
 111       51D-1        0.00000   0.00000   0.00000   0.04691   0.00000
 112       51D+2        0.00000  -0.00000   0.00000   0.00000  -0.00000
 113       51D-2        0.11480   0.00000   0.00000   0.00000   0.00000
 114       52D 0        0.00000  -0.19145   0.00000   0.00000  -0.06564
 115       52D+1        0.00000   0.00000   0.09993   0.00000   0.00000
 116       52D-1        0.00000   0.00000   0.00000   0.09993   0.00000
 117       52D+2        0.00000  -0.00000   0.00000   0.00000  -0.00000
 118       52D-2        0.24480   0.00000   0.00000   0.00000   0.00000
 119       53D 0        0.00000  -0.22970   0.00000   0.00000  -0.07511
 120       53D+1        0.00000   0.00000   0.11993   0.00000   0.00000
 121       53D-1        0.00000   0.00000   0.00000   0.11993   0.00000
 122       53D+2        0.00000  -0.00000   0.00000   0.00000  -0.00000
 123       53D-2        0.29581   0.00000   0.00000   0.00000   0.00000
 124       54D 0        0.00000  -0.24240   0.00000   0.00000  -0.07140
 125       54D+1        0.00000   0.00000   0.12364   0.00000   0.00000
 126       54D-1        0.00000   0.00000   0.00000   0.12364   0.00000
 127       54D+2        0.00000  -0.00000   0.00000   0.00000  -0.00000
 128       54D-2        0.30319   0.00000   0.00000   0.00000   0.00000
 129       55D 0        0.00000  -0.20128   0.00000   0.00000  -0.06596
 130       55D+1        0.00000   0.00000   0.09088   0.00000   0.00000
 131       55D-1        0.00000   0.00000   0.00000   0.09088   0.00000
 132       55D+2        0.00000  -0.00000   0.00000   0.00000  -0.00000
 133       55D-2        0.24577   0.00000   0.00000   0.00000   0.00000
 134       56D 0        0.00000  -0.10440   0.00000   0.00000  -0.03555
 135       56D+1        0.00000   0.00000   0.03764   0.00000   0.00000
 136       56D-1        0.00000   0.00000   0.00000   0.03764   0.00000
 137       56D+2        0.00000  -0.00000   0.00000   0.00000  -0.00000
 138       56D-2        0.13104   0.00000   0.00000   0.00000   0.00000
 139       57D 0        0.00000  -0.02229   0.00000   0.00000  -0.01610
 140       57D+1        0.00000   0.00000   0.01752   0.00000   0.00000
 141       57D-1        0.00000   0.00000   0.00000   0.01752   0.00000
 142       57D+2        0.00000  -0.00000   0.00000   0.00000   0.00000
 143       57D-2        0.03043   0.00000   0.00000   0.00000   0.00000
 144       58D 0        0.00000   0.02511   0.00000   0.00000   0.01122
 145       58D+1        0.00000   0.00000  -0.01266   0.00000   0.00000
 146       58D-1        0.00000   0.00000   0.00000  -0.01266   0.00000
 147       58D+2        0.00000   0.00000   0.00000   0.00000  -0.00000
 148       58D-2       -0.03108   0.00000   0.00000   0.00000   0.00000
 149       59D 0        0.00000   0.01525   0.00000   0.00000   0.00969
 150       59D+1        0.00000   0.00000  -0.00771   0.00000   0.00000
 151       59D-1        0.00000   0.00000   0.00000  -0.00771   0.00000
 152       59D+2        0.00000   0.00000   0.00000   0.00000  -0.00000
 153       59D-2       -0.01970   0.00000   0.00000   0.00000   0.00000
 154       60D 0        0.00000   0.00033   0.00000   0.00000  -0.01201
 155       60D+1        0.00000   0.00000   0.00261   0.00000   0.00000
 156       60D-1        0.00000   0.00000   0.00000   0.00261   0.00000
 157       60D+2        0.00000  -0.00000   0.00000   0.00000  -0.00000
 158       60D-2       -0.00000   0.00000   0.00000   0.00000   0.00000
 159       61F 0        0.00000   0.00013   0.00000   0.00000  -0.00035
 160       61F+1        0.00000   0.00000   0.00034   0.00000   0.00000
 161       61F-1        0.00000   0.00000   0.00000   0.00034   0.00000
 162       61F+2        0.00000  -0.00000   0.00000   0.00000   0.00000
 163       61F-2        0.00008   0.00000   0.00000   0.00000   0.00000
 164       61F+3        0.00000   0.00000   0.00000   0.00000   0.00000
 165       61F-3        0.00000   0.00000   0.00000   0.00000   0.00000
 166       62F 0        0.00000  -0.00014   0.00000   0.00000  -0.00092
 167       62F+1        0.00000   0.00000   0.00094   0.00000   0.00000
 168       62F-1        0.00000   0.00000   0.00000   0.00094   0.00000
 169       62F+2        0.00000  -0.00000   0.00000   0.00000  -0.00000
 170       62F-2        0.00033   0.00000   0.00000   0.00000   0.00000
 171       62F+3        0.00000   0.00000  -0.00000   0.00000   0.00000
 172       62F-3        0.00000   0.00000   0.00000  -0.00000   0.00000
 173       63F 0        0.00000   0.00322   0.00000   0.00000  -0.00389
 174       63F+1        0.00000   0.00000   0.00351   0.00000   0.00000
 175       63F-1        0.00000   0.00000   0.00000   0.00351   0.00000
 176       63F+2        0.00000   0.00000   0.00000   0.00000   0.00000
 177       63F-2       -0.00002   0.00000   0.00000   0.00000   0.00000
 178       63F+3        0.00000   0.00000   0.00000   0.00000   0.00000
 179       63F-3        0.00000   0.00000   0.00000   0.00000   0.00000
 180       64F 0        0.00000   0.00498   0.00000   0.00000  -0.00720
 181       64F+1        0.00000   0.00000   0.01535   0.00000   0.00000
 182       64F-1        0.00000   0.00000   0.00000   0.01535   0.00000
 183       64F+2        0.00000  -0.00000   0.00000   0.00000  -0.00000
 184       64F-2        0.00123   0.00000   0.00000   0.00000   0.00000
 185       64F+3        0.00000   0.00000  -0.00000   0.00000   0.00000
 186       64F-3        0.00000   0.00000   0.00000   0.00000   0.00000
 187       65F 0        0.00000  -0.00379   0.00000   0.00000  -0.00770
 188       65F+1        0.00000   0.00000   0.01263   0.00000   0.00000
 189       65F-1        0.00000   0.00000   0.00000   0.01263   0.00000
 190       65F+2        0.00000  -0.00000   0.00000   0.00000  -0.00000
 191       65F-2        0.00360   0.00000   0.00000   0.00000   0.00000
 192       65F+3        0.00000   0.00000   0.00000   0.00000   0.00000
 193       65F-3        0.00000   0.00000   0.00000   0.00000   0.00000
 194       66G 0        0.00000  -0.00009   0.00000   0.00000  -0.00006
 195       66G+1        0.00000   0.00000  -0.00000   0.00000   0.00000
 196       66G-1        0.00000   0.00000   0.00000  -0.00000   0.00000
 197       66G+2        0.00000  -0.00000   0.00000   0.00000   0.00000
 198       66G-2        0.00010   0.00000   0.00000   0.00000   0.00000
 199       66G+3        0.00000   0.00000   0.00000   0.00000   0.00000
 200       66G-3        0.00000   0.00000   0.00000   0.00000   0.00000
 201       66G+4        0.00000  -0.00000   0.00000   0.00000  -0.00000
 202       66G-4        0.00000   0.00000   0.00000   0.00000   0.00000
 203       67G 0        0.00000  -0.00028   0.00000   0.00000   0.00027
 204       67G+1        0.00000   0.00000   0.00003   0.00000   0.00000
 205       67G-1        0.00000   0.00000   0.00000   0.00003   0.00000
 206       67G+2        0.00000  -0.00000   0.00000   0.00000  -0.00000
 207       67G-2        0.00019   0.00000   0.00000   0.00000   0.00000
 208       67G+3        0.00000   0.00000  -0.00000   0.00000   0.00000
 209       67G-3        0.00000   0.00000   0.00000  -0.00000   0.00000
 210       67G+4        0.00000   0.00000   0.00000   0.00000   0.00000
 211       67G-4        0.00000   0.00000   0.00000   0.00000   0.00000
 212       68G 0        0.00000  -0.00249   0.00000   0.00000  -0.00033
 213       68G+1        0.00000   0.00000  -0.00068   0.00000   0.00000
 214       68G-1        0.00000   0.00000   0.00000  -0.00068   0.00000
 215       68G+2        0.00000  -0.00000   0.00000   0.00000  -0.00000
 216       68G-2        0.00132   0.00000   0.00000   0.00000   0.00000
 217       68G+3        0.00000   0.00000   0.00000   0.00000   0.00000
 218       68G-3        0.00000   0.00000   0.00000   0.00000   0.00000
 219       68G+4        0.00000  -0.00000   0.00000   0.00000  -0.00000
 220       68G-4        0.00000   0.00000   0.00000   0.00000   0.00000
 221       69G 0        0.00000  -0.00310   0.00000   0.00000   0.00068
 222       69G+1        0.00000   0.00000  -0.00341   0.00000   0.00000
 223       69G-1        0.00000   0.00000   0.00000  -0.00341   0.00000
 224       69G+2        0.00000  -0.00000   0.00000   0.00000   0.00000
 225       69G-2        0.00162   0.00000   0.00000   0.00000   0.00000
 226       69G+3        0.00000   0.00000  -0.00000   0.00000   0.00000
 227       69G-3        0.00000   0.00000   0.00000  -0.00000   0.00000
 228       69G+4        0.00000  -0.00000   0.00000   0.00000  -0.00000
 229       69G-4       -0.00000   0.00000   0.00000   0.00000   0.00000
 230       70H 0        0.00000   0.00010   0.00000   0.00000   0.00004
 231       70H+1        0.00000   0.00000   0.00000   0.00000   0.00000
 232       70H-1        0.00000   0.00000   0.00000   0.00000   0.00000
 233       70H+2        0.00000   0.00000   0.00000   0.00000  -0.00000
 234       70H-2       -0.00009   0.00000   0.00000   0.00000   0.00000
 235       70H+3        0.00000   0.00000   0.00000   0.00000   0.00000
 236       70H-3        0.00000   0.00000   0.00000   0.00000   0.00000
 237       70H+4        0.00000   0.00000   0.00000   0.00000   0.00000
 238       70H-4        0.00000   0.00000   0.00000   0.00000   0.00000
 239       70H+5        0.00000   0.00000  -0.00000   0.00000   0.00000
 240       70H-5        0.00000   0.00000   0.00000  -0.00000   0.00000
 241       71H 0        0.00000   0.00003   0.00000   0.00000  -0.00011
 242       71H+1        0.00000   0.00000  -0.00015   0.00000   0.00000
 243       71H-1        0.00000   0.00000   0.00000  -0.00015   0.00000
 244       71H+2        0.00000  -0.00000   0.00000   0.00000   0.00000
 245       71H-2        0.00005   0.00000   0.00000   0.00000   0.00000
 246       71H+3        0.00000   0.00000  -0.00000   0.00000   0.00000
 247       71H-3        0.00000   0.00000   0.00000  -0.00000   0.00000
 248       71H+4        0.00000  -0.00000   0.00000   0.00000  -0.00000
 249       71H-4       -0.00000   0.00000   0.00000   0.00000   0.00000
 250       71H+5        0.00000   0.00000   0.00000   0.00000   0.00000
 251       71H-5        0.00000   0.00000   0.00000   0.00000   0.00000
 252       72H 0        0.00000   0.00102   0.00000   0.00000   0.00048
 253       72H+1        0.00000   0.00000   0.00070   0.00000   0.00000
 254       72H-1        0.00000   0.00000   0.00000   0.00070   0.00000
 255       72H+2        0.00000   0.00000   0.00000   0.00000   0.00000
 256       72H-2       -0.00062   0.00000   0.00000   0.00000   0.00000
 257       72H+3        0.00000   0.00000   0.00000   0.00000   0.00000
 258       72H-3        0.00000   0.00000   0.00000   0.00000   0.00000
 259       72H+4        0.00000   0.00000   0.00000   0.00000   0.00000
 260       72H-4        0.00000   0.00000   0.00000   0.00000   0.00000
 261       72H+5        0.00000   0.00000  -0.00000   0.00000   0.00000
 262       72H-5        0.00000   0.00000   0.00000  -0.00000   0.00000
 263 2   O  1S          0.00000  -0.00000   0.00000   0.00000   0.00000
 264        2S          0.00000   0.00000   0.00000   0.00000  -0.00000
 265        3S          0.00000  -0.00000   0.00000   0.00000   0.00000
 266        4S          0.00000   0.00001   0.00000   0.00000  -0.00000
 267        5S          0.00000  -0.00012   0.00000   0.00000   0.00003
 268        6S          0.00000  -0.00244   0.00000   0.00000   0.00063
 269        7S          0.00000  -0.01009   0.00000   0.00000   0.00239
 270        8S          0.00000  -0.12367   0.00000   0.00000   0.04314
 271        9S          0.00000  -0.03358   0.00000   0.00000   0.01450
 272       10S          0.00000   0.09562   0.00000   0.00000  -0.04694
 273       11S          0.00000   0.25680   0.00000   0.00000  -0.09973
 274       12S          0.00000   0.20754   0.00000   0.00000  -0.14690
 275       13S          0.00000   0.09404   0.00000   0.00000  -0.03190
 276       14S          0.00000   0.00768   0.00000   0.00000  -0.00186
 277       15S          0.00000   0.00127   0.00000   0.00000  -0.00033
 278       16S          0.00000   0.01467   0.00000   0.00000  -0.05684
 279       17PX         0.00000   0.00000  -0.00133   0.00000   0.00000
 280       17PY         0.00000   0.00000   0.00000  -0.00133   0.00000
 281       17PZ         0.00000   0.00076   0.00000   0.00000  -0.00107
 282       18PX         0.00000   0.00000  -0.25315   0.00000   0.00000
 283       18PY         0.00000   0.00000   0.00000  -0.25315   0.00000
 284       18PZ         0.00000   0.14130   0.00000   0.00000  -0.19903
 285       19PX         0.00000   0.00000   0.13015   0.00000   0.00000
 286       19PY         0.00000   0.00000   0.00000   0.13015   0.00000
 287       19PZ         0.00000  -0.06235   0.00000   0.00000   0.09508
 288       20PX         0.00000   0.00000   0.29533   0.00000   0.00000
 289       20PY         0.00000   0.00000   0.00000   0.29533   0.00000
 290       20PZ         0.00000  -0.14752   0.00000   0.00000   0.21640
 291       21PX         0.00000   0.00000   0.38271   0.00000   0.00000
 292       21PY         0.00000   0.00000   0.00000   0.38271   0.00000
 293       21PZ         0.00000  -0.13432   0.00000   0.00000   0.28610
 294       22PX         0.00000   0.00000   0.26023   0.00000   0.00000
 295       22PY         0.00000   0.00000   0.00000   0.26023   0.00000
 296       22PZ         0.00000  -0.04178   0.00000   0.00000   0.19368
 297       23PX         0.00000   0.00000   0.28664   0.00000   0.00000
 298       23PY         0.00000   0.00000   0.00000   0.28664   0.00000
 299       23PZ         0.00000  -0.15794   0.00000   0.00000   0.22378
 300       24PX         0.00000   0.00000   0.00338   0.00000   0.00000
 301       24PY         0.00000   0.00000   0.00000   0.00338   0.00000
 302       24PZ         0.00000  -0.00184   0.00000   0.00000   0.00264
 303       25PX         0.00000   0.00000   0.00015   0.00000   0.00000
 304       25PY         0.00000   0.00000   0.00000   0.00015   0.00000
 305       25PZ         0.00000  -0.00009   0.00000   0.00000   0.00012
 306       26PX         0.00000   0.00000   0.03166   0.00000   0.00000
 307       26PY         0.00000   0.00000   0.00000   0.03166   0.00000
 308       26PZ         0.00000  -0.00095   0.00000   0.00000   0.02724
 309       27D 0        0.00000  -0.00527   0.00000   0.00000   0.00027
 310       27D+1        0.00000   0.00000   0.00170   0.00000   0.00000
 311       27D-1        0.00000   0.00000   0.00000   0.00170   0.00000
 312       27D+2        0.00000  -0.00000   0.00000   0.00000  -0.00000
 313       27D-2        0.00066   0.00000   0.00000   0.00000   0.00000
 314       28D 0        0.00000  -0.01957   0.00000   0.00000   0.00511
 315       28D+1        0.00000   0.00000   0.01186   0.00000   0.00000
 316       28D-1        0.00000   0.00000   0.00000   0.01186   0.00000
 317       28D+2        0.00000  -0.00000   0.00000   0.00000  -0.00000
 318       28D-2        0.00415   0.00000   0.00000   0.00000   0.00000
 319       29D 0        0.00000  -0.01166   0.00000   0.00000   0.01788
 320       29D+1        0.00000   0.00000   0.02043   0.00000   0.00000
 321       29D-1        0.00000   0.00000   0.00000   0.02043   0.00000
 322       29D+2        0.00000  -0.00000   0.00000   0.00000  -0.00000
 323       29D-2        0.00468   0.00000   0.00000   0.00000   0.00000
 324       30D 0        0.00000  -0.00044   0.00000   0.00000   0.00009
 325       30D+1        0.00000   0.00000   0.00022   0.00000   0.00000
 326       30D-1        0.00000   0.00000   0.00000   0.00022   0.00000
 327       30D+2        0.00000  -0.00000   0.00000   0.00000   0.00000
 328       30D-2        0.00010   0.00000   0.00000   0.00000   0.00000
 329       31D 0        0.00000  -0.00000   0.00000   0.00000  -0.00001
 330       31D+1        0.00000   0.00000  -0.00001   0.00000   0.00000
 331       31D-1        0.00000   0.00000   0.00000  -0.00001   0.00000
 332       31D+2        0.00000   0.00000   0.00000   0.00000  -0.00000
 333       31D-2       -0.00000   0.00000   0.00000   0.00000   0.00000
 334       32D 0        0.00000   0.00007   0.00000   0.00000   0.00962
 335       32D+1        0.00000   0.00000   0.01420   0.00000   0.00000
 336       32D-1        0.00000   0.00000   0.00000   0.01420   0.00000
 337       32D+2        0.00000  -0.00000   0.00000   0.00000  -0.00000
 338       32D-2        0.00029   0.00000   0.00000   0.00000   0.00000
 339       33F 0        0.00000  -0.00385   0.00000   0.00000   0.00038
 340       33F+1        0.00000   0.00000   0.00119   0.00000   0.00000
 341       33F-1        0.00000   0.00000   0.00000   0.00119   0.00000
 342       33F+2        0.00000  -0.00000   0.00000   0.00000  -0.00000
 343       33F-2        0.00085   0.00000   0.00000   0.00000   0.00000
 344       33F+3        0.00000   0.00000   0.00000   0.00000   0.00000
 345       33F-3        0.00000   0.00000   0.00000   0.00000   0.00000
 346       34F 0        0.00000  -0.00686   0.00000   0.00000   0.00344
 347       34F+1        0.00000   0.00000   0.00316   0.00000   0.00000
 348       34F-1        0.00000   0.00000   0.00000   0.00316   0.00000
 349       34F+2        0.00000  -0.00000   0.00000   0.00000   0.00000
 350       34F-2        0.00242   0.00000   0.00000   0.00000   0.00000
 351       34F+3        0.00000   0.00000   0.00000   0.00000   0.00000
 352       34F-3        0.00000   0.00000   0.00000   0.00000   0.00000
 353       35F 0        0.00000  -0.00003   0.00000   0.00000   0.00000
 354       35F+1        0.00000   0.00000   0.00001   0.00000   0.00000
 355       35F-1        0.00000   0.00000   0.00000   0.00001   0.00000
 356       35F+2        0.00000  -0.00000   0.00000   0.00000  -0.00000
 357       35F-2        0.00001   0.00000   0.00000   0.00000   0.00000
 358       35F+3        0.00000   0.00000   0.00000   0.00000   0.00000
 359       35F-3        0.00000   0.00000   0.00000   0.00000   0.00000
 360       36F 0        0.00000  -0.00047   0.00000   0.00000   0.00608
 361       36F+1        0.00000   0.00000   0.00232   0.00000   0.00000
 362       36F-1        0.00000   0.00000   0.00000   0.00232   0.00000
 363       36F+2        0.00000  -0.00000   0.00000   0.00000   0.00000
 364       36F-2        0.00027   0.00000   0.00000   0.00000   0.00000
 365       36F+3        0.00000   0.00000   0.00000   0.00000   0.00000
 366       36F-3        0.00000   0.00000   0.00000   0.00000   0.00000
 367       37G 0        0.00000  -0.00224   0.00000   0.00000   0.00000
 368       37G+1        0.00000   0.00000   0.00010   0.00000   0.00000
 369       37G-1        0.00000   0.00000   0.00000   0.00010   0.00000
 370       37G+2        0.00000  -0.00000   0.00000   0.00000  -0.00000
 371       37G-2        0.00087   0.00000   0.00000   0.00000   0.00000
 372       37G+3        0.00000   0.00000  -0.00000   0.00000   0.00000
 373       37G-3        0.00000   0.00000   0.00000  -0.00000   0.00000
 374       37G+4        0.00000   0.00000   0.00000   0.00000   0.00000
 375       37G-4        0.00000   0.00000   0.00000   0.00000   0.00000
 376       38G 0        0.00000  -0.00071   0.00000   0.00000   0.00103
 377       38G+1        0.00000   0.00000  -0.00021   0.00000   0.00000
 378       38G-1        0.00000   0.00000   0.00000  -0.00021   0.00000
 379       38G+2        0.00000   0.00000   0.00000   0.00000   0.00000
 380       38G-2        0.00015   0.00000   0.00000   0.00000   0.00000
 381       38G+3        0.00000   0.00000   0.00000   0.00000   0.00000
 382       38G-3        0.00000   0.00000   0.00000   0.00000   0.00000
 383       38G+4        0.00000   0.00000   0.00000   0.00000   0.00000
 384       38G-4        0.00000   0.00000   0.00000   0.00000   0.00000
                          14        15        16        17        18
                           V         V         V         V         V
     Eigenvalues --    -0.00811   0.02914   0.02914   0.03639   0.04173
   1 1   Zn 1S          0.00000   0.00000   0.00000   0.00000  -0.00000
   2        2S         -0.00000   0.00000   0.00000  -0.00000   0.00000
   3        3S          0.00000   0.00000   0.00000   0.00000  -0.00000
[...]
 162       61F+2        0.00000   0.00000   0.00000   0.00000
 163       61F-2        0.00000   0.00000   0.00000   0.00000
 164       61F+3       -0.00000  -0.00000  -0.00000   0.00000
 165       61F-3        0.00000   0.00000   0.00000   0.00000
 166       62F 0        0.00003   0.00002   0.00002   0.00000
 167       62F+1        0.00002   0.00001   0.00001   0.00000
 168       62F-1        0.00002   0.00001   0.00001   0.00000
 169       62F+2        0.00000   0.00000   0.00000   0.00000
 170       62F-2        0.00000   0.00000   0.00000   0.00000
 171       62F+3       -0.00000  -0.00000  -0.00000   0.00000
 172       62F-3       -0.00000  -0.00000  -0.00000   0.00000
 173       63F 0        0.00103   0.00051   0.00051   0.00000
 174       63F+1        0.00048   0.00024   0.00024   0.00000
 175       63F-1        0.00048   0.00024   0.00024   0.00000
 176       63F+2       -0.00000  -0.00000  -0.00000   0.00000
 177       63F-2       -0.00000  -0.00000  -0.00000   0.00000
 178       63F+3        0.00000   0.00000   0.00000   0.00000
 179       63F-3        0.00000   0.00000   0.00000   0.00000
 180       64F 0        0.00499   0.00250   0.00250   0.00000
 181       64F+1        0.00843   0.00421   0.00421   0.00000
 182       64F-1        0.00843   0.00421   0.00421   0.00000
 183       64F+2       -0.00000  -0.00000  -0.00000   0.00000
 184       64F-2       -0.00000  -0.00000  -0.00000   0.00000
 185       64F+3       -0.00000  -0.00000  -0.00000   0.00000
 186       64F-3        0.00000   0.00000   0.00000   0.00000
 187       65F 0        0.00032   0.00016   0.00016   0.00000
 188       65F+1        0.00969   0.00484   0.00484   0.00000
 189       65F-1        0.00969   0.00484   0.00484   0.00000
 190       65F+2       -0.00000  -0.00000  -0.00000   0.00000
 191       65F-2       -0.00000  -0.00000  -0.00000   0.00000
 192       65F+3        0.00000   0.00000   0.00000   0.00000
 193       65F-3       -0.00000  -0.00000  -0.00000   0.00000
 194       66G 0        0.00000   0.00000   0.00000   0.00000
 195       66G+1        0.00000   0.00000   0.00000   0.00000
 196       66G-1        0.00000   0.00000   0.00000   0.00000
 197       66G+2        0.00000   0.00000   0.00000   0.00000
 198       66G-2        0.00000   0.00000   0.00000   0.00000
 199       66G+3       -0.00000  -0.00000  -0.00000   0.00000
 200       66G-3       -0.00000  -0.00000  -0.00000   0.00000
 201       66G+4        0.00000   0.00000   0.00000   0.00000
 202       66G-4       -0.00000  -0.00000  -0.00000   0.00000
 203       67G 0        0.00001   0.00000   0.00000   0.00000
 204       67G+1        0.00000   0.00000   0.00000   0.00000
 205       67G-1        0.00000   0.00000   0.00000   0.00000
 206       67G+2        0.00000   0.00000   0.00000   0.00000
 207       67G-2        0.00000   0.00000   0.00000   0.00000
 208       67G+3        0.00000   0.00000   0.00000   0.00000
 209       67G-3       -0.00000  -0.00000  -0.00000   0.00000
 210       67G+4        0.00000   0.00000   0.00000   0.00000
 211       67G-4        0.00000   0.00000   0.00000   0.00000
 212       68G 0        0.00027   0.00013   0.00013   0.00000
 213       68G+1        0.00021   0.00010   0.00010   0.00000
 214       68G-1        0.00021   0.00010   0.00010   0.00000
 215       68G+2        0.00001   0.00000   0.00000   0.00000
 216       68G-2        0.00001   0.00000   0.00000   0.00000
 217       68G+3        0.00000   0.00000   0.00000   0.00000
 218       68G-3        0.00000   0.00000   0.00000   0.00000
 219       68G+4       -0.00000  -0.00000  -0.00000   0.00000
 220       68G-4        0.00000   0.00000   0.00000   0.00000
 221       69G 0        0.00084   0.00042   0.00042   0.00000
 222       69G+1        0.00205   0.00103   0.00103   0.00000
 223       69G-1        0.00205   0.00103   0.00103   0.00000
 224       69G+2        0.00002   0.00001   0.00001   0.00000
 225       69G-2        0.00002   0.00001   0.00001   0.00000
 226       69G+3        0.00000   0.00000   0.00000   0.00000
 227       69G-3        0.00000   0.00000   0.00000   0.00000
 228       69G+4       -0.00000  -0.00000  -0.00000   0.00000
 229       69G-4       -0.00000  -0.00000  -0.00000   0.00000
 230       70H 0        0.00000   0.00000   0.00000   0.00000
 231       70H+1        0.00000   0.00000   0.00000   0.00000
 232       70H-1        0.00000   0.00000   0.00000   0.00000
 233       70H+2        0.00000   0.00000   0.00000   0.00000
 234       70H-2        0.00000   0.00000   0.00000   0.00000
 235       70H+3       -0.00000  -0.00000  -0.00000   0.00000
 236       70H-3       -0.00000  -0.00000  -0.00000   0.00000
 237       70H+4        0.00000   0.00000   0.00000   0.00000
 238       70H-4       -0.00000  -0.00000  -0.00000   0.00000
 239       70H+5        0.00000   0.00000   0.00000   0.00000
 240       70H-5        0.00000   0.00000   0.00000   0.00000
 241       71H 0        0.00000   0.00000   0.00000   0.00000
 242       71H+1       -0.00000  -0.00000  -0.00000   0.00000
 243       71H-1       -0.00000  -0.00000  -0.00000   0.00000
 244       71H+2       -0.00000  -0.00000  -0.00000   0.00000
 245       71H-2       -0.00000  -0.00000  -0.00000   0.00000
 246       71H+3        0.00000   0.00000   0.00000   0.00000
 247       71H-3        0.00000   0.00000   0.00000   0.00000
 248       71H+4       -0.00000  -0.00000  -0.00000   0.00000
 249       71H-4       -0.00000  -0.00000  -0.00000   0.00000
 250       71H+5       -0.00000  -0.00000  -0.00000   0.00000
 251       71H-5       -0.00000  -0.00000  -0.00000   0.00000
 252       72H 0        0.00006   0.00003   0.00003   0.00000
 253       72H+1        0.00012   0.00006   0.00006   0.00000
 254       72H-1        0.00012   0.00006   0.00006   0.00000
 255       72H+2        0.00000   0.00000   0.00000   0.00000
 256       72H-2        0.00000   0.00000   0.00000   0.00000
 257       72H+3        0.00000   0.00000   0.00000   0.00000
 258       72H-3       -0.00000  -0.00000  -0.00000   0.00000
 259       72H+4        0.00000   0.00000   0.00000   0.00000
 260       72H-4        0.00000   0.00000   0.00000   0.00000
 261       72H+5       -0.00000  -0.00000  -0.00000   0.00000
 262       72H-5       -0.00000  -0.00000  -0.00000   0.00000
 263 2   O  1S         -0.00000  -0.00000  -0.00000   0.00000
 264        2S          0.00000   0.00000   0.00000   0.00000
 265        3S         -0.00000  -0.00000  -0.00000   0.00000
 266        4S          0.00000   0.00000   0.00000   0.00000
 267        5S         -0.00000  -0.00000  -0.00000   0.00000
 268        6S         -0.00006  -0.00003  -0.00003   0.00000
 269        7S         -0.00045  -0.00023  -0.00023   0.00000
 270        8S         -0.09278  -0.04639  -0.04639   0.00000
 271        9S         -0.07928  -0.03964  -0.03964   0.00000
 272       10S          0.43697   0.21848   0.21848   0.00000
 273       11S          1.07695   0.53847   0.53847   0.00000
 274       12S          0.55489   0.27745   0.27745   0.00000
 275       13S          0.05578   0.02789   0.02789   0.00000
 276       14S          0.00028   0.00014   0.00014   0.00000
 277       15S          0.00002   0.00001   0.00001   0.00000
 278       16S          0.03443   0.01722   0.01722   0.00000
 279       17PX        -0.00020  -0.00010  -0.00010   0.00000
 280       17PY        -0.00020  -0.00010  -0.00010   0.00000
 281       17PZ        -0.00016  -0.00008  -0.00008   0.00000
 282       18PX        -0.13976  -0.06988  -0.06988   0.00000
 283       18PY        -0.13976  -0.06988  -0.06988   0.00000
 284       18PZ        -0.11234  -0.05617  -0.05617   0.00000
 285       19PX         0.14902   0.07451   0.07451   0.00000
 286       19PY         0.14902   0.07451   0.07451   0.00000
 287       19PZ         0.11240   0.05620   0.05620   0.00000
 288       20PX         0.51139   0.25570   0.25570   0.00000
 289       20PY         0.51139   0.25570   0.25570   0.00000
 290       20PZ         0.39778   0.19889   0.19889   0.00000
 291       21PX         0.72267   0.36133   0.36133   0.00000
 292       21PY         0.72267   0.36133   0.36133   0.00000
 293       21PZ         0.49692   0.24846   0.24846   0.00000
 294       22PX         0.38243   0.19122   0.19122   0.00000
 295       22PY         0.38243   0.19122   0.19122   0.00000
 296       22PZ         0.29037   0.14519   0.14519   0.00000
 297       23PX         0.15928   0.07964   0.07964   0.00000
 298       23PY         0.15928   0.07964   0.07964   0.00000
 299       23PZ         0.12721   0.06361   0.06361   0.00000
 300       24PX         0.00073   0.00037   0.00037   0.00000
 301       24PY         0.00073   0.00037   0.00037   0.00000
 302       24PZ         0.00058   0.00029   0.00029   0.00000
 303       25PX         0.00001   0.00001   0.00001   0.00000
 304       25PY         0.00001   0.00001   0.00001   0.00000
 305       25PZ         0.00001   0.00000   0.00000   0.00000
 306       26PX         0.02563   0.01281   0.01281   0.00000
 307       26PY         0.02563   0.01281   0.01281   0.00000
 308       26PZ         0.03266   0.01633   0.01633   0.00000
 309       27D 0        0.00084   0.00042   0.00042   0.00000
 310       27D+1        0.00037   0.00018   0.00018   0.00000
 311       27D-1        0.00037   0.00018   0.00018   0.00000
 312       27D+2        0.00001   0.00001   0.00001   0.00000
 313       27D-2        0.00001   0.00001   0.00001   0.00000
 314       28D 0        0.00932   0.00466   0.00466   0.00000
 315       28D+1        0.00625   0.00313   0.00313   0.00000
 316       28D-1        0.00625   0.00313   0.00313   0.00000
 317       28D+2        0.00041   0.00020   0.00020   0.00000
 318       28D-2        0.00041   0.00020   0.00020   0.00000
 319       29D 0       -0.00339  -0.00170  -0.00170   0.00000
 320       29D+1        0.00630   0.00315   0.00315   0.00000
 321       29D-1        0.00630   0.00315   0.00315   0.00000
 322       29D+2        0.00129   0.00064   0.00064   0.00000
 323       29D-2        0.00129   0.00064   0.00064   0.00000
 324       30D 0        0.00001   0.00001   0.00001   0.00000
 325       30D+1        0.00001   0.00000   0.00000   0.00000
 326       30D-1        0.00001   0.00000   0.00000   0.00000
 327       30D+2        0.00000   0.00000   0.00000   0.00000
 328       30D-2        0.00000   0.00000   0.00000   0.00000
 329       31D 0        0.00000   0.00000   0.00000   0.00000
 330       31D+1       -0.00000  -0.00000  -0.00000   0.00000
 331       31D-1       -0.00000  -0.00000  -0.00000   0.00000
 332       31D+2       -0.00000  -0.00000  -0.00000   0.00000
 333       31D-2       -0.00000  -0.00000  -0.00000   0.00000
 334       32D 0        0.00096   0.00048   0.00048   0.00000
 335       32D+1        0.00253   0.00126   0.00126   0.00000
 336       32D-1        0.00253   0.00126   0.00126   0.00000
 337       32D+2        0.00008   0.00004   0.00004   0.00000
 338       32D-2        0.00008   0.00004   0.00004   0.00000
 339       33F 0        0.00071   0.00036   0.00036   0.00000
 340       33F+1        0.00036   0.00018   0.00018   0.00000
 341       33F-1        0.00036   0.00018   0.00018   0.00000
 342       33F+2        0.00004   0.00002   0.00002   0.00000
 343       33F-2        0.00004   0.00002   0.00002   0.00000
 344       33F+3        0.00000   0.00000   0.00000   0.00000
 345       33F-3        0.00000   0.00000   0.00000   0.00000
 346       34F 0        0.00166   0.00083   0.00083   0.00000
 347       34F+1        0.00232   0.00116   0.00116   0.00000
 348       34F-1        0.00232   0.00116   0.00116   0.00000
 349       34F+2        0.00070   0.00035   0.00035   0.00000
 350       34F-2        0.00070   0.00035   0.00035   0.00000
 351       34F+3       -0.00000  -0.00000  -0.00000   0.00000
 352       34F-3       -0.00000  -0.00000  -0.00000   0.00000
 353       35F 0        0.00000   0.00000   0.00000   0.00000
 354       35F+1        0.00000   0.00000   0.00000   0.00000
 355       35F-1        0.00000   0.00000   0.00000   0.00000
 356       35F+2        0.00000   0.00000   0.00000   0.00000
 357       35F-2        0.00000   0.00000   0.00000   0.00000
 358       35F+3        0.00000   0.00000   0.00000   0.00000
 359       35F-3       -0.00000  -0.00000  -0.00000   0.00000
 360       36F 0       -0.00216  -0.00108  -0.00108   0.00000
 361       36F+1       -0.00006  -0.00003  -0.00003   0.00000
 362       36F-1       -0.00006  -0.00003  -0.00003   0.00000
 363       36F+2        0.00013   0.00007   0.00007   0.00000
 364       36F-2        0.00013   0.00007   0.00007   0.00000
 365       36F+3       -0.00000  -0.00000  -0.00000   0.00000
 366       36F-3        0.00000   0.00000   0.00000   0.00000
 367       37G 0        0.00067   0.00034   0.00034   0.00000
 368       37G+1        0.00043   0.00022   0.00022   0.00000
 369       37G-1        0.00043   0.00022   0.00022   0.00000
 370       37G+2        0.00009   0.00005   0.00005   0.00000
 371       37G-2        0.00009   0.00005   0.00005   0.00000
 372       37G+3       -0.00000  -0.00000  -0.00000   0.00000
 373       37G-3       -0.00000  -0.00000  -0.00000   0.00000
 374       37G+4        0.00000   0.00000   0.00000   0.00000
 375       37G-4        0.00000   0.00000   0.00000   0.00000
 376       38G 0       -0.00019  -0.00010  -0.00010   0.00000
 377       38G+1        0.00028   0.00014   0.00014   0.00000
 378       38G-1        0.00028   0.00014   0.00014   0.00000
 379       38G+2        0.00007   0.00004   0.00004   0.00000
 380       38G-2        0.00007   0.00004   0.00004   0.00000
 381       38G+3        0.00000   0.00000   0.00000   0.00000
 382       38G-3        0.00000   0.00000   0.00000   0.00000
 383       38G+4       -0.00000  -0.00000  -0.00000   0.00000
 384       38G-4        0.00000   0.00000   0.00000   0.00000
          Condensed to atoms (all electrons):
               1          2
     1  Zn  18.862871   0.130876
     2  O    0.130876   6.875377
          Atomic-Atomic Spin Densities.
               1          2
     1  Zn   0.000000   0.000000
     2  O    0.000000   0.000000
 Mulliken charges and spin densities:
               1          2
     1  Zn   1.006253   0.000000
     2  O   -1.006253   0.000000
 Sum of Mulliken charges =  -0.00000   0.00000
 Mulliken charges and spin densities with hydrogens summed into heavy atoms:
               1          2
     1  Zn   1.006253   0.000000
     2  O   -1.006253   0.000000
 Electronic spatial extent (au):  <R**2>=             65.1732
 Charge=              0.0000 electrons
 Dipole moment (field-independent basis, Debye):
    X=              0.0000    Y=              0.0000    Z=              4.3760  Tot=              4.3760
 Quadrupole moment (field-independent basis, Debye-Ang):
   XX=            -18.2303   YY=            -18.2303   ZZ=            -19.2031
   XY=              0.0000   XZ=              0.0000   YZ=              0.0000
 Traceless Quadrupole moment (field-independent basis, Debye-Ang):
   XX=              0.3243   YY=              0.3243   ZZ=             -0.6485
   XY=              0.0000   XZ=              0.0000   YZ=              0.0000
 Octapole moment (field-independent basis, Debye-Ang**2):
  XXX=              0.0000  YYY=              0.0000  ZZZ=             11.6742  XYY=              0.0000
  XXY=              0.0000  XXZ=              2.8250  XZZ=              0.0000  YZZ=              0.0000
  YYZ=              2.8250  XYZ=              0.0000
 Hexadecapole moment (field-independent basis, Debye-Ang**3):
 XXXX=            -19.2910 YYYY=            -19.2910 ZZZZ=            -54.0684 XXXY=              0.0000
 XXXZ=              0.0000 YYYX=              0.0000 YYYZ=              0.0000 ZZZX=              0.0000
 ZZZY=              0.0000 XXYY=             -6.4303 XXZZ=            -12.2965 YYZZ=            -12.2965
 XXYZ=              0.0000 YYXZ=              0.0000 ZZXY=              0.0000
 N-N= 5.291772109200D+01 E-N=-6.990870152415D+02  KE= 1.622780895862D+02
 Symmetry A1   KE= 6.426767247538D+01
 Symmetry A2   KE= 2.196153959769D+01
 Symmetry B1   KE= 3.802443875768D+01
 Symmetry B2   KE= 3.802443875738D+01
 Symmetry A1   SP= 0.000000000000D+00
 Symmetry A2   SP= 0.000000000000D+00
 Symmetry B1   SP= 0.000000000000D+00
 Symmetry B2   SP= 0.000000000000D+00
 Orbital energies and kinetic energies (alpha):
                                 1                 2
   9         O                -0.862954         10.980770
  10         O                -0.828276          7.353664
  11         O                -0.462384          3.680180
  12         O                -0.462384          3.680180
  13         O                -0.379051          2.126415
  14         V                -0.008107          0.832367
  15         V                 0.029139          0.072404
  16         V                 0.029139          0.072404
  17         V                 0.036394          0.116114
  18         V                 0.041727          0.450526
 Total kinetic energy from orbitals= 1.622780895862D+02
                          Isotropic Fermi Contact Couplings
        Atom                 a.u.       MegaHertz       Gauss      10(-4) cm-1
     1  Zn(67)             0.00000       0.00000       0.00000       0.00000
     2  O(17)              0.00000      -0.00000      -0.00000      -0.00000
 --------------------------------------------------------
       Center         ----  Spin Dipole Couplings  ----
                      3XX-RR        3YY-RR        3ZZ-RR
 --------------------------------------------------------
     1   Atom        0.000000      0.000000      0.000000
     2   Atom        0.000000      0.000000      0.000000
 --------------------------------------------------------
                        XY            XZ            YZ
 --------------------------------------------------------
     1   Atom        0.000000      0.000000      0.000000
     2   Atom        0.000000      0.000000      0.000000
 --------------------------------------------------------


 ---------------------------------------------------------------------------------
              Anisotropic Spin Dipole Couplings in Principal Axis System
 ---------------------------------------------------------------------------------

       Atom             a.u.   MegaHertz   Gauss  10(-4) cm-1        Axes

              Baa     0.0000     0.000     0.000     0.000  1.0000  0.0000  0.0000
     1 Zn(67) Bbb     0.0000     0.000     0.000     0.000 -0.0000  1.0000  0.0000
              Bcc     0.0000     0.000     0.000     0.000  0.0000  0.0000  1.0000
 
              Baa     0.0000    -0.000    -0.000    -0.000  1.0000  0.0000  0.0000
     2 O(17)  Bbb     0.0000    -0.000    -0.000    -0.000 -0.0000  1.0000  0.0000
              Bcc     0.0000    -0.000    -0.000    -0.000  0.0000  0.0000  1.0000
 

 ---------------------------------------------------------------------------------

 No NMR shielding tensors so no spin-rotation constants.
 Leave Link  601 at Tue Mar 27 14:04:58 2018, MaxMem= 10737418240 cpu:             199.3 elap:               6.5
 (Enter /home1/apps/gaussian/16rA.03/g16/l9999.exe)

 Test job not archived.
 1\1\GINC-C403-134\SP\ROCCSD(T)-Full\Gen\O1Zn1\GWANG18\27-Mar-2018\0\\#
 P ROCCSD(T)=(MaxCyc=150, Full)/Gen SCF=(maxcycle=400) Pseudo=Read Inte
 gral(NoXCTest) Pop=Regular MaxDisk=500GB Guess=Read IOp(5/15=2)\\ZnO\\
 0,1\Zn,0,0.,0.,0.\O,0,0.,0.,1.2\\Version=ES64L-G16RevA.03\State=1-SG\H
 F=-240.8852176\MP2=-242.3080642\MP3=-242.1241511\PUHF=-240.8852176\PMP
 2-0=-242.3080642\MP4SDQ=-242.2260472\CCSD=-242.1822137\CCSD(T)=-242.23
 17775\RMSD=3.940e-09\PG=C*V [C*(O1Zn1)]\\@


 OPTIMIST - A PESSIMIST WHO LACKS EXPERIENCE
 Job cpu time:       3 days  0 hours 15 minutes 46.5 seconds.
 Elapsed time:       0 days  2 hours 16 minutes  5.9 seconds.
 File lengths (MBytes):  RWF=  17505 Int=      0 D2E=      0 Chk=     18 Scr=      1
 Normal termination of Gaussian 16 at Tue Mar 27 14:04:59 2018.
