 Entering Gaussian System, Link 0=g16
 Initial command:
 /home1/apps/gaussian/16rA.03/g16/l1.exe "/tmp/Gau-456688.inp" -scrdir="/tmp/"
 Entering Link 1 = /home1/apps/gaussian/16rA.03/g16/l1.exe PID=    456689.
  
 Copyright (c) 1988,1990,1992,1993,1995,1998,2003,2009,2016,
            Gaussian, Inc.  All Rights Reserved.
  
 This is part of the Gaussian(R) 16 program.  It is based on
 the Gaussian(R) 09 system (copyright 2009, Gaussian, Inc.),
 the Gaussian(R) 03 system (copyright 2003, Gaussian, Inc.),
 the Gaussian(R) 98 system (copyright 1998, Gaussian, Inc.),
 the Gaussian(R) 94 system (copyright 1995, Gaussian, Inc.),
 the Gaussian 92(TM) system (copyright 1992, Gaussian, Inc.),
 the Gaussian 90(TM) system (copyright 1990, Gaussian, Inc.),
 the Gaussian 88(TM) system (copyright 1988, Gaussian, Inc.),
 the Gaussian 86(TM) system (copyright 1986, Carnegie Mellon
 University), and the Gaussian 82(TM) system (copyright 1983,
 Carnegie Mellon University). Gaussian is a federally registered
 trademark of Gaussian, Inc.
  
 This software contains proprietary and confidential information,
 including trade secrets, belonging to Gaussian, Inc.
  
 This software is provided under written license and may be
 used, copied, transmitted, or stored only in accord with that
 written license.
  
 The following legend is applicable only to US Government
 contracts under FAR:
  
                    RESTRICTED RIGHTS LEGEND
  
 Use, reproduction and disclosure by the US Government is
 subject to restrictions as set forth in subparagraphs (a)
 and (c) of the Commercial Computer Software - Restricted
 Rights clause in FAR 52.227-19.
  
 Gaussian, Inc.
 340 Quinnipiac St., Bldg. 40, Wallingford CT 06492
  
  
 ---------------------------------------------------------------
 Warning -- This program may not be used in any manner that
 competes with the business of Gaussian, Inc. or will provide
 assistance to any competitor of Gaussian, Inc.  The licensee
 of this program is prohibited from giving any competitor of
 Gaussian, Inc. access to this program.  By using this program,
 the user acknowledges that Gaussian, Inc. is engaged in the
 business of creating and licensing software in the field of
 computational chemistry and represents and warrants to the
 licensee that it is not a competitor of Gaussian, Inc. and that
 it will not use this program in any manner prohibited above.
 ---------------------------------------------------------------
  

 Cite this work as:
 Gaussian 16, Revision A.03,
 M. J. Frisch, G. W. Trucks, H. B. Schlegel, G. E. Scuseria, 
 M. A. Robb, J. R. Cheeseman, G. Scalmani, V. Barone, 
 G. A. Petersson, H. Nakatsuji, X. Li, M. Caricato, A. V. Marenich, 
 J. Bloino, B. G. Janesko, R. Gomperts, B. Mennucci, H. P. Hratchian, 
 J. V. Ortiz, A. F. Izmaylov, J. L. Sonnenberg, D. Williams-Young, 
 F. Ding, F. Lipparini, F. Egidi, J. Goings, B. Peng, A. Petrone, 
 T. Henderson, D. Ranasinghe, V. G. Zakrzewski, J. Gao, N. Rega, 
 G. Zheng, W. Liang, M. Hada, M. Ehara, K. Toyota, R. Fukuda, 
 J. Hasegawa, M. Ishida, T. Nakajima, Y. Honda, O. Kitao, H. Nakai, 
 T. Vreven, K. Throssell, J. A. Montgomery, Jr., J. E. Peralta, 
 F. Ogliaro, M. J. Bearpark, J. J. Heyd, E. N. Brothers, K. N. Kudin, 
 V. N. Staroverov, T. A. Keith, R. Kobayashi, J. Normand, 
 K. Raghavachari, A. P. Rendell, J. C. Burant, S. S. Iyengar, 
 J. Tomasi, M. Cossi, J. M. Millam, M. Klene, C. Adamo, R. Cammi, 
 J. W. Ochterski, R. L. Martin, K. Morokuma, O. Farkas, 
 J. B. Foresman, and D. J. Fox, Gaussian, Inc., Wallingford CT, 2016.
 
 ******************************************
 Gaussian 16:  ES64L-G16RevA.03 25-Dec-2016
                14-Mar-2018 
 ******************************************
 %MEM=160GB
 %CPU=0-31
 SetSPE:  set environment variable "MP_BIND" = "yes"
 SetSPE:  set environment variable "MP_BLIST" = "0,1,2,3,4,5,6,7,8,9,10,11,12,13,14,15,16,17,18,19,20,21,22,23,24,25,26,27,28,29,30,31"
 Will use up to   32 processors via shared memory.
 %RWF=/scratch/04843/aannabe/gaussian/
 %Int=/scratch/04843/aannabe/gaussian/
 %D2E=/scratch/04843/aannabe/gaussian/
 %NoSave
 %CHK=TiO
 ----------------------------------------------------------------------
 #P ROCCSD(T)=(maxcyc=150, Window=(7,0), SaveAmplitudes, ReadAmplitudes
 )/Gen 5d 7f SCF=(maxcycles=300) Integral(NoXCTest, DKHSO) MaxDisk=500G
 B Pop=Regular Guess=Read
 ----------------------------------------------------------------------
 1/38=1,172=1/1;
 2/12=2,17=6,18=5,40=1/2;
 3/5=7,8=11,11=2,25=1,30=1,47=8,91=5,116=101/1,2,3;
 4/5=1/1;
 5/5=2,7=300,38=6/2;
 8/5=-1,6=4,9=120000,10=91,24=1,37=7/1,4;
 9/5=7,6=150,14=2,77=1/13;
 6//1;
 99/5=1,9=1/99;
 Leave Link    1 at Wed Mar 14 14:14:03 2018, MaxMem= 21474836480 cpu:               2.1 elap:               0.1
 (Enter /home1/apps/gaussian/16rA.03/g16/l101.exe)
 ---
 TiO
 ---
 Symbolic Z-matrix:
 Charge =  0 Multiplicity = 3
 Ti                    0.        0.        0. 
 O                     0.        0.        1.6 
 
 ITRead=  0  0
 MicOpt= -1 -1
 NAtoms=      2 NQM=        2 NQMF=       0 NMMI=      0 NMMIF=      0
                NMic=       0 NMicF=      0.
                    Isotopes and Nuclear Properties:
 (Nuclear quadrupole moments (NQMom) in fm**2, nuclear magnetic moments (NMagM)
  in nuclear magnetons)

  Atom         1           2
 IAtWgt=          48          16
 AtmWgt=  47.9479467  15.9949146
 NucSpn=           0           0
 AtZEff=  -0.0000000  -0.0000000
 NQMom=    0.0000000   0.0000000
 NMagM=    0.0000000   0.0000000
 AtZNuc=  22.0000000   8.0000000
 Leave Link  101 at Wed Mar 14 14:14:03 2018, MaxMem= 21474836480 cpu:               2.7 elap:               0.1
 (Enter /home1/apps/gaussian/16rA.03/g16/l202.exe)
                          Input orientation:                          
 ---------------------------------------------------------------------
 Center     Atomic      Atomic             Coordinates (Angstroms)
 Number     Number       Type             X           Y           Z
 ---------------------------------------------------------------------
      1         22           0        0.000000    0.000000    0.000000
      2          8           0        0.000000    0.000000    1.600000
 ---------------------------------------------------------------------
 Stoichiometry    OTi(3)
 Framework group  C*V[C*(OTi)]
 Deg. of freedom     1
 Full point group                 C*V     NOp   4
 Largest Abelian subgroup         C2V     NOp   4
 Largest concise Abelian subgroup C1      NOp   1
                         Standard orientation:                         
 ---------------------------------------------------------------------
 Center     Atomic      Atomic             Coordinates (Angstroms)
 Number     Number       Type             X           Y           Z
 ---------------------------------------------------------------------
      1         22           0        0.000000    0.000000    0.426667
      2          8           0        0.000000    0.000000   -1.173333
 ---------------------------------------------------------------------
 Rotational constants (GHZ):           0.0000000          16.4595274          16.4595274
 Leave Link  202 at Wed Mar 14 14:14:03 2018, MaxMem= 21474836480 cpu:               0.5 elap:               0.0
 (Enter /home1/apps/gaussian/16rA.03/g16/l301.exe)
 General basis read from cards:  (5D, 7F)
 Centers:       1
 S 1 1.00
     Exponent=  9.3170340000D+06 Coefficients=  1.0000000000D+00
 S 1 1.00
     Exponent=  1.3949710000D+06 Coefficients=  1.0000000000D+00
 S 1 1.00
     Exponent=  3.1745310000D+05 Coefficients=  1.0000000000D+00
 S 1 1.00
     Exponent=  8.9921000000D+04 Coefficients=  1.0000000000D+00
 S 1 1.00
     Exponent=  2.9338160000D+04 Coefficients=  1.0000000000D+00
 S 1 1.00
     Exponent=  1.0592660000D+04 Coefficients=  1.0000000000D+00
 S 1 1.00
     Exponent=  4.1320560000D+03 Coefficients=  1.0000000000D+00
 S 1 1.00
     Exponent=  1.7142350000D+03 Coefficients=  1.0000000000D+00
 S 1 1.00
     Exponent=  7.4791510000D+02 Coefficients=  1.0000000000D+00
 S 1 1.00
     Exponent=  3.4019910000D+02 Coefficients=  1.0000000000D+00
 S 1 1.00
     Exponent=  1.6020600000D+02 Coefficients=  1.0000000000D+00
 S 1 1.00
     Exponent=  7.7588510000D+01 Coefficients=  1.0000000000D+00
 S 1 1.00
     Exponent=  3.8044890000D+01 Coefficients=  1.0000000000D+00
 S 1 1.00
     Exponent=  1.7353620000D+01 Coefficients=  1.0000000000D+00
 S 1 1.00
     Exponent=  8.6420620000D+00 Coefficients=  1.0000000000D+00
 S 1 1.00
     Exponent=  4.3044040000D+00 Coefficients=  1.0000000000D+00
 S 1 1.00
     Exponent=  1.9377180000D+00 Coefficients=  1.0000000000D+00
 S 1 1.00
     Exponent=  9.3659400000D-01 Coefficients=  1.0000000000D+00
 S 1 1.00
     Exponent=  4.3262400000D-01 Coefficients=  1.0000000000D+00
 S 1 1.00
     Exponent=  1.0735200000D-01 Coefficients=  1.0000000000D+00
 S 1 1.00
     Exponent=  5.2034000000D-02 Coefficients=  1.0000000000D+00
 S 1 1.00
     Exponent=  2.4038000000D-02 Coefficients=  1.0000000000D+00
 S 1 1.00
     Exponent=  4.0519000000D+00 Coefficients=  1.0000000000D+00
 S 1 1.00
     Exponent=  1.0592000000D+00 Coefficients=  1.0000000000D+00
 S 1 1.00
     Exponent=  1.1100000000D-02 Coefficients=  1.0000000000D+00
 P 1 1.00
     Exponent=  2.5537330000D+04 Coefficients=  1.0000000000D+00
 P 1 1.00
     Exponent=  6.0422430000D+03 Coefficients=  1.0000000000D+00
 P 1 1.00
     Exponent=  1.9626530000D+03 Coefficients=  1.0000000000D+00
 P 1 1.00
     Exponent=  7.5173380000D+02 Coefficients=  1.0000000000D+00
 P 1 1.00
     Exponent=  3.1988330000D+02 Coefficients=  1.0000000000D+00
 P 1 1.00
     Exponent=  1.4643000000D+02 Coefficients=  1.0000000000D+00
 P 1 1.00
     Exponent=  7.0748610000D+01 Coefficients=  1.0000000000D+00
 P 1 1.00
     Exponent=  3.5590880000D+01 Coefficients=  1.0000000000D+00
 P 1 1.00
     Exponent=  1.8368930000D+01 Coefficients=  1.0000000000D+00
 P 1 1.00
     Exponent=  9.6586550000D+00 Coefficients=  1.0000000000D+00
 P 1 1.00
     Exponent=  5.1367300000D+00 Coefficients=  1.0000000000D+00
 P 1 1.00
     Exponent=  2.6988720000D+00 Coefficients=  1.0000000000D+00
 P 1 1.00
     Exponent=  1.3897030000D+00 Coefficients=  1.0000000000D+00
 P 1 1.00
     Exponent=  7.0316300000D-01 Coefficients=  1.0000000000D+00
 P 1 1.00
     Exponent=  3.4412300000D-01 Coefficients=  1.0000000000D+00
 P 1 1.00
     Exponent=  1.4137500000D-01 Coefficients=  1.0000000000D+00
 P 1 1.00
     Exponent=  6.0791000000D-02 Coefficients=  1.0000000000D+00
 P 1 1.00
     Exponent=  2.5831000000D-02 Coefficients=  1.0000000000D+00
 P 1 1.00
     Exponent=  4.8241000000D+00 Coefficients=  1.0000000000D+00
 P 1 1.00
     Exponent=  1.2211000000D+00 Coefficients=  1.0000000000D+00
 P 1 1.00
     Exponent=  1.0980000000D-02 Coefficients=  1.0000000000D+00
 D 1 1.00
     Exponent=  1.9997200000D+02 Coefficients=  1.0000000000D+00
 D 1 1.00
     Exponent=  5.9186900000D+01 Coefficients=  1.0000000000D+00
 D 1 1.00
     Exponent=  2.2601300000D+01 Coefficients=  1.0000000000D+00
 D 1 1.00
     Exponent=  9.5739100000D+00 Coefficients=  1.0000000000D+00
 D 1 1.00
     Exponent=  4.3177100000D+00 Coefficients=  1.0000000000D+00
 D 1 1.00
     Exponent=  2.0237300000D+00 Coefficients=  1.0000000000D+00
 D 1 1.00
     Exponent=  9.4716900000D-01 Coefficients=  1.0000000000D+00
 D 1 1.00
     Exponent=  4.3387700000D-01 Coefficients=  1.0000000000D+00
 D 1 1.00
     Exponent=  1.9212600000D-01 Coefficients=  1.0000000000D+00
 D 1 1.00
     Exponent=  8.1404000000D-02 Coefficients=  1.0000000000D+00
 D 1 1.00
     Exponent=  3.2233000000D-02 Coefficients=  1.0000000000D+00
 D 1 1.00
     Exponent=  2.7829000000D+00 Coefficients=  1.0000000000D+00
 D 1 1.00
     Exponent=  1.3657000000D+00 Coefficients=  1.0000000000D+00
 D 1 1.00
     Exponent=  1.2760000000D-02 Coefficients=  1.0000000000D+00
 F 1 1.00
     Exponent=  3.7192000000D+00 Coefficients=  1.0000000000D+00
 F 1 1.00
     Exponent=  1.4838000000D+00 Coefficients=  1.0000000000D+00
 F 1 1.00
     Exponent=  5.9200000000D-01 Coefficients=  1.0000000000D+00
 F 1 1.00
     Exponent=  1.7960000000D-01 Coefficients=  1.0000000000D+00
 F 1 1.00
     Exponent=  5.4490000000D-02 Coefficients=  1.0000000000D+00
 G 1 1.00
     Exponent=  3.2099000000D+00 Coefficients=  1.0000000000D+00
 G 1 1.00
     Exponent=  1.2652000000D+00 Coefficients=  1.0000000000D+00
 G 1 1.00
     Exponent=  3.9470000000D-01 Coefficients=  1.0000000000D+00
 G 1 1.00
     Exponent=  1.2313000000D-01 Coefficients=  1.0000000000D+00
 H 1 1.00
     Exponent=  2.7676000000D+00 Coefficients=  1.0000000000D+00
 H 1 1.00
     Exponent=  8.5240000000D-01 Coefficients=  1.0000000000D+00
 H 1 1.00
     Exponent=  2.6253000000D-01 Coefficients=  1.0000000000D+00
 ****
 Centers:       2
 S 1 1.00
     Exponent=  6.1420000000D+04 Coefficients=  1.0000000000D+00
 S 1 1.00
     Exponent=  9.1990000000D+03 Coefficients=  1.0000000000D+00
 S 1 1.00
     Exponent=  2.0910000000D+03 Coefficients=  1.0000000000D+00
 S 1 1.00
     Exponent=  5.9090000000D+02 Coefficients=  1.0000000000D+00
 S 1 1.00
     Exponent=  1.9230000000D+02 Coefficients=  1.0000000000D+00
 S 1 1.00
     Exponent=  6.9320000000D+01 Coefficients=  1.0000000000D+00
 S 1 1.00
     Exponent=  2.6970000000D+01 Coefficients=  1.0000000000D+00
 S 1 1.00
     Exponent=  1.1100000000D+01 Coefficients=  1.0000000000D+00
 S 1 1.00
     Exponent=  4.6820000000D+00 Coefficients=  1.0000000000D+00
 S 1 1.00
     Exponent=  1.4280000000D+00 Coefficients=  1.0000000000D+00
 S 1 1.00
     Exponent=  5.5470000000D-01 Coefficients=  1.0000000000D+00
 S 1 1.00
     Exponent=  2.0670000000D-01 Coefficients=  1.0000000000D+00
 S 1 1.00
     Exponent=  1.2974000000D+01 Coefficients=  1.0000000000D+00
 S 1 1.00
     Exponent=  3.4900000000D+01 Coefficients=  1.0000000000D+00
 S 1 1.00
     Exponent=  9.3881000000D+01 Coefficients=  1.0000000000D+00
 S 1 1.00
     Exponent=  6.9590000000D-02 Coefficients=  1.0000000000D+00
 P 1 1.00
     Exponent=  6.3420000000D+01 Coefficients=  1.0000000000D+00
 P 1 1.00
     Exponent=  1.4660000000D+01 Coefficients=  1.0000000000D+00
 P 1 1.00
     Exponent=  4.4590000000D+00 Coefficients=  1.0000000000D+00
 P 1 1.00
     Exponent=  1.5310000000D+00 Coefficients=  1.0000000000D+00
 P 1 1.00
     Exponent=  5.3020000000D-01 Coefficients=  1.0000000000D+00
 P 1 1.00
     Exponent=  1.7500000000D-01 Coefficients=  1.0000000000D+00
 P 1 1.00
     Exponent=  1.4475000000D+01 Coefficients=  1.0000000000D+00
 P 1 1.00
     Exponent=  4.2730000000D+01 Coefficients=  1.0000000000D+00
 P 1 1.00
     Exponent=  1.2614000000D+02 Coefficients=  1.0000000000D+00
 P 1 1.00
     Exponent=  5.3480000000D-02 Coefficients=  1.0000000000D+00
 D 1 1.00
     Exponent=  3.7750000000D+00 Coefficients=  1.0000000000D+00
 D 1 1.00
     Exponent=  1.3000000000D+00 Coefficients=  1.0000000000D+00
 D 1 1.00
     Exponent=  4.4400000000D-01 Coefficients=  1.0000000000D+00
 D 1 1.00
     Exponent=  1.4927000000D+01 Coefficients=  1.0000000000D+00
 D 1 1.00
     Exponent=  5.7544000000D+01 Coefficients=  1.0000000000D+00
 D 1 1.00
     Exponent=  1.5400000000D-01 Coefficients=  1.0000000000D+00
 F 1 1.00
     Exponent=  2.6660000000D+00 Coefficients=  1.0000000000D+00
 F 1 1.00
     Exponent=  8.5900000000D-01 Coefficients=  1.0000000000D+00
 F 1 1.00
     Exponent=  2.6483000000D+01 Coefficients=  1.0000000000D+00
 F 1 1.00
     Exponent=  3.2400000000D-01 Coefficients=  1.0000000000D+00
 G 1 1.00
     Exponent=  1.8460000000D+00 Coefficients=  1.0000000000D+00
 G 1 1.00
     Exponent=  7.1400000000D-01 Coefficients=  1.0000000000D+00
 ****
 Ernie: Thresh=  0.10000D-02 Tol=  0.10000D-05 Strict=F.
 There are   213 symmetry adapted cartesian basis functions of A1  symmetry.
 There are    56 symmetry adapted cartesian basis functions of A2  symmetry.
 There are   114 symmetry adapted cartesian basis functions of B1  symmetry.
 There are   114 symmetry adapted cartesian basis functions of B2  symmetry.
 There are   157 symmetry adapted basis functions of A1  symmetry.
 There are    47 symmetry adapted basis functions of A2  symmetry.
 There are    90 symmetry adapted basis functions of B1  symmetry.
 There are    90 symmetry adapted basis functions of B2  symmetry.
   384 basis functions,   497 primitive gaussians,   497 cartesian basis functions
    16 alpha electrons       14 beta electrons
       nuclear repulsion energy        58.2094932012 Hartrees.
 IExCor=    0 DFT=F Ex=HF Corr=None ExCW=0 ScaHFX=  1.000000
 ScaDFX=  1.000000  1.000000  1.000000  1.000000 ScalE2=  1.000000  1.000000
 IRadAn=      5 IRanWt=     -1 IRanGd=            0 ICorTp=0 IEmpDi=  4
 NAtoms=    2 NActive=    2 NUniq=    2 SFac= 1.00D+00 NAtFMM=   60 NAOKFM=F Big=F
 Integral buffers will be    131072 words long.
 Raffenetti 2 integral format.
 Two-electron integral symmetry is turned on.
 FoFCou: FMM=F IPFlag=           8 FMFlag=           0 FMFlg1=           0
         NFxFlg=           0 DoJE=F BraDBF=T KetDBF=T FulRan=T
         wScrn=  0.000000 ICntrl=       600 IOpCl=  3 I1Cent=           6 NGrid=           0
         NMat0=    1 NMatS0=      2 NMatT0=    0 NMatD0=    1 NMtDS0=    0 NMtDT0=    0
 Symmetry not used in FoFCou.
 Finite nuclear repulsion energy        58.2094932012.
 Leave Link  301 at Wed Mar 14 14:14:03 2018, MaxMem= 21474836480 cpu:               5.2 elap:               0.2
 (Enter /home1/apps/gaussian/16rA.03/g16/l302.exe)
 Using DK4 one-electron Hamiltonian with SO, DoBoet=T.
 NPDir=0 NMtPBC=     1 NCelOv=     1 NCel=       1 NClECP=     1 NCelD=      1
         NCelK=      1 NCelE2=     1 NClLst=     1 CellRange=     0.0.
 One-electron integrals computed using PRISM.
 One-electron integral symmetry used in STVInt
 FoFCou: FMM=F IPFlag=           8 FMFlag=      100000 FMFlg1=           0
         NFxFlg=           0 DoJE=T BraDBF=F KetDBF=T FulRan=T
         wScrn=  0.000000 ICntrl=       500 IOpCl=  0 I1Cent=           4 NGrid=           0
         NMat0=    1 NMatS0=      1 NMatT0=    0 NMatD0=    1 NMtDS0=    0 NMtDT0=    0
 Symmetry not used in FoFCou.
 UnConB:  Uncontracting AO basis from    384 functions to    384 functions (excluding duplicates).
 RelInt: Using uncontracted basis, NUnBas=   384 NBsUse=   384 0.100E-13 EigKep=  2.60D-07 EigRej= -1.00D+00
 NBasis=   384 RedAO= T EigKep=  2.14D-06  NBF=   157    47    90    90
 NBsUse=   380 1.00D-06 EigRej=  4.74D-07 NBFU=   155    47    89    89
 Leave Link  302 at Wed Mar 14 14:14:08 2018, MaxMem= 21474836480 cpu:             135.2 elap:               4.9
 (Enter /home1/apps/gaussian/16rA.03/g16/l303.exe)
 DipDrv:  MaxL=1.
 Leave Link  303 at Wed Mar 14 14:14:08 2018, MaxMem= 21474836480 cpu:               1.6 elap:               0.1
 (Enter /home1/apps/gaussian/16rA.03/g16/l401.exe)
 Initial guess from the checkpoint file:  "TiO.chk"
 B after Tr=     0.000000    0.000000    0.000000
         Rot=    1.000000    0.000000    0.000000    0.000000 Ang=   0.00 deg.
 Guess basis will be translated and rotated to current coordinates.
 JPrj=2 DoOrth=T DoCkMO=T.
 Initial guess orbital symmetries:
       Occupied  (SG) (SG) (SG) (SG) (PI) (PI) (SG) (SG) (PI) (PI)
                 (SG) (SG) (PI) (PI) (SG) (?A)
       Virtual   (PI) (PI) (SG) (SG) (PI) (PI) (?A) (SG) (?A) (PI)
                 (PI) (SG) (?A) (SG) (SG) (PI) (PI) (?A) (PI) (PI)
                 (SG) (?A) (PI) (PI) (SG) (PI) (PI) (PHI) (PHI)
                 (SG) (DLTA) (DLTA) (SG) (PI) (PI) (SG) (SG) (PI)
                 (PI) (?A) (?A) (PI) (PI) (SG) (SG) (DLTA) (DLTA)
                 (PI) (PI) (SG) (?B) (?B) (PHI) (PHI) (DLTA) (DLTA)
                 (?C) (?C) (?C) (?C) (SG) (SG) (DLTA) (DLTA) (PI)
                 (PI) (SG) (PI) (PI) (SG) (PI) (PI) (?A) (SG) (?A)
                 (PI) (PI) (SG) (PHI) (PHI) (SG) (DLTA) (DLTA)
                 (PI) (PI) (DLTA) (DLTA) (SG) (SG) (PI) (PI) (PHI)
                 (PHI) (DLTA) (DLTA) (?B) (?B) (PHI) (PHI) (PI)
                 (PI) (DLTA) (DLTA) (SG) (SG) (PI) (PI) (SG) (PI)
                 (PI) (PI) (PI) (SG) (DLTA) (DLTA) (SG) (PI) (PI)
                 (SG) (SG) (PHI) (PHI) (DLTA) (DLTA) (PI) (PI)
                 (DLTA) (DLTA) (SG) (PI) (PI) (SG) (SG) (?C) (?C)
                 (DLTA) (DLTA) (?C) (?C) (PI) (PI) (SG) (SG) (PHI)
                 (PHI) (?B) (?B) (DLTA) (DLTA) (PI) (PI) (SG) (DLTA)
                 (DLTA) (PI) (PI) (SG) (PI) (PI) (SG) (SG) (SG)
                 (PI) (PI) (SG) (DLTA) (DLTA) (PI) (PI) (SG) (SG)
                 (SG) (PI) (PI) (SG) (PI) (PI) (DLTA) (DLTA) (PI)
                 (PI) (SG) (SG) (DLTA) (DLTA) (PI) (PI) (SG) (SG)
                 (SG) (PI) (PI) (SG) (PI) (PI) (SG) (SG) (DLTA)
                 (DLTA) (PI) (PI) (SG) (PI) (PI) (SG) (SG) (PI)
                 (PI) (SG) (SG) (PI) (PI) (SG) (SG) (PI) (PI) (SG)
                 (SG) (SG) (PI) (PI) (SG) (SG) (SG) (PI) (PI) (SG)
                 (SG) (SG) (SG) (PI) (PI) (SG) (SG) (SG) (SG) (SG)
                 (DLTA) (SG) (SG) (DLTA) (SG) (SG) (SG) (SG) (SG)
                 (DLTA) (DLTA) (SG) (SG) (DLTA) (SG) (SG) (SG)
                 (DLTA) (SG) (SG) (?B) (DLTA) (SG) (DLTA) (SG)
                 (?B) (DLTA) (SG) (DLTA) (SG) (DLTA) (?B) (SG)
                 (SG) (DLTA) (DLTA) (DLTA) (SG) (SG) (DLTA) (SG)
                 (?B) (?B) (?B) (DLTA) (DLTA) (DLTA) (DLTA) (DLTA)
                 (DLTA) (?B) (DLTA) (DLTA) (?B) (DLTA) (DLTA) (DLTA)
                 (?B) (DLTA) (DLTA) (DLTA) (DLTA) (?B) (?B) (?B)
                 (PI) (PI) (PI) (PI) (PI) (PI) (PI) (PHI) (PI)
                 (PI) (PI) (PHI) (PI) (PI) (PHI) (PI) (PI) (PI)
                 (PHI) (?D) (PI) (PHI) (PHI) (PI) (PHI) (PI) (PI)
                 (PHI) (?D) (PHI) (?D) (PI) (PI) (PI) (PI) (PI)
                 (PI) (PI) (PHI) (PI) (PI) (PI) (PHI) (PI) (PI)
                 (PHI) (PI) (PI) (PI) (PHI) (?D) (PI) (PHI) (PHI)
                 (PI) (PHI) (PI) (PI) (PHI) (?D) (PHI) (?D)
 Leave Link  401 at Wed Mar 14 14:14:08 2018, MaxMem= 21474836480 cpu:               8.5 elap:               0.3
 (Enter /home1/apps/gaussian/16rA.03/g16/l502.exe)
 Keep R1 and R2 ints in memory in symmetry-blocked form, NReq=3425113631.
 FoFCou: FMM=F IPFlag=           8 FMFlag=           0 FMFlg1=           0
         NFxFlg=           0 DoJE=F BraDBF=F KetDBF=F FulRan=T
         wScrn=  0.000000 ICntrl=       600 IOpCl=  0 I1Cent=           0 NGrid=           0
         NMat0=    1 NMatS0=  73920 NMatT0=    0 NMatD0=    1 NMtDS0=    0 NMtDT0=    0
 Petite list used in FoFCou.
 Restricted open shell SCF:
 Using DIIS extrapolation, IDIIS=  1040.
 NGot= 21474836480 LenX= 20088504193 LenY= 20088256687
 Requested convergence on RMS density matrix=1.00D-08 within 300 cycles.
 Requested convergence on MAX density matrix=1.00D-06.
 Requested convergence on             energy=1.00D-06.
 No special actions if energy rises.

 Cycle   1  Pass 1  IDiag  1:
 E= -927.713261224331    
 DIIS: error= 5.55D-01 at cycle   1 NSaved=   1.
 NSaved= 1 IEnMin= 1 EnMin= -927.713261224331     IErMin= 1 ErrMin= 5.55D-01
 ErrMax= 5.55D-01  0.00D+00 EMaxC= 1.00D-01 BMatC= 8.29D+01 BMatP= 8.29D+01
 IDIUse=3 WtCom= 0.00D+00 WtEn= 1.00D+00
 Coeff-Com:  0.100D+01
 Coeff-En:   0.100D+01
 Coeff:      0.100D+01
 Fock symm off for IB=4 I1=   63 I=  354 J=  287 Cut=1.00D-07 Err=1.03D-07
 Fock matrix is not symmetric: symmetry in diagonalization turned off.
 Gap=     0.008 Goal=   None    Shift=    0.000
 GapD=    0.008 DampG=0.250 DampE=0.125 DampFc=0.1250 IDamp=-1.
 Damping current iteration by 1.25D-01
 RMSDP=2.33D-03 MaxDP=1.88D-01              OVMax= 1.00D+00

 Cycle   2  Pass 1  IDiag  1:
 E= -927.713669856462     Delta-E=       -0.000408632131 Rises=F Damp=T
 DIIS: error= 4.85D-01 at cycle   2 NSaved=   2.
 NSaved= 2 IEnMin= 2 EnMin= -927.713669856462     IErMin= 2 ErrMin= 4.85D-01
 ErrMax= 4.85D-01  0.00D+00 EMaxC= 1.00D-01 BMatC= 6.35D+01 BMatP= 8.29D+01
 IDIUse=3 WtCom= 0.00D+00 WtEn= 1.00D+00
 Coeff-Com: -0.700D+01 0.800D+01
 Coeff-En:   0.000D+00 0.100D+01
 Coeff:      0.000D+00 0.100D+01
 Gap=     0.085 Goal=   None    Shift=    0.000
 RMSDP=2.04D-03 MaxDP=1.64D-01 DE=-4.09D-04 OVMax= 1.60D-03

 Cycle   3  Pass 1  IDiag  1:
 E= -927.716561801730     Delta-E=       -0.002891945268 Rises=F Damp=F
 DIIS: error= 3.93D-04 at cycle   3 NSaved=   3.
 NSaved= 3 IEnMin= 3 EnMin= -927.716561801730     IErMin= 3 ErrMin= 3.93D-04
 ErrMax= 3.93D-04  0.00D+00 EMaxC= 1.00D-01 BMatC= 9.62D-06 BMatP= 6.35D+01
 IDIUse=3 WtCom= 9.96D-01 WtEn= 3.93D-03
 Coeff-Com: -0.567D+00 0.648D+00 0.919D+00
 Coeff-En:   0.000D+00 0.000D+00 0.100D+01
 Coeff:     -0.565D+00 0.646D+00 0.919D+00
 Gap=     0.085 Goal=   None    Shift=    0.000
 RMSDP=9.50D-05 MaxDP=8.34D-03 DE=-2.89D-03 OVMax= 7.17D-04

 Cycle   4  Pass 1  IDiag  1:
 E= -927.716564485720     Delta-E=       -0.000002683989 Rises=F Damp=F
 DIIS: error= 1.25D-04 at cycle   4 NSaved=   4.
 NSaved= 4 IEnMin= 4 EnMin= -927.716564485720     IErMin= 4 ErrMin= 1.25D-04
 ErrMax= 1.25D-04  0.00D+00 EMaxC= 1.00D-01 BMatC= 1.62D-06 BMatP= 9.62D-06
 IDIUse=3 WtCom= 9.99D-01 WtEn= 1.25D-03
 Coeff-Com: -0.452D+00 0.516D+00 0.122D+00 0.813D+00
 Coeff-En:   0.000D+00 0.000D+00 0.000D+00 0.100D+01
 Coeff:     -0.451D+00 0.515D+00 0.122D+00 0.814D+00
 Gap=     0.085 Goal=   None    Shift=    0.000
 RMSDP=8.36D-06 MaxDP=6.98D-04 DE=-2.68D-06 OVMax= 6.78D-04

 Cycle   5  Pass 1  IDiag  1:
 E= -927.716564634108     Delta-E=       -0.000000148388 Rises=F Damp=F
 DIIS: error= 9.70D-05 at cycle   5 NSaved=   5.
 NSaved= 5 IEnMin= 5 EnMin= -927.716564634108     IErMin= 5 ErrMin= 9.70D-05
 ErrMax= 9.70D-05  0.00D+00 EMaxC= 1.00D-01 BMatC= 1.23D-06 BMatP= 1.62D-06
 IDIUse=1 WtCom= 1.00D+00 WtEn= 0.00D+00
 Coeff-Com: -0.391D+00 0.447D+00-0.872D-01 0.465D+00 0.566D+00
 Coeff:     -0.391D+00 0.447D+00-0.872D-01 0.465D+00 0.566D+00
 Gap=     0.085 Goal=   None    Shift=    0.000
 RMSDP=6.48D-06 MaxDP=1.70D-03 DE=-1.48D-07 OVMax= 8.29D-04

 Cycle   6  Pass 1  IDiag  1:
 E= -927.716565408193     Delta-E=       -0.000000774085 Rises=F Damp=F
 DIIS: error= 5.61D-05 at cycle   6 NSaved=   6.
 NSaved= 6 IEnMin= 6 EnMin= -927.716565408193     IErMin= 6 ErrMin= 5.61D-05
 ErrMax= 5.61D-05  0.00D+00 EMaxC= 1.00D-01 BMatC= 1.33D-07 BMatP= 1.23D-06
 IDIUse=1 WtCom= 1.00D+00 WtEn= 0.00D+00
 Coeff-Com: -0.364D+00 0.416D+00-0.756D-01 0.232D+00 0.297D+00 0.495D+00
 Coeff:     -0.364D+00 0.416D+00-0.756D-01 0.232D+00 0.297D+00 0.495D+00
 Gap=     0.085 Goal=   None    Shift=    0.000
 RMSDP=2.85D-06 MaxDP=8.10D-04 DE=-7.74D-07 OVMax= 6.57D-04

 Cycle   7  Pass 1  IDiag  1:
 E= -927.716565461228     Delta-E=       -0.000000053035 Rises=F Damp=F
 DIIS: error= 6.30D-05 at cycle   7 NSaved=   7.
 NSaved= 7 IEnMin= 7 EnMin= -927.716565461228     IErMin= 6 ErrMin= 5.61D-05
 ErrMax= 6.30D-05  0.00D+00 EMaxC= 1.00D-01 BMatC= 1.02D-07 BMatP= 1.33D-07
 IDIUse=1 WtCom= 1.00D+00 WtEn= 0.00D+00
 Coeff-Com: -0.332D+00 0.380D+00-0.607D-01 0.641D-01 0.839D-01 0.385D+00
 Coeff-Com:  0.480D+00
 Coeff:     -0.332D+00 0.380D+00-0.607D-01 0.641D-01 0.839D-01 0.385D+00
 Coeff:      0.480D+00
 Gap=     0.085 Goal=   None    Shift=    0.000
 RMSDP=2.46D-06 MaxDP=7.51D-04 DE=-5.30D-08 OVMax= 3.19D-04

 Cycle   8  Pass 1  IDiag  1:
 E= -927.716565520560     Delta-E=       -0.000000059332 Rises=F Damp=F
 DIIS: error= 4.74D-05 at cycle   8 NSaved=   8.
 NSaved= 8 IEnMin= 8 EnMin= -927.716565520560     IErMin= 8 ErrMin= 4.74D-05
 ErrMax= 4.74D-05  0.00D+00 EMaxC= 1.00D-01 BMatC= 7.13D-08 BMatP= 1.02D-07
 IDIUse=1 WtCom= 1.00D+00 WtEn= 0.00D+00
 Coeff-Com: -0.279D+00 0.319D+00-0.442D-01-0.252D-01-0.391D-01 0.252D-01
 Coeff-Com:  0.187D+00 0.857D+00
 Coeff:     -0.279D+00 0.319D+00-0.442D-01-0.252D-01-0.391D-01 0.252D-01
 Coeff:      0.187D+00 0.857D+00
 Gap=     0.085 Goal=   None    Shift=    0.000
 RMSDP=3.67D-06 MaxDP=1.18D-03 DE=-5.93D-08 OVMax= 6.93D-05

 Cycle   9  Pass 1  IDiag  1:
 E= -927.716565547528     Delta-E=       -0.000000026968 Rises=F Damp=F
 DIIS: error= 4.19D-05 at cycle   9 NSaved=   9.
 NSaved= 9 IEnMin= 9 EnMin= -927.716565547528     IErMin= 9 ErrMin= 4.19D-05
 ErrMax= 4.19D-05  0.00D+00 EMaxC= 1.00D-01 BMatC= 5.07D-08 BMatP= 7.13D-08
 IDIUse=1 WtCom= 1.00D+00 WtEn= 0.00D+00
 Coeff-Com: -0.241D+00 0.276D+00-0.384D-01-0.108D-01-0.205D-01-0.290D-01
 Coeff-Com:  0.302D-01 0.260D+00 0.774D+00
 Coeff:     -0.241D+00 0.276D+00-0.384D-01-0.108D-01-0.205D-01-0.290D-01
 Coeff:      0.302D-01 0.260D+00 0.774D+00
 Gap=     0.085 Goal=   None    Shift=    0.000
 RMSDP=2.76D-06 MaxDP=8.97D-04 DE=-2.70D-08 OVMax= 4.27D-05

 Cycle  10  Pass 1  IDiag  1:
 Density matrix breaks symmetry, PCut= 1.00D-07
 Density matrix has no symmetry -- integrals replicated.
 E= -927.716565565048     Delta-E=       -0.000000017519 Rises=F Damp=F
 DIIS: error= 3.55D-05 at cycle  10 NSaved=  10.
 NSaved=10 IEnMin=10 EnMin= -927.716565565048     IErMin=10 ErrMin= 3.55D-05
 ErrMax= 3.55D-05  0.00D+00 EMaxC= 1.00D-01 BMatC= 3.78D-08 BMatP= 5.07D-08
 IDIUse=1 WtCom= 1.00D+00 WtEn= 0.00D+00
 Coeff-Com: -0.164D+00 0.188D+00-0.274D-01 0.165D-01 0.164D-01-0.209D-01
 Coeff-Com: -0.881D-01-0.510D+00 0.172D+00 0.142D+01
 Coeff:     -0.164D+00 0.188D+00-0.274D-01 0.165D-01 0.164D-01-0.209D-01
 Coeff:     -0.881D-01-0.510D+00 0.172D+00 0.142D+01
 Gap=     0.085 Goal=   None    Shift=    0.000
 RMSDP=5.50D-06 MaxDP=1.78D-03 DE=-1.75D-08 OVMax= 8.16D-05

 Cycle  11  Pass 1  IDiag  1:
 Density matrix breaks symmetry, PCut= 1.00D-07
 Density matrix has no symmetry -- integrals replicated.
 E= -927.716565592542     Delta-E=       -0.000000027494 Rises=F Damp=F
 DIIS: error= 2.44D-05 at cycle  11 NSaved=  11.
 NSaved=11 IEnMin=11 EnMin= -927.716565592542     IErMin=11 ErrMin= 2.44D-05
 ErrMax= 2.44D-05  0.00D+00 EMaxC= 1.00D-01 BMatC= 1.75D-08 BMatP= 3.78D-08
 IDIUse=1 WtCom= 1.00D+00 WtEn= 0.00D+00
 Coeff-Com: -0.123D+00 0.140D+00-0.204D-01 0.962D-02 0.913D-02 0.194D-02
 Coeff-Com: -0.224D-01-0.233D+00-0.164D+00 0.488D+00 0.914D+00
 Coeff:     -0.123D+00 0.140D+00-0.204D-01 0.962D-02 0.913D-02 0.194D-02
 Coeff:     -0.224D-01-0.233D+00-0.164D+00 0.488D+00 0.914D+00
 Gap=     0.085 Goal=   None    Shift=    0.000
 RMSDP=2.91D-06 MaxDP=9.41D-04 DE=-2.75D-08 OVMax= 5.12D-05

 Cycle  12  Pass 1  IDiag  1:
 Density matrix breaks symmetry, PCut= 1.00D-07
 Density matrix has no symmetry -- integrals replicated.
 E= -927.716565602837     Delta-E=       -0.000000010294 Rises=F Damp=F
 DIIS: error= 1.82D-05 at cycle  12 NSaved=  12.
 NSaved=12 IEnMin=12 EnMin= -927.716565602837     IErMin=12 ErrMin= 1.82D-05
 ErrMax= 1.82D-05  0.00D+00 EMaxC= 1.00D-01 BMatC= 9.81D-09 BMatP= 1.75D-08
 IDIUse=1 WtCom= 1.00D+00 WtEn= 0.00D+00
 Coeff-Com: -0.767D-01 0.877D-01-0.125D-01-0.195D-02-0.403D-02 0.211D-01
 Coeff-Com:  0.579D-01 0.168D+00-0.370D+00-0.643D+00 0.120D+01 0.578D+00
 Coeff:     -0.767D-01 0.877D-01-0.125D-01-0.195D-02-0.403D-02 0.211D-01
 Coeff:      0.579D-01 0.168D+00-0.370D+00-0.643D+00 0.120D+01 0.578D+00
 Gap=     0.085 Goal=   None    Shift=    0.000
 RMSDP=3.25D-06 MaxDP=1.05D-03 DE=-1.03D-08 OVMax= 5.25D-05

 Cycle  13  Pass 1  IDiag  1:
 Density matrix breaks symmetry, PCut= 1.00D-07
 Density matrix has no symmetry -- integrals replicated.
 E= -927.716565610980     Delta-E=       -0.000000008143 Rises=F Damp=F
 DIIS: error= 1.13D-05 at cycle  13 NSaved=  13.
 NSaved=13 IEnMin=13 EnMin= -927.716565610980     IErMin=13 ErrMin= 1.13D-05
 ErrMax= 1.13D-05  0.00D+00 EMaxC= 1.00D-01 BMatC= 3.81D-09 BMatP= 9.81D-09
 IDIUse=1 WtCom= 1.00D+00 WtEn= 0.00D+00
 Coeff-Com: -0.477D-01 0.546D-01-0.762D-02-0.452D-02-0.677D-02 0.103D-01
 Coeff-Com:  0.464D-01 0.194D+00-0.150D+00-0.541D+00 0.288D+00 0.271D+00
 Coeff-Com:  0.893D+00
 Coeff:     -0.477D-01 0.546D-01-0.762D-02-0.452D-02-0.677D-02 0.103D-01
 Coeff:      0.464D-01 0.194D+00-0.150D+00-0.541D+00 0.288D+00 0.271D+00
 Coeff:      0.893D+00
 Gap=     0.085 Goal=   None    Shift=    0.000
 RMSDP=2.14D-06 MaxDP=6.98D-04 DE=-8.14D-09 OVMax= 2.99D-05

 Cycle  14  Pass 1  IDiag  1:
 Density matrix breaks symmetry, PCut= 1.00D-07
 Density matrix has no symmetry -- integrals replicated.
 E= -927.716565614194     Delta-E=       -0.000000003214 Rises=F Damp=F
 DIIS: error= 7.09D-06 at cycle  14 NSaved=  14.
 NSaved=14 IEnMin=14 EnMin= -927.716565614194     IErMin=14 ErrMin= 7.09D-06
 ErrMax= 7.09D-06  0.00D+00 EMaxC= 1.00D-01 BMatC= 1.48D-09 BMatP= 3.81D-09
 IDIUse=1 WtCom= 1.00D+00 WtEn= 0.00D+00
 Coeff-Com: -0.288D-01 0.330D-01-0.457D-02-0.234D-02-0.380D-02 0.110D-03
 Coeff-Com:  0.149D-01 0.772D-01 0.231D-01-0.143D+00-0.217D+00-0.338D-01
 Coeff-Com:  0.439D+00 0.846D+00
 Coeff:     -0.288D-01 0.330D-01-0.457D-02-0.234D-02-0.380D-02 0.110D-03
 Coeff:      0.149D-01 0.772D-01 0.231D-01-0.143D+00-0.217D+00-0.338D-01
 Coeff:      0.439D+00 0.846D+00
 Gap=     0.085 Goal=   None    Shift=    0.000
 RMSDP=1.34D-06 MaxDP=4.34D-04 DE=-3.21D-09 OVMax= 2.08D-05

 Cycle  15  Pass 1  IDiag  1:
 Density matrix breaks symmetry, PCut= 1.00D-07
 Density matrix has no symmetry -- integrals replicated.
 E= -927.716565615444     Delta-E=       -0.000000001250 Rises=F Damp=F
 DIIS: error= 4.28D-06 at cycle  15 NSaved=  15.
 NSaved=15 IEnMin=15 EnMin= -927.716565615444     IErMin=15 ErrMin= 4.28D-06
 ErrMax= 4.28D-06  0.00D+00 EMaxC= 1.00D-01 BMatC= 5.42D-10 BMatP= 1.48D-09
 IDIUse=1 WtCom= 1.00D+00 WtEn= 0.00D+00
 Coeff-Com: -0.122D-01 0.139D-01-0.194D-02 0.420D-03-0.216D-04-0.642D-02
 Coeff-Com: -0.125D-01-0.430D-01 0.129D+00 0.208D+00-0.432D+00-0.229D+00
 Coeff-Com: -0.195D+00 0.947D+00 0.634D+00
 Coeff:     -0.122D-01 0.139D-01-0.194D-02 0.420D-03-0.216D-04-0.642D-02
 Coeff:     -0.125D-01-0.430D-01 0.129D+00 0.208D+00-0.432D+00-0.229D+00
 Coeff:     -0.195D+00 0.947D+00 0.634D+00
 Gap=     0.085 Goal=   None    Shift=    0.000
 RMSDP=1.17D-06 MaxDP=3.79D-04 DE=-1.25D-09 OVMax= 1.84D-05

 Cycle  16  Pass 1  IDiag  1:
 Density matrix breaks symmetry, PCut= 1.00D-07
 Density matrix has no symmetry -- integrals replicated.
 E= -927.716565616045     Delta-E=       -0.000000000601 Rises=F Damp=F
 DIIS: error= 1.79D-06 at cycle  16 NSaved=  16.
 NSaved=16 IEnMin=16 EnMin= -927.716565616045     IErMin=16 ErrMin= 1.79D-06
 ErrMax= 1.79D-06  0.00D+00 EMaxC= 1.00D-01 BMatC= 9.70D-11 BMatP= 5.42D-10
 IDIUse=1 WtCom= 1.00D+00 WtEn= 0.00D+00
 Coeff-Com: -0.403D-02 0.460D-02-0.703D-03 0.130D-02 0.156D-02-0.927D-03
 Coeff-Com: -0.809D-02-0.488D-01 0.264D-01 0.137D+00 0.266D-01-0.448D-01
 Coeff-Com: -0.395D+00-0.217D+00 0.344D+00 0.118D+01
 Coeff:     -0.403D-02 0.460D-02-0.703D-03 0.130D-02 0.156D-02-0.927D-03
 Coeff:     -0.809D-02-0.488D-01 0.264D-01 0.137D+00 0.266D-01-0.448D-01
 Coeff:     -0.395D+00-0.217D+00 0.344D+00 0.118D+01
 Gap=     0.085 Goal=   None    Shift=    0.000
 RMSDP=5.91D-07 MaxDP=1.93D-04 DE=-6.01D-10 OVMax= 8.74D-06

 Cycle  17  Pass 1  IDiag  1:
 Density matrix breaks symmetry, PCut= 1.00D-07
 Density matrix has no symmetry -- integrals replicated.
 E= -927.716565616167     Delta-E=       -0.000000000122 Rises=F Damp=F
 DIIS: error= 6.01D-07 at cycle  17 NSaved=  17.
 NSaved=17 IEnMin=17 EnMin= -927.716565616167     IErMin=17 ErrMin= 6.01D-07
 ErrMax= 6.01D-07  0.00D+00 EMaxC= 1.00D-01 BMatC= 1.05D-11 BMatP= 9.70D-11
 IDIUse=1 WtCom= 1.00D+00 WtEn= 0.00D+00
 Coeff-Com: -0.181D-02 0.207D-02-0.317D-03 0.431D-03 0.547D-03 0.559D-03
 Coeff-Com: -0.114D-02-0.129D-01-0.773D-02 0.272D-01 0.707D-01 0.117D-01
 Coeff-Com: -0.152D+00-0.233D+00 0.736D-01 0.545D+00 0.677D+00
 Coeff:     -0.181D-02 0.207D-02-0.317D-03 0.431D-03 0.547D-03 0.559D-03
 Coeff:     -0.114D-02-0.129D-01-0.773D-02 0.272D-01 0.707D-01 0.117D-01
 Coeff:     -0.152D+00-0.233D+00 0.736D-01 0.545D+00 0.677D+00
 Gap=     0.085 Goal=   None    Shift=    0.000
 RMSDP=1.62D-07 MaxDP=5.26D-05 DE=-1.22D-10 OVMax= 2.60D-06

 Cycle  18  Pass 1  IDiag  1:
 Density matrix breaks symmetry, PCut= 1.00D-07
 Density matrix has no symmetry -- integrals replicated.
 E= -927.716565616178     Delta-E=       -0.000000000011 Rises=F Damp=F
 DIIS: error= 2.71D-07 at cycle  18 NSaved=  18.
 NSaved=18 IEnMin=18 EnMin= -927.716565616178     IErMin=18 ErrMin= 2.71D-07
 ErrMax= 2.71D-07  0.00D+00 EMaxC= 1.00D-01 BMatC= 2.15D-12 BMatP= 1.05D-11
 IDIUse=1 WtCom= 1.00D+00 WtEn= 0.00D+00
 Coeff-Com: -0.157D-03 0.179D-03-0.228D-04-0.199D-03-0.234D-03 0.855D-03
 Coeff-Com:  0.252D-02 0.977D-02-0.175D-01-0.339D-01 0.451D-01 0.265D-01
 Coeff-Com:  0.338D-01-0.101D+00-0.763D-01-0.308D-01 0.469D+00 0.672D+00
 Coeff:     -0.157D-03 0.179D-03-0.228D-04-0.199D-03-0.234D-03 0.855D-03
 Coeff:      0.252D-02 0.977D-02-0.175D-01-0.339D-01 0.451D-01 0.265D-01
 Coeff:      0.338D-01-0.101D+00-0.763D-01-0.308D-01 0.469D+00 0.672D+00
 Gap=     0.085 Goal=   None    Shift=    0.000
 RMSDP=1.18D-07 MaxDP=3.83D-05 DE=-1.07D-11 OVMax= 1.81D-06

 Cycle  19  Pass 1  IDiag  1:
 Density matrix breaks symmetry, PCut= 1.00D-07
 Density matrix has no symmetry -- integrals replicated.
 E= -927.716565616184     Delta-E=       -0.000000000006 Rises=F Damp=F
 DIIS: error= 2.26D-08 at cycle  19 NSaved=  19.
 NSaved=19 IEnMin=19 EnMin= -927.716565616184     IErMin=19 ErrMin= 2.26D-08
 ErrMax= 2.26D-08  0.00D+00 EMaxC= 1.00D-01 BMatC= 2.28D-14 BMatP= 2.15D-12
 IDIUse=1 WtCom= 1.00D+00 WtEn= 0.00D+00
 Coeff-Com: -0.370D-04 0.423D-04-0.259D-05-0.160D-03-0.197D-03 0.544D-03
 Coeff-Com:  0.175D-02 0.711D-02-0.109D-01-0.236D-01 0.244D-01 0.163D-01
 Coeff-Com:  0.315D-01-0.472D-01-0.528D-01-0.572D-01 0.240D+00 0.417D+00
 Coeff-Com:  0.453D+00
 Coeff:     -0.370D-04 0.423D-04-0.259D-05-0.160D-03-0.197D-03 0.544D-03
 Coeff:      0.175D-02 0.711D-02-0.109D-01-0.236D-01 0.244D-01 0.163D-01
 Coeff:      0.315D-01-0.472D-01-0.528D-01-0.572D-01 0.240D+00 0.417D+00
 Coeff:      0.453D+00
 Gap=     0.085 Goal=   None    Shift=    0.000
 RMSDP=8.06D-09 MaxDP=2.59D-06 DE=-5.91D-12 OVMax= 3.72D-07

 Cycle  20  Pass 1  IDiag  1:
 E= -927.716565616181     Delta-E=        0.000000000002 Rises=F Damp=F
 DIIS: error= 6.55D-09 at cycle  20 NSaved=  20.
 NSaved=20 IEnMin=19 EnMin= -927.716565616184     IErMin=20 ErrMin= 6.55D-09
 ErrMax= 6.55D-09  0.00D+00 EMaxC= 1.00D-01 BMatC= 4.41D-15 BMatP= 2.28D-14
 IDIUse=1 WtCom= 1.00D+00 WtEn= 0.00D+00
 Large coefficients: NSaved= 20 BigCof=    0.00 CofMax=   10.00 Det=-6.84D-15
 Inversion failed.  Reducing to 19 matrices.
 Large coefficients: NSaved= 19 BigCof=    0.00 CofMax=   10.00 Det=-6.84D-15
 Inversion failed.  Reducing to 18 matrices.
 Large coefficients: NSaved= 18 BigCof=    0.00 CofMax=   10.00 Det=-6.85D-15
 Inversion failed.  Reducing to 17 matrices.
 Large coefficients: NSaved= 17 BigCof=    0.00 CofMax=   10.00 Det=-6.93D-15
 Inversion failed.  Reducing to 16 matrices.
 Large coefficients: NSaved= 16 BigCof=    0.00 CofMax=   10.00 Det=-8.97D-15
 Inversion failed.  Reducing to 15 matrices.
 Coeff-Com:  0.948D-04 0.126D-03-0.109D-04-0.545D-03-0.868D-03-0.504D-03
 Coeff-Com:  0.356D-03 0.499D-02 0.787D-02-0.327D-02-0.226D-01-0.411D-01
 Coeff-Com:  0.316D-02 0.433D+00 0.620D+00
 Coeff:      0.948D-04 0.126D-03-0.109D-04-0.545D-03-0.868D-03-0.504D-03
 Coeff:      0.356D-03 0.499D-02 0.787D-02-0.327D-02-0.226D-01-0.411D-01
 Coeff:      0.316D-02 0.433D+00 0.620D+00
 Gap=     0.085 Goal=   None    Shift=    0.000
 RMSDP=2.15D-09 MaxDP=6.91D-07 DE= 2.16D-12 OVMax= 2.86D-07

 SCF Done:  E(ROHF) =  -927.716565616     A.U. after   20 cycles
            NFock= 20  Conv=0.22D-08     -V/T= 1.9720
 <Sx>= 0.0000 <Sy>= 0.0000 <Sz>= 1.0000 <S**2>= 2.0000 S= 1.0000
 <L.S>=  0.00000000000    
 KE= 9.544654877482D+02 PE=-2.343035117385D+03 EE= 4.026435708193D+02
 Annihilation of the first spin contaminant:
 S**2 before annihilation     2.0000,   after     2.0000
 Leave Link  502 at Wed Mar 14 14:14:58 2018, MaxMem= 21474836480 cpu:             695.3 elap:              49.6
 (Enter /home1/apps/gaussian/16rA.03/g16/l801.exe)
 Windowed orbitals will be sorted by symmetry type.
 An orbital has undefined symmetry, so N**3 symmetry is turned off.
 GenMOA:  NOpAll=  4 NOp2=4 NOpUse=  4 JSym2X=1
 FoFJK:  IHMeth= 1 ICntrl=       0 DoSepK=F KAlg= 0 I1Cent=           0 FoldK=F
 IRaf=         0 NMat=       1 IRICut=       1 DoRegI=T DoRafI=F ISym2E= 1 IDoP0=0 IntGTp=1.
 FoFCou: FMM=F IPFlag=           8 FMFlag=      100000 FMFlg1=           0
         NFxFlg=           0 DoJE=F BraDBF=F KetDBF=F FulRan=T
         wScrn=  0.000000 ICntrl=         0 IOpCl=  1 I1Cent=           0 NGrid=           0
         NMat0=    1 NMatS0=      1 NMatT0=    0 NMatD0=    1 NMtDS0=    0 NMtDT0=    0
 Petite list used in FoFCou.
 <Sx>= 0.0000 <Sy>= 0.0000 <Sz>= 1.0000 <S**2>= 2.0000 S= 1.0000
 Range of M.O.s used for correlation:     7   380
 NBasis=   384 NAE=    16 NBE=    14 NFC=     6 NFV=     0
 NROrb=    374 NOA=    10 NOB=     8 NVA=   364 NVB=   366

 **** Warning!!: The largest alpha MO coefficient is  0.28018616D+03


 **** Warning!!: The largest beta MO coefficient is  0.28018863D+03

 Singles contribution to E2=   -0.2794506031D-02
 Leave Link  801 at Wed Mar 14 14:15:04 2018, MaxMem= 21474836480 cpu:             183.3 elap:               5.8
 (Enter /home1/apps/gaussian/16rA.03/g16/l804.exe)
 Open-shell transformation, MDV= 21474836480 ITran=4 ISComp=1.
 Unit  1 TFree=       4469351 TCopy=       3429951.
 Semi-Direct transformation.
 ModeAB=           4 MOrb=            10 LenV=   21470638253
 LASXX=    256867645 LTotXX=   256867645 LenRXX=   515979520
 LTotAB=   259111875 MaxLAS=   458366920 LenRXY=           0
 NonZer=   772847165 LenScr=  1163816960 LnRSAI=   458366920
 LnScr1=   690247680 LExtra=    19047420 Total=   2847458500
 MaxDsk= 67108864000 SrtSym=           T ITran=            4
 DoSDTr:  NPSUse= 32
 JobTyp=1 Pass  1:  I=   1 to  10.
 (rs|ai) integrals will be sorted in core.
 Complete sort for first half transformation.
 First half transformation complete.
 Begin second half transformation for I=  10.
 Complete sort for second half transformation.
 Second half transformation complete.
 ModeAB=           4 MOrb=             8 LenV=   21470638253
 LASXX=    206101594 LTotXX=   206101594 LenRXX=   403000114
 LTotAB=   196898520 MaxLAS=   366693536 LenRXY=           0
 NonZer=   609101708 LenScr=   917235712 LnRSAI=   366693536
 LnScr1=   552198144 LExtra=   535026940 Total=   2774154446
 MaxDsk= 67108864000 SrtSym=           T ITran=            4
 DoSDTr:  NPSUse= 32
 JobTyp=2 Pass  1:  I=   1 to   8.
 (rs|ai) integrals will be sorted in core.
 Complete sort for first half transformation.
 First half transformation complete.
 Complete sort for second half transformation.
 Second half transformation complete.
 SymMOI:  orbitals are not symmetric.
 Spin components of T(2) and E(2):
     alpha-alpha T2 =       0.3441810641D-01 E2=     -0.1177997443D+00
     alpha-beta  T2 =       0.1284280867D+00 E2=     -0.5387894244D+00
     beta-beta   T2 =       0.2549935929D-01 E2=     -0.9102808338D-01
 ANorm=    0.1090653632D+01
 E2 =    -0.7504117581D+00 EUMP2 =    -0.92846697737429D+03
 (S**2,0)=  0.20000D+01           (S**2,1)=  0.20000D+01
 E(PUHF)=      -0.92771656562D+03        E(PMP2)=      -0.92846697737D+03
 Recovering and transforming amplitudes from chk file.
 B after Tr=     0.000000    0.000000    0.000000
         Rot=    1.000000    0.000000    0.000000    0.000000 Ang=   0.00 deg.
 Alpha occ  Sing. vals= 1.000000D+00 1.000000D+00 1.000000D+00 1.000000D+00 1.000000D+00 9.999998D-01 9.999993D-01 9.999993D-01 9.999992D-01 9.999989D-01
 Alpha occ  Sing. vals= 9.999973D-01 9.999967D-01 9.999912D-01 9.999750D-01 9.999674D-01 9.999674D-01
 Alpha occ  NOrbO=    16 NOrbN=    16 NSVal=    16 ThrEig=  0.900000.
 TrMax= 1.000000D+00 PrMax= 1.000000D+00 Trace(Pr)= 1.000000D+01
 B after Tr=     0.000000    0.000000    0.000000
         Rot=    1.000000    0.000000    0.000000    0.000000 Ang=   0.00 deg.
 Alpha virt Sing. vals= 1.000000D+00 1.000000D+00 1.000000D+00 1.000000D+00 1.000000D+00 1.000000D+00 1.000000D+00 1.000000D+00 1.000000D+00 1.000000D+00
 Alpha virt Sing. vals= 1.000000D+00 1.000000D+00 1.000000D+00 1.000000D+00 1.000000D+00 1.000000D+00 1.000000D+00 1.000000D+00 1.000000D+00 1.000000D+00
 Alpha virt Sing. vals= 9.999999D-01 9.999999D-01 9.999999D-01 9.999999D-01 9.999999D-01 9.999999D-01 9.999999D-01 9.999999D-01 9.999999D-01 9.999999D-01
 Alpha virt Sing. vals= 9.999999D-01 9.999999D-01 9.999998D-01 9.999998D-01 9.999998D-01 9.999997D-01 9.999997D-01 9.999996D-01 9.999995D-01 9.999995D-01
 Alpha virt Sing. vals= 9.999995D-01 9.999995D-01 9.999994D-01 9.999993D-01 9.999993D-01 9.999991D-01 9.999990D-01 9.999988D-01 9.999979D-01 9.999959D-01
 Alpha virt Sing. vals= 9.999959D-01 9.999957D-01 9.999953D-01 9.999953D-01 9.999952D-01 9.999948D-01 9.999948D-01 9.999948D-01 9.999888D-01 9.999860D-01
 Alpha virt Sing. vals= 9.999851D-01 9.999840D-01 9.999840D-01 9.999807D-01 9.999730D-01 9.999730D-01 9.999672D-01 9.999659D-01 9.999656D-01 9.999651D-01
 Alpha virt Sing. vals= 9.999626D-01 9.999626D-01 9.999506D-01 9.999506D-01 9.999466D-01 9.999336D-01 9.999236D-01 9.999221D-01 9.999181D-01 9.999175D-01
 Alpha virt Sing. vals= 9.999174D-01 9.999074D-01 9.998987D-01 9.998987D-01 9.998607D-01 9.998607D-01 9.998010D-01 9.998010D-01 9.997937D-01 9.997716D-01
 Alpha virt Sing. vals= 9.997716D-01 9.997588D-01 9.997537D-01 9.997537D-01 9.997486D-01 9.997464D-01 9.997064D-01 9.997041D-01 9.997040D-01 9.997038D-01
 Alpha virt Sing. vals= 9.997038D-01 9.996741D-01 9.996689D-01 9.996689D-01 9.996453D-01 9.996453D-01 9.995819D-01 9.995730D-01 9.995713D-01 9.995713D-01
 Alpha virt Sing. vals= 9.995660D-01 9.995660D-01 9.995276D-01 9.995276D-01 9.994778D-01 9.994777D-01 9.993946D-01 9.993447D-01 9.993447D-01 9.992237D-01
 Alpha virt Sing. vals= 9.990236D-01 9.990130D-01 9.990130D-01 9.988854D-01 9.987229D-01 9.987211D-01 9.987121D-01 9.986586D-01 9.986580D-01 9.984366D-01
 Alpha virt Sing. vals= 9.984366D-01 9.982810D-01 9.978824D-01 9.978824D-01 9.978379D-01 9.978289D-01 9.978289D-01 9.976899D-01 9.976894D-01 9.972914D-01
 Alpha virt Sing. vals= 9.972914D-01 9.970389D-01 9.970389D-01 9.968059D-01 9.968059D-01 9.966397D-01 9.966397D-01 9.965481D-01 9.964091D-01 9.963872D-01
 Alpha virt Sing. vals= 9.963614D-01 9.963614D-01 9.962171D-01 9.962171D-01 9.959745D-01 9.959745D-01 9.959475D-01 9.959475D-01 9.958056D-01 9.957833D-01
 Alpha virt Sing. vals= 9.957833D-01 9.951073D-01 9.948752D-01 9.948752D-01 9.948731D-01 9.930940D-01 9.922426D-01 9.919174D-01 9.919172D-01 9.915736D-01
 Alpha virt Sing. vals= 9.902061D-01 9.902061D-01 9.889469D-01 9.889469D-01 9.882133D-01 9.879538D-01 9.879538D-01 9.867288D-01 9.867288D-01 9.838961D-01
 Alpha virt Sing. vals= 9.808243D-01 9.808243D-01 9.807354D-01 9.807353D-01 9.800687D-01 9.782885D-01 9.782885D-01 9.778860D-01 9.776721D-01 9.776721D-01
 Alpha virt Sing. vals= 9.745092D-01 9.745092D-01 9.725716D-01 9.725715D-01 9.717106D-01 9.717080D-01 9.666474D-01 9.536827D-01 9.536827D-01 9.532555D-01
 Alpha virt Sing. vals= 9.528540D-01 9.528540D-01 9.489570D-01 9.424527D-01 9.407851D-01 9.390245D-01 9.390245D-01 9.385194D-01 9.357575D-01 9.357575D-01
 Alpha virt Sing. vals= 9.357533D-01 9.291521D-01 9.291521D-01 9.257679D-01 9.257679D-01 9.203429D-01 9.203429D-01 9.169097D-01 9.169097D-01 8.964829D-01
 Alpha virt Sing. vals= 8.832054D-01 8.832047D-01 8.721469D-01 8.721469D-01 8.711894D-01 8.711894D-01 8.602947D-01 8.602946D-01 8.547389D-01 8.547389D-01
 Alpha virt Sing. vals= 8.504846D-01 8.501472D-01 8.501472D-01 8.286404D-01 8.123332D-01 8.123332D-01 4.952579D-01
 Alpha virt NOrbO=   237 NOrbN=   364 NSVal=   219 ThrEig=  0.900000.
 TrMax= 9.948549D-01 PrMax= 9.995286D-01 Trace(Pr)= 2.190000D+02
 B after Tr=     0.000000    0.000000    0.000000
         Rot=    1.000000    0.000000    0.000000    0.000000 Ang=   0.00 deg.
 Beta  occ  Sing. vals= 1.000000D+00 1.000000D+00 1.000000D+00 1.000000D+00 1.000000D+00 9.999998D-01 9.999993D-01 9.999993D-01 9.999992D-01 9.999989D-01
 Beta  occ  Sing. vals= 9.999972D-01 9.999750D-01 9.999674D-01 9.999674D-01
 Beta  occ  NOrbO=    14 NOrbN=    14 NSVal=    14 ThrEig=  0.900000.
 TrMax= 1.000000D+00 PrMax= 1.000000D+00 Trace(Pr)= 8.000000D+00
 B after Tr=     0.000000    0.000000    0.000000
         Rot=    1.000000    0.000000    0.000000    0.000000 Ang=   0.00 deg.
 Beta  virt Sing. vals= 1.000000D+00 1.000000D+00 1.000000D+00 1.000000D+00 1.000000D+00 1.000000D+00 1.000000D+00 1.000000D+00 1.000000D+00 1.000000D+00
 Beta  virt Sing. vals= 1.000000D+00 1.000000D+00 1.000000D+00 1.000000D+00 1.000000D+00 1.000000D+00 1.000000D+00 1.000000D+00 1.000000D+00 1.000000D+00
 Beta  virt Sing. vals= 1.000000D+00 9.999999D-01 9.999999D-01 9.999999D-01 9.999999D-01 9.999999D-01 9.999999D-01 9.999999D-01 9.999999D-01 9.999999D-01
 Beta  virt Sing. vals= 9.999999D-01 9.999999D-01 9.999999D-01 9.999998D-01 9.999998D-01 9.999998D-01 9.999998D-01 9.999997D-01 9.999997D-01 9.999996D-01
 Beta  virt Sing. vals= 9.999995D-01 9.999995D-01 9.999995D-01 9.999994D-01 9.999994D-01 9.999993D-01 9.999993D-01 9.999991D-01 9.999990D-01 9.999987D-01
 Beta  virt Sing. vals= 9.999979D-01 9.999959D-01 9.999959D-01 9.999957D-01 9.999953D-01 9.999953D-01 9.999952D-01 9.999948D-01 9.999948D-01 9.999948D-01
 Beta  virt Sing. vals= 9.999888D-01 9.999860D-01 9.999850D-01 9.999840D-01 9.999840D-01 9.999807D-01 9.999730D-01 9.999730D-01 9.999672D-01 9.999658D-01
 Beta  virt Sing. vals= 9.999651D-01 9.999651D-01 9.999626D-01 9.999626D-01 9.999506D-01 9.999506D-01 9.999466D-01 9.999336D-01 9.999236D-01 9.999221D-01
 Beta  virt Sing. vals= 9.999181D-01 9.999174D-01 9.999174D-01 9.999074D-01 9.998987D-01 9.998987D-01 9.998607D-01 9.998607D-01 9.998010D-01 9.998010D-01
 Beta  virt Sing. vals= 9.997937D-01 9.997716D-01 9.997716D-01 9.997588D-01 9.997537D-01 9.997537D-01 9.997486D-01 9.997465D-01 9.997064D-01 9.997040D-01
 Beta  virt Sing. vals= 9.997040D-01 9.997038D-01 9.997038D-01 9.996741D-01 9.996689D-01 9.996689D-01 9.996453D-01 9.996453D-01 9.995819D-01 9.995730D-01
 Beta  virt Sing. vals= 9.995713D-01 9.995713D-01 9.995660D-01 9.995660D-01 9.995276D-01 9.995276D-01 9.994777D-01 9.994777D-01 9.993945D-01 9.993447D-01
 Beta  virt Sing. vals= 9.993447D-01 9.992237D-01 9.990236D-01 9.990130D-01 9.990130D-01 9.988854D-01 9.987211D-01 9.987211D-01 9.987121D-01 9.986580D-01
 Beta  virt Sing. vals= 9.986580D-01 9.984366D-01 9.984366D-01 9.982810D-01 9.978824D-01 9.978824D-01 9.978379D-01 9.978289D-01 9.978289D-01 9.976894D-01
 Beta  virt Sing. vals= 9.976894D-01 9.972914D-01 9.972914D-01 9.970389D-01 9.970389D-01 9.968059D-01 9.968059D-01 9.966397D-01 9.966397D-01 9.965480D-01
 Beta  virt Sing. vals= 9.964091D-01 9.963871D-01 9.963614D-01 9.963614D-01 9.962171D-01 9.962171D-01 9.959745D-01 9.959745D-01 9.959475D-01 9.959475D-01
 Beta  virt Sing. vals= 9.958056D-01 9.957833D-01 9.957833D-01 9.951073D-01 9.948752D-01 9.948752D-01 9.948731D-01 9.930939D-01 9.922426D-01 9.919172D-01
 Beta  virt Sing. vals= 9.919172D-01 9.915736D-01 9.902061D-01 9.902061D-01 9.889469D-01 9.889469D-01 9.882125D-01 9.879538D-01 9.879538D-01 9.867288D-01
 Beta  virt Sing. vals= 9.867288D-01 9.838961D-01 9.808243D-01 9.808243D-01 9.807353D-01 9.807353D-01 9.800687D-01 9.782885D-01 9.782885D-01 9.778860D-01
 Beta  virt Sing. vals= 9.776721D-01 9.776721D-01 9.745092D-01 9.745092D-01 9.725715D-01 9.725715D-01 9.717080D-01 9.717080D-01 9.666473D-01 9.536827D-01
 Beta  virt Sing. vals= 9.536827D-01 9.532555D-01 9.528540D-01 9.528540D-01 9.489570D-01 9.424527D-01 9.407849D-01 9.390245D-01 9.390245D-01 9.385194D-01
 Beta  virt Sing. vals= 9.357575D-01 9.357575D-01 9.357533D-01 9.291521D-01 9.291521D-01 9.257679D-01 9.257679D-01 9.203429D-01 9.203429D-01 9.169097D-01
 Beta  virt Sing. vals= 9.169097D-01 8.964829D-01 8.832047D-01 8.832047D-01 8.721469D-01 8.721469D-01 8.711894D-01 8.711894D-01 8.602947D-01 8.602947D-01
 Beta  virt Sing. vals= 8.547389D-01 8.547389D-01 8.504847D-01 8.501472D-01 8.501472D-01 8.286403D-01 8.123332D-01 8.123332D-01 4.952580D-01
 Beta  virt NOrbO=   239 NOrbN=   366 NSVal=   221 ThrEig=  0.900000.
 TrMax= 9.998610D-01 PrMax= 9.999320D-01 Trace(Pr)= 2.210000D+02
 Leave Link  804 at Wed Mar 14 14:19:49 2018, MaxMem= 21474836480 cpu:            9086.0 elap:             284.9
 (Enter /home1/apps/gaussian/16rA.03/g16/l913.exe)
 CIDS:  MDV= 21474836480.
 Frozen-core window:  NFC=   6 NFV=   0.
 IFCWin=0 IBDFC=1 NFBD=     0     0 NFCmp=     0     0 NFFFC=     0     0
 Amplitudes recovered.
 Using DD4UQ or CC4UQ for all iterations.
 Keep R2 and R3 ints in memory in symmetry-blocked form, NReq=3425136865.
 FoFCou: FMM=F IPFlag=           8 FMFlag=           0 FMFlg1=           0
         NFxFlg=           0 DoJE=F BraDBF=F KetDBF=F FulRan=T
         wScrn=  0.000000 ICntrl=       600 IOpCl=  0 I1Cent=           0 NGrid=           0
         NMat0=    1 NMatS0=  73920 NMatT0=    0 NMatD0=    1 NMtDS0=    0 NMtDT0=    0
 Petite list used in FoFCou.
 CIDS: In Core Option IDoMem=           1.
 CCSD(T)
 =======
 Iterations= 150 Convergence= 0.100D-06
 Produce multiple copies of IABC intergrals
 Iteration Nr.   1
 **********************
 DD1Dir will call FoFMem   1 times, MxPair=       234
 NAB=    80 NAA=    45 NBB=    28.
 Maximum subspace dimension=  5
 A-vector RMS=  1.4453891D-04 Max=  1.4259223D-03 conv= 1.00D-05.
 RLE energy=       -0.7293743968
 DE(Corr)= -0.72920631     E(Corr)=     -928.44577193    
 NORM(A)=   0.11128722D+01
 Iteration Nr.   2
 **********************
 DD1Dir will call FoFMem   1 times, MxPair=       234
 NAB=    80 NAA=    45 NBB=    28.
 A-vector RMS=  6.1865695D-05 Max=  5.5296183D-04 conv= 1.00D-05.
 RLE energy=       -0.7294436225
 DE(Corr)= -0.72945750     E(CORR)=     -928.44602311     Delta=-2.51D-04
 NORM(A)=   0.11133280D+01
 Iteration Nr.   3
 **********************
 DD1Dir will call FoFMem   1 times, MxPair=       234
 NAB=    80 NAA=    45 NBB=    28.
 A-vector RMS=  3.6204289D-05 Max=  3.8895766D-04 conv= 1.00D-05.
 RLE energy=       -0.7298397272
 DE(Corr)= -0.72988788     E(CORR)=     -928.44645350     Delta=-4.30D-04
 NORM(A)=   0.11133855D+01
 Iteration Nr.   4
 **********************
 DD1Dir will call FoFMem   1 times, MxPair=       234
 NAB=    80 NAA=    45 NBB=    28.
 A-vector RMS=  3.1408503D-05 Max=  2.7698672D-04 conv= 1.00D-05.
 RLE energy=       -0.7296765552
 DE(Corr)= -0.72956675     E(CORR)=     -928.44613236     Delta= 3.21D-04
 NORM(A)=   0.11135181D+01
 Iteration Nr.   5
 **********************
 DD1Dir will call FoFMem   1 times, MxPair=       234
 NAB=    80 NAA=    45 NBB=    28.
 A-vector RMS=  1.0290403D-05 Max=  2.3747266D-04 conv= 1.00D-05.
 RLE energy=       -0.7297241108
 DE(Corr)= -0.72975047     E(CORR)=     -928.44631609     Delta=-1.84D-04
 NORM(A)=   0.11136232D+01
 Iteration Nr.   6
 **********************
 DD1Dir will call FoFMem   1 times, MxPair=       234
 NAB=    80 NAA=    45 NBB=    28.
 A-vector RMS=  5.8678458D-06 Max=  1.3338155D-04 conv= 1.00D-05.
 RLE energy=       -0.7297233081
 DE(Corr)= -0.72971269     E(CORR)=     -928.44627831     Delta= 3.78D-05
 NORM(A)=   0.11137119D+01
 Iteration Nr.   7
 **********************
 DD1Dir will call FoFMem   1 times, MxPair=       234
 NAB=    80 NAA=    45 NBB=    28.
 A-vector RMS=  2.8866754D-06 Max=  6.3813881D-05 conv= 1.00D-05.
 RLE energy=       -0.7297311551
 DE(Corr)= -0.72973038     E(CORR)=     -928.44629599     Delta=-1.77D-05
 NORM(A)=   0.11137489D+01
 Iteration Nr.   8
 **********************
 DD1Dir will call FoFMem   1 times, MxPair=       234
 NAB=    80 NAA=    45 NBB=    28.
 A-vector RMS=  1.2232448D-06 Max=  2.8921188D-05 conv= 1.00D-05.
 RLE energy=       -0.7297316051
 DE(Corr)= -0.72973107     E(CORR)=     -928.44629669     Delta=-6.99D-07
 NORM(A)=   0.11137649D+01
 Iteration Nr.   9
 **********************
 DD1Dir will call FoFMem   1 times, MxPair=       234
 NAB=    80 NAA=    45 NBB=    28.
 A-vector RMS=  9.0619441D-07 Max=  1.2767747D-05 conv= 1.00D-05.
 RLE energy=       -0.7297342809
 DE(Corr)= -0.72973354     E(CORR)=     -928.44629916     Delta=-2.46D-06
 NORM(A)=   0.11137685D+01
 Iteration Nr.  10
 **********************
 DD1Dir will call FoFMem   1 times, MxPair=       234
 NAB=    80 NAA=    45 NBB=    28.
 A-vector RMS=  2.7357145D-07 Max=  3.3171591D-06 conv= 1.00D-05.
 RLE energy=       -0.7297323637
 DE(Corr)= -0.72973235     E(CORR)=     -928.44629797     Delta= 1.19D-06
 NORM(A)=   0.11137697D+01
 Iteration Nr.  11
 **********************
 DD1Dir will call FoFMem   1 times, MxPair=       234
 NAB=    80 NAA=    45 NBB=    28.
 A-vector RMS=  2.8747255D-07 Max=  4.4346516D-06 conv= 1.00D-05.
 RLE energy=       -0.7297340302
 DE(Corr)= -0.72973428     E(CORR)=     -928.44629989     Delta=-1.92D-06
 NORM(A)=   0.11137693D+01
 Iteration Nr.  12
 **********************
 DD1Dir will call FoFMem   1 times, MxPair=       234
 NAB=    80 NAA=    45 NBB=    28.
 A-vector RMS=  1.4946160D-07 Max=  1.5284952D-06 conv= 1.00D-05.
 RLE energy=       -0.7297330061
 DE(Corr)= -0.72973259     E(CORR)=     -928.44629820     Delta= 1.69D-06
 NORM(A)=   0.11137694D+01
 Iteration Nr.  13
 **********************
 DD1Dir will call FoFMem   1 times, MxPair=       234
 NAB=    80 NAA=    45 NBB=    28.
 A-vector RMS=  7.2023983D-08 Max=  6.7982361D-07 conv= 1.00D-05.
 RLE energy=       -0.7297333688
 DE(Corr)= -0.72973360     E(CORR)=     -928.44629921     Delta=-1.01D-06
 NORM(A)=   0.11137694D+01
 Iteration Nr.  14
 **********************
 DD1Dir will call FoFMem   1 times, MxPair=       234
 NAB=    80 NAA=    45 NBB=    28.
 A-vector RMS=  4.0370517D-08 Max=  5.7281546D-07 conv= 1.00D-05.
 RLE energy=       -0.7297332947
 DE(Corr)= -0.72973323     E(CORR)=     -928.44629884     Delta= 3.67D-07
 NORM(A)=   0.11137695D+01
 Iteration Nr.  15
 **********************
 DD1Dir will call FoFMem   1 times, MxPair=       234
 NAB=    80 NAA=    45 NBB=    28.
 A-vector RMS=  1.8240867D-08 Max=  2.4160362D-07 conv= 1.00D-05.
 RLE energy=       -0.7297333143
 DE(Corr)= -0.72973330     E(CORR)=     -928.44629892     Delta=-7.49D-08
 NORM(A)=   0.11137695D+01
 CI/CC converged in   15 iterations to DelEn=-7.49D-08 Conv= 1.00D-07 ErrA1= 1.82D-08 Conv= 1.00D-05
 Wavefunction amplitudes converged. E(Corr)=     -928.44629892    
 Largest amplitude= 9.48D-02
 Time for triples=    52066.37 seconds.
 T4(CCSD)= -0.55956019D-01
 T5(CCSD)=  0.11633671D-01
 CCSD(T)= -0.92849062127D+03
 Discarding MO integrals.
 Leave Link  913 at Wed Mar 14 14:58:10 2018, MaxMem= 21474836480 cpu:           73220.0 elap:            2301.2
 (Enter /home1/apps/gaussian/16rA.03/g16/l601.exe)
 Copying SCF densities to generalized density rwf, IOpCl= 0 IROHF=1.

 **********************************************************************

            Population analysis using the SCF density.

 **********************************************************************

 Orbital symmetries:
       Occupied  (SG) (SG) (SG) (SG) (PI) (PI) (SG) (SG) (PI) (PI)
                 (SG) (SG) (PI) (PI) (SG) (?A)
       Virtual   (PI) (PI) (SG) (SG) (?A) (?A) (PI) (PI) (SG) (PI)
                 (PI) (SG) (?A) (SG) (PI) (PI) (?A) (SG) (PI) (PI)
                 (SG) (?A) (SG) (PI) (PI) (PHI) (PHI) (DLTA) (DLTA)
                 (PI) (PI) (SG) (PI) (PI) (SG) (?A) (?A) (SG) (PI)
                 (PI) (SG) (SG) (PI) (PI) (?B) (?C) (?C) (?B) (?B)
                 (?D) (?D) (?D) (?D) (?C) (?C) (SG) (PI) (PI) (PHI)
                 (PHI) (SG) (?A) (?A) (PI) (PI) (SG) (?A) (?A)
                 (SG) (PI) (PI) (PI) (PI) (SG) (PI) (PI) (SG) (PHI)
                 (PHI) (SG) (?E) (?E) (?F) (?F) (DLTA) (DLTA) (PI)
                 (PI) (SG) (DLTA) (DLTA) (PHI) (PHI) (SG) (PI)
                 (PI) (DLTA) (DLTA) (SG) (?G) (?G) (?F) (?F) (?A)
                 (?A) (SG) (?G) (?G) (?G) (?G) (?G) (?G) (?A) (?A)
                 (SG) (PI) (PI) (SG) (DLTA) (DLTA) (PI) (PI) (SG)
                 (PI) (PI) (SG) (PI) (PI) (SG) (?F) (?F) (PHI)
                 (PHI) (SG) (DLTA) (DLTA) (PI) (PI) (DLTA) (DLTA)
                 (PHI) (PHI) (SG) (PI) (PI) (DLTA) (DLTA) (PI)
                 (PI) (SG) (DLTA) (DLTA) (SG) (SG) (?H) (?H) (?F)
                 (?F) (?H) (?H) (PHI) (PHI) (DLTA) (DLTA) (PHI)
                 (PHI) (SG) (PI) (PI) (SG) (?F) (?F) (PHI) (PHI)
                 (DLTA) (DLTA) (DLTA) (DLTA) (PI) (PI) (SG) (PI)
                 (PI) (SG) (PI) (PI) (SG) (DLTA) (DLTA) (PI) (PI)
                 (SG) (PI) (PI) (SG) (?F) (?F) (PHI) (PHI) (DLTA)
                 (DLTA) (SG) (PI) (PI) (SG) (PHI) (PHI) (DLTA)
                 (DLTA) (SG) (PI) (PI) (DLTA) (DLTA) (PI) (PI)
                 (PHI) (PHI) (SG) (DLTA) (DLTA) (PI) (PI) (SG)
                 (PI) (PI) (DLTA) (DLTA) (PI) (PI) (SG) (SG) (SG)
                 (?F) (?F) (PHI) (PHI) (DLTA) (DLTA) (?F) (?F)
                 (?E) (?E) (?D) (?D) (?D) (?D) (DLTA) (DLTA) (PI)
                 (PI) (SG) (SG) (DLTA) (DLTA) (PI) (PI) (SG) (SG)
                 (PI) (PI) (PI) (PI) (SG) (SG) (SG) (DLTA) (DLTA)
                 (PI) (PI) (SG) (DLTA) (DLTA) (PI) (PI) (SG) (PI)
                 (PI) (SG) (SG) (PI) (PI) (SG) (SG) (DLTA) (DLTA)
                 (PI) (PI) (SG) (PHI) (PHI) (DLTA) (DLTA) (PI)
                 (PI) (SG) (PI) (PI) (SG) (PI) (PI) (SG) (SG) (SG)
                 (DLTA) (DLTA) (PI) (PI) (SG) (DLTA) (DLTA) (PI)
                 (PI) (SG) (PI) (PI) (SG) (SG) (PI) (PI) (SG) (SG)
                 (SG) (PI) (PI) (SG) (PI) (PI) (SG) (DLTA) (DLTA)
                 (PI) (PI) (SG) (SG) (SG) (PI) (PI) (SG) (SG) (SG)
                 (PI) (PI) (SG) (SG) (SG) (PI) (PI) (SG) (SG) (PI)
                 (PI) (SG) (SG) (SG) (PI) (PI) (SG) (SG) (SG) (SG)
                 (SG) (SG) (SG)
 Unable to determine electronic state:  an orbital has unidentified symmetry.
 Alpha  occ. eigenvalues -- -184.44823 -21.71661 -20.50626 -17.88280 -17.88280
 Alpha  occ. eigenvalues --  -17.88165  -2.98500  -1.89404  -1.89404  -1.88828
 Alpha  occ. eigenvalues --   -1.15186  -0.46740  -0.45109  -0.45109  -0.44978
 Alpha  occ. eigenvalues --   -0.26312
 Alpha virt. eigenvalues --    0.00366   0.00366   0.01461   0.02343   0.03664
 Alpha virt. eigenvalues --    0.03664   0.03697   0.03769   0.04173   0.04173
 Alpha virt. eigenvalues --    0.04203   0.05336   0.09142   0.10352   0.11581
 Alpha virt. eigenvalues --    0.11581   0.11746   0.12094   0.14103   0.14103
 Alpha virt. eigenvalues --    0.15163   0.15920   0.17951   0.19744   0.19744
 Alpha virt. eigenvalues --    0.21520   0.21520   0.21715   0.21724   0.24074
 Alpha virt. eigenvalues --    0.24074   0.24898   0.26347   0.26347   0.29837
 Alpha virt. eigenvalues --    0.31552   0.36371   0.38301   0.39144   0.39144
 Alpha virt. eigenvalues --    0.40458   0.43360   0.48257   0.48257   0.58626
 Alpha virt. eigenvalues --    0.59088   0.59198   0.60599   0.60600   0.60976
 Alpha virt. eigenvalues --    0.60976   0.61189   0.61189   0.62343   0.62483
 Alpha virt. eigenvalues --    0.65177   0.67468   0.67468   0.70633   0.70633
 Alpha virt. eigenvalues --    0.78204   0.80311   0.84210   0.85228   0.85228
 Alpha virt. eigenvalues --    0.89197   0.89443   0.91321   0.92277   1.00219
 Alpha virt. eigenvalues --    1.00219   1.20356   1.20356   1.21189   1.34503
 Alpha virt. eigenvalues --    1.34503   1.41526   1.49396   1.49396   1.52672
 Alpha virt. eigenvalues --    1.54805   1.54805   1.56062   1.56062   1.57402
 Alpha virt. eigenvalues --    1.57453   1.62091   1.62091   1.63407   1.68138
 Alpha virt. eigenvalues --    1.68250   1.73477   1.73477   1.76058   1.77380
 Alpha virt. eigenvalues --    1.77380   1.85460   1.85649   1.87469   1.92766
 Alpha virt. eigenvalues --    1.92766   1.96710   1.96718   1.96982   2.01545
 Alpha virt. eigenvalues --    2.05299   2.05299   2.06789   2.08105   2.08105
 Alpha virt. eigenvalues --    2.09327   2.09327   2.09547   2.11505   2.35593
 Alpha virt. eigenvalues --    2.55495   2.55495   2.68412   2.71175   2.71479
 Alpha virt. eigenvalues --    2.81178   2.81178   2.94102   3.31189   3.31189
 Alpha virt. eigenvalues --    3.48874   3.50335   3.50335   3.80895   3.81692
 Alpha virt. eigenvalues --    3.81692   4.00597   4.00597   4.10412   4.15235
 Alpha virt. eigenvalues --    4.15373   4.19227   4.19227   4.22152   4.25002
 Alpha virt. eigenvalues --    4.33705   4.33790   4.33790   4.40258   4.40258
 Alpha virt. eigenvalues --    4.42623   4.42632   4.61295   4.61295   4.61644
 Alpha virt. eigenvalues --    4.82918   4.83437   4.88385   5.02928   5.07519
 Alpha virt. eigenvalues --    5.07519   5.08613   5.08613   5.09688   5.09688
 Alpha virt. eigenvalues --    5.26437   5.26437   5.31294   5.32133   5.39132
 Alpha virt. eigenvalues --    5.39132   5.49089   5.63932   5.63932   5.83242
 Alpha virt. eigenvalues --    5.89860   5.89869   5.93296   5.93296   6.06668
 Alpha virt. eigenvalues --    6.07302   6.30978   6.31401   6.39917   6.39917
 Alpha virt. eigenvalues --    7.00569   7.16720   7.16720   7.18953   7.37587
 Alpha virt. eigenvalues --    7.37587   7.86370   8.08203   8.09296   8.27999
 Alpha virt. eigenvalues --    8.27999   8.73071   9.66819   9.66819  10.39064
 Alpha virt. eigenvalues --   10.75695  10.75695  10.91422  10.91422  11.03527
 Alpha virt. eigenvalues --   11.03539  11.03859  11.18756  11.18756  11.26445
 Alpha virt. eigenvalues --   12.03395  12.03395  12.19771  12.19778  12.57352
 Alpha virt. eigenvalues --   12.66668  12.66668  12.93543  12.93566  13.30848
 Alpha virt. eigenvalues --   13.30848  13.59364  13.59364  13.65022  13.77761
 Alpha virt. eigenvalues --   13.78750  14.18588  14.18588  14.34669  14.35855
 Alpha virt. eigenvalues --   14.35855  14.38853  14.39084  14.52782  14.52782
 Alpha virt. eigenvalues --   14.56647  14.74668  15.18652  15.54390  15.54393
 Alpha virt. eigenvalues --   15.55457  15.55457  15.66986  15.67070  15.86120
 Alpha virt. eigenvalues --   15.86122  15.86562  15.86562  15.90004  15.90004
 Alpha virt. eigenvalues --   16.04019  16.04019  16.04719  16.05222  16.36352
 Alpha virt. eigenvalues --   16.36352  16.41309  17.21491  24.56058  24.57098
 Alpha virt. eigenvalues --   24.66601  24.66601  24.83550  25.14425  27.51006
 Alpha virt. eigenvalues --   27.51006  27.78945  27.78945  28.09016  28.48991
 Alpha virt. eigenvalues --   36.57212  42.90870  42.92076  43.00043  43.00043
 Alpha virt. eigenvalues --   43.17897  47.19132  47.19134  47.40826  47.40826
 Alpha virt. eigenvalues --   48.01378  55.47115  55.47115  55.76229  60.42009
 Alpha virt. eigenvalues --   67.00555  67.00555  67.84893  79.23420  85.90689
 Alpha virt. eigenvalues --   85.91525  85.98382  85.98382  86.13488 103.07484
 Alpha virt. eigenvalues --  103.07484 103.09396 103.09396 103.14446 103.14446
 Alpha virt. eigenvalues --  103.16700 114.68963 114.68963 114.97234 146.50000
 Alpha virt. eigenvalues --  146.50000 147.17536 151.58692 153.45106 197.27676
 Alpha virt. eigenvalues --  197.27676 197.39366 197.39366 197.69978 210.29295
 Alpha virt. eigenvalues --  210.29668 210.35354 210.35354 210.46810 242.05010
 Alpha virt. eigenvalues --  242.05010 242.31948 280.23339 306.72485 306.72485
 Alpha virt. eigenvalues --  307.41915 374.19203 501.61791 519.67549 519.67549
 Alpha virt. eigenvalues --  519.92645 630.48679 630.48679 631.10729 668.61222
 Alpha virt. eigenvalues --  668.61314 668.65207 668.65207 668.72530 887.00682
 Alpha virt. eigenvalues --  913.284091140.449391140.449391140.670941892.57488
 Alpha virt. eigenvalues -- 2029.157732571.374122571.374122571.559894497.56151
 Alpha virt. eigenvalues -- 4902.078735966.990225966.990225967.131849609.49896
 Alpha virt. eigenvalues -- **************************************************
 Alpha virt. eigenvalues -- **************************************************
 Alpha virt. eigenvalues -- ****************************************
     Molecular Orbital Coefficients:
                          10        11        12        13        14
                           O         O         O         O         O
     Eigenvalues --    -1.88828  -1.15186  -0.46740  -0.45109  -0.45109
   1 1   Ti 1S         -0.00000  -0.00000  -0.00000  -0.00000   0.00000
   2        2S         -0.00000  -0.00000  -0.00000  -0.00000   0.00000
   3        3S         -0.00000  -0.00000  -0.00001  -0.00000   0.00000
   4        4S         -0.00000  -0.00001  -0.00001  -0.00000   0.00000
   5        5S         -0.00000  -0.00003  -0.00003  -0.00000   0.00000
   6        6S         -0.00000  -0.00007  -0.00008  -0.00000   0.00000
   7        7S         -0.00000  -0.00019  -0.00020  -0.00000   0.00000
   8        8S         -0.00000  -0.00048  -0.00052  -0.00000   0.00000
   9        9S         -0.00000  -0.00116  -0.00123  -0.00000   0.00000
  10       10S         -0.00000  -0.00260  -0.00278  -0.00000   0.00000
  11       11S         -0.00000  -0.00497  -0.00527  -0.00000   0.00000
  12       12S         -0.00000  -0.00762  -0.00819  -0.00000   0.00000
  13       13S         -0.00000  -0.00533  -0.00553  -0.00000   0.00000
  14       14S          0.00000   0.01014   0.01043   0.00000  -0.00000
  15       15S          0.00000   0.04074   0.04561   0.00000  -0.00000
  16       16S          0.00000   0.04479   0.03492  -0.00000  -0.00000
  17       17S         -0.00000  -0.03425  -0.03344  -0.00000   0.00000
  18       18S         -0.00000  -0.11541  -0.08311   0.00000   0.00000
  19       19S          0.00000  -0.05269  -0.10170  -0.00000   0.00000
  20       20S          0.00000   0.00017   0.09410  -0.00000  -0.00000
  21       21S          0.00000   0.01122   0.06907  -0.00000  -0.00000
  22       22S         -0.00000  -0.00146   0.00386  -0.00000   0.00000
  23       23S         -0.00000  -0.00018   0.01272   0.00000   0.00000
  24       24S          0.00000   0.00450  -0.04714  -0.00000  -0.00000
  25       25S          0.00000   0.00069   0.00077   0.00000  -0.00000
  26       26PX        -0.00000   0.00000   0.00000   0.00000   0.00000
  27       26PY        -0.00001   0.00000  -0.00000   0.00000  -0.00000
  28       26PZ        -0.00000  -0.00000  -0.00000  -0.00000   0.00000
  29       27PX        -0.00000   0.00000  -0.00000   0.00000   0.00000
  30       27PY        -0.00006   0.00000  -0.00000   0.00000  -0.00000
  31       27PZ        -0.00000  -0.00002  -0.00001  -0.00000   0.00000
  32       28PX        -0.00001   0.00000  -0.00000   0.00002   0.00002
  33       28PY        -0.00027   0.00000  -0.00000   0.00002  -0.00002
  34       28PZ        -0.00000  -0.00008  -0.00004  -0.00000   0.00000
  35       29PX        -0.00002   0.00000  -0.00000   0.00006   0.00009
  36       29PY        -0.00107   0.00000  -0.00000   0.00009  -0.00006
  37       29PZ        -0.00000  -0.00031  -0.00018  -0.00000   0.00000
  38       30PX        -0.00008   0.00000  -0.00000   0.00022   0.00031
  39       30PY        -0.00377   0.00000  -0.00000   0.00031  -0.00022
  40       30PZ        -0.00000  -0.00109  -0.00062  -0.00000   0.00000
  41       31PX        -0.00024   0.00000  -0.00000   0.00070   0.00097
  42       31PY        -0.01172   0.00000  -0.00000   0.00097  -0.00070
  43       31PZ        -0.00000  -0.00339  -0.00195  -0.00000   0.00000
  44       32PX        -0.00062   0.00000  -0.00000   0.00184   0.00255
  45       32PY        -0.03074   0.00000  -0.00000   0.00255  -0.00184
  46       32PZ        -0.00000  -0.00888  -0.00504  -0.00000   0.00000
  47       33PX        -0.00135   0.00000  -0.00000   0.00403   0.00559
  48       33PY        -0.06702   0.00000  -0.00000   0.00559  -0.00403
  49       33PZ        -0.00000  -0.01942  -0.01125  -0.00000   0.00000
  50       34PX        -0.00222   0.00000  -0.00000   0.00661   0.00918
  51       34PY        -0.11020   0.00000  -0.00000   0.00918  -0.00661
  52       34PZ        -0.00000  -0.03190  -0.01800  -0.00000   0.00000
  53       35PX        -0.00278   0.00000  -0.00000   0.00840   0.01166
  54       35PY        -0.13820   0.00000  -0.00000   0.01166  -0.00840
  55       35PZ        -0.00000  -0.04036  -0.02416  -0.00000   0.00000
  56       36PX         0.00030  -0.00000   0.00000  -0.00122  -0.00170
  57       36PY         0.01468  -0.00000   0.00000  -0.00170   0.00122
  58       36PZ        -0.00000   0.00614   0.01136   0.00000   0.00000
  59       37PX         0.00397  -0.00000   0.00000  -0.01336  -0.01855
  60       37PY         0.19690  -0.00000   0.00000  -0.01855   0.01336
  61       37PZ         0.00000   0.06128   0.03556   0.00000  -0.00000
  62       38PX         0.00730  -0.00000   0.00000  -0.02423  -0.03366
  63       38PY         0.36246  -0.00000   0.00000  -0.03366   0.02423
  64       38PZ         0.00000   0.11448   0.09103   0.00000  -0.00000
  65       39PX         0.00781  -0.00000   0.00000  -0.02832  -0.03933
  66       39PY         0.38787  -0.00000   0.00000  -0.03933   0.02832
  67       39PZ         0.00000   0.11715   0.07488   0.00000  -0.00000
  68       40PX         0.00323  -0.00000   0.00000  -0.00878  -0.01219
  69       40PY         0.16034  -0.00000   0.00000  -0.01219   0.00878
  70       40PZ         0.00000   0.04886   0.03134   0.00000   0.00000
  71       41PX         0.00020  -0.00000  -0.00000   0.01291   0.01793
  72       41PY         0.00986   0.00000  -0.00000   0.01793  -0.01291
  73       41PZ         0.00000   0.00003  -0.04963   0.00000   0.00000
  74       42PX        -0.00003  -0.00000   0.00000   0.00618   0.00858
  75       42PY        -0.00158  -0.00000  -0.00000   0.00858  -0.00618
  76       42PZ        -0.00000  -0.01174  -0.04539   0.00000  -0.00000
  77       43PX        -0.00000  -0.00000   0.00000  -0.00500  -0.00695
  78       43PY        -0.00009  -0.00000   0.00000  -0.00695   0.00500
  79       43PZ         0.00000   0.00041  -0.00455   0.00000  -0.00000
  80       44PX        -0.00146   0.00000  -0.00000   0.00434   0.00603
  81       44PY        -0.07250   0.00000  -0.00000   0.00603  -0.00434
  82       44PZ        -0.00000  -0.02228  -0.01918  -0.00000   0.00000
  83       45PX         0.00080  -0.00000  -0.00000  -0.00405  -0.00563
  84       45PY         0.03977  -0.00000   0.00000  -0.00563   0.00405
  85       45PZ         0.00000   0.01383  -0.00943  -0.00000  -0.00000
  86       46PX        -0.00000   0.00000   0.00000   0.00085   0.00118
  87       46PY        -0.00000  -0.00000  -0.00000   0.00118  -0.00085
  88       46PZ        -0.00000  -0.00037   0.00013  -0.00000   0.00000
  89       47D 0        0.00000   0.00005   0.00016   0.00000  -0.00000
  90       47D+1        0.00000   0.00000   0.00000  -0.00006  -0.00008
  91       47D-1        0.00000  -0.00000   0.00000  -0.00008   0.00006
  92       47D+2       -0.00000   0.00000   0.00000   0.00000  -0.00000
  93       47D-2       -0.00000  -0.00000   0.00000  -0.00000  -0.00000
  94       48D 0       -0.00000   0.00044   0.00139   0.00000  -0.00000
  95       48D+1        0.00000   0.00000   0.00000  -0.00050  -0.00070
  96       48D-1        0.00000  -0.00000   0.00000  -0.00070   0.00050
  97       48D+2       -0.00000   0.00000   0.00000   0.00000  -0.00000
  98       48D-2       -0.00000  -0.00000   0.00000  -0.00000  -0.00000
  99       49D 0       -0.00000   0.00207   0.00663   0.00000  -0.00000
 100       49D+1        0.00000   0.00000   0.00000  -0.00240  -0.00333
 101       49D-1        0.00003  -0.00000   0.00000  -0.00333   0.00240
 102       49D+2       -0.00000   0.00000   0.00000   0.00000  -0.00000
 103       49D-2       -0.00000  -0.00000   0.00000  -0.00000  -0.00000
 104       50D 0        0.00000   0.00673   0.02149   0.00000  -0.00000
 105       50D+1        0.00000   0.00000   0.00000  -0.00771  -0.01071
 106       50D-1        0.00017  -0.00000   0.00000  -0.01071   0.00771
 107       50D+2       -0.00000   0.00000   0.00000  -0.00000  -0.00000
 108       50D-2       -0.00000  -0.00000   0.00000  -0.00000  -0.00000
 109       51D 0        0.00000   0.01625   0.05174   0.00000  -0.00000
 110       51D+1        0.00001   0.00000   0.00000  -0.01901  -0.02641
 111       51D-1        0.00036  -0.00000   0.00000  -0.02641   0.01901
 112       51D+2       -0.00000   0.00000   0.00000   0.00000  -0.00000
 113       51D-2       -0.00000  -0.00000   0.00000  -0.00000  -0.00000
 114       52D 0        0.00000   0.02914   0.08994   0.00000  -0.00000
 115       52D+1        0.00002   0.00000   0.00000  -0.03531  -0.04903
 116       52D-1        0.00086  -0.00000   0.00000  -0.04903   0.03531
 117       52D+2       -0.00000   0.00000   0.00000   0.00000  -0.00000
 118       52D-2        0.00000  -0.00000   0.00000  -0.00000   0.00000
 119       53D 0       -0.00000   0.04531   0.13525   0.00000  -0.00000
 120       53D+1        0.00006   0.00000   0.00000  -0.04886  -0.06785
 121       53D-1        0.00317  -0.00000   0.00000  -0.06785   0.04886
 122       53D+2       -0.00000   0.00000   0.00000   0.00000  -0.00000
 123       53D-2       -0.00000  -0.00000   0.00000  -0.00000  -0.00000
 124       54D 0        0.00000   0.04134   0.13144   0.00000  -0.00000
 125       54D+1        0.00011   0.00000   0.00000  -0.05292  -0.07350
 126       54D-1        0.00550  -0.00000   0.00000  -0.07350   0.05292
 127       54D+2       -0.00000   0.00000   0.00000  -0.00000  -0.00000
 128       54D-2       -0.00000  -0.00000   0.00000   0.00000  -0.00000
 129       55D 0       -0.00000   0.01842   0.10944   0.00000  -0.00000
 130       55D+1        0.00007   0.00000   0.00000  -0.03683  -0.05115
 131       55D-1        0.00354  -0.00000   0.00000  -0.05115   0.03683
 132       55D+2        0.00000   0.00000   0.00000   0.00000  -0.00000
 133       55D-2       -0.00000  -0.00000  -0.00000  -0.00000   0.00000
 134       56D 0        0.00000   0.00783   0.04227  -0.00000  -0.00000
 135       56D+1        0.00004   0.00000   0.00000  -0.00878  -0.01220
 136       56D-1        0.00186   0.00000   0.00000  -0.01220   0.00878
 137       56D+2        0.00000   0.00000   0.00000  -0.00000  -0.00000
 138       56D-2       -0.00000  -0.00000   0.00000  -0.00000   0.00000
 139       57D 0       -0.00000   0.00174   0.00775  -0.00000   0.00000
 140       57D+1        0.00000   0.00000  -0.00000   0.00258   0.00359
 141       57D-1        0.00022   0.00000  -0.00000   0.00359  -0.00258
 142       57D+2        0.00000   0.00000   0.00000   0.00000   0.00000
 143       57D-2       -0.00000   0.00000   0.00000   0.00000   0.00000
 144       58D 0       -0.00000   0.00027   0.00381  -0.00000   0.00000
 145       58D+1       -0.00003   0.00000  -0.00000   0.00032   0.00044
 146       58D-1       -0.00138   0.00000   0.00000   0.00044  -0.00032
 147       58D+2        0.00000  -0.00000   0.00000  -0.00000   0.00000
 148       58D-2       -0.00000   0.00000  -0.00000   0.00000  -0.00000
 149       59D 0       -0.00000  -0.00233  -0.00252  -0.00000   0.00000
 150       59D+1       -0.00005   0.00000  -0.00000   0.00243   0.00338
 151       59D-1       -0.00236   0.00000  -0.00000   0.00338  -0.00243
 152       59D+2        0.00000  -0.00000  -0.00000  -0.00000   0.00000
 153       59D-2       -0.00000   0.00000  -0.00000   0.00000  -0.00000
 154       60D 0        0.00000  -0.00018  -0.00046   0.00000  -0.00000
 155       60D+1        0.00000  -0.00000  -0.00000   0.00011   0.00016
 156       60D-1        0.00002   0.00000   0.00000   0.00016  -0.00011
 157       60D+2        0.00000   0.00000   0.00000  -0.00000   0.00000
 158       60D-2       -0.00000   0.00000   0.00000  -0.00000   0.00000
 159       61F 0        0.00000  -0.00058  -0.00135  -0.00000  -0.00000
 160       61F+1       -0.00000  -0.00000  -0.00000   0.00075   0.00104
 161       61F-1       -0.00010   0.00000  -0.00000   0.00104  -0.00075
 162       61F+2        0.00000  -0.00000  -0.00000  -0.00000   0.00000
 163       61F-2       -0.00000   0.00000   0.00000  -0.00000  -0.00000
 164       61F+3        0.00003  -0.00000   0.00000  -0.00005  -0.00007
 165       61F-3       -0.00133   0.00000  -0.00000   0.00007  -0.00005
 166       62F 0        0.00000  -0.00321  -0.00575  -0.00000   0.00000
 167       62F+1       -0.00001  -0.00000  -0.00000   0.00233   0.00324
 168       62F-1       -0.00026   0.00000  -0.00000   0.00324  -0.00233
 169       62F+2       -0.00000  -0.00000  -0.00000   0.00000   0.00000
 170       62F-2       -0.00000   0.00000   0.00000   0.00000  -0.00000
[...]
 164       61F+3        0.00001   0.00001   0.00001   0.00000
 165       61F-3        0.00001   0.00001   0.00001   0.00000
 166       62F 0        0.00106   0.00053   0.00053   0.00000
 167       62F+1        0.00040   0.00020   0.00020   0.00000
 168       62F-1        0.00040   0.00020   0.00020   0.00000
 169       62F+2       -0.00000  -0.00000   0.00000  -0.00000
 170       62F-2        0.00000   0.00000   0.00000   0.00000
 171       62F+3        0.00004   0.00002   0.00002   0.00000
 172       62F-3        0.00004   0.00002   0.00002   0.00000
 173       63F 0        0.00783   0.00391   0.00392  -0.00001
 174       63F+1        0.00603   0.00302   0.00302  -0.00000
 175       63F-1        0.00603   0.00302   0.00302   0.00000
 176       63F+2        0.00009   0.00009  -0.00000   0.00009
 177       63F-2        0.00000   0.00000   0.00000   0.00000
 178       63F+3        0.00006   0.00003   0.00003   0.00000
 179       63F-3        0.00006   0.00003   0.00003   0.00000
 180       64F 0       -0.00277  -0.00141  -0.00137  -0.00004
 181       64F+1        0.00964   0.00482   0.00482   0.00000
 182       64F-1        0.00964   0.00482   0.00482   0.00000
 183       64F+2        0.00024   0.00024  -0.00000   0.00024
 184       64F-2        0.00000   0.00000   0.00000   0.00000
 185       64F+3        0.00001   0.00001   0.00001   0.00000
 186       64F-3        0.00001   0.00001   0.00001   0.00000
 187       65F 0       -0.00199  -0.00100  -0.00099  -0.00001
 188       65F+1       -0.00107  -0.00054  -0.00054   0.00000
 189       65F-1       -0.00107  -0.00054  -0.00054   0.00000
 190       65F+2        0.00002   0.00002   0.00000   0.00002
 191       65F-2        0.00000   0.00000   0.00000   0.00000
 192       65F+3       -0.00000  -0.00000  -0.00000   0.00000
 193       65F-3       -0.00000  -0.00000  -0.00000   0.00000
 194       66G 0        0.00000   0.00000   0.00000   0.00000
 195       66G+1        0.00000   0.00000   0.00000   0.00000
 196       66G-1        0.00000   0.00000   0.00000   0.00000
 197       66G+2        0.00000   0.00000   0.00000   0.00000
 198       66G-2        0.00000   0.00000  -0.00000   0.00000
 199       66G+3        0.00000   0.00000   0.00000   0.00000
 200       66G-3        0.00000   0.00000   0.00000   0.00000
 201       66G+4        0.00000   0.00000   0.00000   0.00000
 202       66G-4        0.00000   0.00000   0.00000   0.00000
 203       67G 0        0.00049   0.00025   0.00025   0.00000
 204       67G+1        0.00023   0.00012   0.00012  -0.00000
 205       67G-1        0.00023   0.00012   0.00012   0.00000
 206       67G+2        0.00001   0.00001  -0.00000   0.00001
 207       67G-2        0.00000   0.00000   0.00000   0.00000
 208       67G+3        0.00000   0.00000   0.00000   0.00000
 209       67G-3        0.00000   0.00000   0.00000   0.00000
 210       67G+4        0.00000   0.00000   0.00000   0.00000
 211       67G-4        0.00000   0.00000   0.00000   0.00000
 212       68G 0        0.00090   0.00045   0.00045   0.00000
 213       68G+1        0.00200   0.00100   0.00100   0.00000
 214       68G-1        0.00200   0.00100   0.00100   0.00000
 215       68G+2        0.00001   0.00001  -0.00000   0.00001
 216       68G-2        0.00000   0.00000   0.00000   0.00000
 217       68G+3        0.00000   0.00000   0.00000   0.00000
 218       68G-3        0.00000   0.00000   0.00000   0.00000
 219       68G+4        0.00001   0.00001   0.00000   0.00001
 220       68G-4        0.00000   0.00000   0.00000   0.00000
 221       69G 0       -0.00172  -0.00086  -0.00087   0.00001
 222       69G+1        0.00087   0.00043   0.00043  -0.00000
 223       69G-1        0.00087   0.00043   0.00043   0.00000
 224       69G+2        0.00000   0.00000  -0.00000   0.00000
 225       69G-2        0.00000   0.00000   0.00000   0.00000
 226       69G+3        0.00000   0.00000   0.00000   0.00000
 227       69G-3        0.00000   0.00000   0.00000   0.00000
 228       69G+4        0.00000   0.00000   0.00000   0.00000
 229       69G-4        0.00000   0.00000   0.00000   0.00000
 230       70H 0        0.00000   0.00000   0.00000   0.00000
 231       70H+1        0.00000   0.00000   0.00000   0.00000
 232       70H-1        0.00000   0.00000   0.00000   0.00000
 233       70H+2        0.00000   0.00000   0.00000   0.00000
 234       70H-2        0.00000   0.00000   0.00000   0.00000
 235       70H+3        0.00000   0.00000   0.00000  -0.00000
 236       70H-3        0.00000   0.00000   0.00000  -0.00000
 237       70H+4        0.00000   0.00000   0.00000  -0.00000
 238       70H-4        0.00000   0.00000   0.00000  -0.00000
 239       70H+5        0.00000   0.00000   0.00000   0.00000
 240       70H-5        0.00000   0.00000   0.00000  -0.00000
 241       71H 0        0.00038   0.00019   0.00019   0.00000
 242       71H+1        0.00021   0.00010   0.00010   0.00000
 243       71H-1        0.00021   0.00010   0.00010   0.00000
 244       71H+2        0.00000   0.00000   0.00000   0.00000
 245       71H-2        0.00000   0.00000   0.00000   0.00000
 246       71H+3        0.00000   0.00000   0.00000   0.00000
 247       71H-3        0.00000   0.00000   0.00000   0.00000
 248       71H+4        0.00000   0.00000   0.00000   0.00000
 249       71H-4        0.00000   0.00000   0.00000   0.00000
 250       71H+5        0.00000   0.00000   0.00000   0.00000
 251       71H-5        0.00000   0.00000   0.00000   0.00000
 252       72H 0       -0.00014  -0.00007  -0.00007   0.00000
 253       72H+1        0.00036   0.00018   0.00018   0.00000
 254       72H-1        0.00036   0.00018   0.00018   0.00000
 255       72H+2       -0.00000  -0.00000  -0.00000  -0.00000
 256       72H-2        0.00000   0.00000   0.00000   0.00000
 257       72H+3        0.00000   0.00000   0.00000   0.00000
 258       72H-3        0.00000   0.00000   0.00000  -0.00000
 259       72H+4        0.00000   0.00000   0.00000   0.00000
 260       72H-4        0.00000   0.00000   0.00000   0.00000
 261       72H+5        0.00000   0.00000   0.00000   0.00000
 262       72H-5        0.00000   0.00000   0.00000   0.00000
 263 2   O  1S          0.00001   0.00000   0.00000   0.00000
 264        2S          0.00009   0.00004   0.00004   0.00000
 265        3S          0.00107   0.00054   0.00054   0.00000
 266        4S          0.00930   0.00465   0.00465   0.00000
 267        5S          0.05613   0.02807   0.02806   0.00000
 268        6S          0.22348   0.11175   0.11173   0.00002
 269        7S          0.56461   0.28232   0.28229   0.00003
 270        8S          0.72566   0.36283   0.36283  -0.00000
 271        9S          0.30372   0.15181   0.15190  -0.00009
 272       10S          0.40272   0.20166   0.20106   0.00061
 273       11S          1.01895   0.50986   0.50909   0.00077
 274       12S          0.56538   0.28255   0.28283  -0.00028
 275       13S          0.04666   0.02333   0.02333  -0.00000
 276       14S          0.02669   0.01335   0.01335  -0.00000
 277       15S          0.00538   0.00269   0.00269   0.00000
 278       16S          0.08491   0.05238   0.03253   0.01986
 279       17PX        -0.00030  -0.00015  -0.00015  -0.00000
 280       17PY        -0.00030  -0.00015  -0.00015   0.00000
 281       17PZ        -0.00036  -0.00018  -0.00018  -0.00000
 282       18PX        -0.10105  -0.05053  -0.05053   0.00000
 283       18PY        -0.10105  -0.05053  -0.05053   0.00000
 284       18PZ        -0.12269  -0.06136  -0.06133  -0.00003
 285       19PX         0.12748   0.06374   0.06374  -0.00000
 286       19PY         0.12748   0.06374   0.06374   0.00000
 287       19PZ         0.13703   0.06852   0.06850   0.00002
 288       20PX         0.43258   0.21629   0.21629   0.00000
 289       20PY         0.43258   0.21629   0.21629   0.00000
 290       20PZ         0.47069   0.23538   0.23531   0.00007
 291       21PX         0.66951   0.33475   0.33475   0.00000
 292       21PY         0.66951   0.33475   0.33475   0.00000
 293       21PZ         0.64258   0.32125   0.32133  -0.00008
 294       22PX         0.41084   0.20542   0.20542   0.00000
 295       22PY         0.41084   0.20542   0.20542   0.00000
 296       22PZ         0.24758   0.12418   0.12340   0.00078
 297       23PX         0.11742   0.05871   0.05871  -0.00000
 298       23PY         0.11742   0.05871   0.05871   0.00000
 299       23PZ         0.14067   0.07035   0.07032   0.00003
 300       24PX         0.00168   0.00084   0.00084   0.00000
 301       24PY         0.00168   0.00084   0.00084   0.00000
 302       24PZ         0.00189   0.00094   0.00094   0.00000
 303       25PX         0.00011   0.00006   0.00006   0.00000
 304       25PY         0.00011   0.00006   0.00006   0.00000
 305       25PZ         0.00013   0.00006   0.00006   0.00000
 306       26PX         0.03820   0.01910   0.01910   0.00000
 307       26PY         0.03820   0.01910   0.01910   0.00000
 308       26PZ         0.02360   0.01514   0.00847   0.00667
 309       27D 0        0.00010   0.00005   0.00005   0.00000
 310       27D+1        0.00007   0.00003   0.00003  -0.00000
 311       27D-1        0.00007   0.00003   0.00003   0.00000
 312       27D+2        0.00000   0.00000   0.00000   0.00000
 313       27D-2        0.00000   0.00000   0.00000   0.00000
 314       28D 0        0.00240   0.00122   0.00118   0.00005
 315       28D+1        0.00138   0.00069   0.00069   0.00000
 316       28D-1        0.00138   0.00069   0.00069  -0.00000
 317       28D+2        0.00007   0.00007  -0.00000   0.00007
 318       28D-2        0.00000   0.00000   0.00000   0.00000
 319       29D 0        0.00575   0.00299   0.00275   0.00024
 320       29D+1        0.00941   0.00471   0.00471   0.00000
 321       29D-1        0.00941   0.00471   0.00471   0.00000
 322       29D+2        0.00054   0.00054  -0.00000   0.00054
 323       29D-2        0.00000   0.00000   0.00000   0.00000
 324       30D 0        0.00000   0.00000   0.00000   0.00000
 325       30D+1        0.00000   0.00000   0.00000   0.00000
 326       30D-1        0.00000   0.00000   0.00000   0.00000
 327       30D+2        0.00000   0.00000  -0.00000   0.00000
 328       30D-2        0.00000   0.00000   0.00000   0.00000
 329       31D 0        0.00000   0.00000   0.00000   0.00000
 330       31D+1        0.00000   0.00000   0.00000  -0.00000
 331       31D-1        0.00000   0.00000   0.00000  -0.00000
 332       31D+2       -0.00000  -0.00000   0.00000  -0.00000
 333       31D-2        0.00000   0.00000   0.00000   0.00000
 334       32D 0       -0.00348  -0.00190  -0.00159  -0.00031
 335       32D+1        0.00515   0.00257   0.00257   0.00000
 336       32D-1        0.00515   0.00257   0.00257   0.00000
 337       32D+2        0.00056   0.00056   0.00000   0.00056
 338       32D-2        0.00000   0.00000   0.00000   0.00000
 339       33F 0        0.00003   0.00002   0.00002   0.00000
 340       33F+1        0.00001   0.00001   0.00001   0.00000
 341       33F-1        0.00001   0.00001   0.00001   0.00000
 342       33F+2        0.00000   0.00000  -0.00000   0.00000
 343       33F-2        0.00000   0.00000   0.00000   0.00000
 344       33F+3        0.00000   0.00000   0.00000   0.00000
 345       33F-3        0.00000   0.00000   0.00000  -0.00000
 346       34F 0        0.00135   0.00071   0.00064   0.00007
 347       34F+1        0.00081   0.00040   0.00040   0.00000
 348       34F-1        0.00081   0.00040   0.00040   0.00000
 349       34F+2        0.00012   0.00012  -0.00000   0.00012
 350       34F-2        0.00000   0.00000   0.00000   0.00000
 351       34F+3        0.00000   0.00000   0.00000  -0.00000
 352       34F-3        0.00000   0.00000   0.00000  -0.00000
 353       35F 0        0.00000   0.00000   0.00000   0.00000
 354       35F+1        0.00000   0.00000   0.00000   0.00000
 355       35F-1        0.00000   0.00000   0.00000   0.00000
 356       35F+2        0.00000   0.00000  -0.00000   0.00000
 357       35F-2        0.00000   0.00000   0.00000   0.00000
 358       35F+3        0.00000   0.00000   0.00000   0.00000
 359       35F-3        0.00000   0.00000   0.00000   0.00000
 360       36F 0       -0.00022   0.00001  -0.00023   0.00024
 361       36F+1        0.00104   0.00052   0.00052  -0.00000
 362       36F-1        0.00104   0.00052   0.00052  -0.00000
 363       36F+2        0.00010   0.00010   0.00000   0.00010
 364       36F-2        0.00000   0.00000   0.00000   0.00000
 365       36F+3        0.00000   0.00000   0.00000   0.00000
 366       36F-3        0.00000   0.00000   0.00000  -0.00000
 367       37G 0        0.00004   0.00002   0.00002   0.00000
 368       37G+1        0.00002   0.00001   0.00001   0.00000
 369       37G-1        0.00002   0.00001   0.00001   0.00000
 370       37G+2        0.00000   0.00000  -0.00000   0.00000
 371       37G-2        0.00000   0.00000  -0.00000   0.00000
 372       37G+3       -0.00000  -0.00000  -0.00000  -0.00000
 373       37G-3       -0.00000  -0.00000  -0.00000   0.00000
 374       37G+4       -0.00000  -0.00000  -0.00000   0.00000
 375       37G-4       -0.00000  -0.00000  -0.00000  -0.00000
 376       38G 0        0.00039   0.00021   0.00018   0.00004
 377       38G+1        0.00028   0.00014   0.00014  -0.00000
 378       38G-1        0.00028   0.00014   0.00014   0.00000
 379       38G+2        0.00003   0.00003   0.00000   0.00003
 380       38G-2        0.00000   0.00000   0.00000   0.00000
 381       38G+3        0.00000   0.00000   0.00000   0.00000
 382       38G-3        0.00000   0.00000   0.00000   0.00000
 383       38G+4        0.00000   0.00000   0.00000   0.00000
 384       38G-4        0.00000   0.00000   0.00000  -0.00000
          Condensed to atoms (all electrons):
               1          2
     1  Ti  20.774375   0.212682
     2  O    0.212682   8.800262
          Atomic-Atomic Spin Densities.
               1          2
     1  Ti   1.943071   0.026794
     2  O    0.026794   0.003341
 Mulliken charges and spin densities:
               1          2
     1  Ti   1.012943   1.969865
     2  O   -1.012943   0.030135
 Sum of Mulliken charges =  -0.00000   2.00000
 Mulliken charges and spin densities with hydrogens summed into heavy atoms:
               1          2
     1  Ti   1.012943   1.969865
     2  O   -1.012943   0.030135
 Electronic spatial extent (au):  <R**2>=            108.1919
 Charge=             -0.0000 electrons
 Dipole moment (field-independent basis, Debye):
    X=              0.0000    Y=              0.0000    Z=              4.1556  Tot=              4.1556
 Quadrupole moment (field-independent basis, Debye-Ang):
   XX=            -21.9170   YY=            -21.9170   ZZ=            -29.5501
   XY=             -0.0000   XZ=              0.0000   YZ=              0.0000
 Traceless Quadrupole moment (field-independent basis, Debye-Ang):
   XX=              2.5444   YY=              2.5444   ZZ=             -5.0888
   XY=             -0.0000   XZ=              0.0000   YZ=              0.0000
 Octapole moment (field-independent basis, Debye-Ang**2):
  XXX=              0.0000  YYY=             -0.0000  ZZZ=             -4.7185  XYY=              0.0000
  XXY=              0.0000  XXZ=             -2.1141  XZZ=              0.0000  YZZ=              0.0000
  YYZ=             -2.1141  XYZ=             -0.0000
 Hexadecapole moment (field-independent basis, Debye-Ang**3):
 XXXX=            -40.1175 YYYY=            -40.1175 ZZZZ=           -146.8752 XXXY=             -0.0000
 XXXZ=              0.0000 YYYX=             -0.0000 YYYZ=              0.0000 ZZZX=              0.0000
 ZZZY=              0.0000 XXYY=            -12.8746 XXZZ=            -30.4672 YYZZ=            -30.4672
 XXYZ=              0.0000 YYXZ=              0.0000 ZZXY=             -0.0000
 N-N= 5.820949320120D+01 E-N=-2.343035117475D+03  KE= 9.544654877482D+02
 Orbital energies and kinetic energies (alpha):
                                 1                 2
  10         O                -1.888278          6.891488
  11         O                -1.151857          3.572486
  12         O                -0.467397          2.906361
  13         O                -0.451092          2.128599
  14         O                -0.451092          2.128599
  15         O                -0.449782          0.767072
  16         O                -0.263124          3.904554
  17         V                 0.003658          0.121653
  18         V                 0.003658          0.121653
  19         V                 0.014610          0.077692
  20         V                 0.023427          0.048073
  21         V                 0.036635          0.048709
 Total kinetic energy from orbitals= 9.591371129376D+02
 FoFCou: FMM=F IPFlag=           8 FMFlag=           0 FMFlg1=           0
         NFxFlg=           0 DoJE=F BraDBF=T KetDBF=F FulRan=T
         wScrn=  0.000000 ICntrl=   2000500 IOpCl=  0 I1Cent=           5 NGrid=           0
         NMat0=    1 NMatS0=      1 NMatT0=    0 NMatD0=    1 NMtDS0=    0 NMtDT0=    0
 Symmetry not used in FoFCou.
                          Isotropic Fermi Contact Couplings
        Atom                 a.u.       MegaHertz       Gauss      10(-4) cm-1
     1  Ti(47)             2.92700    -369.37093    -131.80073    -123.20888
     2  O(17)              0.02490      -7.54634      -2.69272      -2.51719
 --------------------------------------------------------
       Center         ----  Spin Dipole Couplings  ----
                      3XX-RR        3YY-RR        3ZZ-RR
 --------------------------------------------------------
     1   Atom        0.421242      0.421242     -0.842484
     2   Atom       -0.028053     -0.028053      0.056106
 --------------------------------------------------------
                        XY            XZ            YZ
 --------------------------------------------------------
     1   Atom        0.000000      0.000000      0.000000
     2   Atom        0.000000      0.000000      0.000000
 --------------------------------------------------------


 ---------------------------------------------------------------------------------
              Anisotropic Spin Dipole Couplings in Principal Axis System
 ---------------------------------------------------------------------------------

       Atom             a.u.   MegaHertz   Gauss  10(-4) cm-1        Axes

              Baa    -0.8425    25.381     9.057     8.466  0.0000  0.0000  1.0000
     1 Ti(47) Bbb     0.4212   -12.691    -4.528    -4.233 -0.0000  1.0000  0.0000
              Bcc     0.4212   -12.691    -4.528    -4.233  1.0000  0.0000  0.0000
 
              Baa    -0.0281     2.030     0.724     0.677 -0.0000  1.0000  0.0000
     2 O(17)  Bbb    -0.0281     2.030     0.724     0.677  1.0000  0.0000  0.0000
              Bcc     0.0561    -4.060    -1.449    -1.354  0.0000  0.0000  1.0000
 

 ---------------------------------------------------------------------------------

 No NMR shielding tensors so no spin-rotation constants.
 Leave Link  601 at Wed Mar 14 14:58:13 2018, MaxMem= 21474836480 cpu:              38.8 elap:               1.3
 (Enter /home1/apps/gaussian/16rA.03/g16/l9999.exe)
 1\1\GINC-C477-064\SP\ROCCSD(T)-RW\Gen\O1Ti1(3)\AANNABE\14-Mar-2018\0\\
 #P ROCCSD(T)=(maxcyc=150, Window=(7,0), SaveAmplitudes, ReadAmplitudes
 )/Gen 5d 7f SCF=(maxcycles=300) Integral(NoXCTest, DKHSO) MaxDisk=500G
 B Pop=Regular Guess=Read\\TiO\\0,3\Ti,0,0.,0.,0.\O,0,0.,0.,1.6\\Versio
 n=ES64L-G16RevA.03\HF=-927.7165656\MP2=-928.4669774\PUHF=-927.7165656\
 PMP2-0=-928.4669774\CCSD=-928.4462989\CCSD(T)=-928.4906213\RMSD=2.151e
 -09\PG=C*V [C*(O1Ti1)]\\@


 SOME PEOPLE TRY TO PULL THE WOOL OVER YOUR EYES
 USING THE WRONG YARN.
 Job cpu time:       0 days 23 hours  9 minutes 49.0 seconds.
 Elapsed time:       0 days  0 hours 44 minutes  9.0 seconds.
 File lengths (MBytes):  RWF=  42482 Int=      0 D2E=      0 Chk=    150 Scr=      1
 Normal termination of Gaussian 16 at Wed Mar 14 14:58:14 2018.
