 Entering Gaussian System, Link 0=g16
 Initial command:
 /home1/apps/gaussian/16rA.03/g16/l1.exe "/tmp/Gau-235270.inp" -scrdir="/tmp/"
 Entering Link 1 = /home1/apps/gaussian/16rA.03/g16/l1.exe PID=    235271.
  
 Copyright (c) 1988,1990,1992,1993,1995,1998,2003,2009,2016,
            Gaussian, Inc.  All Rights Reserved.
  
 This is part of the Gaussian(R) 16 program.  It is based on
 the Gaussian(R) 09 system (copyright 2009, Gaussian, Inc.),
 the Gaussian(R) 03 system (copyright 2003, Gaussian, Inc.),
 the Gaussian(R) 98 system (copyright 1998, Gaussian, Inc.),
 the Gaussian(R) 94 system (copyright 1995, Gaussian, Inc.),
 the Gaussian 92(TM) system (copyright 1992, Gaussian, Inc.),
 the Gaussian 90(TM) system (copyright 1990, Gaussian, Inc.),
 the Gaussian 88(TM) system (copyright 1988, Gaussian, Inc.),
 the Gaussian 86(TM) system (copyright 1986, Carnegie Mellon
 University), and the Gaussian 82(TM) system (copyright 1983,
 Carnegie Mellon University). Gaussian is a federally registered
 trademark of Gaussian, Inc.
  
 This software contains proprietary and confidential information,
 including trade secrets, belonging to Gaussian, Inc.
  
 This software is provided under written license and may be
 used, copied, transmitted, or stored only in accord with that
 written license.
  
 The following legend is applicable only to US Government
 contracts under FAR:
  
                    RESTRICTED RIGHTS LEGEND
  
 Use, reproduction and disclosure by the US Government is
 subject to restrictions as set forth in subparagraphs (a)
 and (c) of the Commercial Computer Software - Restricted
 Rights clause in FAR 52.227-19.
  
 Gaussian, Inc.
 340 Quinnipiac St., Bldg. 40, Wallingford CT 06492
  
  
 ---------------------------------------------------------------
 Warning -- This program may not be used in any manner that
 competes with the business of Gaussian, Inc. or will provide
 assistance to any competitor of Gaussian, Inc.  The licensee
 of this program is prohibited from giving any competitor of
 Gaussian, Inc. access to this program.  By using this program,
 the user acknowledges that Gaussian, Inc. is engaged in the
 business of creating and licensing software in the field of
 computational chemistry and represents and warrants to the
 licensee that it is not a competitor of Gaussian, Inc. and that
 it will not use this program in any manner prohibited above.
 ---------------------------------------------------------------
  

 Cite this work as:
 Gaussian 16, Revision A.03,
 M. J. Frisch, G. W. Trucks, H. B. Schlegel, G. E. Scuseria, 
 M. A. Robb, J. R. Cheeseman, G. Scalmani, V. Barone, 
 G. A. Petersson, H. Nakatsuji, X. Li, M. Caricato, A. V. Marenich, 
 J. Bloino, B. G. Janesko, R. Gomperts, B. Mennucci, H. P. Hratchian, 
 J. V. Ortiz, A. F. Izmaylov, J. L. Sonnenberg, D. Williams-Young, 
 F. Ding, F. Lipparini, F. Egidi, J. Goings, B. Peng, A. Petrone, 
 T. Henderson, D. Ranasinghe, V. G. Zakrzewski, J. Gao, N. Rega, 
 G. Zheng, W. Liang, M. Hada, M. Ehara, K. Toyota, R. Fukuda, 
 J. Hasegawa, M. Ishida, T. Nakajima, Y. Honda, O. Kitao, H. Nakai, 
 T. Vreven, K. Throssell, J. A. Montgomery, Jr., J. E. Peralta, 
 F. Ogliaro, M. J. Bearpark, J. J. Heyd, E. N. Brothers, K. N. Kudin, 
 V. N. Staroverov, T. A. Keith, R. Kobayashi, J. Normand, 
 K. Raghavachari, A. P. Rendell, J. C. Burant, S. S. Iyengar, 
 J. Tomasi, M. Cossi, J. M. Millam, M. Klene, C. Adamo, R. Cammi, 
 J. W. Ochterski, R. L. Martin, K. Morokuma, O. Farkas, 
 J. B. Foresman, and D. J. Fox, Gaussian, Inc., Wallingford CT, 2016.
 
 ******************************************
 Gaussian 16:  ES64L-G16RevA.03 25-Dec-2016
                 5-Mar-2018 
 ******************************************
 %MEM=80GB
 %CPU=0-15
 SetSPE:  set environment variable "MP_BIND" = "yes"
 SetSPE:  set environment variable "MP_BLIST" = "0,1,2,3,4,5,6,7,8,9,10,11,12,13,14,15"
 Will use up to   16 processors via shared memory.
 %RWF=/scratch/04843/aannabe/gaussian/
 %Int=/scratch/04843/aannabe/gaussian/
 %D2E=/scratch/04843/aannabe/gaussian/
 %NoSave
 %CHK=ScO
 ----------------------------------------------------------------------
 #P ROCCSD(T)=(maxcyc=150, Full, SaveAmplitudes, ReadAmplitudes)/Gen 5d
  7f SCF=(maxcycles=300) Integral(NoXCTest) MaxDisk=500GB Pop=Regular P
 seudo=Read Guess=Read IOp(5/15=2)
 ----------------------------------------------------------------------
 1/38=1,172=1/1;
 2/12=2,17=6,18=5,40=1/2;
 3/5=7,8=11,11=2,16=1,17=8,25=1,30=1,47=8,116=101/1,2,3;
 4/5=1/1;
 5/5=2,7=300,15=2,38=6/2;
 8/5=-1,6=4,9=120000,10=90,24=1/1,4;
 9/5=7,6=150,14=2,77=1/13;
 6//1;
 99/5=1,9=1/99;
 Leave Link    1 at Mon Mar  5 18:03:14 2018, MaxMem= 10737418240 cpu:               4.6 elap:               0.3
 (Enter /home1/apps/gaussian/16rA.03/g16/l101.exe)
 ---
 ScO
 ---
 Symbolic Z-matrix:
 Charge =  0 Multiplicity = 2
 Sc                    0.        0.        0. 
 O                     0.        0.        1.9 
 
 ITRead=  0  0
 MicOpt= -1 -1
 NAtoms=      2 NQM=        2 NQMF=       0 NMMI=      0 NMMIF=      0
                NMic=       0 NMicF=      0.
                    Isotopes and Nuclear Properties:
 (Nuclear quadrupole moments (NQMom) in fm**2, nuclear magnetic moments (NMagM)
  in nuclear magnetons)

  Atom         1           2
 IAtWgt=          45          16
 AtmWgt=  44.9559136  15.9949146
 NucSpn=           7           0
 AtZEff=  -0.0000000  -0.0000000
 NQMom=  -22.0000000   0.0000000
 NMagM=    4.7564830   0.0000000
 AtZNuc=  21.0000000   8.0000000
 Leave Link  101 at Mon Mar  5 18:03:25 2018, MaxMem= 10737418240 cpu:               1.5 elap:               6.7
 (Enter /home1/apps/gaussian/16rA.03/g16/l202.exe)
                          Input orientation:                          
 ---------------------------------------------------------------------
 Center     Atomic      Atomic             Coordinates (Angstroms)
 Number     Number       Type             X           Y           Z
 ---------------------------------------------------------------------
      1         21           0        0.000000    0.000000    0.000000
      2          8           0        0.000000    0.000000    1.900000
 ---------------------------------------------------------------------
 Stoichiometry    OSc(2)
 Framework group  C*V[C*(OSc)]
 Deg. of freedom     1
 Full point group                 C*V     NOp   4
 Largest Abelian subgroup         C2V     NOp   4
 Largest concise Abelian subgroup C1      NOp   1
                         Standard orientation:                         
 ---------------------------------------------------------------------
 Center     Atomic      Atomic             Coordinates (Angstroms)
 Number     Number       Type             X           Y           Z
 ---------------------------------------------------------------------
      1         21           0        0.000000    0.000000    0.524138
      2          8           0        0.000000    0.000000   -1.375862
 ---------------------------------------------------------------------
 Rotational constants (GHZ):           0.0000000          11.8664511          11.8664511
 Leave Link  202 at Mon Mar  5 18:03:26 2018, MaxMem= 10737418240 cpu:               0.3 elap:               0.1
 (Enter /home1/apps/gaussian/16rA.03/g16/l301.exe)
 General basis read from cards:  (5D, 7F)
 Centers:       1
 S 1 1.00
     Exponent=  2.7152780000D+06 Coefficients=  1.0000000000D+00
 S 1 1.00
     Exponent=  4.0659840000D+05 Coefficients=  1.0000000000D+00
 S 1 1.00
     Exponent=  9.2530040000D+04 Coefficients=  1.0000000000D+00
 S 1 1.00
     Exponent=  2.6207920000D+04 Coefficients=  1.0000000000D+00
 S 1 1.00
     Exponent=  8.5494290000D+03 Coefficients=  1.0000000000D+00
 S 1 1.00
     Exponent=  3.0859750000D+03 Coefficients=  1.0000000000D+00
 S 1 1.00
     Exponent=  1.2031720000D+03 Coefficients=  1.0000000000D+00
 S 1 1.00
     Exponent=  4.9848690000D+02 Coefficients=  1.0000000000D+00
 S 1 1.00
     Exponent=  2.1673600000D+02 Coefficients=  1.0000000000D+00
 S 1 1.00
     Exponent=  9.7874760000D+01 Coefficients=  1.0000000000D+00
 S 1 1.00
     Exponent=  4.5204330000D+01 Coefficients=  1.0000000000D+00
 S 1 1.00
     Exponent=  2.0211870000D+01 Coefficients=  1.0000000000D+00
 S 1 1.00
     Exponent=  9.5747510000D+00 Coefficients=  1.0000000000D+00
 S 1 1.00
     Exponent=  4.5403460000D+00 Coefficients=  1.0000000000D+00
 S 1 1.00
     Exponent=  1.9956870000D+00 Coefficients=  1.0000000000D+00
 S 1 1.00
     Exponent=  9.4221500000D-01 Coefficients=  1.0000000000D+00
 S 1 1.00
     Exponent=  4.1784500000D-01 Coefficients=  1.0000000000D+00
 S 1 1.00
     Exponent=  9.5761000000D-02 Coefficients=  1.0000000000D+00
 S 1 1.00
     Exponent=  5.1351000000D-02 Coefficients=  1.0000000000D+00
 S 1 1.00
     Exponent=  2.3878000000D-02 Coefficients=  1.0000000000D+00
 S 1 1.00
     Exponent=  2.6472000000D+00 Coefficients=  1.0000000000D+00
 S 1 1.00
     Exponent=  6.2170000000D-01 Coefficients=  1.0000000000D+00
 S 1 1.00
     Exponent=  1.1100000000D-02 Coefficients=  1.0000000000D+00
 P 1 1.00
     Exponent=  1.0592190000D+04 Coefficients=  1.0000000000D+00
 P 1 1.00
     Exponent=  2.5075330000D+03 Coefficients=  1.0000000000D+00
 P 1 1.00
     Exponent=  8.1445710000D+02 Coefficients=  1.0000000000D+00
 P 1 1.00
     Exponent=  3.1151950000D+02 Coefficients=  1.0000000000D+00
 P 1 1.00
     Exponent=  1.3196170000D+02 Coefficients=  1.0000000000D+00
 P 1 1.00
     Exponent=  5.9987180000D+01 Coefficients=  1.0000000000D+00
 P 1 1.00
     Exponent=  2.8662500000D+01 Coefficients=  1.0000000000D+00
 P 1 1.00
     Exponent=  1.4108510000D+01 Coefficients=  1.0000000000D+00
 P 1 1.00
     Exponent=  7.1037060000D+00 Coefficients=  1.0000000000D+00
 P 1 1.00
     Exponent=  3.6092000000D+00 Coefficients=  1.0000000000D+00
 P 1 1.00
     Exponent=  1.7760700000D+00 Coefficients=  1.0000000000D+00
 P 1 1.00
     Exponent=  8.5476000000D-01 Coefficients=  1.0000000000D+00
 P 1 1.00
     Exponent=  4.0223900000D-01 Coefficients=  1.0000000000D+00
 P 1 1.00
     Exponent=  1.5468000000D-01 Coefficients=  1.0000000000D+00
 P 1 1.00
     Exponent=  6.4888000000D-02 Coefficients=  1.0000000000D+00
 P 1 1.00
     Exponent=  2.6301000000D-02 Coefficients=  1.0000000000D+00
 P 1 1.00
     Exponent=  3.4418000000D+00 Coefficients=  1.0000000000D+00
 P 1 1.00
     Exponent=  8.0840000000D-01 Coefficients=  1.0000000000D+00
 P 1 1.00
     Exponent=  1.0660000000D-02 Coefficients=  1.0000000000D+00
 D 1 1.00
     Exponent=  5.0654200000D+01 Coefficients=  1.0000000000D+00
 D 1 1.00
     Exponent=  1.4732500000D+01 Coefficients=  1.0000000000D+00
 D 1 1.00
     Exponent=  5.1804600000D+00 Coefficients=  1.0000000000D+00
 D 1 1.00
     Exponent=  2.0195900000D+00 Coefficients=  1.0000000000D+00
 D 1 1.00
     Exponent=  7.9921900000D-01 Coefficients=  1.0000000000D+00
 D 1 1.00
     Exponent=  3.0531600000D-01 Coefficients=  1.0000000000D+00
 D 1 1.00
     Exponent=  1.1044400000D-01 Coefficients=  1.0000000000D+00
 D 1 1.00
     Exponent=  3.7065000000D-02 Coefficients=  1.0000000000D+00
 D 1 1.00
     Exponent=  1.8520000000D+00 Coefficients=  1.0000000000D+00
 D 1 1.00
     Exponent=  7.8750000000D-01 Coefficients=  1.0000000000D+00
 D 1 1.00
     Exponent=  1.2440000000D-02 Coefficients=  1.0000000000D+00
 F 1 1.00
     Exponent=  2.1048000000D+00 Coefficients=  1.0000000000D+00
 F 1 1.00
     Exponent=  6.5870000000D-01 Coefficients=  1.0000000000D+00
 F 1 1.00
     Exponent=  1.6360000000D-01 Coefficients=  1.0000000000D+00
 F 1 1.00
     Exponent=  4.0630000000D-02 Coefficients=  1.0000000000D+00
 G 1 1.00
     Exponent=  1.7850000000D+00 Coefficients=  1.0000000000D+00
 G 1 1.00
     Exponent=  4.1120000000D-01 Coefficients=  1.0000000000D+00
 G 1 1.00
     Exponent=  9.4730000000D-02 Coefficients=  1.0000000000D+00
 ****
 Centers:       2
 S 1 1.00
     Exponent=  1.5330000000D+04 Coefficients=  1.0000000000D+00
 S 1 1.00
     Exponent=  2.2990000000D+03 Coefficients=  1.0000000000D+00
 S 1 1.00
     Exponent=  5.2240000000D+02 Coefficients=  1.0000000000D+00
 S 1 1.00
     Exponent=  1.4730000000D+02 Coefficients=  1.0000000000D+00
 S 1 1.00
     Exponent=  4.7550000000D+01 Coefficients=  1.0000000000D+00
 S 1 1.00
     Exponent=  1.6760000000D+01 Coefficients=  1.0000000000D+00
 S 1 1.00
     Exponent=  6.2070000000D+00 Coefficients=  1.0000000000D+00
 S 1 1.00
     Exponent=  6.8820000000D-01 Coefficients=  1.0000000000D+00
 S 1 1.00
     Exponent=  1.7520000000D+00 Coefficients=  1.0000000000D+00
 S 1 1.00
     Exponent=  2.3840000000D-01 Coefficients=  1.0000000000D+00
 S 1 1.00
     Exponent=  7.8450000000D+00 Coefficients=  1.0000000000D+00
 S 1 1.00
     Exponent=  2.1032000000D+01 Coefficients=  1.0000000000D+00
 S 1 1.00
     Exponent=  7.3760000000D-02 Coefficients=  1.0000000000D+00
 P 1 1.00
     Exponent=  3.4460000000D+01 Coefficients=  1.0000000000D+00
 P 1 1.00
     Exponent=  7.7490000000D+00 Coefficients=  1.0000000000D+00
 P 1 1.00
     Exponent=  2.2800000000D+00 Coefficients=  1.0000000000D+00
 P 1 1.00
     Exponent=  7.1560000000D-01 Coefficients=  1.0000000000D+00
 P 1 1.00
     Exponent=  2.1400000000D-01 Coefficients=  1.0000000000D+00
 P 1 1.00
     Exponent=  1.5159000000D+01 Coefficients=  1.0000000000D+00
 P 1 1.00
     Exponent=  5.7437000000D+01 Coefficients=  1.0000000000D+00
 P 1 1.00
     Exponent=  5.9740000000D-02 Coefficients=  1.0000000000D+00
 D 1 1.00
     Exponent=  2.3140000000D+00 Coefficients=  1.0000000000D+00
 D 1 1.00
     Exponent=  6.4500000000D-01 Coefficients=  1.0000000000D+00
 D 1 1.00
     Exponent=  1.5858000000D+01 Coefficients=  1.0000000000D+00
 D 1 1.00
     Exponent=  2.1400000000D-01 Coefficients=  1.0000000000D+00
 F 1 1.00
     Exponent=  1.4280000000D+00 Coefficients=  1.0000000000D+00
 F 1 1.00
     Exponent=  5.0000000000D-01 Coefficients=  1.0000000000D+00
 ****
 ======================================================================================================
                                       Pseudopotential Parameters
 ======================================================================================================
  Center     Atomic      Valence      Angular      Power
  Number     Number     Electrons     Momentum     of R      Exponent        Coefficient   SO-Coeffient
 ======================================================================================================
    1         21           11
                                      D and up 
                                                     1       16.0329867       11.00000000    0.00000000
                                                     3       14.0886961      176.36285342    0.00000000
                                                     2       11.9069766      -83.68643284    0.00000000
                                                     2        3.6497651        0.44399753    0.00000000
                                      S - D
                                                     2       11.5075950      153.96296864    0.00000000
                                                     2        5.0410402       14.92860892    0.00000000
                                      P - D
                                                     2       11.4627925       97.21711637    0.00000000
                                                     2        4.7640754       10.84896441    0.00000000
    2          8            6
                                      P and up 
                                                     1       12.3099700        6.00000000    0.00000000
                                                     3       14.7696200       73.85984000    0.00000000
                                                     2       13.7141900      -47.87600000    0.00000000
                                      S - P
                                                     2       13.6551200       85.86406000    0.00000000
 ======================================================================================================
 Ernie: Thresh=  0.10000D-02 Tol=  0.10000D-05 Strict=F.
 There are   144 symmetry adapted cartesian basis functions of A1  symmetry.
 There are    30 symmetry adapted cartesian basis functions of A2  symmetry.
 There are    69 symmetry adapted cartesian basis functions of B1  symmetry.
 There are    69 symmetry adapted cartesian basis functions of B2  symmetry.
 There are   114 symmetry adapted basis functions of A1  symmetry.
 There are    27 symmetry adapted basis functions of A2  symmetry.
 There are    60 symmetry adapted basis functions of B1  symmetry.
 There are    60 symmetry adapted basis functions of B2  symmetry.
   261 basis functions,   312 primitive gaussians,   312 cartesian basis functions
     9 alpha electrons        8 beta electrons
       nuclear repulsion energy        18.3819452214 Hartrees.
 IExCor=    0 DFT=F Ex=HF Corr=None ExCW=0 ScaHFX=  1.000000
 ScaDFX=  1.000000  1.000000  1.000000  1.000000 ScalE2=  1.000000  1.000000
 IRadAn=      5 IRanWt=     -1 IRanGd=            0 ICorTp=0 IEmpDi=  4
 NAtoms=    2 NActive=    2 NUniq=    2 SFac= 1.00D+00 NAtFMM=   60 NAOKFM=F Big=F
 Integral buffers will be    131072 words long.
 Raffenetti 2 integral format.
 Two-electron integral symmetry is turned on.
 Leave Link  301 at Mon Mar  5 18:03:26 2018, MaxMem= 10737418240 cpu:               4.0 elap:               0.3
 (Enter /home1/apps/gaussian/16rA.03/g16/l302.exe)
 NPDir=0 NMtPBC=     1 NCelOv=     1 NCel=       1 NClECP=     1 NCelD=      1
         NCelK=      1 NCelE2=     1 NClLst=     1 CellRange=     0.0.
 One-electron integrals computed using PRISM.
 One-electron integral symmetry used in STVInt
   4 Symmetry operations used in ECPInt.
 ECPInt:  NShTT=    3828 NPrTT=    3828 LenC2=    3512 LenP2D=    3511.
 LDataN:  DoStor=T MaxTD1= 8 Len=  415
 NBasis=   261 RedAO= T EigKep=  1.15D-06  NBF=   114    27    60    60
 NBsUse=   258 1.00D-06 EigRej=  6.58D-07 NBFU=   113    27    59    59
 Leave Link  302 at Mon Mar  5 18:03:28 2018, MaxMem= 10737418240 cpu:              15.2 elap:               1.0
 (Enter /home1/apps/gaussian/16rA.03/g16/l303.exe)
 DipDrv:  MaxL=1.
 Leave Link  303 at Mon Mar  5 18:03:28 2018, MaxMem= 10737418240 cpu:               1.1 elap:               0.1
 (Enter /home1/apps/gaussian/16rA.03/g16/l401.exe)
 Initial guess from the checkpoint file:  "ScO.chk"
 B after Tr=     0.000000    0.000000    0.000000
         Rot=    1.000000    0.000000    0.000000    0.000000 Ang=   0.00 deg.
 Guess basis will be translated and rotated to current coordinates.
 JPrj=2 DoOrth=T DoCkMO=T.
 Initial guess orbital symmetries:
       Occupied  (SG) (SG) (PI) (PI) (SG) (SG) (PI) (PI) (SG)
       Virtual   (PI) (PI) (SG) (SG) (DLTA) (DLTA) (PI) (PI) (PI)
                 (PI) (SG) (SG) (DLTA) (DLTA) (SG) (PI) (PI) (SG)
                 (PI) (PI) (SG) (PI) (PI) (PHI) (PHI) (DLTA) (DLTA)
                 (SG) (DLTA) (DLTA) (PI) (PI) (SG) (PI) (PI) (SG)
                 (SG) (SG) (DLTA) (DLTA) (PI) (PI) (DLTA) (DLTA)
                 (?A) (?A) (PHI) (PHI) (SG) (PI) (PI) (PI) (PI)
                 (SG) (PHI) (PHI) (DLTA) (DLTA) (SG) (PI) (PI)
                 (SG) (PI) (PI) (DLTA) (DLTA) (SG) (SG) (DLTA)
                 (DLTA) (PI) (PI) (SG) (SG) (PI) (PI) (PI) (PI)
                 (SG) (DLTA) (DLTA) (PHI) (PHI) (?A) (?A) (SG)
                 (PI) (PI) (SG) (DLTA) (DLTA) (PHI) (PHI) (PI)
                 (PI) (PHI) (PHI) (DLTA) (DLTA) (SG) (PI) (PI)
                 (DLTA) (DLTA) (SG) (DLTA) (DLTA) (PI) (PI) (SG)
                 (PI) (PI) (SG) (SG) (PI) (PI) (SG) (PI) (PI) (SG)
                 (SG) (DLTA) (DLTA) (PI) (PI) (SG) (PHI) (PHI)
                 (PHI) (PHI) (DLTA) (DLTA) (DLTA) (DLTA) (PI) (PI)
                 (PI) (PI) (SG) (DLTA) (DLTA) (SG) (PI) (PI) (SG)
                 (?A) (?A) (PHI) (PHI) (DLTA) (DLTA) (PI) (PI)
                 (SG) (SG) (PI) (PI) (SG) (DLTA) (DLTA) (PI) (PI)
                 (SG) (PI) (PI) (SG) (SG) (SG) (PI) (PI) (SG) (DLTA)
                 (DLTA) (PI) (PI) (SG) (SG) (PI) (PI) (SG) (SG)
                 (DLTA) (DLTA) (PI) (PI) (SG) (PI) (PI) (SG) (DLTA)
                 (DLTA) (PI) (PI) (SG) (SG) (SG) (PI) (PI) (SG)
                 (PI) (PI) (SG) (SG) (SG) (PI) (PI) (SG) (DLTA)
                 (DLTA) (PI) (PI) (SG) (SG) (SG) (PI) (PI) (SG)
                 (PI) (PI) (SG) (SG) (SG) (PI) (PI) (SG) (SG) (PI)
                 (PI) (SG) (SG) (SG) (PI) (PI) (SG) (SG) (SG) (PI)
                 (PI) (SG) (SG) (SG) (SG) (PI) (PI) (SG) (SG) (SG)
                 (SG) (SG)
 The electronic state of the initial guess is 2-SG.
 Leave Link  401 at Mon Mar  5 18:03:29 2018, MaxMem= 10737418240 cpu:               6.7 elap:               0.5
 (Enter /home1/apps/gaussian/16rA.03/g16/l502.exe)
 Keep R1 and R2 ints in memory in symmetry-blocked form, NReq=734602573.
 FoFCou: FMM=F IPFlag=           8 FMFlag=           0 FMFlg1=           0
         NFxFlg=           0 DoJE=F BraDBF=F KetDBF=F FulRan=T
         wScrn=  0.000000 ICntrl=       600 IOpCl=  0 I1Cent=           0 NGrid=           0
         NMat0=    1 NMatS0=  34191 NMatT0=    0 NMatD0=    1 NMtDS0=    0 NMtDT0=    0
 Petite list used in FoFCou.
 Restricted open shell SCF:
 Using DIIS extrapolation, IDIIS=  1040.
 NGot= 10737418240 LenX= 10437151885 LenY= 10437054100
 Requested convergence on RMS density matrix=1.00D-08 within 300 cycles.
 Requested convergence on MAX density matrix=1.00D-06.
 Requested convergence on             energy=1.00D-06.
 No special actions if energy rises.

 Cycle   1  Pass 1  IDiag  1:
 E= -61.9121290317933    
 DIIS: error= 2.96D-02 at cycle   1 NSaved=   1.
 NSaved= 1 IEnMin= 1 EnMin= -61.9121290317933     IErMin= 1 ErrMin= 2.96D-02
 ErrMax= 2.96D-02  0.00D+00 EMaxC= 1.00D-01 BMatC= 7.44D-02 BMatP= 7.44D-02
 IDIUse=3 WtCom= 7.04D-01 WtEn= 2.96D-01
 Coeff-Com:  0.100D+01
 Coeff-En:   0.100D+01
 Coeff:      0.100D+01
 Gap=     0.107 Goal=   None    Shift=    0.000
 GapD=    0.107 DampG=1.000 DampE=0.250 DampFc=0.2500 IDamp=-1.
 Damping current iteration by 2.50D-01
 RMSDP=2.76D-03 MaxDP=1.65D-01              OVMax= 3.50D-02

 Cycle   2  Pass 1  IDiag  1:
 E= -61.9145905001836     Delta-E=       -0.002461468390 Rises=F Damp=T
 DIIS: error= 2.24D-02 at cycle   2 NSaved=   2.
 NSaved= 2 IEnMin= 2 EnMin= -61.9145905001836     IErMin= 2 ErrMin= 2.24D-02
 ErrMax= 2.24D-02  0.00D+00 EMaxC= 1.00D-01 BMatC= 4.21D-02 BMatP= 7.44D-02
 IDIUse=3 WtCom= 7.76D-01 WtEn= 2.24D-01
 Coeff-Com: -0.291D+01 0.391D+01
 Coeff-En:   0.000D+00 0.100D+01
 Coeff:     -0.226D+01 0.326D+01
 Gap=     0.091 Goal=   None    Shift=    0.000
 RMSDP=2.31D-03 MaxDP=1.41D-01 DE=-2.46D-03 OVMax= 1.03D-01

 Cycle   3  Pass 1  IDiag  1:
 E= -61.9207728826085     Delta-E=       -0.006182382425 Rises=F Damp=F
 DIIS: error= 4.71D-03 at cycle   3 NSaved=   3.
 NSaved= 3 IEnMin= 3 EnMin= -61.9207728826085     IErMin= 3 ErrMin= 4.71D-03
 ErrMax= 4.71D-03  0.00D+00 EMaxC= 1.00D-01 BMatC= 1.94D-03 BMatP= 4.21D-02
 IDIUse=3 WtCom= 9.53D-01 WtEn= 4.71D-02
 Coeff-Com: -0.150D+01 0.199D+01 0.514D+00
 Coeff-En:   0.000D+00 0.000D+00 0.100D+01
 Coeff:     -0.143D+01 0.189D+01 0.537D+00
 Gap=     0.094 Goal=   None    Shift=    0.000
 RMSDP=4.74D-04 MaxDP=4.39D-02 DE=-6.18D-03 OVMax= 7.37D-02

 Cycle   4  Pass 1  IDiag  1:
 E= -61.9240032574100     Delta-E=       -0.003230374801 Rises=F Damp=F
 DIIS: error= 8.54D-04 at cycle   4 NSaved=   4.
 NSaved= 4 IEnMin= 4 EnMin= -61.9240032574100     IErMin= 4 ErrMin= 8.54D-04
 ErrMax= 8.54D-04  0.00D+00 EMaxC= 1.00D-01 BMatC= 1.11D-04 BMatP= 1.94D-03
 IDIUse=3 WtCom= 9.91D-01 WtEn= 8.54D-03
 Coeff-Com: -0.252D+00 0.332D+00 0.972D-01 0.823D+00
 Coeff-En:   0.000D+00 0.000D+00 0.000D+00 0.100D+01
 Coeff:     -0.250D+00 0.329D+00 0.964D-01 0.825D+00
 Gap=     0.095 Goal=   None    Shift=    0.000
 RMSDP=3.78D-04 MaxDP=6.13D-02 DE=-3.23D-03 OVMax= 3.53D-02

 Cycle   5  Pass 1  IDiag  1:
 E= -61.9245089524152     Delta-E=       -0.000505695005 Rises=F Damp=F
 DIIS: error= 4.12D-04 at cycle   5 NSaved=   5.
 NSaved= 5 IEnMin= 5 EnMin= -61.9245089524152     IErMin= 5 ErrMin= 4.12D-04
 ErrMax= 4.12D-04  0.00D+00 EMaxC= 1.00D-01 BMatC= 3.47D-05 BMatP= 1.11D-04
 IDIUse=3 WtCom= 9.96D-01 WtEn= 4.12D-03
 Coeff-Com:  0.705D-01-0.959D-01-0.937D-01 0.426D-01 0.108D+01
 Coeff-En:   0.000D+00 0.000D+00 0.000D+00 0.000D+00 0.100D+01
 Coeff:      0.702D-01-0.955D-01-0.933D-01 0.424D-01 0.108D+01
 Gap=     0.095 Goal=   None    Shift=    0.000
 RMSDP=1.93D-04 MaxDP=1.74D-02 DE=-5.06D-04 OVMax= 1.19D-02

 Cycle   6  Pass 1  IDiag  1:
 E= -61.9246451902025     Delta-E=       -0.000136237787 Rises=F Damp=F
 DIIS: error= 2.16D-04 at cycle   6 NSaved=   6.
 NSaved= 6 IEnMin= 6 EnMin= -61.9246451902025     IErMin= 6 ErrMin= 2.16D-04
 ErrMax= 2.16D-04  0.00D+00 EMaxC= 1.00D-01 BMatC= 8.40D-06 BMatP= 3.47D-05
 IDIUse=3 WtCom= 9.98D-01 WtEn= 2.16D-03
 Coeff-Com:  0.181D+00-0.240D+00-0.811D-01 0.129D-01 0.805D-01 0.105D+01
 Coeff-En:   0.000D+00 0.000D+00 0.000D+00 0.000D+00 0.000D+00 0.100D+01
 Coeff:      0.181D+00-0.240D+00-0.810D-01 0.129D-01 0.804D-01 0.105D+01
 Gap=     0.095 Goal=   None    Shift=    0.000
 RMSDP=1.97D-04 MaxDP=2.26D-02 DE=-1.36D-04 OVMax= 1.34D-02

 Cycle   7  Pass 1  IDiag  1:
 E= -61.9246792611262     Delta-E=       -0.000034070924 Rises=F Damp=F
 DIIS: error= 1.58D-04 at cycle   7 NSaved=   7.
 NSaved= 7 IEnMin= 7 EnMin= -61.9246792611262     IErMin= 7 ErrMin= 1.58D-04
 ErrMax= 1.58D-04  0.00D+00 EMaxC= 1.00D-01 BMatC= 3.42D-06 BMatP= 8.40D-06
 IDIUse=3 WtCom= 9.98D-01 WtEn= 1.58D-03
 Coeff-Com:  0.620D-01-0.820D-01 0.245D-02 0.107D+00-0.230D+00 0.200D+00
 Coeff-Com:  0.941D+00
 Coeff-En:   0.000D+00 0.000D+00 0.000D+00 0.000D+00 0.000D+00 0.000D+00
 Coeff-En:   0.100D+01
 Coeff:      0.619D-01-0.819D-01 0.244D-02 0.107D+00-0.229D+00 0.199D+00
 Coeff:      0.941D+00
 Gap=     0.095 Goal=   None    Shift=    0.000
 RMSDP=1.08D-04 MaxDP=1.18D-02 DE=-3.41D-05 OVMax= 6.70D-03

 Cycle   8  Pass 1  IDiag  1:
 E= -61.9246965044285     Delta-E=       -0.000017243302 Rises=F Damp=F
 DIIS: error= 1.32D-04 at cycle   8 NSaved=   8.
 NSaved= 8 IEnMin= 8 EnMin= -61.9246965044285     IErMin= 8 ErrMin= 1.32D-04
 ErrMax= 1.32D-04  0.00D+00 EMaxC= 1.00D-01 BMatC= 9.72D-07 BMatP= 3.42D-06
 IDIUse=3 WtCom= 9.99D-01 WtEn= 1.32D-03
 Coeff-Com: -0.329D-01 0.436D-01 0.244D-01 0.777D-02 0.243D-01-0.350D+00
 Coeff-Com: -0.155D+00 0.144D+01
 Coeff-En:   0.000D+00 0.000D+00 0.000D+00 0.000D+00 0.000D+00 0.000D+00
 Coeff-En:   0.000D+00 0.100D+01
 Coeff:     -0.328D-01 0.435D-01 0.244D-01 0.776D-02 0.243D-01-0.350D+00
 Coeff:     -0.155D+00 0.144D+01
 Gap=     0.095 Goal=   None    Shift=    0.000
 RMSDP=5.89D-05 MaxDP=9.03D-03 DE=-1.72D-05 OVMax= 2.85D-03

 Cycle   9  Pass 1  IDiag  1:
 E= -61.9247029938335     Delta-E=       -0.000006489405 Rises=F Damp=F
 DIIS: error= 7.41D-05 at cycle   9 NSaved=   9.
 NSaved= 9 IEnMin= 9 EnMin= -61.9247029938335     IErMin= 9 ErrMin= 7.41D-05
 ErrMax= 7.41D-05  0.00D+00 EMaxC= 1.00D-01 BMatC= 2.90D-07 BMatP= 9.72D-07
 IDIUse=1 WtCom= 1.00D+00 WtEn= 0.00D+00
 Coeff-Com: -0.265D-01 0.352D-01-0.126D-02-0.765D-01 0.973D-01-0.771D-01
 Coeff-Com: -0.295D+00-0.205D+00 0.155D+01
 Coeff:     -0.265D-01 0.352D-01-0.126D-02-0.765D-01 0.973D-01-0.771D-01
 Coeff:     -0.295D+00-0.205D+00 0.155D+01
 Gap=     0.095 Goal=   None    Shift=    0.000
 RMSDP=2.51D-05 MaxDP=3.13D-03 DE=-6.49D-06 OVMax= 1.98D-03

 Cycle  10  Pass 1  IDiag  1:
 E= -61.9247055711887     Delta-E=       -0.000002577355 Rises=F Damp=F
 DIIS: error= 2.39D-05 at cycle  10 NSaved=  10.
 NSaved=10 IEnMin=10 EnMin= -61.9247055711887     IErMin=10 ErrMin= 2.39D-05
 ErrMax= 2.39D-05  0.00D+00 EMaxC= 1.00D-01 BMatC= 4.55D-08 BMatP= 2.90D-07
 IDIUse=1 WtCom= 1.00D+00 WtEn= 0.00D+00
 Coeff-Com: -0.687D-02 0.912D-02 0.394D-02 0.175D-02-0.236D-01 0.222D-01
 Coeff-Com:  0.133D+00-0.695D-01-0.424D+00 0.135D+01
 Coeff:     -0.687D-02 0.912D-02 0.394D-02 0.175D-02-0.236D-01 0.222D-01
 Coeff:      0.133D+00-0.695D-01-0.424D+00 0.135D+01
 Gap=     0.095 Goal=   None    Shift=    0.000
 RMSDP=6.27D-06 MaxDP=6.25D-04 DE=-2.58D-06 OVMax= 6.38D-04

 Cycle  11  Pass 1  IDiag  1:
 E= -61.9247058016017     Delta-E=       -0.000000230413 Rises=F Damp=F
 DIIS: error= 5.72D-06 at cycle  11 NSaved=  11.
 NSaved=11 IEnMin=11 EnMin= -61.9247058016017     IErMin=11 ErrMin= 5.72D-06
 ErrMax= 5.72D-06  0.00D+00 EMaxC= 1.00D-01 BMatC= 5.71D-09 BMatP= 4.55D-08
 IDIUse=1 WtCom= 1.00D+00 WtEn= 0.00D+00
 Coeff-Com: -0.126D-02 0.167D-02 0.169D-02 0.674D-02-0.130D-01 0.271D-02
 Coeff-Com:  0.577D-01 0.359D-01-0.263D+00 0.126D+00 0.104D+01
 Coeff:     -0.126D-02 0.167D-02 0.169D-02 0.674D-02-0.130D-01 0.271D-02
 Coeff:      0.577D-01 0.359D-01-0.263D+00 0.126D+00 0.104D+01
 Gap=     0.095 Goal=   None    Shift=    0.000
 RMSDP=4.01D-06 MaxDP=4.34D-04 DE=-2.30D-07 OVMax= 3.06D-04

 Cycle  12  Pass 1  IDiag  1:
 E= -61.9247058292478     Delta-E=       -0.000000027646 Rises=F Damp=F
 DIIS: error= 1.98D-06 at cycle  12 NSaved=  12.
 NSaved=12 IEnMin=12 EnMin= -61.9247058292478     IErMin=12 ErrMin= 1.98D-06
 ErrMax= 1.98D-06  0.00D+00 EMaxC= 1.00D-01 BMatC= 7.12D-10 BMatP= 5.71D-09
 IDIUse=1 WtCom= 1.00D+00 WtEn= 0.00D+00
 Coeff-Com:  0.742D-04-0.101D-03-0.107D-03 0.572D-03 0.129D-02-0.606D-02
 Coeff-Com: -0.854D-02 0.257D-01 0.761D-02-0.199D+00 0.264D+00 0.915D+00
 Coeff:      0.742D-04-0.101D-03-0.107D-03 0.572D-03 0.129D-02-0.606D-02
 Coeff:     -0.854D-02 0.257D-01 0.761D-02-0.199D+00 0.264D+00 0.915D+00
 Gap=     0.095 Goal=   None    Shift=    0.000
 RMSDP=1.52D-06 MaxDP=1.08D-04 DE=-2.76D-08 OVMax= 1.17D-04

 Cycle  13  Pass 1  IDiag  1:
 E= -61.9247058325348     Delta-E=       -0.000000003287 Rises=F Damp=F
 DIIS: error= 5.13D-07 at cycle  13 NSaved=  13.
 NSaved=13 IEnMin=13 EnMin= -61.9247058325348     IErMin=13 ErrMin= 5.13D-07
 ErrMax= 5.13D-07  0.00D+00 EMaxC= 1.00D-01 BMatC= 3.55D-11 BMatP= 7.12D-10
 IDIUse=1 WtCom= 1.00D+00 WtEn= 0.00D+00
 Coeff-Com:  0.913D-04-0.120D-03-0.892D-04-0.308D-03 0.737D-03-0.988D-03
 Coeff-Com: -0.427D-02 0.549D-03 0.172D-01-0.138D-01-0.669D-01 0.160D-01
 Coeff-Com:  0.105D+01
 Coeff:      0.913D-04-0.120D-03-0.892D-04-0.308D-03 0.737D-03-0.988D-03
 Coeff:     -0.427D-02 0.549D-03 0.172D-01-0.138D-01-0.669D-01 0.160D-01
 Coeff:      0.105D+01
 Gap=     0.095 Goal=   None    Shift=    0.000
 RMSDP=2.95D-07 MaxDP=2.11D-05 DE=-3.29D-09 OVMax= 2.01D-05

 Cycle  14  Pass 1  IDiag  1:
 E= -61.9247058326901     Delta-E=       -0.000000000155 Rises=F Damp=F
 DIIS: error= 1.92D-07 at cycle  14 NSaved=  14.
 NSaved=14 IEnMin=14 EnMin= -61.9247058326901     IErMin=14 ErrMin= 1.92D-07
 ErrMax= 1.92D-07  0.00D+00 EMaxC= 1.00D-01 BMatC= 3.97D-12 BMatP= 3.55D-11
 IDIUse=1 WtCom= 1.00D+00 WtEn= 0.00D+00
 Coeff-Com:  0.399D-04-0.528D-04-0.122D-04-0.412D-04-0.520D-04 0.677D-03
 Coeff-Com:  0.192D-03-0.282D-02 0.170D-02 0.158D-01-0.293D-01-0.903D-01
 Coeff-Com:  0.221D-01 0.108D+01
 Coeff:      0.399D-04-0.528D-04-0.122D-04-0.412D-04-0.520D-04 0.677D-03
 Coeff:      0.192D-03-0.282D-02 0.170D-02 0.158D-01-0.293D-01-0.903D-01
 Coeff:      0.221D-01 0.108D+01
 Gap=     0.095 Goal=   None    Shift=    0.000
 RMSDP=9.06D-08 MaxDP=5.81D-06 DE=-1.55D-10 OVMax= 1.00D-05

 Cycle  15  Pass 1  IDiag  1:
 E= -61.9247058327172     Delta-E=       -0.000000000027 Rises=F Damp=F
 DIIS: error= 6.39D-08 at cycle  15 NSaved=  15.
 NSaved=15 IEnMin=15 EnMin= -61.9247058327172     IErMin=15 ErrMin= 6.39D-08
 ErrMax= 6.39D-08  0.00D+00 EMaxC= 1.00D-01 BMatC= 4.77D-13 BMatP= 3.97D-12
 IDIUse=1 WtCom= 1.00D+00 WtEn= 0.00D+00
 Coeff-Com:  0.899D-05-0.120D-04-0.551D-06 0.469D-04-0.720D-04 0.582D-04
 Coeff-Com:  0.203D-03 0.965D-04-0.968D-03-0.186D-02 0.953D-02 0.991D-02
 Coeff-Com: -0.116D+00-0.920D-01 0.119D+01
 Coeff:      0.899D-05-0.120D-04-0.551D-06 0.469D-04-0.720D-04 0.582D-04
 Coeff:      0.203D-03 0.965D-04-0.968D-03-0.186D-02 0.953D-02 0.991D-02
 Coeff:     -0.116D+00-0.920D-01 0.119D+01
 Gap=     0.095 Goal=   None    Shift=    0.000
 RMSDP=3.46D-08 MaxDP=2.72D-06 DE=-2.70D-11 OVMax= 3.98D-06

 Cycle  16  Pass 1  IDiag  1:
 E= -61.9247058327202     Delta-E=       -0.000000000003 Rises=F Damp=F
 DIIS: error= 1.48D-08 at cycle  16 NSaved=  16.
 NSaved=16 IEnMin=16 EnMin= -61.9247058327202     IErMin=16 ErrMin= 1.48D-08
 ErrMax= 1.48D-08  0.00D+00 EMaxC= 1.00D-01 BMatC= 4.96D-14 BMatP= 4.77D-13
 IDIUse=1 WtCom= 1.00D+00 WtEn= 0.00D+00
 Coeff-Com:  0.345D-05-0.460D-05-0.125D-05 0.162D-04-0.919D-05-0.351D-04
 Coeff-Com:  0.620D-05 0.243D-03-0.282D-03-0.204D-02 0.493D-02 0.104D-01
 Coeff-Com: -0.285D-01-0.935D-01 0.188D+00 0.921D+00
 Coeff:      0.345D-05-0.460D-05-0.125D-05 0.162D-04-0.919D-05-0.351D-04
 Coeff:      0.620D-05 0.243D-03-0.282D-03-0.204D-02 0.493D-02 0.104D-01
 Coeff:     -0.285D-01-0.935D-01 0.188D+00 0.921D+00
 Gap=     0.095 Goal=   None    Shift=    0.000
 RMSDP=1.26D-08 MaxDP=1.20D-06 DE=-3.06D-12 OVMax= 1.25D-06

 Cycle  17  Pass 1  IDiag  1:
 E= -61.9247058327202     Delta-E=        0.000000000000 Rises=F Damp=F
 DIIS: error= 6.96D-09 at cycle  17 NSaved=  17.
 NSaved=17 IEnMin=16 EnMin= -61.9247058327202     IErMin=17 ErrMin= 6.96D-09
 ErrMax= 6.96D-09  0.00D+00 EMaxC= 1.00D-01 BMatC= 9.92D-15 BMatP= 4.96D-14
 IDIUse=1 WtCom= 1.00D+00 WtEn= 0.00D+00
 Coeff-Com:  0.171D-05-0.226D-05-0.116D-05-0.209D-05 0.114D-04-0.178D-04
 Coeff-Com: -0.451D-04 0.561D-04 0.117D-03-0.456D-03 0.318D-04 0.183D-02
 Coeff-Com:  0.109D-01-0.408D-02-0.173D+00 0.277D+00 0.887D+00
 Coeff:      0.171D-05-0.226D-05-0.116D-05-0.209D-05 0.114D-04-0.178D-04
 Coeff:     -0.451D-04 0.561D-04 0.117D-03-0.456D-03 0.318D-04 0.183D-02
 Coeff:      0.109D-01-0.408D-02-0.173D+00 0.277D+00 0.887D+00
 Gap=     0.095 Goal=   None    Shift=    0.000
 RMSDP=5.05D-09 MaxDP=3.86D-07 DE= 4.26D-14 OVMax= 4.86D-07

 SCF Done:  E(ROHF) =  -61.9247058327     A.U. after   17 cycles
            NFock= 17  Conv=0.50D-08     -V/T= 3.0826
 <Sx>= 0.0000 <Sy>= 0.0000 <Sz>= 0.5000 <S**2>= 0.7500 S= 0.5000
 <L.S>=  0.00000000000    
 KE= 2.973376722043D+01 PE=-1.700723379770D+02 EE= 6.003191970244D+01
 Annihilation of the first spin contaminant:
 S**2 before annihilation     0.7500,   after     0.7500
 Leave Link  502 at Mon Mar  5 18:04:07 2018, MaxMem= 10737418240 cpu:             538.0 elap:              37.5
 (Enter /home1/apps/gaussian/16rA.03/g16/l801.exe)
 Windowed orbitals will be sorted by symmetry type.
 GenMOA:  NOpAll=  4 NOp2=4 NOpUse=  4 JSym2X=1
 FoFJK:  IHMeth= 1 ICntrl=       0 DoSepK=F KAlg= 0 I1Cent=           0 FoldK=F
 IRaf=         0 NMat=       1 IRICut=       1 DoRegI=T DoRafI=F ISym2E= 1 IDoP0=0 IntGTp=1.
 FoFCou: FMM=F IPFlag=           8 FMFlag=      100000 FMFlg1=           0
         NFxFlg=           0 DoJE=F BraDBF=F KetDBF=F FulRan=T
         wScrn=  0.000000 ICntrl=         0 IOpCl=  1 I1Cent=           0 NGrid=           0
         NMat0=    1 NMatS0=      1 NMatT0=    0 NMatD0=    1 NMtDS0=    0 NMtDT0=    0
 Petite list used in FoFCou.
 <Sx>= 0.0000 <Sy>= 0.0000 <Sz>= 0.5000 <S**2>= 0.7500 S= 0.5000
 Range of M.O.s used for correlation:     1   258
 NBasis=   261 NAE=     9 NBE=     8 NFC=     0 NFV=     0
 NROrb=    258 NOA=     9 NOB=     8 NVA=   249 NVB=   250

 **** Warning!!: The largest alpha MO coefficient is  0.35830114D+03


 **** Warning!!: The largest beta MO coefficient is  0.35830179D+03

 Singles contribution to E2=   -0.2261716241D-03
 Leave Link  801 at Mon Mar  5 18:04:21 2018, MaxMem= 10737418240 cpu:             213.7 elap:              13.9
 (Enter /home1/apps/gaussian/16rA.03/g16/l804.exe)
 Open-shell transformation, MDV= 10737418240 ITran=4 ISComp=2.
 Unit  1 TFree=       2053648 TCopy=        917704.
 Semi-Direct transformation.
 ModeAB=           4 MOrb=             9 LenV=   10735346185
 LASXX=     19587894 LTotXX=    19587894 LenRXX=    39492189
 LTotAB=    19904295 MaxLAS=   111990060 LenRXY=           0
 NonZer=    59080083 LenScr=    89384960 LnRSAI=   111990060
 LnScr1=   168763392 LExtra=     8126851 Total=    417757452
 MaxDsk= 67108864000 SrtSym=           T ITran=            4
 DoSDTr:  NPSUse= 16
 JobTyp=1 Pass  1:  I=   1 to   9.
 (rs|ai) integrals will be sorted in core.
 Complete sort for first half transformation.
 First half transformation complete.
 Complete sort for second half transformation.
 Second half transformation complete.
 ModeAB=           4 MOrb=             8 LenV=   10735346185
 LASXX=     17386166 LTotXX=    17386166 LenRXX=    33807986
 LTotAB=    16421820 MaxLAS=    99546720 LenRXY=           0
 NonZer=    51194152 LenScr=    77552640 LnRSAI=    99546720
 LnScr1=   150084608 LExtra=    47619040 Total=    408610994
 MaxDsk= 67108864000 SrtSym=           T ITran=            4
 DoSDTr:  NPSUse= 16
 JobTyp=2 Pass  1:  I=   1 to   8.
 (rs|ai) integrals will be sorted in core.
 Complete sort for first half transformation.
 First half transformation complete.
 Complete sort for second half transformation.
 Second half transformation complete.
 Spin components of T(2) and E(2):
     alpha-alpha T2 =       0.3442096581D-01 E2=     -0.9804265659D-01
     alpha-beta  T2 =       0.1459660991D+00 E2=     -0.5039523173D+00
     beta-beta   T2 =       0.3009997988D-01 E2=     -0.8913706660D-01
 ANorm=    0.1100322148D+01
 E2 =    -0.6913582121D+00 EUMP2 =    -0.62616064044824D+02
 (S**2,0)=  0.75000D+00           (S**2,1)=  0.75000D+00
 E(PUHF)=      -0.61924705833D+02        E(PMP2)=      -0.62616064045D+02
 Leave Link  804 at Mon Mar  5 18:08:51 2018, MaxMem= 10737418240 cpu:            4152.1 elap:             269.0
 (Enter /home1/apps/gaussian/16rA.03/g16/l913.exe)
 CIDS:  MDV= 10737418240.
 IFCWin=0 IBDFC=1 NFBD=     0     0 NFCmp=     0     0 NFFFC=     0     0
 Using original routines for 1st iteration.
 Using DD4UQ or CC4UQ for 2nd and later iterations.
 Keep R2 and R3 ints in memory in symmetry-blocked form, NReq=734615681.
 FoFCou: FMM=F IPFlag=           8 FMFlag=           0 FMFlg1=           0
         NFxFlg=           0 DoJE=F BraDBF=F KetDBF=F FulRan=T
         wScrn=  0.000000 ICntrl=       600 IOpCl=  0 I1Cent=           0 NGrid=           0
         NMat0=    1 NMatS0=  34191 NMatT0=    0 NMatD0=    1 NMtDS0=    0 NMtDT0=    0
 Petite list used in FoFCou.
 CIDS: In Core Option IDoMem=           1.
 CCSD(T)
 =======
 Iterations= 150 Convergence= 0.100D-06
 Produce multiple copies of IABC intergrals
 Iteration Nr.   1
 **********************
 DD1Dir will call FoFMem   1 times, MxPair=       208
 NAB=    72 NAA=    36 NBB=    28.
 DD1Dir will call FoFMem   1 times, MxPair=       208
 NAB=    72 NAA=    36 NBB=    28.
 MP4(R+Q)= -0.18161219D-01
 Maximum subspace dimension=  5
 A-vector RMS=  1.3555019D-04 Max=  3.5036428D-03 conv= 1.00D-05.
 RLE energy=       -0.6718310266
 E3=        0.38234213D-01        EROMP3=      -0.62577829832D+02
 E4(SDQ)=  -0.58204348D-01        ROMP4(SDQ)=  -0.62636034180D+02
 VARIATIONAL ENERGIES WITH THE FIRST-ORDER WAVEFUNCTION:
 DE(Corr)= -0.67126325     E(Corr)=     -62.595969085    
 NORM(A)=   0.10921564D+01
 Iteration Nr.   2
 **********************
 DD1Dir will call FoFMem   1 times, MxPair=       208
 NAB=    72 NAA=    36 NBB=    28.
 A-vector RMS=  7.7070960D-03 Max=  6.7342480D-02 conv= 1.00D-05.
 RLE energy=       -0.4939257686
 DE(Corr)= -0.62879283     E(CORR)=     -62.553498661     Delta= 4.25D-02
 NORM(A)=   0.13152826D+01
 Iteration Nr.   3
 **********************
 DD1Dir will call FoFMem   1 times, MxPair=       208
 NAB=    72 NAA=    36 NBB=    28.
 A-vector RMS=  4.1756545D-02 Max=  3.8091012D-01 conv= 1.00D-05.
 RLE energy=       -0.6741077616
 DE(Corr)= -0.81289146     E(CORR)=     -62.737597296     Delta=-1.84D-01
 NORM(A)=   0.10921965D+01
 Iteration Nr.   4
 **********************
 DD1Dir will call FoFMem   1 times, MxPair=       208
 NAB=    72 NAA=    36 NBB=    28.
 A-vector RMS=  6.8701735D-03 Max=  6.0598525D-02 conv= 1.00D-05.
 RLE energy=       -0.6780478658
 DE(Corr)= -0.63644508     E(CORR)=     -62.561150912     Delta= 1.76D-01
 NORM(A)=   0.11068589D+01
 Iteration Nr.   5
 **********************
 DD1Dir will call FoFMem   1 times, MxPair=       208
 NAB=    72 NAA=    36 NBB=    28.
 A-vector RMS=  1.6151508D-03 Max=  1.3972587D-02 conv= 1.00D-05.
 RLE energy=       -0.6722325141
 DE(Corr)= -0.66848058     E(CORR)=     -62.593186409     Delta=-3.20D-02
 NORM(A)=   0.11497549D+01
 Iteration Nr.   6
 **********************
 DD1Dir will call FoFMem   1 times, MxPair=       208
 NAB=    72 NAA=    36 NBB=    28.
 A-vector RMS=  4.0945314D-03 Max=  3.6695018D-02 conv= 1.00D-05.
 RLE energy=       -0.6760826010
 DE(Corr)= -0.70129069     E(CORR)=     -62.625996527     Delta=-3.28D-02
 NORM(A)=   0.11238933D+01
 Iteration Nr.   7
 **********************
 DD1Dir will call FoFMem   1 times, MxPair=       208
 NAB=    72 NAA=    36 NBB=    28.
 A-vector RMS=  2.3741485D-04 Max=  3.9516604D-03 conv= 1.00D-05.
 RLE energy=       -0.6765324486
 DE(Corr)= -0.67668192     E(CORR)=     -62.601387754     Delta= 2.46D-02
 NORM(A)=   0.11269757D+01
 Iteration Nr.   8
 **********************
 DD1Dir will call FoFMem   1 times, MxPair=       208
 NAB=    72 NAA=    36 NBB=    28.
 A-vector RMS=  2.1858933D-04 Max=  3.0651714D-03 conv= 1.00D-05.
 RLE energy=       -0.6761039866
 DE(Corr)= -0.67620805     E(CORR)=     -62.600913887     Delta= 4.74D-04
 NORM(A)=   0.11299687D+01
 Iteration Nr.   9
 **********************
 DD1Dir will call FoFMem   1 times, MxPair=       208
 NAB=    72 NAA=    36 NBB=    28.
 A-vector RMS=  2.5014564D-04 Max=  2.3856976D-03 conv= 1.00D-05.
 RLE energy=       -0.6765344694
 DE(Corr)= -0.67750310     E(CORR)=     -62.602208935     Delta=-1.30D-03
 NORM(A)=   0.11294859D+01
 Iteration Nr.  10
 **********************
 DD1Dir will call FoFMem   1 times, MxPair=       208
 NAB=    72 NAA=    36 NBB=    28.
 A-vector RMS=  7.6327280D-05 Max=  8.2363411D-04 conv= 1.00D-05.
 RLE energy=       -0.6766159650
 DE(Corr)= -0.67631804     E(CORR)=     -62.601023875     Delta= 1.19D-03
 NORM(A)=   0.11305704D+01
 Iteration Nr.  11
 **********************
 DD1Dir will call FoFMem   1 times, MxPair=       208
 NAB=    72 NAA=    36 NBB=    28.
 A-vector RMS=  4.6688833D-05 Max=  4.5440045D-04 conv= 1.00D-05.
 RLE energy=       -0.6765734208
 DE(Corr)= -0.67668993     E(CORR)=     -62.601395767     Delta=-3.72D-04
 NORM(A)=   0.11303482D+01
 Iteration Nr.  12
 **********************
 DD1Dir will call FoFMem   1 times, MxPair=       208
 NAB=    72 NAA=    36 NBB=    28.
 A-vector RMS=  1.9001260D-05 Max=  1.9874562D-04 conv= 1.00D-05.
 RLE energy=       -0.6766638043
 DE(Corr)= -0.67661592     E(CORR)=     -62.601321757     Delta= 7.40D-05
 NORM(A)=   0.11304885D+01
 Iteration Nr.  13
 **********************
 DD1Dir will call FoFMem   1 times, MxPair=       208
 NAB=    72 NAA=    36 NBB=    28.
 A-vector RMS=  2.0361059D-05 Max=  3.8423536D-04 conv= 1.00D-05.
 RLE energy=       -0.6766393452
 DE(Corr)= -0.67659458     E(CORR)=     -62.601300411     Delta= 2.13D-05
 NORM(A)=   0.11305279D+01
 Iteration Nr.  14
 **********************
 DD1Dir will call FoFMem   1 times, MxPair=       208
 NAB=    72 NAA=    36 NBB=    28.
 A-vector RMS=  7.5294602D-06 Max=  1.1359446D-04 conv= 1.00D-05.
 RLE energy=       -0.6766135355
 DE(Corr)= -0.67662296     E(CORR)=     -62.601328796     Delta=-2.84D-05
 NORM(A)=   0.11305671D+01
 Iteration Nr.  15
 **********************
 DD1Dir will call FoFMem   1 times, MxPair=       208
 NAB=    72 NAA=    36 NBB=    28.
 A-vector RMS=  1.0384834D-05 Max=  1.3492199D-04 conv= 1.00D-05.
 RLE energy=       -0.6766566317
 DE(Corr)= -0.67666216     E(CORR)=     -62.601367991     Delta=-3.92D-05
 NORM(A)=   0.11305787D+01
 Iteration Nr.  16
 **********************
 DD1Dir will call FoFMem   1 times, MxPair=       208
 NAB=    72 NAA=    36 NBB=    28.
 A-vector RMS=  6.1823816D-06 Max=  5.7139245D-05 conv= 1.00D-05.
 RLE energy=       -0.6766339060
 DE(Corr)= -0.67661713     E(CORR)=     -62.601322961     Delta= 4.50D-05
 NORM(A)=   0.11305963D+01
 Iteration Nr.  17
 **********************
 DD1Dir will call FoFMem   1 times, MxPair=       208
 NAB=    72 NAA=    36 NBB=    28.
 A-vector RMS=  2.9781789D-06 Max=  2.7613177D-05 conv= 1.00D-05.
 RLE energy=       -0.6766427115
 DE(Corr)= -0.67664974     E(CORR)=     -62.601355571     Delta=-3.26D-05
 NORM(A)=   0.11305924D+01
 Iteration Nr.  18
 **********************
 DD1Dir will call FoFMem   1 times, MxPair=       208
 NAB=    72 NAA=    36 NBB=    28.
 A-vector RMS=  1.6618584D-06 Max=  1.7077724D-05 conv= 1.00D-05.
 RLE energy=       -0.6766407421
 DE(Corr)= -0.67663619     E(CORR)=     -62.601342025     Delta= 1.35D-05
 NORM(A)=   0.11305916D+01
 Iteration Nr.  19
 **********************
 DD1Dir will call FoFMem   1 times, MxPair=       208
 NAB=    72 NAA=    36 NBB=    28.
 A-vector RMS=  1.3101951D-06 Max=  2.5508513D-05 conv= 1.00D-05.
 RLE energy=       -0.6766401155
 DE(Corr)= -0.67663879     E(CORR)=     -62.601344624     Delta=-2.60D-06
 NORM(A)=   0.11305902D+01
 Iteration Nr.  20
 **********************
 DD1Dir will call FoFMem   1 times, MxPair=       208
 NAB=    72 NAA=    36 NBB=    28.
 A-vector RMS=  9.4871890D-07 Max=  1.7150330D-05 conv= 1.00D-05.
 RLE energy=       -0.6766385355
 DE(Corr)= -0.67663927     E(CORR)=     -62.601345100     Delta=-4.76D-07
 NORM(A)=   0.11305882D+01
 Iteration Nr.  21
 **********************
 DD1Dir will call FoFMem   1 times, MxPair=       208
 NAB=    72 NAA=    36 NBB=    28.
 A-vector RMS=  5.8360569D-07 Max=  7.8072613D-06 conv= 1.00D-05.
 RLE energy=       -0.6766407348
 DE(Corr)= -0.67664084     E(CORR)=     -62.601346671     Delta=-1.57D-06
 NORM(A)=   0.11305854D+01
 Iteration Nr.  22
 **********************
 DD1Dir will call FoFMem   1 times, MxPair=       208
 NAB=    72 NAA=    36 NBB=    28.
 A-vector RMS=  6.0678650D-07 Max=  6.1543696D-06 conv= 1.00D-05.
 RLE energy=       -0.6766382432
 DE(Corr)= -0.67663780     E(CORR)=     -62.601343630     Delta= 3.04D-06
 NORM(A)=   0.11305835D+01
 Iteration Nr.  23
 **********************
 DD1Dir will call FoFMem   1 times, MxPair=       208
 NAB=    72 NAA=    36 NBB=    28.
 A-vector RMS=  4.1190240D-07 Max=  4.4713623D-06 conv= 1.00D-05.
 RLE energy=       -0.6766398500
 DE(Corr)= -0.67664055     E(CORR)=     -62.601346379     Delta=-2.75D-06
 NORM(A)=   0.11305817D+01
 Iteration Nr.  24
 **********************
 DD1Dir will call FoFMem   1 times, MxPair=       208
 NAB=    72 NAA=    36 NBB=    28.
 A-vector RMS=  2.7247634D-07 Max=  2.8441892D-06 conv= 1.00D-05.
 RLE energy=       -0.6766390301
 DE(Corr)= -0.67663833     E(CORR)=     -62.601344164     Delta= 2.21D-06
 NORM(A)=   0.11305804D+01
 Iteration Nr.  25
 **********************
 DD1Dir will call FoFMem   1 times, MxPair=       208
 NAB=    72 NAA=    36 NBB=    28.
 A-vector RMS=  1.4472401D-07 Max=  1.5675068D-06 conv= 1.00D-05.
 RLE energy=       -0.6766389930
 DE(Corr)= -0.67663914     E(CORR)=     -62.601344975     Delta=-8.10D-07
 NORM(A)=   0.11305796D+01
 Iteration Nr.  26
 **********************
 DD1Dir will call FoFMem   1 times, MxPair=       208
 NAB=    72 NAA=    36 NBB=    28.
 A-vector RMS=  1.5948227D-07 Max=  4.1017778D-06 conv= 1.00D-05.
 RLE energy=       -0.6766387633
 DE(Corr)= -0.67663906     E(CORR)=     -62.601344896     Delta= 7.87D-08
 NORM(A)=   0.11305789D+01
 CI/CC converged in   26 iterations to DelEn= 7.87D-08 Conv= 1.00D-07 ErrA1= 1.59D-07 Conv= 1.00D-05
 Wavefunction amplitudes converged. E(Corr)=     -62.601344896    
 Largest amplitude= 9.44D-02
 Time for triples=    11521.47 seconds.
 T4(CCSD)= -0.62804074D-01
 T5(CCSD)=  0.15447111D-01
 CCSD(T)= -0.62648701859D+02
 Discarding MO integrals.
 Leave Link  913 at Mon Mar  5 18:28:42 2018, MaxMem= 10737418240 cpu:           18959.9 elap:            1190.1
 (Enter /home1/apps/gaussian/16rA.03/g16/l601.exe)
 Copying SCF densities to generalized density rwf, IOpCl= 0 IROHF=1.

 **********************************************************************

            Population analysis using the SCF density.

 **********************************************************************

 Orbital symmetries:
       Occupied  (SG) (PI) (PI) (SG) (SG) (SG) (PI) (PI) (SG)
       Virtual   (PI) (PI) (SG) (SG) (DLTA) (DLTA) (PI) (PI) (PI)
                 (PI) (SG) (SG) (DLTA) (DLTA) (SG) (PI) (PI) (SG)
                 (DLTA) (DLTA) (PI) (PI) (SG) (PI) (PI) (PHI) (PHI)
                 (SG) (DLTA) (DLTA) (PI) (PI) (SG) (SG) (PI) (PI)
                 (SG) (SG) (DLTA) (DLTA) (PI) (PI) (?A) (?A) (DLTA)
                 (DLTA) (SG) (PHI) (PHI) (PI) (PI) (PI) (PI) (SG)
                 (PHI) (PHI) (DLTA) (DLTA) (SG) (PI) (PI) (SG)
                 (PI) (PI) (DLTA) (DLTA) (SG) (SG) (DLTA) (DLTA)
                 (PI) (PI) (SG) (SG) (PI) (PI) (PI) (PI) (SG) (DLTA)
                 (DLTA) (PHI) (PHI) (?A) (?A) (SG) (PI) (PI) (SG)
                 (PHI) (PHI) (DLTA) (DLTA) (PI) (PI) (PHI) (PHI)
                 (SG) (DLTA) (DLTA) (PI) (PI) (DLTA) (DLTA) (SG)
                 (DLTA) (DLTA) (PI) (PI) (SG) (PI) (PI) (SG) (SG)
                 (PI) (PI) (SG) (PI) (PI) (SG) (SG) (DLTA) (DLTA)
                 (PI) (PI) (SG) (PHI) (PHI) (DLTA) (DLTA) (PHI)
                 (PHI) (PI) (PI) (SG) (DLTA) (DLTA) (PI) (PI) (DLTA)
                 (DLTA) (SG) (PI) (PI) (?A) (?A) (PHI) (PHI) (DLTA)
                 (DLTA) (SG) (PI) (PI) (SG) (SG) (PI) (PI) (SG)
                 (DLTA) (DLTA) (PI) (PI) (SG) (PI) (PI) (SG) (SG)
                 (SG) (PI) (PI) (SG) (DLTA) (DLTA) (PI) (PI) (SG)
                 (SG) (PI) (PI) (SG) (SG) (DLTA) (DLTA) (PI) (PI)
                 (SG) (PI) (PI) (SG) (DLTA) (DLTA) (PI) (PI) (SG)
                 (SG) (SG) (PI) (PI) (SG) (PI) (PI) (SG) (SG) (SG)
                 (PI) (PI) (SG) (DLTA) (DLTA) (PI) (PI) (SG) (SG)
                 (SG) (PI) (PI) (SG) (PI) (PI) (SG) (SG) (SG) (PI)
                 (PI) (SG) (SG) (PI) (PI) (SG) (SG) (SG) (PI) (PI)
                 (SG) (SG) (SG) (PI) (PI) (SG) (SG) (SG) (SG) (PI)
                 (PI) (SG) (SG) (SG) (SG) (SG)
 The electronic state is 2-SG.
 Alpha  occ. eigenvalues --   -2.71693  -1.68768  -1.68702  -1.68702  -1.11001
 Alpha  occ. eigenvalues --   -0.40288  -0.36495  -0.36495  -0.27454
 Alpha virt. eigenvalues --   -0.00875  -0.00875   0.00899   0.01954   0.03043
 Alpha virt. eigenvalues --    0.03043   0.03350   0.03350   0.04098   0.04315
 Alpha virt. eigenvalues --    0.04315   0.04898   0.06054   0.06054   0.09956
 Alpha virt. eigenvalues --    0.10978   0.10978   0.12836   0.14526   0.14526
 Alpha virt. eigenvalues --    0.14594   0.14594   0.14777   0.15811   0.15811
 Alpha virt. eigenvalues --    0.15884   0.15884   0.17302   0.17596   0.17596
 Alpha virt. eigenvalues --    0.18817   0.18817   0.26497   0.32280   0.34724
 Alpha virt. eigenvalues --    0.34724   0.36257   0.43112   0.43697   0.43697
 Alpha virt. eigenvalues --    0.45674   0.45674   0.46333   0.46333   0.46551
 Alpha virt. eigenvalues --    0.46631   0.46631   0.47662   0.47662   0.47909
 Alpha virt. eigenvalues --    0.47909   0.52154   0.52154   0.57443   0.59812
 Alpha virt. eigenvalues --    0.59812   0.60997   0.60997   0.63145   0.80051
 Alpha virt. eigenvalues --    0.80051   0.87320   0.98718   0.98718   0.99328
 Alpha virt. eigenvalues --    0.99328   1.02221   1.21746   1.22653   1.22653
 Alpha virt. eigenvalues --    1.26343   1.26343   1.31483   1.48207   1.49875
 Alpha virt. eigenvalues --    1.49875   1.55665   1.55665   1.68667   1.87945
 Alpha virt. eigenvalues --    1.87945   1.90593   1.90593   1.90617   1.90617
 Alpha virt. eigenvalues --    1.94281   1.96069   1.96069   2.08196   2.10735
 Alpha virt. eigenvalues --    2.10735   2.11174   2.11174   2.13801   2.13801
 Alpha virt. eigenvalues --    2.25698   2.25698   2.32085   2.44964   2.44964
 Alpha virt. eigenvalues --    2.63072   2.63072   2.63946   2.63946   2.79637
 Alpha virt. eigenvalues --    2.89322   2.89322   2.96361   2.96361   3.02837
 Alpha virt. eigenvalues --    3.17581   3.17581   3.46232   3.63666   3.99630
 Alpha virt. eigenvalues --    3.99630   4.16020   4.30036   4.30036   4.64666
 Alpha virt. eigenvalues --    5.43056   5.86933   5.86933   5.90773   5.90773
 Alpha virt. eigenvalues --    6.22554   6.61444   6.61444   6.62052   6.62052
 Alpha virt. eigenvalues --    6.65169   6.65169   6.72422   6.72422   6.73157
 Alpha virt. eigenvalues --    6.77820   6.77820   7.00639   7.00639   7.22804
 Alpha virt. eigenvalues --    7.22804   7.27522   7.42666   7.42666   7.67105
 Alpha virt. eigenvalues --    7.67105   7.68778   7.68778   7.73996   7.73996
 Alpha virt. eigenvalues --    7.76457   7.82621   7.82621   7.97752   8.25039
 Alpha virt. eigenvalues --    8.73768   8.73768   9.02044  11.11062  11.11062
 Alpha virt. eigenvalues --   11.17784  11.17784  11.40456  14.96228  14.96228
 Alpha virt. eigenvalues --   15.31600  16.24860  16.70591  17.89847  17.89847
 Alpha virt. eigenvalues --   18.16884  20.67658  20.67658  20.72906  20.72906
 Alpha virt. eigenvalues --   20.93212  34.49950  37.28077  37.28077  37.52832
 Alpha virt. eigenvalues --   38.36919  43.77352  43.77352  43.81612  43.81612
 Alpha virt. eigenvalues --   43.96265  45.60862  45.60862  45.93258  47.70643
 Alpha virt. eigenvalues --   47.70643  47.74215  47.74215  47.90888  70.49425
 Alpha virt. eigenvalues --   74.55537  76.43503  76.43503  76.66263 118.98950
 Alpha virt. eigenvalues --  118.98950 119.25203 127.74216 136.76575 151.60819
 Alpha virt. eigenvalues --  151.60819 151.82369 173.64274 173.64274 173.66225
 Alpha virt. eigenvalues --  173.66225 173.76696 229.19830 257.53344 286.28067
 Alpha virt. eigenvalues --  286.28067 286.51361 302.33643 302.33643 302.54413
 Alpha virt. eigenvalues --  436.19499 555.01690 625.65456 625.65456 625.84922
 Alpha virt. eigenvalues --  878.683651381.048661381.048661381.225181529.54656
 Alpha virt. eigenvalues -- 1876.637203351.773793351.773793351.927714257.02519
 Alpha virt. eigenvalues -- 5659.712669408.019379408.019379408.14602**********
 Alpha virt. eigenvalues -- **************************************************
 Alpha virt. eigenvalues -- ****************************************
     Molecular Orbital Coefficients:
                           4         5         6         7         8
                           O         O         O         O         O
     Eigenvalues --    -1.68702  -1.11001  -0.40288  -0.36495  -0.36495
   1 1   Sc 1S          0.00000   0.00000   0.00000   0.00000   0.00000
   2        2S         -0.00000  -0.00000  -0.00000   0.00000   0.00000
   3        3S          0.00000   0.00000   0.00000   0.00000   0.00000
   4        4S         -0.00000  -0.00000  -0.00000   0.00000   0.00000
   5        5S          0.00000   0.00000   0.00000   0.00000   0.00000
   6        6S         -0.00000  -0.00000  -0.00001   0.00000   0.00000
   7        7S          0.00000   0.00001   0.00002   0.00000   0.00000
   8        8S         -0.00001  -0.00004  -0.00006   0.00000   0.00000
   9        9S          0.00003   0.00011   0.00019   0.00000   0.00000
  10       10S         -0.00008  -0.00032  -0.00055   0.00000   0.00000
  11       11S          0.00022   0.00096   0.00163   0.00000   0.00000
  12       12S         -0.00070  -0.00315  -0.00539   0.00000   0.00000
  13       13S          0.00062  -0.00091  -0.00094   0.00000   0.00000
  14       14S          0.00230   0.03784   0.06188   0.00000   0.00000
  15       15S         -0.02157   0.00060  -0.00972   0.00000   0.00000
  16       16S          0.00565  -0.06130  -0.09591   0.00000   0.00000
  17       17S          0.03157  -0.00541  -0.02738   0.00000   0.00000
  18       18S          0.01444  -0.00364   0.09427   0.00000   0.00000
  19       19S          0.00251  -0.01130   0.00188   0.00000   0.00000
  20       20S          0.00326  -0.00120   0.00779   0.00000   0.00000
  21       21S          0.01503  -0.01109  -0.01069   0.00000   0.00000
  22       22S         -0.03219  -0.03762  -0.08786   0.00000   0.00000
  23       23S         -0.00095   0.00083   0.00066   0.00000   0.00000
  24       24PX         0.00000   0.00000   0.00000   0.00000  -0.00000
  25       24PY         0.00000   0.00000   0.00000  -0.00000   0.00000
  26       24PZ         0.00000   0.00000   0.00000   0.00000   0.00000
  27       25PX         0.00000   0.00000   0.00000   0.00000   0.00000
  28       25PY         0.00000   0.00000   0.00000   0.00000   0.00000
  29       25PZ        -0.00000  -0.00000  -0.00000   0.00000   0.00000
  30       26PX         0.00000   0.00000   0.00000   0.00000  -0.00000
  31       26PY         0.00000   0.00000   0.00000  -0.00000   0.00000
  32       26PZ         0.00001   0.00000   0.00000   0.00000   0.00000
  33       27PX         0.00000   0.00000   0.00000   0.00000   0.00001
  34       27PY         0.00000   0.00000   0.00000   0.00001   0.00000
  35       27PZ        -0.00006  -0.00001  -0.00001   0.00000   0.00000
  36       28PX         0.00000   0.00000   0.00000   0.00000  -0.00002
  37       28PY         0.00000   0.00000   0.00000  -0.00002   0.00000
  38       28PZ         0.00024   0.00004   0.00003   0.00000   0.00000
  39       29PX         0.00000   0.00000   0.00000   0.00000   0.00008
  40       29PY         0.00000   0.00000   0.00000   0.00008   0.00000
  41       29PZ        -0.00089  -0.00017  -0.00012   0.00000   0.00000
  42       30PX         0.00000   0.00000   0.00000   0.00000  -0.00031
  43       30PY         0.00000   0.00000   0.00000  -0.00031   0.00000
  44       30PZ         0.00342   0.00066   0.00047   0.00000   0.00000
  45       31PX         0.00000   0.00000   0.00000   0.00000   0.00024
  46       31PY         0.00000   0.00000   0.00000   0.00024   0.00000
  47       31PZ        -0.00178  -0.00026  -0.00018   0.00000   0.00000
  48       32PX         0.00000   0.00000   0.00000   0.00000   0.00688
  49       32PY         0.00000   0.00000   0.00000   0.00688   0.00000
  50       32PZ        -0.08383  -0.01776  -0.01332   0.00000   0.00000
  51       33PX         0.00000   0.00000   0.00000   0.00000  -0.00294
  52       33PY         0.00000   0.00000   0.00000  -0.00294   0.00000
  53       33PZ         0.11745   0.03431   0.03091   0.00000   0.00000
  54       34PX         0.00000   0.00000   0.00000   0.00000  -0.02753
  55       34PY         0.00000   0.00000   0.00000  -0.02753   0.00000
  56       34PZ         0.32219   0.06855   0.05381   0.00000   0.00000
  57       35PX         0.00000   0.00000   0.00000   0.00000  -0.03258
  58       35PY         0.00000   0.00000   0.00000  -0.03258   0.00000
  59       35PZ         0.45215   0.10528   0.08090   0.00000   0.00000
  60       36PX         0.00000   0.00000   0.00000   0.00000  -0.02378
  61       36PY         0.00000   0.00000   0.00000  -0.02378   0.00000
  62       36PZ         0.27544   0.04745   0.02683   0.00000   0.00000
  63       37PX         0.00000   0.00000   0.00000   0.00000   0.03757
  64       37PY         0.00000   0.00000   0.00000   0.03757   0.00000
  65       37PZ         0.02855   0.01608   0.00525   0.00000   0.00000
  66       38PX         0.00000   0.00000   0.00000   0.00000   0.03777
  67       38PY         0.00000   0.00000   0.00000   0.03777   0.00000
  68       38PZ        -0.00943   0.00382  -0.01454   0.00000   0.00000
  69       39PX         0.00000   0.00000   0.00000   0.00000  -0.01344
  70       39PY         0.00000   0.00000   0.00000  -0.01344   0.00000
  71       39PZ         0.00085   0.00196  -0.00075   0.00000   0.00000
  72       40PX         0.00000   0.00000   0.00000   0.00000   0.00029
  73       40PY         0.00000   0.00000   0.00000   0.00029   0.00000
  74       40PZ        -0.09802  -0.02984  -0.02738   0.00000   0.00000
  75       41PX         0.00000   0.00000   0.00000   0.00000  -0.01575
  76       41PY         0.00000   0.00000   0.00000  -0.01575   0.00000
  77       41PZ         0.01304  -0.00169   0.00308   0.00000   0.00000
  78       42PX         0.00000   0.00000   0.00000   0.00000   0.00332
  79       42PY         0.00000   0.00000   0.00000   0.00332   0.00000
  80       42PZ        -0.00017  -0.00088  -0.00233   0.00000   0.00000
  81       43D 0        0.00000   0.00002   0.00007   0.00000   0.00000
  82       43D+1        0.00000   0.00000   0.00000   0.00000  -0.00004
  83       43D-1        0.00000   0.00000   0.00000  -0.00004   0.00000
  84       43D+2        0.00000   0.00000  -0.00000   0.00000   0.00000
  85       43D-2        0.00000   0.00000   0.00000   0.00000   0.00000
  86       44D 0        0.00045   0.00196   0.00856   0.00000   0.00000
  87       44D+1        0.00000   0.00000   0.00000   0.00000  -0.00608
  88       44D-1        0.00000   0.00000   0.00000  -0.00608   0.00000
  89       44D+2       -0.00000   0.00000  -0.00000   0.00000   0.00000
  90       44D-2        0.00000   0.00000   0.00000   0.00000   0.00000
  91       45D 0        0.00206   0.00905   0.03889   0.00000   0.00000
  92       45D+1        0.00000   0.00000   0.00000   0.00000  -0.02721
  93       45D-1        0.00000   0.00000   0.00000  -0.02721   0.00000
  94       45D+2        0.00000   0.00000  -0.00000   0.00000   0.00000
  95       45D-2        0.00000   0.00000   0.00000   0.00000   0.00000
  96       46D 0        0.00072  -0.00303   0.02014   0.00000   0.00000
  97       46D+1        0.00000   0.00000   0.00000   0.00000  -0.02488
  98       46D-1        0.00000   0.00000   0.00000  -0.02488   0.00000
  99       46D+2       -0.00000  -0.00000   0.00000   0.00000   0.00000
 100       46D-2        0.00000   0.00000   0.00000   0.00000   0.00000
 101       47D 0       -0.01830  -0.38600  -0.68167   0.00000   0.00000
 102       47D+1        0.00000   0.00000   0.00000   0.00000   0.21526
 103       47D-1        0.00000   0.00000   0.00000   0.21526   0.00000
 104       47D+2       -0.00000  -0.00000   0.00000   0.00000   0.00000
 105       47D-2        0.00000   0.00000   0.00000   0.00000   0.00000
 106       48D 0        0.00855   0.01962   0.11440   0.00000   0.00000
 107       48D+1        0.00000   0.00000   0.00000   0.00000  -0.10012
 108       48D-1        0.00000   0.00000   0.00000  -0.10012   0.00000
 109       48D+2       -0.00000  -0.00000   0.00000   0.00000   0.00000
 110       48D-2        0.00000   0.00000   0.00000   0.00000   0.00000
 111       49D 0        0.00333  -0.00022   0.04743   0.00000   0.00000
 112       49D+1        0.00000   0.00000   0.00000   0.00000  -0.06202
 113       49D-1        0.00000   0.00000   0.00000  -0.06202   0.00000
 114       49D+2        0.00000   0.00000  -0.00000   0.00000   0.00000
 115       49D-2        0.00000   0.00000   0.00000   0.00000   0.00000
 116       50D 0        0.00120   0.00079   0.00995   0.00000   0.00000
 117       50D+1        0.00000   0.00000   0.00000   0.00000   0.00555
 118       50D-1        0.00000   0.00000   0.00000   0.00555   0.00000
 119       50D+2       -0.00000  -0.00000   0.00000   0.00000   0.00000
 120       50D-2        0.00000   0.00000   0.00000   0.00000   0.00000
 121       51D 0        0.00253   0.02504   0.06801   0.00000   0.00000
 122       51D+1        0.00000   0.00000   0.00000   0.00000  -0.03539
 123       51D-1        0.00000   0.00000   0.00000  -0.03539   0.00000
 124       51D+2        0.00000   0.00000  -0.00000   0.00000   0.00000
 125       51D-2        0.00000   0.00000   0.00000   0.00000   0.00000
 126       52D 0        0.02778   0.41868   0.80798   0.00000   0.00000
 127       52D+1        0.00000   0.00000   0.00000   0.00000  -0.29982
 128       52D-1        0.00000   0.00000   0.00000  -0.29982   0.00000
 129       52D+2        0.00000   0.00000  -0.00000   0.00000   0.00000
 130       52D-2        0.00000   0.00000   0.00000   0.00000   0.00000
 131       53D 0       -0.00026   0.00003   0.00052   0.00000   0.00000
 132       53D+1        0.00000   0.00000   0.00000   0.00000   0.00065
 133       53D-1        0.00000   0.00000   0.00000   0.00065   0.00000
 134       53D+2        0.00000   0.00000  -0.00000   0.00000   0.00000
 135       53D-2        0.00000   0.00000   0.00000   0.00000   0.00000
 136       54F 0       -0.00079  -0.00125  -0.00255   0.00000   0.00000
 137       54F+1        0.00000   0.00000   0.00000   0.00000   0.00140
 138       54F-1        0.00000   0.00000   0.00000   0.00140   0.00000
 139       54F+2        0.00000   0.00000  -0.00000   0.00000   0.00000
 140       54F-2        0.00000   0.00000   0.00000   0.00000   0.00000
 141       54F+3        0.00000   0.00000   0.00000   0.00000   0.00000
 142       54F-3        0.00000   0.00000   0.00000   0.00000   0.00000
 143       55F 0       -0.00263  -0.00801  -0.01401   0.00000   0.00000
 144       55F+1        0.00000   0.00000   0.00000   0.00000   0.01208
 145       55F-1        0.00000   0.00000   0.00000   0.01208   0.00000
 146       55F+2       -0.00000  -0.00000   0.00000   0.00000   0.00000
 147       55F-2        0.00000   0.00000   0.00000   0.00000   0.00000
 148       55F+3        0.00000   0.00000   0.00000   0.00000  -0.00000
 149       55F-3        0.00000   0.00000   0.00000   0.00000   0.00000
 150       56F 0       -0.00123  -0.00089  -0.00793   0.00000   0.00000
 151       56F+1        0.00000   0.00000   0.00000   0.00000   0.00963
 152       56F-1        0.00000   0.00000   0.00000   0.00963   0.00000
 153       56F+2        0.00000   0.00000  -0.00000   0.00000   0.00000
 154       56F-2        0.00000   0.00000   0.00000   0.00000   0.00000
 155       56F+3        0.00000   0.00000   0.00000   0.00000  -0.00000
 156       56F-3        0.00000   0.00000   0.00000  -0.00000   0.00000
 157       57F 0       -0.00027  -0.00073  -0.00508   0.00000   0.00000
 158       57F+1        0.00000   0.00000   0.00000   0.00000  -0.00535
 159       57F-1        0.00000   0.00000   0.00000  -0.00535   0.00000
 160       57F+2       -0.00000  -0.00000   0.00000   0.00000   0.00000
 161       57F-2        0.00000   0.00000   0.00000   0.00000   0.00000
 162       57F+3        0.00000   0.00000   0.00000   0.00000  -0.00000
 163       57F-3        0.00000   0.00000   0.00000  -0.00000   0.00000
 164       58G 0       -0.00013   0.00057   0.00067   0.00000   0.00000
 165       58G+1        0.00000   0.00000   0.00000   0.00000  -0.00050
 166       58G-1        0.00000   0.00000   0.00000  -0.00050   0.00000
 167       58G+2        0.00000   0.00000  -0.00000   0.00000   0.00000
 168       58G-2        0.00000   0.00000   0.00000   0.00000   0.00000
 169       58G+3        0.00000   0.00000   0.00000   0.00000  -0.00000
 170       58G-3        0.00000   0.00000   0.00000  -0.00000   0.00000
 171       58G+4       -0.00000  -0.00000   0.00000   0.00000   0.00000
 172       58G-4        0.00000   0.00000   0.00000   0.00000   0.00000
 173       59G 0       -0.00026   0.00163   0.00163   0.00000   0.00000
 174       59G+1        0.00000   0.00000   0.00000   0.00000  -0.00331
 175       59G-1        0.00000   0.00000   0.00000  -0.00331   0.00000
 176       59G+2        0.00000   0.00000  -0.00000   0.00000   0.00000
 177       59G-2        0.00000   0.00000   0.00000   0.00000   0.00000
 178       59G+3        0.00000   0.00000   0.00000   0.00000   0.00000
 179       59G-3        0.00000   0.00000   0.00000   0.00000   0.00000
 180       59G+4        0.00000   0.00000  -0.00000   0.00000   0.00000
 181       59G-4        0.00000   0.00000   0.00000   0.00000   0.00000
 182       60G 0        0.00005   0.00031   0.00404   0.00000   0.00000
 183       60G+1        0.00000   0.00000   0.00000   0.00000   0.00449
 184       60G-1        0.00000   0.00000   0.00000   0.00449   0.00000
 185       60G+2       -0.00000  -0.00000   0.00000   0.00000   0.00000
 186       60G-2        0.00000   0.00000   0.00000   0.00000   0.00000
 187       60G+3        0.00000   0.00000   0.00000   0.00000   0.00000
 188       60G-3        0.00000   0.00000   0.00000   0.00000   0.00000
 189       60G+4       -0.00000  -0.00000   0.00000   0.00000   0.00000
 190       60G-4        0.00000   0.00000   0.00000   0.00000   0.00000
 191 2   O  1S          0.00000  -0.00000   0.00000   0.00000   0.00000
 192        2S         -0.00000   0.00001  -0.00000   0.00000   0.00000
 193        3S          0.00001  -0.00005   0.00001   0.00000   0.00000
 194        4S         -0.00003   0.00033  -0.00005   0.00000   0.00000
 195        5S          0.00035  -0.00341   0.00053   0.00000   0.00000
 196        6S          0.00497  -0.05185   0.00863   0.00000   0.00000
 197        7S          0.01741  -0.16701   0.02590   0.00000   0.00000
 198        8S         -0.05922   0.53901  -0.08873   0.00000   0.00000
 199        9S         -0.01663   0.15997  -0.02570   0.00000   0.00000
 200       10S         -0.04191   0.40415  -0.08078   0.00000   0.00000
 201       11S          0.00145   0.00179  -0.00278   0.00000   0.00000
 202       12S         -0.00502   0.04935  -0.00777   0.00000   0.00000
 203       13S         -0.01641   0.05827  -0.02859   0.00000   0.00000
 204       14PX         0.00000   0.00000   0.00000   0.00000   0.00734
 205       14PY         0.00000   0.00000   0.00000   0.00734   0.00000
 206       14PZ        -0.00051   0.00042   0.00761   0.00000   0.00000
 207       15PX         0.00000   0.00000   0.00000   0.00000   0.07648
 208       15PY         0.00000   0.00000   0.00000   0.07648   0.00000
 209       15PZ        -0.00504   0.00367   0.07903   0.00000   0.00000
 210       16PX         0.00000   0.00000   0.00000   0.00000   0.24681
 211       16PY         0.00000   0.00000   0.00000   0.24681   0.00000
 212       16PZ        -0.01510   0.00988   0.25382   0.00000   0.00000
 213       17PX         0.00000   0.00000   0.00000   0.00000   0.38916
 214       17PY         0.00000   0.00000   0.00000   0.38916   0.00000
 215       17PZ        -0.02661   0.02160   0.40161   0.00000   0.00000
 216       18PX         0.00000   0.00000   0.00000   0.00000   0.35300
 217       18PY         0.00000   0.00000   0.00000   0.35300   0.00000
 218       18PZ        -0.02019   0.05045   0.34563   0.00000   0.00000
 219       19PX         0.00000   0.00000   0.00000   0.00000   0.00436
 220       19PY         0.00000   0.00000   0.00000   0.00436   0.00000
 221       19PZ        -0.00021   0.00003   0.00440   0.00000   0.00000
 222       20PX         0.00000   0.00000   0.00000   0.00000  -0.00193
 223       20PY         0.00000   0.00000   0.00000  -0.00193   0.00000
 224       20PZ         0.00014  -0.00012  -0.00200   0.00000   0.00000
 225       21PX         0.00000   0.00000   0.00000   0.00000   0.09601
 226       21PY         0.00000   0.00000   0.00000   0.09601   0.00000
 227       21PZ        -0.00314   0.01123   0.07062   0.00000   0.00000
 228       22D 0       -0.00136   0.00062   0.00396   0.00000   0.00000
 229       22D+1        0.00000   0.00000   0.00000   0.00000   0.00335
 230       22D-1        0.00000   0.00000   0.00000   0.00335   0.00000
 231       22D+2        0.00000   0.00000  -0.00000   0.00000   0.00000
 232       22D-2        0.00000   0.00000   0.00000   0.00000   0.00000
 233       23D 0       -0.00571   0.00744   0.01724   0.00000   0.00000
 234       23D+1        0.00000   0.00000   0.00000   0.00000   0.01737
 235       23D-1        0.00000   0.00000   0.00000   0.01737   0.00000
 236       23D+2       -0.00000  -0.00000   0.00000   0.00000   0.00000
 237       23D-2        0.00000   0.00000   0.00000   0.00000   0.00000
 238       24D 0       -0.00008   0.00007   0.00022   0.00000   0.00000
 239       24D+1        0.00000   0.00000   0.00000   0.00000   0.00022
 240       24D-1        0.00000   0.00000   0.00000   0.00022   0.00000
 241       24D+2        0.00000   0.00000  -0.00000   0.00000   0.00000
 242       24D-2        0.00000   0.00000   0.00000   0.00000   0.00000
 243       25D 0       -0.00346   0.01359   0.02748   0.00000   0.00000
 244       25D+1        0.00000   0.00000   0.00000   0.00000   0.03245
 245       25D-1        0.00000   0.00000   0.00000   0.03245   0.00000
 246       25D+2        0.00000   0.00000  -0.00000   0.00000   0.00000
 247       25D-2        0.00000   0.00000   0.00000   0.00000   0.00000
 248       26F 0       -0.00088   0.00040   0.00134   0.00000   0.00000
 249       26F+1        0.00000   0.00000   0.00000   0.00000   0.00056
 250       26F-1        0.00000   0.00000   0.00000   0.00056   0.00000
 251       26F+2       -0.00000  -0.00000   0.00000   0.00000   0.00000
 252       26F-2        0.00000   0.00000   0.00000   0.00000   0.00000
 253       26F+3        0.00000   0.00000   0.00000   0.00000   0.00000
 254       26F-3        0.00000   0.00000   0.00000   0.00000   0.00000
 255       27F 0       -0.00121   0.00230   0.00493   0.00000   0.00000
 256       27F+1        0.00000   0.00000   0.00000   0.00000   0.00834
 257       27F-1        0.00000   0.00000   0.00000   0.00834   0.00000
 258       27F+2       -0.00000  -0.00000   0.00000   0.00000   0.00000
 259       27F-2        0.00000   0.00000   0.00000   0.00000   0.00000
 260       27F+3        0.00000   0.00000   0.00000   0.00000   0.00000
 261       27F-3        0.00000   0.00000   0.00000   0.00000   0.00000
                           9        10        11        12        13
                           O         V         V         V         V
     Eigenvalues --    -0.27454  -0.00875  -0.00875   0.00899   0.01954
   1 1   Sc 1S          0.00000   0.00000   0.00000   0.00000  -0.00000
   2        2S         -0.00000   0.00000   0.00000  -0.00000   0.00000
   3        3S          0.00000   0.00000   0.00000   0.00000  -0.00000
   4        4S         -0.00000   0.00000   0.00000  -0.00000   0.00000
   5        5S          0.00000   0.00000   0.00000   0.00000  -0.00000
   6        6S         -0.00001   0.00000   0.00000  -0.00000   0.00000
   7        7S          0.00003   0.00000   0.00000   0.00000  -0.00001
   8        8S         -0.00011   0.00000   0.00000  -0.00000   0.00004
   9        9S          0.00033   0.00000   0.00000   0.00001  -0.00013
  10       10S         -0.00097   0.00000   0.00000  -0.00003   0.00035
  11       11S          0.00288   0.00000   0.00000   0.00021  -0.00090
  12       12S         -0.00959   0.00000   0.00000  -0.00095   0.00267
  13       13S         -0.00342   0.00000   0.00000  -0.00677  -0.00755
  14       14S          0.12414   0.00000   0.00000   0.06331   0.03296
  15       15S          0.03071   0.00000   0.00000   0.16497   0.20808
  16       16S         -0.26343   0.00000   0.00000  -0.29084  -0.28298
  17       17S         -0.31078   0.00000   0.00000  -0.29898  -0.30038
  18       18S          0.39307   0.00000   0.00000   0.48491   0.52704
  19       19S          0.46446   0.00000   0.00000  -0.64848  -1.64490
  20       20S          0.16305   0.00000   0.00000   1.66892   2.29860
  21       21S         -0.05805   0.00000   0.00000  -0.13940  -0.16210
  22       22S          0.05403   0.00000   0.00000   0.33949   0.45302
  23       23S         -0.00852   0.00000   0.00000  -1.57893  -1.92472
  24       24PX         0.00000   0.00000  -0.00000   0.00000   0.00000
  25       24PY         0.00000  -0.00000   0.00000   0.00000   0.00000
  26       24PZ        -0.00000   0.00000   0.00000   0.00000  -0.00000
  27       25PX         0.00000   0.00000   0.00000   0.00000   0.00000
  28       25PY         0.00000   0.00000   0.00000   0.00000   0.00000
  29       25PZ         0.00000   0.00000   0.00000  -0.00000   0.00000
  30       26PX         0.00000   0.00000  -0.00000   0.00000   0.00000
  31       26PY         0.00000  -0.00000   0.00000   0.00000   0.00000
  32       26PZ        -0.00000   0.00000   0.00000   0.00000  -0.00000
  33       27PX         0.00000   0.00000   0.00001   0.00000   0.00000
  34       27PY         0.00000   0.00001   0.00000   0.00000   0.00000
  35       27PZ         0.00001   0.00000   0.00000  -0.00002   0.00001
  36       28PX         0.00000   0.00000  -0.00005   0.00000   0.00000
  37       28PY         0.00000  -0.00005   0.00000   0.00000   0.00000
  38       28PZ        -0.00003   0.00000   0.00000   0.00007  -0.00004
  39       29PX         0.00000   0.00000   0.00018   0.00000   0.00000
  40       29PY         0.00000   0.00018   0.00000   0.00000   0.00000
  41       29PZ         0.00010   0.00000   0.00000  -0.00023   0.00015
  42       30PX         0.00000   0.00000  -0.00064   0.00000   0.00000
  43       30PY         0.00000  -0.00064   0.00000   0.00000   0.00000
  44       30PZ        -0.00042   0.00000   0.00000   0.00071  -0.00049
  45       31PX         0.00000   0.00000   0.00093   0.00000   0.00000
  46       31PY         0.00000   0.00093   0.00000   0.00000   0.00000
  47       31PZ         0.00010   0.00000   0.00000  -0.00189   0.00090
  48       32PX         0.00000   0.00000   0.00800   0.00000   0.00000
  49       32PY         0.00000   0.00800   0.00000   0.00000   0.00000
  50       32PZ         0.01328   0.00000   0.00000   0.00420   0.00332
  51       33PX         0.00000   0.00000   0.02795   0.00000   0.00000
  52       33PY         0.00000   0.02795   0.00000   0.00000   0.00000
  53       33PZ        -0.03147   0.00000   0.00000  -0.11659   0.04000
  54       34PX         0.00000   0.00000  -0.03971   0.00000   0.00000
  55       34PY         0.00000  -0.03971   0.00000   0.00000   0.00000
  56       34PZ        -0.05048   0.00000   0.00000   0.00277  -0.02158
  57       35PX         0.00000   0.00000   0.01923   0.00000   0.00000
  58       35PY         0.00000   0.01923   0.00000   0.00000   0.00000
  59       35PZ        -0.09910   0.00000   0.00000  -0.20017   0.04921
  60       36PX         0.00000   0.00000  -0.03109   0.00000   0.00000
  61       36PY         0.00000  -0.03109   0.00000   0.00000   0.00000
  62       36PZ        -0.07281   0.00000   0.00000  -0.04046  -0.00600
  63       37PX         0.00000   0.00000   0.04214   0.00000   0.00000
  64       37PY         0.00000   0.04214   0.00000   0.00000   0.00000
  65       37PZ         0.13903   0.00000   0.00000   0.04605  -0.03306
  66       38PX         0.00000   0.00000   0.27777   0.00000   0.00000
  67       38PY         0.00000   0.27777   0.00000   0.00000   0.00000
  68       38PZ         0.34302   0.00000   0.00000  -0.17024   0.44395
  69       39PX         0.00000   0.00000   0.13082   0.00000   0.00000
  70       39PY         0.00000   0.13082   0.00000   0.00000   0.00000
  71       39PZ         0.05813   0.00000   0.00000   0.34109  -0.11231
  72       40PX         0.00000   0.00000  -0.03170   0.00000   0.00000
  73       40PY         0.00000  -0.03170   0.00000   0.00000   0.00000
  74       40PZ         0.02728   0.00000   0.00000   0.11853  -0.04242
  75       41PX         0.00000   0.00000  -0.09213   0.00000   0.00000
  76       41PY         0.00000  -0.09213   0.00000   0.00000   0.00000
  77       41PZ         0.02037   0.00000   0.00000   0.23438  -0.09451
  78       42PX         0.00000   0.00000   0.60315   0.00000   0.00000
  79       42PY         0.00000   0.60315   0.00000   0.00000   0.00000
  80       42PZ        -0.00218   0.00000   0.00000  -0.91032   0.30903
  81       43D 0       -0.00003   0.00000   0.00000  -0.00002   0.00001
  82       43D+1        0.00000   0.00000   0.00003   0.00000   0.00000
  83       43D-1        0.00000   0.00003   0.00000   0.00000   0.00000
  84       43D+2        0.00000   0.00000   0.00000  -0.00000  -0.00000
  85       43D-2        0.00000   0.00000   0.00000   0.00000   0.00000
  86       44D 0       -0.00390   0.00000   0.00000  -0.00317   0.00278
  87       44D+1        0.00000   0.00000   0.00436   0.00000   0.00000
  88       44D-1        0.00000   0.00436   0.00000   0.00000   0.00000
  89       44D+2        0.00000   0.00000   0.00000  -0.00000  -0.00000
  90       44D-2        0.00000   0.00000   0.00000   0.00000   0.00000
  91       45D 0       -0.01735   0.00000   0.00000  -0.01440   0.01143
  92       45D+1        0.00000   0.00000   0.01963   0.00000   0.00000
[...]
  41       29PZ        -0.00003  -0.00002  -0.00002  -0.00000
  42       30PX         0.00033   0.00017   0.00017  -0.00000
  43       30PY         0.00033   0.00017   0.00017  -0.00000
  44       30PZ         0.00035   0.00018   0.00017   0.00000
  45       31PX        -0.00045  -0.00023  -0.00023   0.00000
  46       31PY        -0.00045  -0.00023  -0.00023   0.00000
  47       31PZ        -0.00048  -0.00024  -0.00024  -0.00000
  48       32PX        -0.05228  -0.02614  -0.02614   0.00000
  49       32PY        -0.05228  -0.02614  -0.02614   0.00000
  50       32PZ        -0.05396  -0.02726  -0.02670  -0.00055
  51       33PX         0.13780   0.06890   0.06890  -0.00000
  52       33PY         0.13780   0.06890   0.06890  -0.00000
  53       33PZ         0.14579   0.07403   0.07176   0.00227
  54       34PX         0.55935   0.27967   0.27967  -0.00000
  55       34PY         0.55935   0.27967   0.27967  -0.00000
  56       34PZ         0.57708   0.29078   0.28630   0.00448
  57       35PX         0.94322   0.47161   0.47161  -0.00000
  58       35PY         0.94322   0.47161   0.47161  -0.00000
  59       35PZ         0.92582   0.46504   0.46078   0.00426
  60       36PX         0.49592   0.24796   0.24796  -0.00000
  61       36PY         0.49592   0.24796   0.24796  -0.00000
  62       36PZ         0.47411   0.23319   0.24092  -0.00773
  63       37PX         0.05272   0.02636   0.02636  -0.00000
  64       37PY         0.05272   0.02636   0.02636  -0.00000
  65       37PZ         0.07047   0.05997   0.01050   0.04948
  66       38PX         0.01868   0.00934   0.00934  -0.00000
  67       38PY         0.01868   0.00934   0.00934  -0.00000
  68       38PZ         0.14223   0.14745  -0.00522   0.15266
  69       39PX        -0.00509  -0.00255  -0.00255   0.00000
  70       39PY        -0.00509  -0.00255  -0.00255   0.00000
  71       39PZ         0.01917   0.01966  -0.00048   0.02014
  72       40PX        -0.11914  -0.05957  -0.05957   0.00000
  73       40PY        -0.11914  -0.05957  -0.05957   0.00000
  74       40PZ        -0.12655  -0.06429  -0.06226  -0.00202
  75       41PX         0.00199   0.00100   0.00100  -0.00000
  76       41PY         0.00199   0.00100   0.00100  -0.00000
  77       41PZ         0.02475   0.01201   0.01274  -0.00072
  78       42PX         0.00062   0.00031   0.00031  -0.00000
  79       42PY         0.00062   0.00031   0.00031  -0.00000
  80       42PZ        -0.00061  -0.00051  -0.00010  -0.00041
  81       43D 0        0.00000   0.00000   0.00000   0.00000
  82       43D+1        0.00000   0.00000   0.00000  -0.00000
  83       43D-1        0.00000   0.00000   0.00000  -0.00000
  84       43D+2       -0.00000  -0.00000  -0.00000   0.00000
  85       43D-2       -0.00000   0.00000  -0.00000   0.00000
  86       44D 0        0.00118   0.00064   0.00054   0.00010
  87       44D+1        0.00051   0.00026   0.00026  -0.00000
  88       44D-1        0.00051   0.00026   0.00026  -0.00000
  89       44D+2       -0.00000  -0.00000  -0.00000  -0.00000
  90       44D-2       -0.00000  -0.00000   0.00000  -0.00000
  91       45D 0        0.01283   0.00697   0.00587   0.00110
  92       45D+1        0.00550   0.00275   0.00275  -0.00000
  93       45D-1        0.00550   0.00275   0.00275  -0.00000
  94       45D+2        0.00000  -0.00000   0.00000  -0.00000
  95       45D-2       -0.00000  -0.00000  -0.00000  -0.00000
  96       46D 0        0.01186   0.00705   0.00481   0.00224
  97       46D+1        0.00879   0.00440   0.00440  -0.00000
  98       46D-1        0.00879   0.00440   0.00440  -0.00000
  99       46D+2       -0.00000  -0.00000  -0.00000   0.00000
 100       46D-2       -0.00000  -0.00000  -0.00000   0.00000
 101       47D 0       -0.62216  -0.31520  -0.30695  -0.00825
 102       47D+1       -0.11880  -0.05940  -0.05940   0.00000
 103       47D-1       -0.11880  -0.05940  -0.05940   0.00000
 104       47D+2       -0.00000  -0.00000   0.00000  -0.00000
 105       47D-2        0.00000  -0.00000   0.00000  -0.00000
 106       48D 0        0.12346   0.06713   0.05633   0.01081
 107       48D+1        0.08558   0.04279   0.04279  -0.00000
 108       48D-1        0.08558   0.04279   0.04279  -0.00000
 109       48D+2        0.00000   0.00000   0.00000  -0.00000
 110       48D-2        0.00000  -0.00000   0.00000  -0.00000
 111       49D 0        0.00902   0.00580   0.00322   0.00259
 112       49D+1        0.06207   0.03103   0.03103  -0.00000
 113       49D-1        0.06207   0.03103   0.03103  -0.00000
 114       49D+2       -0.00000  -0.00000   0.00000  -0.00000
 115       49D-2       -0.00000  -0.00000   0.00000  -0.00000
 116       50D 0       -0.00228  -0.00119  -0.00109  -0.00010
 117       50D+1       -0.00306  -0.00153  -0.00153   0.00000
 118       50D-1       -0.00306  -0.00153  -0.00153   0.00000
 119       50D+2        0.00000   0.00000   0.00000   0.00000
 120       50D-2        0.00000   0.00000   0.00000   0.00000
 121       51D 0        0.04070   0.02127   0.01943   0.00183
 122       51D+1        0.01314   0.00657   0.00657  -0.00000
 123       51D-1        0.01314   0.00657   0.00657  -0.00000
 124       51D+2       -0.00000   0.00000  -0.00000   0.00000
 125       51D-2       -0.00000   0.00000  -0.00000   0.00000
 126       52D 0        0.73821   0.37718   0.36103   0.01615
 127       52D+1        0.16606   0.08303   0.08303  -0.00000
 128       52D-1        0.16606   0.08303   0.08303  -0.00000
 129       52D+2        0.00000   0.00000  -0.00000   0.00000
 130       52D-2        0.00000   0.00000  -0.00000   0.00000
 131       53D 0       -0.00005  -0.00002  -0.00003   0.00000
 132       53D+1       -0.00010  -0.00005  -0.00005   0.00000
 133       53D-1       -0.00010  -0.00005  -0.00005   0.00000
 134       53D+2        0.00000   0.00000  -0.00000   0.00000
 135       53D-2        0.00000   0.00000  -0.00000   0.00000
 136       54F 0        0.00013   0.00006   0.00006   0.00000
 137       54F+1        0.00005   0.00002   0.00002  -0.00000
 138       54F-1        0.00005   0.00002   0.00002  -0.00000
 139       54F+2        0.00000   0.00000   0.00000   0.00000
 140       54F-2        0.00000   0.00000   0.00000  -0.00000
 141       54F+3       -0.00000  -0.00000  -0.00000   0.00000
 142       54F-3       -0.00000  -0.00000  -0.00000  -0.00000
 143       55F 0        0.00453   0.00227   0.00226   0.00000
 144       55F+1        0.00237   0.00119   0.00119  -0.00000
 145       55F-1        0.00237   0.00119   0.00119  -0.00000
 146       55F+2        0.00000   0.00000  -0.00000   0.00000
 147       55F-2       -0.00000  -0.00000  -0.00000   0.00000
 148       55F+3       -0.00000  -0.00000  -0.00000   0.00000
 149       55F-3       -0.00000  -0.00000  -0.00000  -0.00000
 150       56F 0       -0.00059  -0.00032  -0.00028  -0.00004
 151       56F+1        0.00724   0.00362   0.00362  -0.00000
 152       56F-1        0.00724   0.00362   0.00362  -0.00000
 153       56F+2        0.00000   0.00000   0.00000  -0.00000
 154       56F-2        0.00000   0.00000   0.00000  -0.00000
 155       56F+3        0.00000   0.00000   0.00000  -0.00000
 156       56F-3       -0.00000  -0.00000  -0.00000  -0.00000
 157       57F 0       -0.00137  -0.00066  -0.00072   0.00006
 158       57F+1       -0.00178  -0.00089  -0.00089   0.00000
 159       57F-1       -0.00178  -0.00089  -0.00089   0.00000
 160       57F+2        0.00000   0.00000   0.00000   0.00000
 161       57F-2        0.00000   0.00000   0.00000   0.00000
 162       57F+3       -0.00000  -0.00000  -0.00000  -0.00000
 163       57F-3        0.00000   0.00000   0.00000  -0.00000
 164       58G 0        0.00002   0.00001   0.00001  -0.00000
 165       58G+1        0.00001   0.00000   0.00000  -0.00000
 166       58G-1        0.00001   0.00000   0.00000  -0.00000
 167       58G+2        0.00000   0.00000   0.00000   0.00000
 168       58G-2        0.00000   0.00000   0.00000   0.00000
 169       58G+3       -0.00000  -0.00000  -0.00000   0.00000
 170       58G-3        0.00000   0.00000   0.00000   0.00000
 171       58G+4        0.00000   0.00000   0.00000  -0.00000
 172       58G-4        0.00000   0.00000   0.00000  -0.00000
 173       59G 0        0.00094   0.00047   0.00047  -0.00000
 174       59G+1        0.00127   0.00063   0.00063  -0.00000
 175       59G-1        0.00127   0.00063   0.00063  -0.00000
 176       59G+2        0.00000   0.00000   0.00000   0.00000
 177       59G-2        0.00000   0.00000   0.00000   0.00000
 178       59G+3        0.00000   0.00000   0.00000  -0.00000
 179       59G-3       -0.00000  -0.00000  -0.00000   0.00000
 180       59G+4        0.00000   0.00000   0.00000   0.00000
 181       59G-4        0.00000   0.00000   0.00000   0.00000
 182       60G 0       -0.00153  -0.00077  -0.00077   0.00000
 183       60G+1       -0.00231  -0.00115  -0.00115   0.00000
 184       60G-1       -0.00231  -0.00115  -0.00115   0.00000
 185       60G+2       -0.00000   0.00000  -0.00000   0.00000
 186       60G-2       -0.00000   0.00000  -0.00000   0.00000
 187       60G+3        0.00000   0.00000   0.00000  -0.00000
 188       60G-3       -0.00000  -0.00000  -0.00000   0.00000
 189       60G+4       -0.00000  -0.00000  -0.00000  -0.00000
 190       60G-4       -0.00000  -0.00000  -0.00000  -0.00000
 191 2   O  1S         -0.00000  -0.00000  -0.00000  -0.00000
 192        2S          0.00000   0.00000   0.00000   0.00000
 193        3S         -0.00000  -0.00000  -0.00000  -0.00000
 194        4S          0.00001   0.00000   0.00000   0.00000
 195        5S         -0.00024  -0.00012  -0.00012  -0.00000
 196        6S         -0.01150  -0.00575  -0.00574  -0.00001
 197        7S         -0.10256  -0.05133  -0.05124  -0.00009
 198        8S          1.05310   0.52690   0.52620   0.00071
 199        9S          0.23599   0.11809   0.11790   0.00020
 200       10S          0.75997   0.37962   0.38035  -0.00072
 201       11S          0.00095   0.00047   0.00047  -0.00000
 202       12S          0.00850   0.00426   0.00425   0.00001
 203       13S          0.09466   0.05437   0.04029   0.01408
 204       14PX         0.00161   0.00081   0.00081  -0.00000
 205       14PY         0.00161   0.00081   0.00081  -0.00000
 206       14PZ         0.00174   0.00088   0.00087   0.00001
 207       15PX         0.05457   0.02728   0.02728  -0.00000
 208       15PY         0.05457   0.02728   0.02728  -0.00000
 209       15PZ         0.05881   0.02955   0.02926   0.00029
 210       16PX         0.32526   0.16263   0.16263  -0.00000
 211       16PY         0.32526   0.16263   0.16263  -0.00000
 212       16PZ         0.34907   0.17539   0.17368   0.00171
 213       17PX         0.67134   0.33567   0.33567  -0.00000
 214       17PY         0.67134   0.33567   0.33567  -0.00000
 215       17PZ         0.71868   0.36082   0.35786   0.00296
 216       18PX         0.57905   0.28952   0.28952  -0.00000
 217       18PY         0.57905   0.28952   0.28952  -0.00000
 218       18PZ         0.50332   0.25100   0.25232  -0.00133
 219       19PX         0.00194   0.00097   0.00097  -0.00000
 220       19PY         0.00194   0.00097   0.00097  -0.00000
 221       19PZ         0.00203   0.00102   0.00101   0.00001
 222       20PX        -0.00026  -0.00013  -0.00013   0.00000
 223       20PY        -0.00026  -0.00013  -0.00013   0.00000
 224       20PZ        -0.00028  -0.00014  -0.00014  -0.00000
 225       21PX         0.09258   0.04629   0.04629  -0.00000
 226       21PY         0.09258   0.04629   0.04629  -0.00000
 227       21PZ         0.05414   0.02948   0.02466   0.00482
 228       22D 0        0.00025   0.00013   0.00012   0.00000
 229       22D+1        0.00016   0.00008   0.00008  -0.00000
 230       22D-1        0.00016   0.00008   0.00008  -0.00000
 231       22D+2        0.00000   0.00000   0.00000   0.00000
 232       22D-2        0.00000   0.00000   0.00000   0.00000
 233       23D 0        0.00377   0.00190   0.00187   0.00003
 234       23D+1        0.00316   0.00158   0.00158  -0.00000
 235       23D-1        0.00316   0.00158   0.00158  -0.00000
 236       23D+2       -0.00000  -0.00000  -0.00000   0.00000
 237       23D-2       -0.00000  -0.00000  -0.00000   0.00000
 238       24D 0        0.00000   0.00000   0.00000   0.00000
 239       24D+1        0.00000   0.00000   0.00000  -0.00000
 240       24D-1        0.00000   0.00000   0.00000  -0.00000
 241       24D+2        0.00000   0.00000   0.00000  -0.00000
 242       24D-2        0.00000   0.00000   0.00000  -0.00000
 243       25D 0       -0.00100  -0.00052  -0.00048  -0.00005
 244       25D+1        0.00930   0.00465   0.00465  -0.00000
 245       25D-1        0.00930   0.00465   0.00465  -0.00000
 246       25D+2        0.00000   0.00000   0.00000   0.00000
 247       25D-2        0.00000   0.00000   0.00000  -0.00000
 248       26F 0        0.00009   0.00005   0.00005   0.00000
 249       26F+1        0.00002   0.00001   0.00001  -0.00000
 250       26F-1        0.00002   0.00001   0.00001  -0.00000
 251       26F+2        0.00000   0.00000   0.00000   0.00000
 252       26F-2        0.00000   0.00000   0.00000   0.00000
 253       26F+3        0.00000   0.00000   0.00000  -0.00000
 254       26F-3        0.00000   0.00000   0.00000   0.00000
 255       27F 0        0.00036   0.00019   0.00017   0.00002
 256       27F+1        0.00110   0.00055   0.00055  -0.00000
 257       27F-1        0.00110   0.00055   0.00055  -0.00000
 258       27F+2        0.00000   0.00000   0.00000  -0.00000
 259       27F-2        0.00000  -0.00000   0.00000  -0.00000
 260       27F+3       -0.00000  -0.00000  -0.00000  -0.00000
 261       27F-3        0.00000   0.00000   0.00000   0.00000
          Condensed to atoms (all electrons):
               1          2
     1  Sc   9.541330   0.249161
     2  O    0.249161   6.960347
          Atomic-Atomic Spin Densities.
               1          2
     1  Sc   0.963888   0.013463
     2  O    0.013463   0.009185
 Mulliken charges and spin densities:
               1          2
     1  Sc   1.209508   0.977351
     2  O   -1.209508   0.022649
 Sum of Mulliken charges =   0.00000   1.00000
 Mulliken charges and spin densities with hydrogens summed into heavy atoms:
               1          2
     1  Sc   1.209508   0.977351
     2  O   -1.209508   0.022649
 Electronic spatial extent (au):  <R**2>=            109.4008
 Charge=              0.0000 electrons
 Dipole moment (field-independent basis, Debye):
    X=              0.0000    Y=              0.0000    Z=              6.6333  Tot=              6.6333
 Quadrupole moment (field-independent basis, Debye-Ang):
   XX=            -21.9782   YY=            -21.9782   ZZ=            -34.1218
   XY=              0.0000   XZ=              0.0000   YZ=              0.0000
 Traceless Quadrupole moment (field-independent basis, Debye-Ang):
   XX=              4.0479   YY=              4.0479   ZZ=             -8.0958
   XY=              0.0000   XZ=              0.0000   YZ=              0.0000
 Octapole moment (field-independent basis, Debye-Ang**2):
  XXX=              0.0000  YYY=              0.0000  ZZZ=             -1.3725  XYY=              0.0000
  XXY=              0.0000  XXZ=             -0.8554  XZZ=              0.0000  YZZ=              0.0000
  YYZ=             -0.8554  XYZ=              0.0000
 Hexadecapole moment (field-independent basis, Debye-Ang**3):
 XXXX=            -42.8384 YYYY=            -42.8384 ZZZZ=           -207.0919 XXXY=              0.0000
 XXXZ=              0.0000 YYYX=              0.0000 YYYZ=              0.0000 ZZZX=              0.0000
 ZZZY=              0.0000 XXYY=            -14.2795 XXZZ=            -39.6235 YYZZ=            -39.6235
 XXYZ=              0.0000 YYXZ=              0.0000 ZZXY=              0.0000
 N-N= 1.838194522143D+01 E-N=-1.700723377465D+02  KE= 2.973376722043D+01
 Symmetry A1   KE= 1.355641206274D+01
 Symmetry A2   KE= 8.548572937594D-49
 Symmetry B1   KE= 8.088677578960D+00
 Symmetry B2   KE= 8.088677578971D+00
 Symmetry A1   SP= 1.000000000000D+00
 Symmetry A2   SP= 1.504708379162D-49
 Symmetry B1   SP=-1.276767431141D-15
 Symmetry B2   SP=-1.317885622831D-15
 Orbital energies and kinetic energies (alpha):
                                 1                 2
   4         O                -1.687017          2.078019
   5         O                -1.110011          0.951374
   6         O                -0.402881          2.245638
   7         O                -0.364949          1.898496
   8         O                -0.364949          1.898496
   9         O                -0.274537          0.375724
  10         V                -0.008745          0.182405
  11         V                -0.008745          0.182405
  12         V                 0.008993          0.092810
  13         V                 0.019536          0.088488
  14         V                 0.030427          0.132417
 Total kinetic energy from orbitals= 3.010949115035D+01
                          Isotropic Fermi Contact Couplings
        Atom                 a.u.       MegaHertz       Gauss      10(-4) cm-1
     1  Sc(45)             0.00003       0.03643       0.01300       0.01215
     2  O(17)              0.00002      -0.01348      -0.00481      -0.00450
 --------------------------------------------------------
       Center         ----  Spin Dipole Couplings  ----
                      3XX-RR        3YY-RR        3ZZ-RR
 --------------------------------------------------------
     1   Atom       -0.050985     -0.050985      0.101969
     2   Atom       -0.016194     -0.016194      0.032388
 --------------------------------------------------------
                        XY            XZ            YZ
 --------------------------------------------------------
     1   Atom        0.000000      0.000000      0.000000
     2   Atom        0.000000      0.000000      0.000000
 --------------------------------------------------------


 ---------------------------------------------------------------------------------
              Anisotropic Spin Dipole Couplings in Principal Axis System
 ---------------------------------------------------------------------------------

       Atom             a.u.   MegaHertz   Gauss  10(-4) cm-1        Axes

              Baa    -0.0510    -6.618    -2.362    -2.208  1.0000  0.0000  0.0000
     1 Sc(45) Bbb    -0.0510    -6.618    -2.362    -2.208 -0.0000  1.0000  0.0000
              Bcc     0.1020    13.237     4.723     4.415  0.0000  0.0000  1.0000
 
              Baa    -0.0162     1.172     0.418     0.391  1.0000  0.0000  0.0000
     2 O(17)  Bbb    -0.0162     1.172     0.418     0.391 -0.0000  1.0000  0.0000
              Bcc     0.0324    -2.344    -0.836    -0.782  0.0000  0.0000  1.0000
 

 ---------------------------------------------------------------------------------

 No NMR shielding tensors so no spin-rotation constants.
 Leave Link  601 at Mon Mar  5 18:28:46 2018, MaxMem= 10737418240 cpu:              53.5 elap:               3.5
 (Enter /home1/apps/gaussian/16rA.03/g16/l9999.exe)

 Test job not archived.
 1\1\GINC-C439-063\SP\ROCCSD(T)-Full\Gen\O1Sc1(2)\AANNABE\05-Mar-2018\0
 \\#P ROCCSD(T)=(maxcyc=150, Full, SaveAmplitudes, ReadAmplitudes)/Gen 
 5d 7f SCF=(maxcycles=300) Integral(NoXCTest) MaxDisk=500GB Pop=Regular
  Pseudo=Read Guess=Read IOp(5/15=2)\\ScO\\0,2\Sc,0,0.,0.,0.\O,0,0.,0.,
 1.9\\Version=ES64L-G16RevA.03\State=2-SG\HF=-61.9247058\MP2=-62.616064
 \MP3=-62.5778298\PUHF=-61.9247058\PMP2-0=-62.616064\MP4SDQ=-62.6360342
 \CCSD=-62.6013449\CCSD(T)=-62.6487019\RMSD=5.050e-09\PG=C*V [C*(O1Sc1)
 ]\\@


 MAN IS THE MEASURE OF ALL THINGS.
  -- PROTAGORAS (5TH CENTURY B.C.)
 Job cpu time:       0 days  6 hours 39 minutes 15.3 seconds.
 Elapsed time:       0 days  0 hours 25 minutes 23.2 seconds.
 File lengths (MBytes):  RWF=   3530 Int=      0 D2E=      0 Chk=     21 Scr=      1
 Normal termination of Gaussian 16 at Mon Mar  5 18:28:47 2018.
