 Entering Gaussian System, Link 0=g16
 Initial command:
 /home1/apps/gaussian/16rA.03/g16/l1.exe "/tmp/Gau-103632.inp" -scrdir="/tmp/"
 Entering Link 1 = /home1/apps/gaussian/16rA.03/g16/l1.exe PID=    103633.
  
 Copyright (c) 1988,1990,1992,1993,1995,1998,2003,2009,2016,
            Gaussian, Inc.  All Rights Reserved.
  
 This is part of the Gaussian(R) 16 program.  It is based on
 the Gaussian(R) 09 system (copyright 2009, Gaussian, Inc.),
 the Gaussian(R) 03 system (copyright 2003, Gaussian, Inc.),
 the Gaussian(R) 98 system (copyright 1998, Gaussian, Inc.),
 the Gaussian(R) 94 system (copyright 1995, Gaussian, Inc.),
 the Gaussian 92(TM) system (copyright 1992, Gaussian, Inc.),
 the Gaussian 90(TM) system (copyright 1990, Gaussian, Inc.),
 the Gaussian 88(TM) system (copyright 1988, Gaussian, Inc.),
 the Gaussian 86(TM) system (copyright 1986, Carnegie Mellon
 University), and the Gaussian 82(TM) system (copyright 1983,
 Carnegie Mellon University). Gaussian is a federally registered
 trademark of Gaussian, Inc.
  
 This software contains proprietary and confidential information,
 including trade secrets, belonging to Gaussian, Inc.
  
 This software is provided under written license and may be
 used, copied, transmitted, or stored only in accord with that
 written license.
  
 The following legend is applicable only to US Government
 contracts under FAR:
  
                    RESTRICTED RIGHTS LEGEND
  
 Use, reproduction and disclosure by the US Government is
 subject to restrictions as set forth in subparagraphs (a)
 and (c) of the Commercial Computer Software - Restricted
 Rights clause in FAR 52.227-19.
  
 Gaussian, Inc.
 340 Quinnipiac St., Bldg. 40, Wallingford CT 06492
  
  
 ---------------------------------------------------------------
 Warning -- This program may not be used in any manner that
 competes with the business of Gaussian, Inc. or will provide
 assistance to any competitor of Gaussian, Inc.  The licensee
 of this program is prohibited from giving any competitor of
 Gaussian, Inc. access to this program.  By using this program,
 the user acknowledges that Gaussian, Inc. is engaged in the
 business of creating and licensing software in the field of
 computational chemistry and represents and warrants to the
 licensee that it is not a competitor of Gaussian, Inc. and that
 it will not use this program in any manner prohibited above.
 ---------------------------------------------------------------
  

 Cite this work as:
 Gaussian 16, Revision A.03,
 M. J. Frisch, G. W. Trucks, H. B. Schlegel, G. E. Scuseria, 
 M. A. Robb, J. R. Cheeseman, G. Scalmani, V. Barone, 
 G. A. Petersson, H. Nakatsuji, X. Li, M. Caricato, A. V. Marenich, 
 J. Bloino, B. G. Janesko, R. Gomperts, B. Mennucci, H. P. Hratchian, 
 J. V. Ortiz, A. F. Izmaylov, J. L. Sonnenberg, D. Williams-Young, 
 F. Ding, F. Lipparini, F. Egidi, J. Goings, B. Peng, A. Petrone, 
 T. Henderson, D. Ranasinghe, V. G. Zakrzewski, J. Gao, N. Rega, 
 G. Zheng, W. Liang, M. Hada, M. Ehara, K. Toyota, R. Fukuda, 
 J. Hasegawa, M. Ishida, T. Nakajima, Y. Honda, O. Kitao, H. Nakai, 
 T. Vreven, K. Throssell, J. A. Montgomery, Jr., J. E. Peralta, 
 F. Ogliaro, M. J. Bearpark, J. J. Heyd, E. N. Brothers, K. N. Kudin, 
 V. N. Staroverov, T. A. Keith, R. Kobayashi, J. Normand, 
 K. Raghavachari, A. P. Rendell, J. C. Burant, S. S. Iyengar, 
 J. Tomasi, M. Cossi, J. M. Millam, M. Klene, C. Adamo, R. Cammi, 
 J. W. Ochterski, R. L. Martin, K. Morokuma, O. Farkas, 
 J. B. Foresman, and D. J. Fox, Gaussian, Inc., Wallingford CT, 2016.
 
 ******************************************
 Gaussian 16:  ES64L-G16RevA.03 25-Dec-2016
                 4-May-2018 
 ******************************************
 %mem=160GB
 %cpu=0-31
 SetSPE:  set environment variable "MP_BIND" = "yes"
 SetSPE:  set environment variable "MP_BLIST" = "0,1,2,3,4,5,6,7,8,9,10,11,12,13,14,15,16,17,18,19,20,21,22,23,24,25,26,27,28,29,30,31"
 Will use up to   32 processors via shared memory.
 %chk=qz.chk
 %rwf=/scratch/04843/gwang18/zno/
 ----------------------------------------------------------------------
 #P ROCCSD(T)=(MaxCyc=150, Full)/Gen SCF=(maxcycle=400) Integral(DKHSO,
  NoXCTest) Pop=Regular MaxDisk=500GB Guess=Read IOp(5/15=2)
 ----------------------------------------------------------------------
 1/38=1,172=1/1;
 2/12=2,17=6,18=5,40=1/2;
 3/5=7,11=2,25=1,30=1,47=8,91=5,116=101/1,2,3;
 4/5=1/1;
 5/5=2,7=400,15=2,38=6/2;
 8/5=-1,6=4,9=120000,10=90/1,4;
 9/5=7,6=150,14=2/13;
 6//1;
 99/5=1,9=1/99;
 Leave Link    1 at Fri May  4 17:50:35 2018, MaxMem= 21474836480 cpu:               1.5 elap:               0.1
 (Enter /home1/apps/gaussian/16rA.03/g16/l101.exe)
 ---
 ZnO
 ---
 Symbolic Z-matrix:
 Charge =  0 Multiplicity = 1
 Zn                    0.        0.        0. 
 O                     0.        0.        2.1 
 
 ITRead=  0  0
 MicOpt= -1 -1
 NAtoms=      2 NQM=        2 NQMF=       0 NMMI=      0 NMMIF=      0
                NMic=       0 NMicF=      0.
                    Isotopes and Nuclear Properties:
 (Nuclear quadrupole moments (NQMom) in fm**2, nuclear magnetic moments (NMagM)
  in nuclear magnetons)

  Atom         1           2
 IAtWgt=          64          16
 AtmWgt=  63.9291454  15.9949146
 NucSpn=           0           0
 AtZEff=  -0.0000000  -0.0000000
 NQMom=    0.0000000   0.0000000
 NMagM=    0.0000000   0.0000000
 AtZNuc=  30.0000000   8.0000000
 Leave Link  101 at Fri May  4 17:50:35 2018, MaxMem= 21474836480 cpu:               2.7 elap:               0.1
 (Enter /home1/apps/gaussian/16rA.03/g16/l202.exe)
                          Input orientation:                          
 ---------------------------------------------------------------------
 Center     Atomic      Atomic             Coordinates (Angstroms)
 Number     Number       Type             X           Y           Z
 ---------------------------------------------------------------------
      1         30           0        0.000000    0.000000    0.000000
      2          8           0        0.000000    0.000000    2.100000
 ---------------------------------------------------------------------
 Stoichiometry    OZn
 Framework group  C*V[C*(OZn)]
 Deg. of freedom     1
 Full point group                 C*V     NOp   4
 Largest Abelian subgroup         C2V     NOp   4
 Largest concise Abelian subgroup C1      NOp   1
                         Standard orientation:                         
 ---------------------------------------------------------------------
 Center     Atomic      Atomic             Coordinates (Angstroms)
 Number     Number       Type             X           Y           Z
 ---------------------------------------------------------------------
      1         30           0        0.000000    0.000000    0.442105
      2          8           0        0.000000    0.000000   -1.657895
 ---------------------------------------------------------------------
 Rotational constants (GHZ):           0.0000000           8.9572629           8.9572629
 Leave Link  202 at Fri May  4 17:50:35 2018, MaxMem= 21474836480 cpu:               0.5 elap:               0.0
 (Enter /home1/apps/gaussian/16rA.03/g16/l301.exe)
 General basis read from cards:  (5D, 7F)
 Centers:       1
 S 1 1.00
     Exponent=  1.7852930000D+07 Coefficients=  1.0000000000D+00
 S 1 1.00
     Exponent=  2.6730380000D+06 Coefficients=  1.0000000000D+00
 S 1 1.00
     Exponent=  6.0832440000D+05 Coefficients=  1.0000000000D+00
 S 1 1.00
     Exponent=  1.7231760000D+05 Coefficients=  1.0000000000D+00
 S 1 1.00
     Exponent=  5.6222690000D+04 Coefficients=  1.0000000000D+00
 S 1 1.00
     Exponent=  2.0299850000D+04 Coefficients=  1.0000000000D+00
 S 1 1.00
     Exponent=  7.9188710000D+03 Coefficients=  1.0000000000D+00
 S 1 1.00
     Exponent=  3.2853400000D+03 Coefficients=  1.0000000000D+00
 S 1 1.00
     Exponent=  1.4335240000D+03 Coefficients=  1.0000000000D+00
 S 1 1.00
     Exponent=  6.5228890000D+02 Coefficients=  1.0000000000D+00
 S 1 1.00
     Exponent=  3.0743600000D+02 Coefficients=  1.0000000000D+00
 S 1 1.00
     Exponent=  1.4914660000D+02 Coefficients=  1.0000000000D+00
 S 1 1.00
     Exponent=  7.3451080000D+01 Coefficients=  1.0000000000D+00
 S 1 1.00
     Exponent=  3.3925620000D+01 Coefficients=  1.0000000000D+00
 S 1 1.00
     Exponent=  1.7189470000D+01 Coefficients=  1.0000000000D+00
 S 1 1.00
     Exponent=  8.6665950000D+00 Coefficients=  1.0000000000D+00
 S 1 1.00
     Exponent=  3.9725050000D+00 Coefficients=  1.0000000000D+00
 S 1 1.00
     Exponent=  1.8946650000D+00 Coefficients=  1.0000000000D+00
 S 1 1.00
     Exponent=  8.5938500000D-01 Coefficients=  1.0000000000D+00
 S 1 1.00
     Exponent=  1.9525600000D-01 Coefficients=  1.0000000000D+00
 S 1 1.00
     Exponent=  8.5854000000D-02 Coefficients=  1.0000000000D+00
 S 1 1.00
     Exponent=  3.6781000000D-02 Coefficients=  1.0000000000D+00
 S 1 1.00
     Exponent=  8.3276000000D+00 Coefficients=  1.0000000000D+00
 S 1 1.00
     Exponent=  3.4194000000D+00 Coefficients=  1.0000000000D+00
 S 1 1.00
     Exponent=  1.5760000000D-02 Coefficients=  1.0000000000D+00
 P 1 1.00
     Exponent=  5.2867930000D+04 Coefficients=  1.0000000000D+00
 P 1 1.00
     Exponent=  1.2511790000D+04 Coefficients=  1.0000000000D+00
 P 1 1.00
     Exponent=  4.0652860000D+03 Coefficients=  1.0000000000D+00
 P 1 1.00
     Exponent=  1.5575950000D+03 Coefficients=  1.0000000000D+00
 P 1 1.00
     Exponent=  6.6328920000D+02 Coefficients=  1.0000000000D+00
 P 1 1.00
     Exponent=  3.0415610000D+02 Coefficients=  1.0000000000D+00
 P 1 1.00
     Exponent=  1.4736800000D+02 Coefficients=  1.0000000000D+00
 P 1 1.00
     Exponent=  7.4454690000D+01 Coefficients=  1.0000000000D+00
 P 1 1.00
     Exponent=  3.8714930000D+01 Coefficients=  1.0000000000D+00
 P 1 1.00
     Exponent=  2.0570220000D+01 Coefficients=  1.0000000000D+00
 P 1 1.00
     Exponent=  1.1054250000D+01 Coefficients=  1.0000000000D+00
 P 1 1.00
     Exponent=  5.8746610000D+00 Coefficients=  1.0000000000D+00
 P 1 1.00
     Exponent=  3.0529360000D+00 Coefficients=  1.0000000000D+00
 P 1 1.00
     Exponent=  1.5472250000D+00 Coefficients=  1.0000000000D+00
 P 1 1.00
     Exponent=  7.5415100000D-01 Coefficients=  1.0000000000D+00
 P 1 1.00
     Exponent=  2.6534900000D-01 Coefficients=  1.0000000000D+00
 P 1 1.00
     Exponent=  1.0206700000D-01 Coefficients=  1.0000000000D+00
 P 1 1.00
     Exponent=  3.8755000000D-02 Coefficients=  1.0000000000D+00
 P 1 1.00
     Exponent=  1.2535700000D+01 Coefficients=  1.0000000000D+00
 P 1 1.00
     Exponent=  3.4227000000D+00 Coefficients=  1.0000000000D+00
 P 1 1.00
     Exponent=  1.4720000000D-02 Coefficients=  1.0000000000D+00
 D 1 1.00
     Exponent=  6.3978060000D+02 Coefficients=  1.0000000000D+00
 D 1 1.00
     Exponent=  1.9267420000D+02 Coefficients=  1.0000000000D+00
 D 1 1.00
     Exponent=  7.4843680000D+01 Coefficients=  1.0000000000D+00
 D 1 1.00
     Exponent=  3.2860480000D+01 Coefficients=  1.0000000000D+00
 D 1 1.00
     Exponent=  1.5393530000D+01 Coefficients=  1.0000000000D+00
 D 1 1.00
     Exponent=  7.5255120000D+00 Coefficients=  1.0000000000D+00
 D 1 1.00
     Exponent=  3.7154290000D+00 Coefficients=  1.0000000000D+00
 D 1 1.00
     Exponent=  1.8064590000D+00 Coefficients=  1.0000000000D+00
 D 1 1.00
     Exponent=  8.5297300000D-01 Coefficients=  1.0000000000D+00
 D 1 1.00
     Exponent=  3.8478000000D-01 Coefficients=  1.0000000000D+00
 D 1 1.00
     Exponent=  1.5933700000D-01 Coefficients=  1.0000000000D+00
 D 1 1.00
     Exponent=  9.2094000000D+00 Coefficients=  1.0000000000D+00
 D 1 1.00
     Exponent=  5.2262000000D+00 Coefficients=  1.0000000000D+00
 D 1 1.00
     Exponent=  6.5980000000D-02 Coefficients=  1.0000000000D+00
 F 1 1.00
     Exponent=  1.3235500000D+01 Coefficients=  1.0000000000D+00
 F 1 1.00
     Exponent=  5.6706000000D+00 Coefficients=  1.0000000000D+00
 F 1 1.00
     Exponent=  2.4295000000D+00 Coefficients=  1.0000000000D+00
 F 1 1.00
     Exponent=  8.5300000000D-01 Coefficients=  1.0000000000D+00
 F 1 1.00
     Exponent=  2.9949000000D-01 Coefficients=  1.0000000000D+00
 G 1 1.00
     Exponent=  1.0790200000D+01 Coefficients=  1.0000000000D+00
 G 1 1.00
     Exponent=  4.9368000000D+00 Coefficients=  1.0000000000D+00
 G 1 1.00
     Exponent=  2.0693000000D+00 Coefficients=  1.0000000000D+00
 G 1 1.00
     Exponent=  8.6736000000D-01 Coefficients=  1.0000000000D+00
 H 1 1.00
     Exponent=  9.6086000000D+00 Coefficients=  1.0000000000D+00
 H 1 1.00
     Exponent=  4.4136000000D+00 Coefficients=  1.0000000000D+00
 H 1 1.00
     Exponent=  2.0273400000D+00 Coefficients=  1.0000000000D+00
 ****
 Centers:       2
 S 1 1.00
     Exponent=  6.1420000000D+04 Coefficients=  1.0000000000D+00
 S 1 1.00
     Exponent=  9.1990000000D+03 Coefficients=  1.0000000000D+00
 S 1 1.00
     Exponent=  2.0910000000D+03 Coefficients=  1.0000000000D+00
 S 1 1.00
     Exponent=  5.9090000000D+02 Coefficients=  1.0000000000D+00
 S 1 1.00
     Exponent=  1.9230000000D+02 Coefficients=  1.0000000000D+00
 S 1 1.00
     Exponent=  6.9320000000D+01 Coefficients=  1.0000000000D+00
 S 1 1.00
     Exponent=  2.6970000000D+01 Coefficients=  1.0000000000D+00
 S 1 1.00
     Exponent=  1.1100000000D+01 Coefficients=  1.0000000000D+00
 S 1 1.00
     Exponent=  4.6820000000D+00 Coefficients=  1.0000000000D+00
 S 1 1.00
     Exponent=  1.4280000000D+00 Coefficients=  1.0000000000D+00
 S 1 1.00
     Exponent=  5.5470000000D-01 Coefficients=  1.0000000000D+00
 S 1 1.00
     Exponent=  2.0670000000D-01 Coefficients=  1.0000000000D+00
 S 1 1.00
     Exponent=  1.2974000000D+01 Coefficients=  1.0000000000D+00
 S 1 1.00
     Exponent=  3.4900000000D+01 Coefficients=  1.0000000000D+00
 S 1 1.00
     Exponent=  9.3881000000D+01 Coefficients=  1.0000000000D+00
 S 1 1.00
     Exponent=  6.9590000000D-02 Coefficients=  1.0000000000D+00
 P 1 1.00
     Exponent=  6.3420000000D+01 Coefficients=  1.0000000000D+00
 P 1 1.00
     Exponent=  1.4660000000D+01 Coefficients=  1.0000000000D+00
 P 1 1.00
     Exponent=  4.4590000000D+00 Coefficients=  1.0000000000D+00
 P 1 1.00
     Exponent=  1.5310000000D+00 Coefficients=  1.0000000000D+00
 P 1 1.00
     Exponent=  5.3020000000D-01 Coefficients=  1.0000000000D+00
 P 1 1.00
     Exponent=  1.7500000000D-01 Coefficients=  1.0000000000D+00
 P 1 1.00
     Exponent=  1.4475000000D+01 Coefficients=  1.0000000000D+00
 P 1 1.00
     Exponent=  4.2730000000D+01 Coefficients=  1.0000000000D+00
 P 1 1.00
     Exponent=  1.2614000000D+02 Coefficients=  1.0000000000D+00
 P 1 1.00
     Exponent=  5.3480000000D-02 Coefficients=  1.0000000000D+00
 D 1 1.00
     Exponent=  3.7750000000D+00 Coefficients=  1.0000000000D+00
 D 1 1.00
     Exponent=  1.3000000000D+00 Coefficients=  1.0000000000D+00
 D 1 1.00
     Exponent=  4.4400000000D-01 Coefficients=  1.0000000000D+00
 D 1 1.00
     Exponent=  1.4927000000D+01 Coefficients=  1.0000000000D+00
 D 1 1.00
     Exponent=  5.7544000000D+01 Coefficients=  1.0000000000D+00
 D 1 1.00
     Exponent=  1.5400000000D-01 Coefficients=  1.0000000000D+00
 F 1 1.00
     Exponent=  2.6660000000D+00 Coefficients=  1.0000000000D+00
 F 1 1.00
     Exponent=  8.5900000000D-01 Coefficients=  1.0000000000D+00
 F 1 1.00
     Exponent=  2.6483000000D+01 Coefficients=  1.0000000000D+00
 F 1 1.00
     Exponent=  3.2400000000D-01 Coefficients=  1.0000000000D+00
 G 1 1.00
     Exponent=  1.8460000000D+00 Coefficients=  1.0000000000D+00
 G 1 1.00
     Exponent=  7.1400000000D-01 Coefficients=  1.0000000000D+00
 ****
 Ernie: Thresh=  0.10000D-02 Tol=  0.10000D-05 Strict=F.
 There are   213 symmetry adapted cartesian basis functions of A1  symmetry.
 There are    56 symmetry adapted cartesian basis functions of A2  symmetry.
 There are   114 symmetry adapted cartesian basis functions of B1  symmetry.
 There are   114 symmetry adapted cartesian basis functions of B2  symmetry.
 There are   157 symmetry adapted basis functions of A1  symmetry.
 There are    47 symmetry adapted basis functions of A2  symmetry.
 There are    90 symmetry adapted basis functions of B1  symmetry.
 There are    90 symmetry adapted basis functions of B2  symmetry.
   384 basis functions,   497 primitive gaussians,   497 cartesian basis functions
    19 alpha electrons       19 beta electrons
       nuclear repulsion energy        60.4773955337 Hartrees.
 IExCor=    0 DFT=F Ex=HF Corr=None ExCW=0 ScaHFX=  1.000000
 ScaDFX=  1.000000  1.000000  1.000000  1.000000 ScalE2=  1.000000  1.000000
 IRadAn=      5 IRanWt=     -1 IRanGd=            0 ICorTp=0 IEmpDi=  4
 NAtoms=    2 NActive=    2 NUniq=    2 SFac= 1.00D+00 NAtFMM=   60 NAOKFM=F Big=F
 Integral buffers will be    131072 words long.
 Raffenetti 2 integral format.
 Two-electron integral symmetry is turned on.
 FoFCou: FMM=F IPFlag=           8 FMFlag=           0 FMFlg1=           0
         NFxFlg=           0 DoJE=F BraDBF=T KetDBF=T FulRan=T
         wScrn=  0.000000 ICntrl=       600 IOpCl=  3 I1Cent=           6 NGrid=           0
         NMat0=    1 NMatS0=      2 NMatT0=    0 NMatD0=    1 NMtDS0=    0 NMtDT0=    0
 Symmetry not used in FoFCou.
 Finite nuclear repulsion energy        60.4773955337.
 Leave Link  301 at Fri May  4 17:50:35 2018, MaxMem= 21474836480 cpu:               5.1 elap:               0.2
 (Enter /home1/apps/gaussian/16rA.03/g16/l302.exe)
 Using DK4 one-electron Hamiltonian with SO, DoBoet=T.
 NPDir=0 NMtPBC=     1 NCelOv=     1 NCel=       1 NClECP=     1 NCelD=      1
         NCelK=      1 NCelE2=     1 NClLst=     1 CellRange=     0.0.
 One-electron integrals computed using PRISM.
 One-electron integral symmetry used in STVInt
 FoFCou: FMM=F IPFlag=           8 FMFlag=      100000 FMFlg1=           0
         NFxFlg=           0 DoJE=T BraDBF=F KetDBF=T FulRan=T
         wScrn=  0.000000 ICntrl=       500 IOpCl=  0 I1Cent=           4 NGrid=           0
         NMat0=    1 NMatS0=      1 NMatT0=    0 NMatD0=    1 NMtDS0=    0 NMtDT0=    0
 Symmetry not used in FoFCou.
 UnConB:  Uncontracting AO basis from    384 functions to    384 functions (excluding duplicates).
 RelInt: Using uncontracted basis, NUnBas=   384 NBsUse=   384 0.100E-13 EigKep=  5.98D-08 EigRej= -1.00D+00
 NBasis=   384 RedAO= T EigKep=  2.28D-06  NBF=   157    47    90    90
 NBsUse=   380 1.00D-06 EigRej=  9.76D-07 NBFU=   155    47    89    89
 Leave Link  302 at Fri May  4 17:50:40 2018, MaxMem= 21474836480 cpu:             130.7 elap:               4.8
 (Enter /home1/apps/gaussian/16rA.03/g16/l303.exe)
 DipDrv:  MaxL=1.
 Leave Link  303 at Fri May  4 17:50:40 2018, MaxMem= 21474836480 cpu:               1.5 elap:               0.1
 (Enter /home1/apps/gaussian/16rA.03/g16/l401.exe)
 Initial guess from the checkpoint file:  "qz.chk"
 B after Tr=     0.000000    0.000000    0.000000
         Rot=    1.000000    0.000000    0.000000    0.000000 Ang=   0.00 deg.
 Guess basis will be translated and rotated to current coordinates.
 JPrj=2 DoOrth=T DoCkMO=T.
 Initial guess orbital symmetries:
       Occupied  (SG) (SG) (PI) (PI) (SG) (SG) (SG) (PI) (PI) (SG)
                 (SG) (PI) (PI) (DLTA) (DLTA) (SG) (PI) (PI) (SG)
       Virtual   (SG) (PI) (PI) (SG) (SG) (PI) (PI) (SG) (SG) (SG)
                 (PI) (PI) (DLTA) (DLTA) (PI) (PI) (SG) (PI) (PI)
                 (SG) (SG) (SG) (DLTA) (DLTA) (PI) (PI) (SG) (DLTA)
                 (DLTA) (PI) (PI) (SG) (PI) (PI) (PI) (PI) (SG)
                 (SG) (SG) (DLTA) (DLTA) (PHI) (PHI) (PI) (PI)
                 (SG) (PHI) (PHI) (DLTA) (DLTA) (DLTA) (DLTA) (PI)
                 (PI) (SG) (SG) (PI) (PI) (DLTA) (DLTA) (PI) (PI)
                 (SG) (SG) (PI) (PI) (SG) (PI) (PI) (SG) (SG) (PHI)
                 (PHI) (DLTA) (DLTA) (PI) (PI) (SG) (DLTA) (DLTA)
                 (PHI) (PHI) (PI) (PI) (SG) (SG) (DLTA) (DLTA)
                 (PI) (PI) (DLTA) (DLTA) (PI) (PI) (SG) (?A) (?A)
                 (PHI) (PHI) (DLTA) (DLTA) (PI) (PI) (SG) (SG)
                 (PI) (PI) (SG) (PHI) (PHI) (DLTA) (DLTA) (PI)
                 (PI) (SG) (PI) (PI) (SG) (SG) (DLTA) (DLTA) (PI)
                 (PI) (SG) (PI) (PI) (SG) (SG) (?A) (?A) (PHI)
                 (PHI) (DLTA) (DLTA) (PI) (PI) (SG) (DLTA) (DLTA)
                 (PI) (PI) (SG) (PHI) (PHI) (DLTA) (DLTA) (PI)
                 (PI) (SG) (PI) (PI) (SG) (SG) (SG) (PI) (PI) (SG)
                 (PI) (PI) (DLTA) (DLTA) (SG) (?A) (?A) (PHI) (PHI)
                 (DLTA) (DLTA) (PI) (PI) (SG) (DLTA) (DLTA) (PI)
                 (PI) (SG) (PI) (PI) (SG) (SG) (SG) (DLTA) (DLTA)
                 (PI) (PI) (SG) (PI) (PI) (SG) (PI) (PI) (SG) (SG)
                 (SG) (DLTA) (DLTA) (PI) (PI) (SG) (PI) (PI) (SG)
                 (PI) (PI) (SG) (SG) (SG) (PI) (PI) (SG) (DLTA)
                 (DLTA) (PI) (PI) (SG) (PI) (PI) (SG) (SG) (SG)
                 (PI) (PI) (SG) (SG) (SG) (PI) (PI) (SG) (SG) (SG)
                 (PI) (PI) (SG) (SG) (SG) (PI) (PI) (SG) (SG) (SG)
                 (SG) (SG) (SG) (SG) (SG) (DLTA) (SG) (SG) (SG)
                 (DLTA) (SG) (DLTA) (SG) (SG) (SG) (DLTA) (?A)
                 (DLTA) (SG) (SG) (DLTA) (?A) (SG) (DLTA) (SG)
                 (DLTA) (SG) (SG) (SG) (DLTA) (?A) (DLTA) (SG)
                 (DLTA) (SG) (DLTA) (SG) (DLTA) (SG) (?A) (DLTA)
                 (?A) (?A) (DLTA) (DLTA) (DLTA) (DLTA) (?A) (DLTA)
                 (DLTA) (?A) (DLTA) (DLTA) (DLTA) (?A) (DLTA) (DLTA)
                 (DLTA) (DLTA) (?A) (DLTA) (?A) (?A) (PI) (PI)
                 (PI) (PI) (PI) (PI) (PHI) (PI) (PI) (PHI) (PI)
                 (PI) (PHI) (?B) (PI) (PHI) (PI) (PI) (PI) (PHI)
                 (PI) (PHI) (PI) (PHI) (PI) (?B) (PHI) (PHI) (?B)
                 (PI) (PI) (PI) (PI) (PI) (PI) (PHI) (PI) (PI)
                 (PHI) (PI) (PI) (PHI) (?B) (PI) (PHI) (PI) (PI)
                 (PI) (PHI) (PI) (PHI) (PI) (PHI) (PI) (?B) (PHI)
                 (PHI) (?B)
 The electronic state of the initial guess is 1-SG.
 Leave Link  401 at Fri May  4 17:50:40 2018, MaxMem= 21474836480 cpu:               9.7 elap:               0.3
 (Enter /home1/apps/gaussian/16rA.03/g16/l502.exe)
 Keep R1 and R2 ints in memory in symmetry-blocked form, NReq=3425113631.
 FoFCou: FMM=F IPFlag=           8 FMFlag=           0 FMFlg1=           0
         NFxFlg=           0 DoJE=F BraDBF=F KetDBF=F FulRan=T
         wScrn=  0.000000 ICntrl=       600 IOpCl=  0 I1Cent=           0 NGrid=           0
         NMat0=    1 NMatS0=  73920 NMatT0=    0 NMatD0=    1 NMtDS0=    0 NMtDT0=    0
 Petite list used in FoFCou.
 Restricted open shell SCF:
 Using DIIS extrapolation, IDIIS=  1040.
 NGot= 21474836480 LenX= 20088504193 LenY= 20088256687
 Requested convergence on RMS density matrix=1.00D-08 within 400 cycles.
 Requested convergence on MAX density matrix=1.00D-06.
 Requested convergence on             energy=1.00D-06.
 No special actions if energy rises.

 Cycle   1  Pass 1  IDiag  1:
 E= -1869.05516700883    
 DIIS: error= 1.45D+00 at cycle   1 NSaved=   1.
 NSaved= 1 IEnMin= 1 EnMin= -1869.05516700883     IErMin= 1 ErrMin= 1.45D+00
 ErrMax= 1.45D+00  0.00D+00 EMaxC= 1.00D-01 BMatC= 2.50D+02 BMatP= 2.50D+02
 IDIUse=3 WtCom= 0.00D+00 WtEn= 1.00D+00
 Coeff-Com:  0.100D+01
 Coeff-En:   0.100D+01
 Coeff:      0.100D+01
 Gap=     0.306 Goal=   None    Shift=    0.000
 GapD=    0.306 DampG=1.000 DampE=0.125 DampFc=0.1250 IDamp=-1.
 Damping current iteration by 1.25D-01
 RMSDP=1.54D-03 MaxDP=1.71D-01              OVMax= 3.02D-03

 Cycle   2  Pass 1  IDiag  1:
 E= -1869.05559939905     Delta-E=       -0.000432390219 Rises=F Damp=T
 DIIS: error= 1.27D+00 at cycle   2 NSaved=   2.
 NSaved= 2 IEnMin= 2 EnMin= -1869.05559939905     IErMin= 2 ErrMin= 1.27D+00
 ErrMax= 1.27D+00  0.00D+00 EMaxC= 1.00D-01 BMatC= 1.91D+02 BMatP= 2.50D+02
 IDIUse=3 WtCom= 0.00D+00 WtEn= 1.00D+00
 Coeff-Com: -0.700D+01 0.800D+01
 Coeff-En:   0.000D+00 0.100D+01
 Coeff:      0.000D+00 0.100D+01
 Gap=     0.306 Goal=   None    Shift=    0.000
 RMSDP=1.34D-03 MaxDP=1.50D-01 DE=-4.32D-04 OVMax= 1.60D-04

 Cycle   3  Pass 1  IDiag  1:
 E= -1869.05865299686     Delta-E=       -0.003053597817 Rises=F Damp=F
 DIIS: error= 5.14D-04 at cycle   3 NSaved=   3.
 NSaved= 3 IEnMin= 3 EnMin= -1869.05865299686     IErMin= 3 ErrMin= 5.14D-04
 ErrMax= 5.14D-04  0.00D+00 EMaxC= 1.00D-01 BMatC= 8.26D-06 BMatP= 1.91D+02
 IDIUse=3 WtCom= 9.95D-01 WtEn= 5.14D-03
 Large coefficients: NSaved=  3 BigCof=   45.34 CofMax=   10.00 Det=-3.33D-09
 Inversion failed.  Reducing to  2 matrices.
 Coeff-Com: -0.429D-04 0.100D+01
 Coeff-En:   0.000D+00 0.100D+01
 Coeff:     -0.427D-04 0.100D+01
 Gap=     0.306 Goal=   None    Shift=    0.000
 RMSDP=2.87D-05 MaxDP=2.47D-03 DE=-3.05D-03 OVMax= 1.01D-03

 Cycle   4  Pass 1  IDiag  1:
 E= -1869.05865537494     Delta-E=       -0.000002378075 Rises=F Damp=F
 DIIS: error= 9.09D-05 at cycle   4 NSaved=   3.
 NSaved= 3 IEnMin= 3 EnMin= -1869.05865537494     IErMin= 3 ErrMin= 9.09D-05
 ErrMax= 9.09D-05  0.00D+00 EMaxC= 1.00D-01 BMatC= 8.11D-07 BMatP= 8.26D-06
 IDIUse=1 WtCom= 1.00D+00 WtEn= 0.00D+00
 Coeff-Com: -0.533D-05 0.123D+00 0.877D+00
 Coeff:     -0.533D-05 0.123D+00 0.877D+00
 Gap=     0.306 Goal=   None    Shift=    0.000
 RMSDP=2.86D-06 MaxDP=2.07D-04 DE=-2.38D-06 OVMax= 6.09D-04

 Cycle   5  Pass 1  IDiag  1:
 E= -1869.05865566756     Delta-E=       -0.000000292622 Rises=F Damp=F
 DIIS: error= 5.99D-05 at cycle   5 NSaved=   4.
 NSaved= 4 IEnMin= 4 EnMin= -1869.05865566756     IErMin= 4 ErrMin= 5.99D-05
 ErrMax= 5.99D-05  0.00D+00 EMaxC= 1.00D-01 BMatC= 4.54D-07 BMatP= 8.11D-07
 IDIUse=1 WtCom= 1.00D+00 WtEn= 0.00D+00
 Coeff-Com:  0.122D-05-0.290D-01 0.425D+00 0.604D+00
 Coeff:      0.122D-05-0.290D-01 0.425D+00 0.604D+00
 Gap=     0.306 Goal=   None    Shift=    0.000
 RMSDP=1.46D-06 MaxDP=1.88D-04 DE=-2.93D-07 OVMax= 3.78D-04

 Cycle   6  Pass 1  IDiag  1:
 E= -1869.05865603335     Delta-E=       -0.000000365786 Rises=F Damp=F
 DIIS: error= 9.26D-06 at cycle   6 NSaved=   5.
 NSaved= 5 IEnMin= 5 EnMin= -1869.05865603335     IErMin= 5 ErrMin= 9.26D-06
 ErrMax= 9.26D-06  0.00D+00 EMaxC= 1.00D-01 BMatC= 7.68D-09 BMatP= 4.54D-07
 IDIUse=1 WtCom= 1.00D+00 WtEn= 0.00D+00
 Coeff-Com:  0.437D-06-0.103D-01 0.917D-01 0.179D+00 0.739D+00
 Coeff:      0.437D-06-0.103D-01 0.917D-01 0.179D+00 0.739D+00
 Gap=     0.306 Goal=   None    Shift=    0.000
 RMSDP=2.62D-07 MaxDP=2.71D-05 DE=-3.66D-07 OVMax= 4.91D-05

 Cycle   7  Pass 1  IDiag  1:
 E= -1869.05865604133     Delta-E=       -0.000000007978 Rises=F Damp=F
 DIIS: error= 4.44D-06 at cycle   7 NSaved=   6.
 NSaved= 6 IEnMin= 6 EnMin= -1869.05865604133     IErMin= 6 ErrMin= 4.44D-06
 ErrMax= 4.44D-06  0.00D+00 EMaxC= 1.00D-01 BMatC= 2.99D-09 BMatP= 7.68D-09
 IDIUse=1 WtCom= 1.00D+00 WtEn= 0.00D+00
 Coeff-Com: -0.158D-06 0.376D-02-0.888D-01-0.702D-01 0.306D+00 0.849D+00
 Coeff:     -0.158D-06 0.376D-02-0.888D-01-0.702D-01 0.306D+00 0.849D+00
 Gap=     0.306 Goal=   None    Shift=    0.000
 RMSDP=2.16D-07 MaxDP=2.17D-05 DE=-7.98D-09 OVMax= 4.84D-05

 Cycle   8  Pass 1  IDiag  1:
 E= -1869.05865604681     Delta-E=       -0.000000005479 Rises=F Damp=F
 DIIS: error= 2.65D-06 at cycle   8 NSaved=   7.
 NSaved= 7 IEnMin= 7 EnMin= -1869.05865604681     IErMin= 7 ErrMin= 2.65D-06
 ErrMax= 2.65D-06  0.00D+00 EMaxC= 1.00D-01 BMatC= 6.35D-10 BMatP= 2.99D-09
 IDIUse=1 WtCom= 1.00D+00 WtEn= 0.00D+00
 Coeff-Com:  0.442D-07-0.108D-02 0.419D-01 0.578D-01-0.400D+00-0.754D+00
 Coeff-Com:  0.206D+01
 Coeff:      0.442D-07-0.108D-02 0.419D-01 0.578D-01-0.400D+00-0.754D+00
 Coeff:      0.206D+01
 Gap=     0.306 Goal=   None    Shift=    0.000
 RMSDP=1.79D-07 MaxDP=1.75D-05 DE=-5.48D-09 OVMax= 6.07D-05

 Cycle   9  Pass 1  IDiag  1:
 E= -1869.05865604958     Delta-E=       -0.000000002772 Rises=F Damp=F
 DIIS: error= 4.61D-07 at cycle   9 NSaved=   8.
 NSaved= 8 IEnMin= 8 EnMin= -1869.05865604958     IErMin= 8 ErrMin= 4.61D-07
 ErrMax= 4.61D-07  0.00D+00 EMaxC= 1.00D-01 BMatC= 2.74D-11 BMatP= 6.35D-10
 IDIUse=1 WtCom= 1.00D+00 WtEn= 0.00D+00
 Coeff-Com:  0.130D-07-0.307D-03 0.258D-02 0.473D-02 0.284D-01 0.832D-02
 Coeff-Com: -0.279D+00 0.124D+01
 Coeff:      0.130D-07-0.307D-03 0.258D-02 0.473D-02 0.284D-01 0.832D-02
 Coeff:     -0.279D+00 0.124D+01
 Gap=     0.306 Goal=   None    Shift=    0.000
 RMSDP=3.15D-08 MaxDP=3.81D-06 DE=-2.77D-09 OVMax= 1.03D-05

 Cycle  10  Pass 1  IDiag  1:
 E= -1869.05865604966     Delta-E=       -0.000000000086 Rises=F Damp=F
 DIIS: error= 9.41D-08 at cycle  10 NSaved=   9.
 NSaved= 9 IEnMin= 9 EnMin= -1869.05865604966     IErMin= 9 ErrMin= 9.41D-08
 ErrMax= 9.41D-08  0.00D+00 EMaxC= 1.00D-01 BMatC= 9.93D-13 BMatP= 2.74D-11
 IDIUse=1 WtCom= 1.00D+00 WtEn= 0.00D+00
 Coeff-Com: -0.326D-08 0.788D-04-0.261D-02-0.287D-02 0.207D-01 0.360D-01
 Coeff-Com: -0.707D-01-0.205D+00 0.122D+01
 Coeff:     -0.326D-08 0.788D-04-0.261D-02-0.287D-02 0.207D-01 0.360D-01
 Coeff:     -0.707D-01-0.205D+00 0.122D+01
 Gap=     0.306 Goal=   None    Shift=    0.000
 RMSDP=5.92D-09 MaxDP=7.72D-07 DE=-8.59D-11 OVMax= 1.26D-06

 SCF Done:  E(ROHF) =  -1869.05865605     A.U. after   10 cycles
            NFock= 10  Conv=0.59D-08     -V/T= 1.9496
 <Sx>= 0.0000 <Sy>= 0.0000 <Sz>= 0.0000 <S**2>=-0.0000 S=-0.0000
 <L.S>=  0.00000000000    
 KE= 1.968235721243D+03 PE=-4.696841531775D+03 EE= 7.990697589494D+02
 Annihilation of the first spin contaminant:
 S**2 before annihilation    -0.0000,   after     0.0000
 Leave Link  502 at Fri May  4 17:51:02 2018, MaxMem= 21474836480 cpu:             569.5 elap:              21.5
 (Enter /home1/apps/gaussian/16rA.03/g16/l801.exe)
 Windowed orbitals will be sorted by symmetry type.
 GenMOA:  NOpAll=  4 NOp2=4 NOpUse=  4 JSym2X=1
 FoFJK:  IHMeth= 1 ICntrl=       0 DoSepK=F KAlg= 0 I1Cent=           0 FoldK=F
 IRaf=         0 NMat=       1 IRICut=       1 DoRegI=T DoRafI=F ISym2E= 1 IDoP0=0 IntGTp=1.
 FoFCou: FMM=F IPFlag=           8 FMFlag=      100000 FMFlg1=           0
         NFxFlg=           0 DoJE=F BraDBF=F KetDBF=F FulRan=T
         wScrn=  0.000000 ICntrl=         0 IOpCl=  1 I1Cent=           0 NGrid=           0
         NMat0=    1 NMatS0=      1 NMatT0=    0 NMatD0=    1 NMtDS0=    0 NMtDT0=    0
 Petite list used in FoFCou.
 <Sx>= 0.0000 <Sy>= 0.0000 <Sz>= 0.0000 <S**2>= 0.0000 S= 0.0000
 Range of M.O.s used for correlation:     1   380
 NBasis=   384 NAE=    19 NBE=    19 NFC=     0 NFV=     0
 NROrb=    380 NOA=    19 NOB=    19 NVA=   361 NVB=   361

 **** Warning!!: The largest alpha MO coefficient is  0.27559153D+03


 **** Warning!!: The largest beta MO coefficient is  0.27559153D+03

 Singles contribution to E2=   -0.5946477486D-13
 Leave Link  801 at Fri May  4 17:51:07 2018, MaxMem= 21474836480 cpu:             162.2 elap:               5.1
 (Enter /home1/apps/gaussian/16rA.03/g16/l804.exe)
 Open-shell transformation, MDV= 21474836480 ITran=4 ISComp=2.
 Unit  1 TFree=       4462414 TCopy=       3539130.
 Semi-Direct transformation.
 ModeAB=           4 MOrb=            19 LenV=   21470593243
 LASXX=    128849191 LTotXX=   128849191 LenRXX=   259261021
 LTotAB=   130411830 MaxLAS=   836263720 LenRXY=           0
 NonZer=   388110212 LenScr=   584449024 LnRSAI=   836263720
 LnScr1=  1259315200 LExtra=    72836548 Total=   3012125513
 MaxDsk= 67108864000 SrtSym=           T ITran=            4
 DoSDTr:  NPSUse= 32
 JobTyp=1 Pass  1:  I=   1 to  19.
 (rs|ai) integrals will be sorted in core.
 Complete sort for first half transformation.
 First half transformation complete.
 Begin second half transformation for I=  10.
 Complete sort for second half transformation.
 Second half transformation complete.
 ModeAB=           4 MOrb=            19 LenV=   21470593243
 LASXX=    128849191 LTotXX=   128849191 LenRXX=   246394698
 LTotAB=   117545507 MaxLAS=   836263720 LenRXY=           0
 NonZer=   375243889 LenScr=   565073920 LnRSAI=   836263720
 LnScr1=  1259315200 LExtra=   332097569 Total=   3239145107
 MaxDsk= 67108864000 SrtSym=           T ITran=            4
 DoSDTr:  NPSUse= 32
 JobTyp=2 Pass  1:  I=   1 to  19.
 (rs|ai) integrals will be sorted in core.
 Complete sort for first half transformation.
 First half transformation complete.
 Begin second half transformation for I=  10.
 Complete sort for second half transformation.
 Second half transformation complete.
 Spin components of T(2) and E(2):
     alpha-alpha T2 =       0.2966428420D-01 E2=     -0.2783444568D+00
     alpha-beta  T2 =       0.1614290690D+00 E2=     -0.1308113243D+01
     beta-beta   T2 =       0.2966428420D-01 E2=     -0.2783444568D+00
 ANorm=    0.1104879015D+01
 E2 =    -0.1864802157D+01 EUMP2 =    -0.18709234582068D+04
 (S**2,0)=  0.00000D+00           (S**2,1)=  0.00000D+00
 E(PUHF)=      -0.18690586560D+04        E(PMP2)=      -0.18709234582D+04
 Leave Link  804 at Fri May  4 17:55:11 2018, MaxMem= 21474836480 cpu:            7791.1 elap:             244.3
 (Enter /home1/apps/gaussian/16rA.03/g16/l913.exe)
 CIDS:  MDV= 21474836480.
 IFCWin=0 IBDFC=1 NFBD=     0     0 NFCmp=     0     0 NFFFC=     0     0
 Using original routines for 1st iteration.
 Using DD4UQ or CC4UQ for 2nd and later iterations.
 Keep R2 and R3 ints in memory in symmetry-blocked form, NReq=3425148949.
 FoFCou: FMM=F IPFlag=           8 FMFlag=           0 FMFlg1=           0
         NFxFlg=           0 DoJE=F BraDBF=F KetDBF=F FulRan=T
         wScrn=  0.000000 ICntrl=       600 IOpCl=  0 I1Cent=           0 NGrid=           0
         NMat0=    1 NMatS0=  73920 NMatT0=    0 NMatD0=    1 NMtDS0=    0 NMtDT0=    0
 Petite list used in FoFCou.
 CIDS: In Core Option IDoMem=           1.
 CCSD(T)
 =======
 Iterations= 150 Convergence= 0.100D-06
 Produce multiple copies of IABC intergrals
 Iteration Nr.   1
 **********************
 DD1Dir will call FoFMem   1 times, MxPair=      1064
 NAB=   361 NAA=   171 NBB=   171.
 DD1Dir will call FoFMem   1 times, MxPair=      1064
 NAB=   361 NAA=   171 NBB=   171.
 MP4(R+Q)= -0.16677786D+00
 Maximum subspace dimension=  5
 A-vector RMS=  1.3940324D-05 Max=  4.1357527D-02 conv= 1.00D-05.
 RLE energy=       -1.8589181958
 E3=        0.17268044D+00        EROMP3=      -0.18707507778D+04
 E4(SDQ)=  -0.10457882D+00        ROMP4(SDQ)=  -0.18708553566D+04
 VARIATIONAL ENERGIES WITH THE FIRST-ORDER WAVEFUNCTION:
 DE(Corr)=  -1.8588996     E(Corr)=     -1870.9175556    
 NORM(A)=   0.10945509D+01
 Iteration Nr.   2
 **********************
 DD1Dir will call FoFMem   1 times, MxPair=      1064
 NAB=   361 NAA=   171 NBB=   171.
 A-vector RMS=  2.9381076D-03 Max=  6.8152524D-02 conv= 1.00D-05.
 RLE energy=       -1.8126683063
 DE(Corr)=  -1.6816265     E(CORR)=     -1870.7402826     Delta= 1.77D-01
 NORM(A)=   0.10904004D+01
 Iteration Nr.   3
 **********************
 DD1Dir will call FoFMem   1 times, MxPair=      1064
 NAB=   361 NAA=   171 NBB=   171.
 A-vector RMS=  2.0658852D-03 Max=  4.7841222D-02 conv= 1.00D-05.
 RLE energy=       -1.7844411330
 DE(Corr)=  -1.7043256     E(CORR)=     -1870.7629816     Delta=-2.27D-02
 NORM(A)=   0.10985513D+01
 Iteration Nr.   4
 **********************
 DD1Dir will call FoFMem   1 times, MxPair=      1064
 NAB=   361 NAA=   171 NBB=   171.
 A-vector RMS=  1.5546724D-03 Max=  3.8059445D-02 conv= 1.00D-05.
 RLE energy=       -1.7284988085
 DE(Corr)=  -1.7259391     E(CORR)=     -1870.7845951     Delta=-2.16D-02
 NORM(A)=   0.11480130D+01
 Iteration Nr.   5
 **********************
 DD1Dir will call FoFMem   1 times, MxPair=      1064
 NAB=   361 NAA=   171 NBB=   171.
 A-vector RMS=  9.9774603D-04 Max=  2.4616526D-02 conv= 1.00D-05.
 RLE energy=       -1.7504116125
 DE(Corr)=  -1.7783408     E(CORR)=     -1870.8369969     Delta=-5.24D-02
 NORM(A)=   0.11533825D+01
 Iteration Nr.   6
 **********************
 DD1Dir will call FoFMem   1 times, MxPair=      1064
 NAB=   361 NAA=   171 NBB=   171.
 A-vector RMS=  2.7050225D-04 Max=  4.2421204D-03 conv= 1.00D-05.
 RLE energy=       -1.7594514117
 DE(Corr)=  -1.7665280     E(CORR)=     -1870.8251841     Delta= 1.18D-02
 NORM(A)=   0.11491984D+01
 Iteration Nr.   7
 **********************
 DD1Dir will call FoFMem   1 times, MxPair=      1064
 NAB=   361 NAA=   171 NBB=   171.
 A-vector RMS=  1.4829677D-04 Max=  2.6458890D-03 conv= 1.00D-05.
 RLE energy=       -1.7594922079
 DE(Corr)=  -1.7591146     E(CORR)=     -1870.8177706     Delta= 7.41D-03
 NORM(A)=   0.11533269D+01
 Iteration Nr.   8
 **********************
 DD1Dir will call FoFMem   1 times, MxPair=      1064
 NAB=   361 NAA=   171 NBB=   171.
 A-vector RMS=  6.6969737D-05 Max=  1.5749325D-03 conv= 1.00D-05.
 RLE energy=       -1.7596514172
 DE(Corr)=  -1.7599067     E(CORR)=     -1870.8185628     Delta=-7.92D-04
 NORM(A)=   0.11546635D+01
 Iteration Nr.   9
 **********************
 DD1Dir will call FoFMem   1 times, MxPair=      1064
 NAB=   361 NAA=   171 NBB=   171.
 A-vector RMS=  3.8283676D-05 Max=  5.8983634D-04 conv= 1.00D-05.
 RLE energy=       -1.7599160419
 DE(Corr)=  -1.7597577     E(CORR)=     -1870.8184137     Delta= 1.49D-04
 NORM(A)=   0.11556014D+01
 Iteration Nr.  10
 **********************
 DD1Dir will call FoFMem   1 times, MxPair=      1064
 NAB=   361 NAA=   171 NBB=   171.
 A-vector RMS=  1.0453336D-05 Max=  2.6038819D-04 conv= 1.00D-05.
 RLE energy=       -1.7598496526
 DE(Corr)=  -1.7598112     E(CORR)=     -1870.8184673     Delta=-5.36D-05
 NORM(A)=   0.11554404D+01
 Iteration Nr.  11
 **********************
 DD1Dir will call FoFMem   1 times, MxPair=      1064
 NAB=   361 NAA=   171 NBB=   171.
 A-vector RMS=  9.8001973D-06 Max=  2.3459537D-04 conv= 1.00D-05.
 RLE energy=       -1.7597857449
 DE(Corr)=  -1.7598183     E(CORR)=     -1870.8184743     Delta=-7.05D-06
 NORM(A)=   0.11552920D+01
 Iteration Nr.  12
 **********************
 DD1Dir will call FoFMem   1 times, MxPair=      1064
 NAB=   361 NAA=   171 NBB=   171.
 A-vector RMS=  2.6920937D-06 Max=  6.1576428D-05 conv= 1.00D-05.
 RLE energy=       -1.7597981165
 DE(Corr)=  -1.7597964     E(CORR)=     -1870.8184524     Delta= 2.19D-05
 NORM(A)=   0.11552942D+01
 Iteration Nr.  13
 **********************
 DD1Dir will call FoFMem   1 times, MxPair=      1064
 NAB=   361 NAA=   171 NBB=   171.
 A-vector RMS=  1.4184155D-06 Max=  4.3180363D-05 conv= 1.00D-05.
 RLE energy=       -1.7597967138
 DE(Corr)=  -1.7597971     E(CORR)=     -1870.8184532     Delta=-7.59D-07
 NORM(A)=   0.11552962D+01
 Iteration Nr.  14
 **********************
 DD1Dir will call FoFMem   1 times, MxPair=      1064
 NAB=   361 NAA=   171 NBB=   171.
 A-vector RMS=  6.6566002D-07 Max=  1.2827290D-05 conv= 1.00D-05.
 RLE energy=       -1.7597936041
 DE(Corr)=  -1.7597948     E(CORR)=     -1870.8184509     Delta= 2.31D-06
 NORM(A)=   0.11553052D+01
 Iteration Nr.  15
 **********************
 DD1Dir will call FoFMem   1 times, MxPair=      1064
 NAB=   361 NAA=   171 NBB=   171.
 A-vector RMS=  3.5844151D-07 Max=  7.6526197D-06 conv= 1.00D-05.
 RLE energy=       -1.7597981651
 DE(Corr)=  -1.7597982     E(CORR)=     -1870.8184543     Delta=-3.39D-06
 NORM(A)=   0.11553120D+01
 Iteration Nr.  16
 **********************
 DD1Dir will call FoFMem   1 times, MxPair=      1064
 NAB=   361 NAA=   171 NBB=   171.
 A-vector RMS=  1.8117021D-07 Max=  3.5704252D-06 conv= 1.00D-05.
 RLE energy=       -1.7597981044
 DE(Corr)=  -1.7597978     E(CORR)=     -1870.8184539     Delta= 3.79D-07
 NORM(A)=   0.11553133D+01
 Iteration Nr.  17
 **********************
 DD1Dir will call FoFMem   1 times, MxPair=      1064
 NAB=   361 NAA=   171 NBB=   171.
 A-vector RMS=  1.1496848D-07 Max=  2.9207959D-06 conv= 1.00D-05.
 RLE energy=       -1.7597980192
 DE(Corr)=  -1.7597980     E(CORR)=     -1870.8184541     Delta=-1.89D-07
 NORM(A)=   0.11553156D+01
 Iteration Nr.  18
 **********************
 DD1Dir will call FoFMem   1 times, MxPair=      1064
 NAB=   361 NAA=   171 NBB=   171.
 A-vector RMS=  5.9439460D-08 Max=  1.1806232D-06 conv= 1.00D-05.
 RLE energy=       -1.7597983661
 DE(Corr)=  -1.7597984     E(CORR)=     -1870.8184545     Delta=-4.10D-07
 NORM(A)=   0.11553166D+01
 Iteration Nr.  19
 **********************
 DD1Dir will call FoFMem   1 times, MxPair=      1064
 NAB=   361 NAA=   171 NBB=   171.
 A-vector RMS=  3.9374607D-08 Max=  1.0677560D-06 conv= 1.00D-05.
 RLE energy=       -1.7597984941
 DE(Corr)=  -1.7597984     E(CORR)=     -1870.8184545     Delta= 6.10D-09
 NORM(A)=   0.11553169D+01
 CI/CC converged in   19 iterations to DelEn= 6.10D-09 Conv= 1.00D-07 ErrA1= 3.94D-08 Conv= 1.00D-05
 Wavefunction amplitudes converged. E(Corr)=     -1870.8184545    
 Dominant configurations:
 ***********************
 Spin Case        I    J    A    B          Value
    AA           19        20           -0.121106D+00
    BB           19        20           -0.121106D+00
   ABAB          19   19   20   20      -0.183469D+00
 Largest amplitude= 1.83D-01
 Time for triples=   219274.49 seconds.
 T4(CCSD)= -0.61135370D-01
 T5(CCSD)=  0.80661730D-02
 CCSD(T)= -0.18708715237D+04
 Discarding MO integrals.
 Leave Link  913 at Fri May  4 20:04:48 2018, MaxMem= 21474836480 cpu:          246636.2 elap:            7777.0
 (Enter /home1/apps/gaussian/16rA.03/g16/l601.exe)
 Copying SCF densities to generalized density rwf, IOpCl= 0 IROHF=1.

 **********************************************************************

            Population analysis using the SCF density.

 **********************************************************************

 Orbital symmetries:
       Occupied  (SG) (SG) (PI) (PI) (SG) (SG) (SG) (PI) (PI) (SG)
                 (SG) (PI) (PI) (DLTA) (DLTA) (SG) (PI) (PI) (SG)
       Virtual   (SG) (PI) (PI) (SG) (SG) (PI) (PI) (SG) (SG) (SG)
                 (DLTA) (DLTA) (PI) (PI) (SG) (PI) (PI) (PI) (PI)
                 (SG) (SG) (DLTA) (DLTA) (SG) (DLTA) (DLTA) (PI)
                 (PI) (SG) (PI) (PI) (SG) (PI) (PI) (SG) (PI) (PI)
                 (PHI) (PHI) (SG) (DLTA) (DLTA) (PI) (PI) (SG)
                 (SG) (PHI) (PHI) (SG) (DLTA) (DLTA) (PI) (PI)
                 (DLTA) (DLTA) (DLTA) (DLTA) (PI) (PI) (SG) (PI)
                 (PI) (SG) (SG) (PI) (PI) (PI) (PI) (SG) (SG) (PI)
                 (PI) (PHI) (PHI) (DLTA) (DLTA) (SG) (DLTA) (DLTA)
                 (PHI) (PHI) (SG) (?A) (?A) (PI) (PI) (DLTA) (DLTA)
                 (PI) (PI) (?A) (?A) (PHI) (PHI) (SG) (DLTA) (DLTA)
                 (PHI) (PHI) (SG) (SG) (PI) (PI) (DLTA) (DLTA)
                 (PI) (PI) (DLTA) (DLTA) (SG) (PI) (PI) (SG) (PI)
                 (PI) (SG) (PHI) (PHI) (DLTA) (DLTA) (PI) (PI)
                 (DLTA) (DLTA) (PI) (PI) (SG) (SG) (PI) (PI) (SG)
                 (SG) (DLTA) (DLTA) (PHI) (PHI) (?A) (?A) (PI)
                 (PI) (PHI) (PHI) (?A) (?A) (SG) (DLTA) (DLTA)
                 (PI) (PI) (?B) (?B) (?A) (?A) (PHI) (PHI) (DLTA)
                 (DLTA) (SG) (SG) (PI) (PI) (DLTA) (DLTA) (PHI)
                 (PHI) (PI) (PI) (SG) (DLTA) (DLTA) (PI) (PI) (SG)
                 (SG) (PI) (PI) (DLTA) (DLTA) (SG) (PI) (PI) (SG)
                 (PHI) (PHI) (DLTA) (DLTA) (PI) (PI) (SG) (SG)
                 (?A) (?A) (PHI) (PHI) (DLTA) (DLTA) (PI) (PI)
                 (SG) (PI) (PI) (SG) (?B) (?B) (?A) (?A) (PHI)
                 (PHI) (DLTA) (DLTA) (PI) (PI) (SG) (DLTA) (DLTA)
                 (PI) (PI) (SG) (PI) (PI) (SG) (SG) (DLTA) (DLTA)
                 (PI) (PI) (SG) (PHI) (PHI) (DLTA) (DLTA) (PI)
                 (PI) (SG) (SG) (DLTA) (DLTA) (PI) (PI) (SG) (?A)
                 (?A) (PHI) (PHI) (DLTA) (DLTA) (PI) (PI) (SG)
                 (?B) (?B) (?A) (?A) (PHI) (PHI) (DLTA) (DLTA)
                 (PI) (PI) (SG) (PI) (PI) (SG) (PI) (PI) (SG) (SG)
                 (DLTA) (DLTA) (PI) (PI) (SG) (PI) (PI) (SG) (DLTA)
                 (DLTA) (PHI) (PHI) (SG) (PI) (PI) (SG) (PI) (PI)
                 (SG) (SG) (DLTA) (DLTA) (PI) (PI) (SG) (DLTA)
                 (DLTA) (PI) (PI) (SG) (PI) (PI) (SG) (SG) (SG)
                 (PI) (PI) (SG) (DLTA) (DLTA) (PI) (PI) (SG) (SG)
                 (PI) (PI) (SG) (PI) (PI) (SG) (SG) (DLTA) (DLTA)
                 (PI) (PI) (SG) (SG) (PI) (PI) (SG) (SG) (SG) (DLTA)
                 (DLTA) (PI) (PI) (SG) (PI) (PI) (SG) (SG) (SG)
                 (PI) (PI) (SG) (SG) (PI) (PI) (SG) (SG) (SG) (PI)
                 (PI) (SG) (SG) (SG) (PI) (PI) (SG) (SG) (SG) (SG)
                 (SG) (SG)
 The electronic state is 1-SG.
 Alpha  occ. eigenvalues -- -357.61321 -45.37827 -39.18143 -39.18143 -39.18011
 Alpha  occ. eigenvalues --  -20.58644  -5.84670  -3.92571  -3.92571  -3.92516
 Alpha  occ. eigenvalues --   -1.16731  -0.81261  -0.81261  -0.81221  -0.81221
 Alpha  occ. eigenvalues --   -0.80710  -0.46145  -0.46145  -0.34201
 Alpha virt. eigenvalues --   -0.03567   0.02272   0.02272   0.02670   0.03957
 Alpha virt. eigenvalues --    0.07335   0.07335   0.11501   0.16277   0.16801
 Alpha virt. eigenvalues --    0.17984   0.17984   0.18973   0.18973   0.23315
 Alpha virt. eigenvalues --    0.23548   0.23548   0.24099   0.24099   0.30932
 Alpha virt. eigenvalues --    0.43156   0.54890   0.54890   0.56560   0.57428
 Alpha virt. eigenvalues --    0.57428   0.60620   0.60620   0.64976   0.66314
 Alpha virt. eigenvalues --    0.66314   0.68433   0.78981   0.78981   0.82905
 Alpha virt. eigenvalues --    0.85282   0.85282   1.07284   1.07284   1.08257
 Alpha virt. eigenvalues --    1.11403   1.11403   1.29704   1.29704   1.32682
 Alpha virt. eigenvalues --    1.41916   1.42498   1.42498   1.53903   1.53989
 Alpha virt. eigenvalues --    1.53989   1.54666   1.54666   1.58899   1.58899
 Alpha virt. eigenvalues --    1.64309   1.64309   1.70526   1.70526   1.74919
 Alpha virt. eigenvalues --    1.97882   1.97882   2.25739   2.60963   2.61405
 Alpha virt. eigenvalues --    2.61405   2.83692   2.83692   2.97907   3.07079
 Alpha virt. eigenvalues --    3.23199   3.23199   3.23592   3.23592   3.28572
 Alpha virt. eigenvalues --    3.28572   3.40077   3.54710   3.54710   3.68463
 Alpha virt. eigenvalues --    3.68463   3.74729   3.75044   3.75044   3.77200
 Alpha virt. eigenvalues --    3.77200   3.80093   3.80093   3.85956   3.85956
 Alpha virt. eigenvalues --    3.88839   3.88839   3.93918   3.93918   4.03275
 Alpha virt. eigenvalues --    4.12451   4.12451   4.17247   4.17247   4.17394
 Alpha virt. eigenvalues --    4.30458   4.31604   4.31604   4.33490   4.33490
 Alpha virt. eigenvalues --    4.38895   4.38895   4.46669   4.46669   4.99030
 Alpha virt. eigenvalues --    5.08475   5.08475   5.62378   7.30279   7.30279
 Alpha virt. eigenvalues --    7.53987   8.34665   8.34665   8.37946   8.37946
 Alpha virt. eigenvalues --    8.46609   8.46609   8.48885   8.48885   8.54933
 Alpha virt. eigenvalues --    8.54933   8.60718   8.66861   9.11104   9.11104
 Alpha virt. eigenvalues --    9.32574   9.51800  10.39448  10.39448  10.40751
 Alpha virt. eigenvalues --   10.40751  10.41119  10.41119  10.54915  10.54915
 Alpha virt. eigenvalues --   10.70321  10.70321  10.73611  10.73611  10.74666
 Alpha virt. eigenvalues --   10.78029  10.78029  10.82077  10.82077  10.94526
 Alpha virt. eigenvalues --   10.94526  10.94623  10.94623  10.94927  10.94927
 Alpha virt. eigenvalues --   11.00388  11.00388  11.08337  11.17667  11.25972
 Alpha virt. eigenvalues --   11.25972  11.94832  11.94832  11.96301  11.96301
 Alpha virt. eigenvalues --   12.01596  12.01596  12.18682  12.73584  12.73584
 Alpha virt. eigenvalues --   12.84795  12.84795  13.03540  13.59656  17.17506
 Alpha virt. eigenvalues --   17.17506  17.22643  17.22643  17.25585  17.29721
 Alpha virt. eigenvalues --   17.29721  17.67564  20.55676  20.55676  20.58257
 Alpha virt. eigenvalues --   20.58257  20.65545  20.65545  20.83039  22.96337
 Alpha virt. eigenvalues --   24.57281  24.57281  24.57716  24.57716  24.62062
 Alpha virt. eigenvalues --   24.62062  24.76865  24.76865  24.86097  27.02864
 Alpha virt. eigenvalues --   27.02864  27.13286  27.16621  27.16621  27.16707
 Alpha virt. eigenvalues --   27.16707  27.16779  27.16779  27.17243  27.17243
 Alpha virt. eigenvalues --   27.19637  27.19637  27.49597  31.90880  31.90880
 Alpha virt. eigenvalues --   31.96079  31.96079  32.07372  35.27889  35.27889
 Alpha virt. eigenvalues --   35.53940  35.78676  47.03765  47.03765  47.05834
 Alpha virt. eigenvalues --   47.05834  47.31336  50.26607  50.26607  50.28545
 Alpha virt. eigenvalues --   50.28545  50.33551  50.33551  50.45783  51.62239
 Alpha virt. eigenvalues --   55.28083  55.28083  55.32765  55.32765  55.43897
 Alpha virt. eigenvalues --   56.04965  56.04965  56.05326  56.05326  56.08058
 Alpha virt. eigenvalues --   56.08058  56.17990  56.17990  56.25901  61.46975
 Alpha virt. eigenvalues --   61.46975  61.47143  61.47143  61.47259  61.47259
 Alpha virt. eigenvalues --   61.47540  61.47540  61.48595  61.48595  61.49665
 Alpha virt. eigenvalues --   66.58695  66.58695  66.86446  67.56675  67.56675
 Alpha virt. eigenvalues --   68.07097  78.37366  92.16969  92.16969  92.21687
 Alpha virt. eigenvalues --   92.21687  92.32209 102.97764 102.97764 102.97963
 Alpha virt. eigenvalues --  102.99089 102.99089 103.02359 103.02359 119.91409
 Alpha virt. eigenvalues --  128.82305 128.82305 129.40974 146.10867 146.10867
 Alpha virt. eigenvalues --  146.35154 152.57763 158.00598 158.00598 158.04935
 Alpha virt. eigenvalues --  158.04935 158.14665 197.15504 197.15504 197.16611
 Alpha virt. eigenvalues --  197.16611 197.30759 253.04324 253.04324 253.63169
 Alpha virt. eigenvalues --  279.46344 292.14959 306.35444 306.35444 306.58828
 Alpha virt. eigenvalues --  307.60022 307.60022 307.63668 307.63668 307.71845
 Alpha virt. eigenvalues --  500.86336 514.18705 514.18705 514.76423 630.14228
 Alpha virt. eigenvalues --  630.14228 630.36526 707.05632 722.04790 722.04790
 Alpha virt. eigenvalues --  722.07489 722.07489 722.13632 912.562961073.32350
 Alpha virt. eigenvalues -- 1073.323501073.845181642.639041891.916382146.38411
 Alpha virt. eigenvalues -- 2146.384112146.400572146.400572146.437432287.97227
 Alpha virt. eigenvalues -- 2287.972272288.424773650.143724901.535064953.57656
 Alpha virt. eigenvalues -- 4953.576564953.944887750.32592********************
 Alpha virt. eigenvalues -- **************************************************
 Alpha virt. eigenvalues -- **************************************************
 Alpha virt. eigenvalues -- **************************************************
 Alpha virt. eigenvalues -- **********
     Molecular Orbital Coefficients:
                          15        16        17        18        19
                           O         O         O         O         O
     Eigenvalues --    -0.81221  -0.80710  -0.46145  -0.46145  -0.34201
   1 1   Zn 1S          0.00000   0.00000   0.00000   0.00000  -0.00000
   2        2S          0.00000   0.00000   0.00000   0.00000  -0.00000
   3        3S          0.00000   0.00000   0.00000   0.00000  -0.00001
   4        4S          0.00000   0.00000   0.00000   0.00000  -0.00003
   5        5S          0.00000   0.00000   0.00000   0.00000  -0.00007
   6        6S          0.00000   0.00001   0.00000   0.00000  -0.00017
   7        7S          0.00000   0.00001   0.00000   0.00000  -0.00040
   8        8S          0.00000   0.00003   0.00000   0.00000  -0.00096
   9        9S          0.00000   0.00007   0.00000   0.00000  -0.00224
  10       10S          0.00000   0.00015   0.00000   0.00000  -0.00492
  11       11S          0.00000   0.00029   0.00000   0.00000  -0.00942
  12       12S          0.00000   0.00044   0.00000   0.00000  -0.01436
  13       13S          0.00000   0.00033   0.00000   0.00000  -0.01000
  14       14S          0.00000  -0.00075   0.00000   0.00000   0.02234
  15       15S          0.00000  -0.00245   0.00000   0.00000   0.08135
  16       16S          0.00000  -0.00287   0.00000   0.00000   0.06120
  17       17S          0.00000   0.00794   0.00000   0.00000  -0.12507
  18       18S          0.00000   0.01010   0.00000   0.00000  -0.22352
  19       19S          0.00000   0.00193   0.00000   0.00000  -0.16615
  20       20S          0.00000  -0.01936   0.00000   0.00000   0.35463
  21       21S          0.00000  -0.00565   0.00000   0.00000   0.45727
  22       22S          0.00000  -0.00138   0.00000   0.00000   0.12491
  23       23S          0.00000   0.00025   0.00000   0.00000   0.01297
  24       24S          0.00000  -0.00635   0.00000   0.00000   0.05071
  25       25S          0.00000   0.00026   0.00000   0.00000  -0.00303
  26       26PX         0.00000   0.00000   0.00000   0.00000   0.00000
  27       26PY         0.00000   0.00000   0.00000   0.00000   0.00000
  28       26PZ         0.00000   0.00000   0.00000   0.00000  -0.00000
  29       27PX         0.00000   0.00000   0.00000   0.00000   0.00000
  30       27PY         0.00000   0.00000   0.00000   0.00000   0.00000
  31       27PZ         0.00000   0.00000   0.00000   0.00000  -0.00000
  32       28PX         0.00000   0.00000   0.00001   0.00000   0.00000
  33       28PY         0.00000   0.00000   0.00000   0.00001   0.00000
  34       28PZ         0.00000   0.00000   0.00000   0.00000  -0.00001
  35       29PX         0.00000   0.00000   0.00002   0.00000   0.00000
  36       29PY         0.00000   0.00000   0.00000   0.00002   0.00000
  37       29PZ         0.00000   0.00001   0.00000   0.00000  -0.00003
  38       30PX         0.00000   0.00000   0.00008   0.00000   0.00000
  39       30PY         0.00000   0.00000   0.00000   0.00008   0.00000
  40       30PZ         0.00000   0.00003   0.00000   0.00000  -0.00009
  41       31PX         0.00000   0.00000   0.00024   0.00000   0.00000
  42       31PY         0.00000   0.00000   0.00000   0.00024   0.00000
  43       31PZ         0.00000   0.00008   0.00000   0.00000  -0.00027
  44       32PX         0.00000   0.00000   0.00066   0.00000   0.00000
  45       32PY         0.00000   0.00000   0.00000   0.00066   0.00000
  46       32PZ         0.00000   0.00024   0.00000   0.00000  -0.00070
  47       33PX         0.00000   0.00000   0.00142   0.00000   0.00000
  48       33PY         0.00000   0.00000   0.00000   0.00142   0.00000
  49       33PZ         0.00000   0.00047   0.00000   0.00000  -0.00160
  50       34PX         0.00000   0.00000   0.00252   0.00000   0.00000
  51       34PY         0.00000   0.00000   0.00000   0.00252   0.00000
  52       34PZ         0.00000   0.00098   0.00000   0.00000  -0.00259
  53       35PX         0.00000   0.00000   0.00271   0.00000   0.00000
  54       35PY         0.00000   0.00000   0.00000   0.00271   0.00000
  55       35PZ         0.00000   0.00060   0.00000   0.00000  -0.00356
  56       36PX         0.00000   0.00000  -0.00105   0.00000   0.00000
  57       36PY         0.00000   0.00000   0.00000  -0.00105   0.00000
  58       36PZ         0.00000  -0.00256   0.00000   0.00000  -0.00259
  59       37PX         0.00000   0.00000  -0.00400   0.00000   0.00000
  60       37PY         0.00000   0.00000   0.00000  -0.00400   0.00000
  61       37PZ         0.00000  -0.00094   0.00000   0.00000   0.00516
  62       38PX         0.00000   0.00000  -0.00599   0.00000   0.00000
  63       38PY         0.00000   0.00000   0.00000  -0.00599   0.00000
  64       38PZ         0.00000  -0.00392   0.00000   0.00000   0.00292
  65       39PX         0.00000   0.00000  -0.00996   0.00000   0.00000
  66       39PY         0.00000   0.00000   0.00000  -0.00996   0.00000
  67       39PZ         0.00000  -0.00268   0.00000   0.00000   0.01360
  68       40PX         0.00000   0.00000  -0.00279   0.00000   0.00000
  69       40PY         0.00000   0.00000   0.00000  -0.00279   0.00000
  70       40PZ         0.00000   0.00006   0.00000   0.00000  -0.00052
  71       41PX         0.00000   0.00000   0.02250   0.00000   0.00000
  72       41PY         0.00000   0.00000   0.00000   0.02250   0.00000
  73       41PZ         0.00000   0.00864   0.00000   0.00000  -0.02772
  74       42PX         0.00000   0.00000   0.02277   0.00000   0.00000
  75       42PY         0.00000   0.00000   0.00000   0.02277   0.00000
  76       42PZ         0.00000   0.00191   0.00000   0.00000   0.00984
  77       43PX         0.00000   0.00000   0.00208   0.00000   0.00000
  78       43PY         0.00000   0.00000   0.00000   0.00208   0.00000
  79       43PZ         0.00000  -0.00001   0.00000   0.00000   0.00981
  80       44PX         0.00000   0.00000   0.00157   0.00000   0.00000
  81       44PY         0.00000   0.00000   0.00000   0.00157   0.00000
  82       44PZ         0.00000   0.00272   0.00000   0.00000   0.00201
  83       45PX         0.00000   0.00000  -0.00360   0.00000   0.00000
  84       45PY         0.00000   0.00000   0.00000  -0.00360   0.00000
  85       45PZ         0.00000  -0.00006   0.00000   0.00000   0.00642
  86       46PX         0.00000   0.00000  -0.00117   0.00000   0.00000
  87       46PY         0.00000   0.00000   0.00000  -0.00117   0.00000
  88       46PZ         0.00000   0.00001   0.00000   0.00000  -0.00086
  89       47D 0        0.00000   0.00024   0.00000   0.00000  -0.00001
  90       47D+1        0.00000   0.00000   0.00002   0.00000   0.00000
  91       47D-1        0.00000   0.00000   0.00000   0.00002   0.00000
  92       47D+2        0.00000  -0.00000   0.00000   0.00000  -0.00000
  93       47D-2        0.00024   0.00000   0.00000   0.00000   0.00000
  94       48D 0        0.00000   0.00203   0.00000   0.00000  -0.00007
  95       48D+1        0.00000   0.00000   0.00015   0.00000   0.00000
  96       48D-1        0.00000   0.00000   0.00000   0.00015   0.00000
  97       48D+2        0.00000  -0.00000   0.00000   0.00000  -0.00000
  98       48D-2        0.00204   0.00000   0.00000   0.00000   0.00000
  99       49D 0        0.00000   0.01079   0.00000   0.00000  -0.00037
 100       49D+1        0.00000   0.00000   0.00079   0.00000   0.00000
 101       49D-1        0.00000   0.00000   0.00000   0.00079   0.00000
 102       49D+2        0.00000  -0.00000   0.00000   0.00000  -0.00000
 103       49D-2        0.01085   0.00000   0.00000   0.00000   0.00000
 104       50D 0        0.00000   0.03881   0.00000   0.00000  -0.00129
 105       50D+1        0.00000   0.00000   0.00283   0.00000   0.00000
 106       50D-1        0.00000   0.00000   0.00000   0.00283   0.00000
 107       50D+2        0.00000  -0.00000   0.00000   0.00000  -0.00000
 108       50D-2        0.03906   0.00000   0.00000   0.00000   0.00000
 109       51D 0        0.00000   0.10385   0.00000   0.00000  -0.00368
 110       51D+1        0.00000   0.00000   0.00766   0.00000   0.00000
 111       51D-1        0.00000   0.00000   0.00000   0.00766   0.00000
 112       51D+2        0.00000  -0.00000   0.00000   0.00000  -0.00000
 113       51D-2        0.10428   0.00000   0.00000   0.00000   0.00000
 114       52D 0        0.00000   0.20340   0.00000   0.00000  -0.00945
 115       52D+1        0.00000   0.00000   0.01575   0.00000   0.00000
 116       52D-1        0.00000   0.00000   0.00000   0.01575   0.00000
 117       52D+2        0.00000  -0.00000   0.00000   0.00000  -0.00000
 118       52D-2        0.20184   0.00000   0.00000   0.00000   0.00000
 119       53D 0        0.00000   0.28343   0.00000   0.00000  -0.01088
 120       53D+1        0.00000   0.00000   0.02116   0.00000   0.00000
 121       53D-1        0.00000   0.00000   0.00000   0.02116   0.00000
 122       53D+2        0.00000  -0.00000   0.00000   0.00000  -0.00000
 123       53D-2        0.28347   0.00000   0.00000   0.00000   0.00000
 124       54D 0        0.00000   0.29918   0.00000   0.00000  -0.00930
 125       54D+1        0.00000   0.00000   0.02133   0.00000   0.00000
 126       54D-1        0.00000   0.00000   0.00000   0.02133   0.00000
 127       54D+2        0.00000  -0.00000   0.00000   0.00000  -0.00000
 128       54D-2        0.30154   0.00000   0.00000   0.00000   0.00000
 129       55D 0        0.00000   0.24726   0.00000   0.00000  -0.00829
 130       55D+1        0.00000   0.00000   0.01828   0.00000   0.00000
 131       55D-1        0.00000   0.00000   0.00000   0.01828   0.00000
 132       55D+2        0.00000  -0.00000   0.00000   0.00000  -0.00000
 133       55D-2        0.24752   0.00000   0.00000   0.00000   0.00000
 134       56D 0        0.00000   0.14018   0.00000   0.00000   0.00375
 135       56D+1        0.00000   0.00000   0.00340   0.00000   0.00000
 136       56D-1        0.00000   0.00000   0.00000   0.00340   0.00000
 137       56D+2        0.00000  -0.00000   0.00000   0.00000  -0.00000
 138       56D-2        0.14132   0.00000   0.00000   0.00000   0.00000
 139       57D 0        0.00000   0.03471   0.00000   0.00000  -0.00402
 140       57D+1        0.00000   0.00000  -0.00191   0.00000   0.00000
 141       57D-1        0.00000   0.00000   0.00000  -0.00191   0.00000
 142       57D+2        0.00000  -0.00000   0.00000   0.00000   0.00000
 143       57D-2        0.03491   0.00000   0.00000   0.00000   0.00000
 144       58D 0        0.00000  -0.00053   0.00000   0.00000   0.00154
 145       58D+1        0.00000   0.00000  -0.00054   0.00000   0.00000
 146       58D-1        0.00000   0.00000   0.00000  -0.00054   0.00000
 147       58D+2        0.00000  -0.00000   0.00000   0.00000   0.00000
 148       58D-2        0.00109   0.00000   0.00000   0.00000   0.00000
 149       59D 0        0.00000  -0.00118   0.00000   0.00000   0.00232
 150       59D+1        0.00000   0.00000  -0.00087   0.00000   0.00000
 151       59D-1        0.00000   0.00000   0.00000  -0.00087   0.00000
 152       59D+2        0.00000  -0.00000   0.00000   0.00000   0.00000
 153       59D-2        0.00130   0.00000   0.00000   0.00000   0.00000
 154       60D 0        0.00000   0.00034   0.00000   0.00000  -0.00374
 155       60D+1        0.00000   0.00000  -0.00153   0.00000   0.00000
 156       60D-1        0.00000   0.00000   0.00000  -0.00153   0.00000
 157       60D+2        0.00000  -0.00000   0.00000   0.00000   0.00000
 158       60D-2        0.00028   0.00000   0.00000   0.00000   0.00000
 159       61F 0        0.00000   0.00012   0.00000   0.00000  -0.00002
 160       61F+1        0.00000   0.00000   0.00001   0.00000   0.00000
 161       61F-1        0.00000   0.00000   0.00000   0.00001   0.00000
 162       61F+2        0.00000  -0.00000   0.00000   0.00000  -0.00000
 163       61F-2        0.00009   0.00000   0.00000   0.00000   0.00000
 164       61F+3        0.00000   0.00000   0.00000   0.00000   0.00000
 165       61F-3        0.00000   0.00000   0.00000   0.00000   0.00000
 166       62F 0        0.00000   0.00031   0.00000   0.00000  -0.00014
 167       62F+1        0.00000   0.00000   0.00019   0.00000   0.00000
 168       62F-1        0.00000   0.00000   0.00000   0.00019   0.00000
 169       62F+2        0.00000  -0.00000   0.00000   0.00000  -0.00000
 170       62F-2        0.00026   0.00000   0.00000   0.00000   0.00000
 171       62F+3        0.00000   0.00000   0.00000   0.00000   0.00000
 172       62F-3        0.00000   0.00000   0.00000   0.00000   0.00000
 173       63F 0        0.00000   0.00097   0.00000   0.00000  -0.00028
 174       63F+1        0.00000   0.00000   0.00018   0.00000   0.00000
 175       63F-1        0.00000   0.00000   0.00000   0.00018   0.00000
 176       63F+2        0.00000  -0.00000   0.00000   0.00000  -0.00000
 177       63F-2        0.00071   0.00000   0.00000   0.00000   0.00000
 178       63F+3        0.00000   0.00000  -0.00000   0.00000   0.00000
 179       63F-3        0.00000   0.00000   0.00000  -0.00000   0.00000
 180       64F 0        0.00000   0.00261   0.00000   0.00000  -0.00209
 181       64F+1        0.00000   0.00000   0.00228   0.00000   0.00000
 182       64F-1        0.00000   0.00000   0.00000   0.00228   0.00000
 183       64F+2        0.00000  -0.00000   0.00000   0.00000  -0.00000
 184       64F-2        0.00222   0.00000   0.00000   0.00000   0.00000
 185       64F+3        0.00000   0.00000   0.00000   0.00000   0.00000
 186       64F-3        0.00000   0.00000   0.00000   0.00000   0.00000
 187       65F 0        0.00000   0.00352   0.00000   0.00000  -0.00370
 188       65F+1        0.00000   0.00000   0.00450   0.00000   0.00000
 189       65F-1        0.00000   0.00000   0.00000   0.00450   0.00000
 190       65F+2        0.00000   0.00000   0.00000   0.00000  -0.00000
 191       65F-2        0.00284   0.00000   0.00000   0.00000   0.00000
 192       65F+3        0.00000   0.00000   0.00000   0.00000   0.00000
 193       65F-3        0.00000   0.00000   0.00000   0.00000   0.00000
 194       66G 0        0.00000  -0.00002   0.00000   0.00000  -0.00001
 195       66G+1        0.00000   0.00000   0.00002   0.00000   0.00000
 196       66G-1        0.00000   0.00000   0.00000   0.00002   0.00000
 197       66G+2        0.00000   0.00000   0.00000   0.00000  -0.00000
 198       66G-2       -0.00001   0.00000   0.00000   0.00000   0.00000
 199       66G+3        0.00000   0.00000  -0.00000   0.00000   0.00000
 200       66G-3        0.00000   0.00000   0.00000  -0.00000   0.00000
 201       66G+4        0.00000  -0.00000   0.00000   0.00000   0.00000
 202       66G-4       -0.00000   0.00000   0.00000   0.00000   0.00000
 203       67G 0        0.00000  -0.00002   0.00000   0.00000   0.00004
 204       67G+1        0.00000   0.00000  -0.00011   0.00000   0.00000
 205       67G-1        0.00000   0.00000   0.00000  -0.00011   0.00000
 206       67G+2        0.00000   0.00000   0.00000   0.00000   0.00000
 207       67G-2       -0.00002   0.00000   0.00000   0.00000   0.00000
 208       67G+3        0.00000   0.00000   0.00000   0.00000   0.00000
 209       67G-3        0.00000   0.00000   0.00000   0.00000   0.00000
 210       67G+4        0.00000  -0.00000   0.00000   0.00000  -0.00000
 211       67G-4       -0.00000   0.00000   0.00000   0.00000   0.00000
 212       68G 0        0.00000  -0.00003   0.00000   0.00000  -0.00006
 213       68G+1        0.00000   0.00000   0.00026   0.00000   0.00000
 214       68G-1        0.00000   0.00000   0.00000   0.00026   0.00000
 215       68G+2        0.00000   0.00000   0.00000   0.00000  -0.00000
 216       68G-2        0.00001   0.00000   0.00000   0.00000   0.00000
 217       68G+3        0.00000   0.00000   0.00000   0.00000   0.00000
 218       68G-3        0.00000   0.00000   0.00000   0.00000   0.00000
 219       68G+4        0.00000   0.00000   0.00000   0.00000  -0.00000
 220       68G-4        0.00000   0.00000   0.00000   0.00000   0.00000
 221       69G 0        0.00000   0.00004   0.00000   0.00000   0.00068
 222       69G+1        0.00000   0.00000  -0.00134   0.00000   0.00000
 223       69G-1        0.00000   0.00000   0.00000  -0.00134   0.00000
 224       69G+2        0.00000  -0.00000   0.00000   0.00000   0.00000
 225       69G-2       -0.00015   0.00000   0.00000   0.00000   0.00000
 226       69G+3        0.00000   0.00000  -0.00000   0.00000   0.00000
 227       69G-3        0.00000   0.00000   0.00000  -0.00000   0.00000
 228       69G+4        0.00000  -0.00000   0.00000   0.00000   0.00000
 229       69G-4       -0.00000   0.00000   0.00000   0.00000   0.00000
 230       70H 0        0.00000  -0.00001   0.00000   0.00000  -0.00000
 231       70H+1        0.00000   0.00000   0.00001   0.00000   0.00000
 232       70H-1        0.00000   0.00000   0.00000   0.00001   0.00000
 233       70H+2        0.00000   0.00000   0.00000   0.00000   0.00000
 234       70H-2       -0.00000   0.00000   0.00000   0.00000   0.00000
 235       70H+3        0.00000   0.00000   0.00000   0.00000   0.00000
 236       70H-3        0.00000   0.00000   0.00000   0.00000   0.00000
 237       70H+4        0.00000  -0.00000   0.00000   0.00000   0.00000
 238       70H-4        0.00000   0.00000   0.00000   0.00000   0.00000
 239       70H+5        0.00000   0.00000   0.00000   0.00000   0.00000
 240       70H-5        0.00000   0.00000   0.00000   0.00000   0.00000
 241       71H 0        0.00000   0.00002   0.00000   0.00000   0.00000
 242       71H+1        0.00000   0.00000  -0.00005   0.00000   0.00000
 243       71H-1        0.00000   0.00000   0.00000  -0.00005   0.00000
 244       71H+2        0.00000  -0.00000   0.00000   0.00000  -0.00000
 245       71H-2        0.00000   0.00000   0.00000   0.00000   0.00000
 246       71H+3        0.00000   0.00000  -0.00000   0.00000   0.00000
 247       71H-3        0.00000   0.00000   0.00000   0.00000   0.00000
 248       71H+4        0.00000   0.00000   0.00000   0.00000  -0.00000
 249       71H-4        0.00000   0.00000   0.00000   0.00000   0.00000
 250       71H+5        0.00000   0.00000  -0.00000   0.00000   0.00000
 251       71H-5        0.00000   0.00000   0.00000  -0.00000   0.00000
 252       72H 0        0.00000  -0.00004   0.00000   0.00000  -0.00002
 253       72H+1        0.00000   0.00000   0.00013   0.00000   0.00000
 254       72H-1        0.00000   0.00000   0.00000   0.00013   0.00000
 255       72H+2        0.00000   0.00000   0.00000   0.00000  -0.00000
 256       72H-2        0.00000   0.00000   0.00000   0.00000   0.00000
 257       72H+3        0.00000   0.00000   0.00000   0.00000   0.00000
 258       72H-3        0.00000   0.00000   0.00000  -0.00000   0.00000
 259       72H+4        0.00000  -0.00000   0.00000   0.00000   0.00000
 260       72H-4        0.00000   0.00000   0.00000   0.00000   0.00000
 261       72H+5        0.00000   0.00000  -0.00000   0.00000   0.00000
 262       72H-5        0.00000   0.00000   0.00000   0.00000   0.00000
 263 2   O  1S          0.00000   0.00000   0.00000   0.00000   0.00001
 264        2S          0.00000   0.00002   0.00000   0.00000   0.00003
 265        3S          0.00000   0.00008   0.00000   0.00000   0.00012
 266        4S          0.00000   0.00032   0.00000   0.00000   0.00049
 267        5S          0.00000   0.00111   0.00000   0.00000   0.00165
 268        6S          0.00000   0.00310   0.00000   0.00000   0.00447
 269        7S          0.00000   0.00745   0.00000   0.00000   0.01042
 270        8S          0.00000   0.01490   0.00000   0.00000   0.02092
 271        9S          0.00000   0.01037   0.00000   0.00000   0.01620
 272       10S          0.00000  -0.02769   0.00000   0.00000  -0.04544
 273       11S          0.00000  -0.05422   0.00000   0.00000  -0.09177
 274       12S          0.00000  -0.03678   0.00000   0.00000  -0.07940
 275       13S          0.00000  -0.00109   0.00000   0.00000   0.00012
 276       14S          0.00000   0.00025   0.00000   0.00000   0.00099
 277       15S          0.00000   0.00009   0.00000   0.00000   0.00023
 278       16S          0.00000  -0.00093   0.00000   0.00000  -0.03549
 279       17PX         0.00000   0.00000  -0.00265   0.00000   0.00000
 280       17PY         0.00000   0.00000   0.00000  -0.00265   0.00000
 281       17PZ         0.00000  -0.00012   0.00000   0.00000  -0.00116
 282       18PX         0.00000   0.00000  -0.25127   0.00000   0.00000
 283       18PY         0.00000   0.00000   0.00000  -0.25127   0.00000
 284       18PZ         0.00000  -0.01133   0.00000   0.00000  -0.10881
 285       19PX         0.00000   0.00000   0.14961   0.00000   0.00000
 286       19PY         0.00000   0.00000   0.00000   0.14961   0.00000
 287       19PZ         0.00000   0.00691   0.00000   0.00000   0.06463
 288       20PX         0.00000   0.00000   0.33343   0.00000   0.00000
 289       20PY         0.00000   0.00000   0.00000   0.33343   0.00000
 290       20PZ         0.00000   0.01511   0.00000   0.00000   0.14451
 291       21PX         0.00000   0.00000   0.42064   0.00000   0.00000
 292       21PY         0.00000   0.00000   0.00000   0.42064   0.00000
 293       21PZ         0.00000   0.02099   0.00000   0.00000   0.19643
 294       22PX         0.00000   0.00000   0.28768   0.00000   0.00000
 295       22PY         0.00000   0.00000   0.00000   0.28768   0.00000
 296       22PZ         0.00000   0.00979   0.00000   0.00000   0.15067
 297       23PX         0.00000   0.00000   0.28915   0.00000   0.00000
 298       23PY         0.00000   0.00000   0.00000   0.28915   0.00000
 299       23PZ         0.00000   0.01311   0.00000   0.00000   0.12535
 300       24PX         0.00000   0.00000   0.01013   0.00000   0.00000
 301       24PY         0.00000   0.00000   0.00000   0.01013   0.00000
 302       24PZ         0.00000   0.00048   0.00000   0.00000   0.00445
 303       25PX         0.00000   0.00000   0.00198   0.00000   0.00000
 304       25PY         0.00000   0.00000   0.00000   0.00198   0.00000
 305       25PZ         0.00000   0.00009   0.00000   0.00000   0.00087
 306       26PX         0.00000   0.00000   0.03445   0.00000   0.00000
 307       26PY         0.00000   0.00000   0.00000   0.03445   0.00000
 308       26PZ         0.00000   0.00088   0.00000   0.00000   0.02739
 309       27D 0        0.00000   0.00034   0.00000   0.00000   0.00087
 310       27D+1        0.00000   0.00000   0.00077   0.00000   0.00000
 311       27D-1        0.00000   0.00000   0.00000   0.00077   0.00000
 312       27D+2        0.00000  -0.00000   0.00000   0.00000   0.00000
 313       27D-2        0.00003   0.00000   0.00000   0.00000   0.00000
 314       28D 0        0.00000   0.00144   0.00000   0.00000   0.00359
 315       28D+1        0.00000   0.00000   0.00210   0.00000   0.00000
 316       28D-1        0.00000   0.00000   0.00000   0.00210   0.00000
 317       28D+2        0.00000  -0.00000   0.00000   0.00000   0.00000
 318       28D-2        0.00014   0.00000   0.00000   0.00000   0.00000
 319       29D 0        0.00000   0.00442   0.00000   0.00000   0.01245
 320       29D+1        0.00000   0.00000   0.00945   0.00000   0.00000
 321       29D-1        0.00000   0.00000   0.00000   0.00945   0.00000
 322       29D+2        0.00000  -0.00000   0.00000   0.00000   0.00000
 323       29D-2        0.00052   0.00000   0.00000   0.00000   0.00000
 324       30D 0        0.00000   0.00006   0.00000   0.00000   0.00012
 325       30D+1        0.00000   0.00000   0.00004   0.00000   0.00000
 326       30D-1        0.00000   0.00000   0.00000   0.00004   0.00000
 327       30D+2        0.00000  -0.00000   0.00000   0.00000   0.00000
 328       30D-2        0.00000   0.00000   0.00000   0.00000   0.00000
 329       31D 0        0.00000   0.00000   0.00000   0.00000   0.00000
 330       31D+1        0.00000   0.00000   0.00000   0.00000   0.00000
 331       31D-1        0.00000   0.00000   0.00000   0.00000   0.00000
 332       31D+2        0.00000  -0.00000   0.00000   0.00000  -0.00000
 333       31D-2        0.00000   0.00000   0.00000   0.00000   0.00000
 334       32D 0        0.00000   0.00198   0.00000   0.00000   0.01075
 335       32D+1        0.00000   0.00000   0.01099   0.00000   0.00000
 336       32D-1        0.00000   0.00000   0.00000   0.01099   0.00000
 337       32D+2        0.00000  -0.00000   0.00000   0.00000   0.00000
 338       32D-2       -0.00024   0.00000   0.00000   0.00000   0.00000
 339       33F 0        0.00000   0.00014   0.00000   0.00000   0.00104
 340       33F+1        0.00000   0.00000   0.00192   0.00000   0.00000
 341       33F-1        0.00000   0.00000   0.00000   0.00192   0.00000
 342       33F+2        0.00000  -0.00000   0.00000   0.00000   0.00000
 343       33F-2       -0.00000   0.00000   0.00000   0.00000   0.00000
 344       33F+3        0.00000   0.00000  -0.00000   0.00000   0.00000
 345       33F-3        0.00000   0.00000   0.00000  -0.00000   0.00000
 346       34F 0        0.00000   0.00125   0.00000   0.00000   0.00366
 347       34F+1        0.00000   0.00000   0.00475   0.00000   0.00000
 348       34F-1        0.00000   0.00000   0.00000   0.00475   0.00000
 349       34F+2        0.00000  -0.00000   0.00000   0.00000  -0.00000
 350       34F-2        0.00021   0.00000   0.00000   0.00000   0.00000
 351       34F+3        0.00000   0.00000  -0.00000   0.00000   0.00000
 352       34F-3        0.00000   0.00000   0.00000  -0.00000   0.00000
 353       35F 0        0.00000   0.00000   0.00000   0.00000   0.00002
 354       35F+1        0.00000   0.00000   0.00004   0.00000   0.00000
 355       35F-1        0.00000   0.00000   0.00000   0.00004   0.00000
 356       35F+2        0.00000  -0.00000   0.00000   0.00000  -0.00000
 357       35F-2        0.00000   0.00000   0.00000   0.00000   0.00000
 358       35F+3        0.00000   0.00000  -0.00000   0.00000   0.00000
 359       35F-3        0.00000   0.00000   0.00000  -0.00000   0.00000
 360       36F 0        0.00000   0.00126   0.00000   0.00000   0.00447
 361       36F+1        0.00000   0.00000   0.00695   0.00000   0.00000
 362       36F-1        0.00000   0.00000   0.00000   0.00695   0.00000
 363       36F+2        0.00000  -0.00000   0.00000   0.00000   0.00000
 364       36F-2        0.00003   0.00000   0.00000   0.00000   0.00000
 365       36F+3        0.00000   0.00000  -0.00000   0.00000   0.00000
 366       36F-3        0.00000   0.00000   0.00000  -0.00000   0.00000
 367       37G 0        0.00000   0.00005   0.00000   0.00000   0.00003
 368       37G+1        0.00000   0.00000  -0.00008   0.00000   0.00000
 369       37G-1        0.00000   0.00000   0.00000  -0.00008   0.00000
 370       37G+2        0.00000   0.00000   0.00000   0.00000  -0.00000
 371       37G-2        0.00000   0.00000   0.00000   0.00000   0.00000
 372       37G+3        0.00000   0.00000   0.00000   0.00000   0.00000
 373       37G-3        0.00000   0.00000   0.00000   0.00000   0.00000
 374       37G+4        0.00000   0.00000   0.00000   0.00000  -0.00000
 375       37G-4       -0.00000   0.00000   0.00000   0.00000   0.00000
 376       38G 0        0.00000   0.00075   0.00000   0.00000   0.00098
 377       38G+1        0.00000   0.00000   0.00124   0.00000   0.00000
 378       38G-1        0.00000   0.00000   0.00000   0.00124   0.00000
 379       38G+2        0.00000  -0.00000   0.00000   0.00000   0.00000
 380       38G-2        0.00013   0.00000   0.00000   0.00000   0.00000
 381       38G+3        0.00000   0.00000  -0.00000   0.00000   0.00000
 382       38G-3        0.00000   0.00000   0.00000  -0.00000   0.00000
 383       38G+4        0.00000  -0.00000   0.00000   0.00000  -0.00000
 384       38G-4        0.00000   0.00000   0.00000   0.00000   0.00000
                          20        21        22        23        24
                           V         V         V         V         V
     Eigenvalues --    -0.03567   0.02272   0.02272   0.02670   0.03957
   1 1   Zn 1S         -0.00000   0.00000   0.00000   0.00000  -0.00000
   2        2S         -0.00000   0.00000   0.00000   0.00000  -0.00000
   3        3S         -0.00000   0.00000   0.00000   0.00000  -0.00000
   4        4S         -0.00001   0.00000   0.00000   0.00001  -0.00000
   5        5S         -0.00002   0.00000   0.00000   0.00002  -0.00001
   6        6S         -0.00004   0.00000   0.00000   0.00004  -0.00002
   7        7S         -0.00011   0.00000   0.00000   0.00010  -0.00004
   8        8S         -0.00025   0.00000   0.00000   0.00024  -0.00011
   9        9S         -0.00059   0.00000   0.00000   0.00053  -0.00022
  10       10S         -0.00131   0.00000   0.00000   0.00126  -0.00062
  11       11S         -0.00250   0.00000   0.00000   0.00216  -0.00081
  12       12S         -0.00381   0.00000   0.00000   0.00389  -0.00208
  13       13S         -0.00264   0.00000   0.00000   0.00162   0.00006
  14       14S          0.00588   0.00000   0.00000  -0.00329  -0.00061
  15       15S          0.02167   0.00000   0.00000  -0.02581   0.01711
  16       16S          0.01545   0.00000   0.00000   0.02319  -0.05070
  17       17S         -0.02977   0.00000   0.00000  -0.09827   0.17304
  18       18S         -0.05726   0.00000   0.00000  -0.00270   0.06598
  19       19S         -0.04469   0.00000   0.00000   0.07732  -0.08268
  20       20S          0.03819   0.00000   0.00000  -0.23615   0.17596
  21       21S          0.27255   0.00000   0.00000   0.60210  -0.07186
  22       22S          0.17863   0.00000   0.00000  -1.02325   3.19694
  23       23S          0.00398   0.00000   0.00000  -0.02912   0.04171
  24       24S          0.00903   0.00000   0.00000   0.14564  -0.22605
[...]
 170       62F-2        0.00000   0.00000   0.00000   0.00000
 171       62F+3       -0.00000  -0.00000  -0.00000   0.00000
 172       62F-3        0.00000   0.00000   0.00000   0.00000
 173       63F 0        0.00001   0.00000   0.00000   0.00000
 174       63F+1        0.00001   0.00000   0.00000   0.00000
 175       63F-1        0.00001   0.00000   0.00000   0.00000
 176       63F+2        0.00000   0.00000   0.00000   0.00000
 177       63F-2        0.00000   0.00000   0.00000   0.00000
 178       63F+3       -0.00000  -0.00000  -0.00000   0.00000
 179       63F-3        0.00000   0.00000   0.00000   0.00000
 180       64F 0        0.00023   0.00011   0.00011   0.00000
 181       64F+1        0.00018   0.00009   0.00009   0.00000
 182       64F-1        0.00018   0.00009   0.00009   0.00000
 183       64F+2        0.00002   0.00001   0.00001   0.00000
 184       64F-2        0.00002   0.00001   0.00001   0.00000
 185       64F+3        0.00000   0.00000   0.00000   0.00000
 186       64F-3        0.00000   0.00000   0.00000   0.00000
 187       65F 0        0.00133   0.00067   0.00067   0.00000
 188       65F+1        0.00188   0.00094   0.00094   0.00000
 189       65F-1        0.00188   0.00094   0.00094   0.00000
 190       65F+2        0.00002   0.00001   0.00001   0.00000
 191       65F-2        0.00002   0.00001   0.00001   0.00000
 192       65F+3       -0.00000  -0.00000  -0.00000   0.00000
 193       65F-3       -0.00000  -0.00000  -0.00000   0.00000
 194       66G 0       -0.00000  -0.00000  -0.00000   0.00000
 195       66G+1       -0.00000  -0.00000  -0.00000   0.00000
 196       66G-1       -0.00000  -0.00000  -0.00000   0.00000
 197       66G+2        0.00000   0.00000   0.00000   0.00000
 198       66G-2        0.00000   0.00000   0.00000   0.00000
 199       66G+3        0.00000   0.00000   0.00000   0.00000
 200       66G-3        0.00000   0.00000   0.00000   0.00000
 201       66G+4        0.00000   0.00000   0.00000   0.00000
 202       66G-4       -0.00000  -0.00000  -0.00000   0.00000
 203       67G 0        0.00000   0.00000   0.00000   0.00000
 204       67G+1        0.00000   0.00000   0.00000   0.00000
 205       67G-1        0.00000   0.00000   0.00000   0.00000
 206       67G+2        0.00000   0.00000   0.00000   0.00000
 207       67G-2        0.00000   0.00000   0.00000   0.00000
 208       67G+3        0.00000   0.00000   0.00000   0.00000
 209       67G-3        0.00000   0.00000   0.00000   0.00000
 210       67G+4        0.00000   0.00000   0.00000   0.00000
 211       67G-4       -0.00000  -0.00000  -0.00000   0.00000
 212       68G 0       -0.00000  -0.00000  -0.00000   0.00000
 213       68G+1       -0.00000  -0.00000  -0.00000   0.00000
 214       68G-1       -0.00000  -0.00000  -0.00000   0.00000
 215       68G+2       -0.00000  -0.00000  -0.00000   0.00000
 216       68G-2       -0.00000  -0.00000  -0.00000   0.00000
 217       68G+3       -0.00000  -0.00000  -0.00000   0.00000
 218       68G-3        0.00000   0.00000   0.00000   0.00000
 219       68G+4        0.00000   0.00000   0.00000   0.00000
 220       68G-4        0.00000   0.00000   0.00000   0.00000
 221       69G 0        0.00007   0.00003   0.00003   0.00000
 222       69G+1        0.00008   0.00004   0.00004   0.00000
 223       69G-1        0.00008   0.00004   0.00004   0.00000
 224       69G+2        0.00000   0.00000   0.00000   0.00000
 225       69G-2        0.00000   0.00000   0.00000   0.00000
 226       69G+3       -0.00000  -0.00000  -0.00000   0.00000
 227       69G-3       -0.00000  -0.00000  -0.00000   0.00000
 228       69G+4        0.00000   0.00000   0.00000   0.00000
 229       69G-4       -0.00000  -0.00000  -0.00000   0.00000
 230       70H 0        0.00000   0.00000   0.00000   0.00000
 231       70H+1        0.00000   0.00000   0.00000   0.00000
 232       70H-1        0.00000   0.00000   0.00000   0.00000
 233       70H+2        0.00000   0.00000   0.00000   0.00000
 234       70H-2        0.00000   0.00000   0.00000   0.00000
 235       70H+3        0.00000   0.00000   0.00000   0.00000
 236       70H-3       -0.00000  -0.00000  -0.00000   0.00000
 237       70H+4       -0.00000  -0.00000  -0.00000   0.00000
 238       70H-4        0.00000   0.00000   0.00000   0.00000
 239       70H+5       -0.00000  -0.00000  -0.00000   0.00000
 240       70H-5       -0.00000  -0.00000  -0.00000   0.00000
 241       71H 0       -0.00000  -0.00000  -0.00000   0.00000
 242       71H+1       -0.00000  -0.00000  -0.00000   0.00000
 243       71H-1       -0.00000  -0.00000  -0.00000   0.00000
 244       71H+2       -0.00000  -0.00000  -0.00000   0.00000
 245       71H-2       -0.00000  -0.00000  -0.00000   0.00000
 246       71H+3        0.00000   0.00000   0.00000   0.00000
 247       71H-3       -0.00000  -0.00000  -0.00000   0.00000
 248       71H+4       -0.00000  -0.00000  -0.00000   0.00000
 249       71H-4        0.00000   0.00000   0.00000   0.00000
 250       71H+5        0.00000   0.00000   0.00000   0.00000
 251       71H-5        0.00000   0.00000   0.00000   0.00000
 252       72H 0        0.00000   0.00000   0.00000   0.00000
 253       72H+1        0.00000   0.00000   0.00000   0.00000
 254       72H-1        0.00000   0.00000   0.00000   0.00000
 255       72H+2       -0.00000  -0.00000  -0.00000   0.00000
 256       72H-2       -0.00000  -0.00000  -0.00000   0.00000
 257       72H+3        0.00000   0.00000   0.00000   0.00000
 258       72H-3       -0.00000  -0.00000  -0.00000   0.00000
 259       72H+4       -0.00000  -0.00000  -0.00000   0.00000
 260       72H-4        0.00000   0.00000   0.00000   0.00000
 261       72H+5       -0.00000  -0.00000  -0.00000   0.00000
 262       72H-5        0.00000   0.00000   0.00000   0.00000
 263 2   O  1S          0.00001   0.00000   0.00000   0.00000
 264        2S          0.00009   0.00004   0.00004   0.00000
 265        3S          0.00107   0.00054   0.00054   0.00000
 266        4S          0.00932   0.00466   0.00466   0.00000
 267        5S          0.05625   0.02813   0.02813   0.00000
 268        6S          0.22347   0.11173   0.11173   0.00000
 269        7S          0.56316   0.28158   0.28158   0.00000
 270        8S          0.72151   0.36076   0.36076   0.00000
 271        9S          0.30062   0.15031   0.15031   0.00000
 272       10S          0.43541   0.21770   0.21770   0.00000
 273       11S          1.07350   0.53675   0.53675   0.00000
 274       12S          0.50497   0.25248   0.25248   0.00000
 275       13S          0.05150   0.02575   0.02575   0.00000
 276       14S          0.02867   0.01434   0.01434   0.00000
 277       15S          0.00565   0.00282   0.00282   0.00000
 278       16S         -0.00339  -0.00169  -0.00169   0.00000
 279       17PX        -0.00041  -0.00021  -0.00021   0.00000
 280       17PY        -0.00041  -0.00021  -0.00021   0.00000
 281       17PZ        -0.00008  -0.00004  -0.00004   0.00000
 282       18PX        -0.13627  -0.06813  -0.06813   0.00000
 283       18PY        -0.13627  -0.06813  -0.06813   0.00000
 284       18PZ        -0.02668  -0.01334  -0.01334   0.00000
 285       19PX         0.17021   0.08510   0.08510   0.00000
 286       19PY         0.17021   0.08510   0.08510   0.00000
 287       19PZ         0.03438   0.01719   0.01719   0.00000
 288       20PX         0.56031   0.28015   0.28015   0.00000
 289       20PY         0.56031   0.28015   0.28015   0.00000
 290       20PZ         0.12264   0.06132   0.06132   0.00000
 291       21PX         0.77644   0.38822   0.38822   0.00000
 292       21PY         0.77644   0.38822   0.38822   0.00000
 293       21PZ         0.22356   0.11178   0.11178   0.00000
 294       22PX         0.41795   0.20897   0.20897   0.00000
 295       22PY         0.41795   0.20897   0.20897   0.00000
 296       22PZ         0.20263   0.10132   0.10132   0.00000
 297       23PX         0.15830   0.07915   0.07915   0.00000
 298       23PY         0.15830   0.07915   0.07915   0.00000
 299       23PZ         0.03104   0.01552   0.01552   0.00000
 300       24PX         0.00227   0.00113   0.00113   0.00000
 301       24PY         0.00227   0.00113   0.00113   0.00000
 302       24PZ         0.00045   0.00022   0.00022   0.00000
 303       25PX         0.00016   0.00008   0.00008   0.00000
 304       25PY         0.00016   0.00008   0.00008   0.00000
 305       25PZ         0.00003   0.00002   0.00002   0.00000
 306       26PX         0.02603   0.01301   0.01301   0.00000
 307       26PY         0.02603   0.01301   0.01301   0.00000
 308       26PZ         0.03698   0.01849   0.01849   0.00000
 309       27D 0        0.00002   0.00001   0.00001   0.00000
 310       27D+1        0.00001   0.00000   0.00000   0.00000
 311       27D-1        0.00001   0.00000   0.00000   0.00000
 312       27D+2        0.00000   0.00000   0.00000   0.00000
 313       27D-2        0.00000   0.00000   0.00000   0.00000
 314       28D 0        0.00032   0.00016   0.00016   0.00000
 315       28D+1        0.00007   0.00003   0.00003   0.00000
 316       28D-1        0.00007   0.00003   0.00003   0.00000
 317       28D+2        0.00000   0.00000   0.00000   0.00000
 318       28D-2        0.00000   0.00000   0.00000   0.00000
 319       29D 0        0.00359   0.00179   0.00179   0.00000
 320       29D+1        0.00076   0.00038   0.00038   0.00000
 321       29D-1        0.00076   0.00038   0.00038   0.00000
 322       29D+2        0.00001   0.00001   0.00001   0.00000
 323       29D-2        0.00001   0.00001   0.00001   0.00000
 324       30D 0        0.00000   0.00000   0.00000   0.00000
 325       30D+1        0.00000   0.00000   0.00000   0.00000
 326       30D-1        0.00000   0.00000   0.00000   0.00000
 327       30D+2        0.00000   0.00000   0.00000   0.00000
 328       30D-2        0.00000   0.00000   0.00000   0.00000
 329       31D 0        0.00000   0.00000   0.00000   0.00000
 330       31D+1        0.00000   0.00000   0.00000   0.00000
 331       31D-1        0.00000   0.00000   0.00000   0.00000
 332       31D+2        0.00000   0.00000   0.00000   0.00000
 333       31D-2        0.00000   0.00000   0.00000   0.00000
 334       32D 0        0.00487   0.00244   0.00244   0.00000
 335       32D+1        0.00065   0.00032   0.00032   0.00000
 336       32D-1        0.00065   0.00032   0.00032   0.00000
 337       32D+2       -0.00002  -0.00001  -0.00001   0.00000
 338       32D-2       -0.00002  -0.00001  -0.00001   0.00000
 339       33F 0        0.00001   0.00001   0.00001   0.00000
 340       33F+1        0.00002   0.00001   0.00001   0.00000
 341       33F-1        0.00002   0.00001   0.00001   0.00000
 342       33F+2       -0.00000  -0.00000  -0.00000   0.00000
 343       33F-2       -0.00000  -0.00000  -0.00000   0.00000
 344       33F+3       -0.00000  -0.00000  -0.00000   0.00000
 345       33F-3       -0.00000  -0.00000  -0.00000   0.00000
 346       34F 0        0.00029   0.00014   0.00014   0.00000
 347       34F+1        0.00015   0.00008   0.00008   0.00000
 348       34F-1        0.00015   0.00008   0.00008   0.00000
 349       34F+2        0.00000   0.00000   0.00000   0.00000
 350       34F-2        0.00000   0.00000   0.00000   0.00000
 351       34F+3       -0.00000  -0.00000  -0.00000   0.00000
 352       34F-3        0.00000   0.00000   0.00000   0.00000
 353       35F 0        0.00000   0.00000   0.00000   0.00000
 354       35F+1        0.00000   0.00000   0.00000   0.00000
 355       35F-1        0.00000   0.00000   0.00000   0.00000
 356       35F+2        0.00000   0.00000   0.00000   0.00000
 357       35F-2        0.00000   0.00000   0.00000   0.00000
 358       35F+3       -0.00000  -0.00000  -0.00000   0.00000
 359       35F-3        0.00000   0.00000   0.00000   0.00000
 360       36F 0        0.00066   0.00033   0.00033   0.00000
 361       36F+1        0.00033   0.00017   0.00017   0.00000
 362       36F-1        0.00033   0.00017   0.00017   0.00000
 363       36F+2        0.00000   0.00000   0.00000   0.00000
 364       36F-2        0.00000   0.00000   0.00000   0.00000
 365       36F+3       -0.00000  -0.00000  -0.00000   0.00000
 366       36F-3       -0.00000  -0.00000  -0.00000   0.00000
 367       37G 0        0.00000   0.00000   0.00000   0.00000
 368       37G+1        0.00000   0.00000   0.00000   0.00000
 369       37G-1        0.00000   0.00000   0.00000   0.00000
 370       37G+2        0.00000   0.00000   0.00000   0.00000
 371       37G-2        0.00000   0.00000   0.00000   0.00000
 372       37G+3       -0.00000  -0.00000  -0.00000   0.00000
 373       37G-3        0.00000   0.00000   0.00000   0.00000
 374       37G+4        0.00000   0.00000   0.00000   0.00000
 375       37G-4       -0.00000  -0.00000  -0.00000   0.00000
 376       38G 0        0.00011   0.00006   0.00006   0.00000
 377       38G+1        0.00004   0.00002   0.00002   0.00000
 378       38G-1        0.00004   0.00002   0.00002   0.00000
 379       38G+2        0.00000   0.00000   0.00000   0.00000
 380       38G-2        0.00000   0.00000   0.00000   0.00000
 381       38G+3       -0.00000  -0.00000  -0.00000   0.00000
 382       38G-3       -0.00000  -0.00000  -0.00000   0.00000
 383       38G+4        0.00000   0.00000   0.00000   0.00000
 384       38G-4       -0.00000  -0.00000  -0.00000   0.00000
          Condensed to atoms (all electrons):
               1          2
     1  Zn  29.295481   0.143865
     2  O    0.143865   8.416790
          Atomic-Atomic Spin Densities.
               1          2
     1  Zn   0.000000   0.000000
     2  O    0.000000   0.000000
 Mulliken charges and spin densities:
               1          2
     1  Zn   0.560655   0.000000
     2  O   -0.560655   0.000000
 Sum of Mulliken charges =  -0.00000   0.00000
 Mulliken charges and spin densities with hydrogens summed into heavy atoms:
               1          2
     1  Zn   0.560655   0.000000
     2  O   -0.560655   0.000000
 Electronic spatial extent (au):  <R**2>=            144.5727
 Charge=             -0.0000 electrons
 Dipole moment (field-independent basis, Debye):
    X=              0.0000    Y=              0.0000    Z=              5.0095  Tot=              5.0095
 Quadrupole moment (field-independent basis, Debye-Ang):
   XX=            -19.2611   YY=            -19.2611   ZZ=            -22.1511
   XY=              0.0000   XZ=              0.0000   YZ=              0.0000
 Traceless Quadrupole moment (field-independent basis, Debye-Ang):
   XX=              0.9633   YY=              0.9633   ZZ=             -1.9266
   XY=              0.0000   XZ=              0.0000   YZ=              0.0000
 Octapole moment (field-independent basis, Debye-Ang**2):
  XXX=              0.0000  YYY=              0.0000  ZZZ=             18.2484  XYY=              0.0000
  XXY=              0.0000  XXZ=              5.7107  XZZ=              0.0000  YZZ=              0.0000
  YYZ=              5.7107  XYZ=              0.0000
 Hexadecapole moment (field-independent basis, Debye-Ang**3):
 XXXX=            -22.7469 YYYY=            -22.7469 ZZZZ=           -130.6802 XXXY=              0.0000
 XXXZ=              0.0000 YYYX=              0.0000 YYYZ=              0.0000 ZZZX=              0.0000
 ZZZY=              0.0000 XXYY=             -7.5823 XXZZ=            -27.6310 YYZZ=            -27.6310
 XXYZ=              0.0000 YYXZ=              0.0000 ZZXY=              0.0000
 N-N= 6.047739553371D+01 E-N=-4.696841539932D+03  KE= 1.968235721243D+03
 Symmetry A1   KE= 1.490012730117D+03
 Symmetry A2   KE= 2.229898720575D+01
 Symmetry B1   KE= 2.279620019578D+02
 Symmetry B2   KE= 2.279620019566D+02
 Symmetry A1   SP= 0.000000000000D+00
 Symmetry A2   SP= 0.000000000000D+00
 Symmetry B1   SP= 0.000000000000D+00
 Symmetry B2   SP= 0.000000000000D+00
 Orbital energies and kinetic energies (alpha):
                                 1                 2
  15         O                -0.812211         11.149494
  16         O                -0.807101         11.060869
  17         O                -0.461450          2.357589
  18         O                -0.461450          2.357589
  19         O                -0.342010          1.511360
  20         V                -0.035667          1.099881
  21         V                 0.022724          0.100433
  22         V                 0.022724          0.100433
  23         V                 0.026703          0.229565
  24         V                 0.039572          0.069869
 Total kinetic energy from orbitals= 1.968235721243D+03
 FoFCou: FMM=F IPFlag=           8 FMFlag=           0 FMFlg1=           0
         NFxFlg=           0 DoJE=F BraDBF=T KetDBF=F FulRan=T
         wScrn=  0.000000 ICntrl=   2000500 IOpCl=  0 I1Cent=           5 NGrid=           0
         NMat0=    1 NMatS0=      1 NMatT0=    0 NMatD0=    1 NMtDS0=    0 NMtDT0=    0
 Symmetry not used in FoFCou.
                          Isotropic Fermi Contact Couplings
        Atom                 a.u.       MegaHertz       Gauss      10(-4) cm-1
     1  Zn(67)             0.00000       0.00000       0.00000       0.00000
     2  O(17)              0.00000      -0.00000      -0.00000      -0.00000
 --------------------------------------------------------
       Center         ----  Spin Dipole Couplings  ----
                      3XX-RR        3YY-RR        3ZZ-RR
 --------------------------------------------------------
     1   Atom        0.000000      0.000000      0.000000
     2   Atom        0.000000      0.000000      0.000000
 --------------------------------------------------------
                        XY            XZ            YZ
 --------------------------------------------------------
     1   Atom        0.000000      0.000000      0.000000
     2   Atom        0.000000      0.000000      0.000000
 --------------------------------------------------------


 ---------------------------------------------------------------------------------
              Anisotropic Spin Dipole Couplings in Principal Axis System
 ---------------------------------------------------------------------------------

       Atom             a.u.   MegaHertz   Gauss  10(-4) cm-1        Axes

              Baa     0.0000     0.000     0.000     0.000  1.0000  0.0000  0.0000
     1 Zn(67) Bbb     0.0000     0.000     0.000     0.000 -0.0000  1.0000  0.0000
              Bcc     0.0000     0.000     0.000     0.000  0.0000  0.0000  1.0000
 
              Baa     0.0000    -0.000    -0.000    -0.000  1.0000  0.0000  0.0000
     2 O(17)  Bbb     0.0000    -0.000    -0.000    -0.000 -0.0000  1.0000  0.0000
              Bcc     0.0000    -0.000    -0.000    -0.000  0.0000  0.0000  1.0000
 

 ---------------------------------------------------------------------------------

 No NMR shielding tensors so no spin-rotation constants.
 Leave Link  601 at Fri May  4 20:04:50 2018, MaxMem= 21474836480 cpu:              35.0 elap:               1.2
 (Enter /home1/apps/gaussian/16rA.03/g16/l9999.exe)

 Test job not archived.
 1\1\GINC-C503-104\SP\ROCCSD(T)-Full\Gen\O1Zn1\GWANG18\04-May-2018\0\\#
 P ROCCSD(T)=(MaxCyc=150, Full)/Gen SCF=(maxcycle=400) Integral(DKHSO, 
 NoXCTest) Pop=Regular MaxDisk=500GB Guess=Read IOp(5/15=2)\\ZnO\\0,1\Z
 n,0,0.,0.,0.\O,0,0.,0.,2.1\\Version=ES64L-G16RevA.03\State=1-SG\HF=-18
 69.058656\MP2=-1870.9234582\MP3=-1870.7507778\PUHF=-1869.058656\PMP2-0
 =-1870.9234582\MP4SDQ=-1870.8553566\CCSD=-1870.8184545\CCSD(T)=-1870.8
 715237\RMSD=5.923e-09\PG=C*V [C*(O1Zn1)]\\@


 MARY HAD A LITTLE LAMB
      HIS FEET WERE BLACK AS SOOT,
           AND EVERYWHERE THAT MARY WENT
                HIS SOOTY FOOT HE PUT.

                    -- NONAME
 Job cpu time:       2 days 22 hours 55 minutes 48.4 seconds.
 Elapsed time:       0 days  2 hours 14 minutes 14.7 seconds.
 File lengths (MBytes):  RWF=  24718 Int=      0 D2E=      0 Chk=     18 Scr=      1
 Normal termination of Gaussian 16 at Fri May  4 20:04:50 2018.
