 Entering Gaussian System, Link 0=g16
 Initial command:
 /home1/apps/gaussian/16rA.03/g16/l1.exe "/tmp/Gau-97606.inp" -scrdir="/tmp/"
 Entering Link 1 = /home1/apps/gaussian/16rA.03/g16/l1.exe PID=     97607.
  
 Copyright (c) 1988,1990,1992,1993,1995,1998,2003,2009,2016,
            Gaussian, Inc.  All Rights Reserved.
  
 This is part of the Gaussian(R) 16 program.  It is based on
 the Gaussian(R) 09 system (copyright 2009, Gaussian, Inc.),
 the Gaussian(R) 03 system (copyright 2003, Gaussian, Inc.),
 the Gaussian(R) 98 system (copyright 1998, Gaussian, Inc.),
 the Gaussian(R) 94 system (copyright 1995, Gaussian, Inc.),
 the Gaussian 92(TM) system (copyright 1992, Gaussian, Inc.),
 the Gaussian 90(TM) system (copyright 1990, Gaussian, Inc.),
 the Gaussian 88(TM) system (copyright 1988, Gaussian, Inc.),
 the Gaussian 86(TM) system (copyright 1986, Carnegie Mellon
 University), and the Gaussian 82(TM) system (copyright 1983,
 Carnegie Mellon University). Gaussian is a federally registered
 trademark of Gaussian, Inc.
  
 This software contains proprietary and confidential information,
 including trade secrets, belonging to Gaussian, Inc.
  
 This software is provided under written license and may be
 used, copied, transmitted, or stored only in accord with that
 written license.
  
 The following legend is applicable only to US Government
 contracts under FAR:
  
                    RESTRICTED RIGHTS LEGEND
  
 Use, reproduction and disclosure by the US Government is
 subject to restrictions as set forth in subparagraphs (a)
 and (c) of the Commercial Computer Software - Restricted
 Rights clause in FAR 52.227-19.
  
 Gaussian, Inc.
 340 Quinnipiac St., Bldg. 40, Wallingford CT 06492
  
  
 ---------------------------------------------------------------
 Warning -- This program may not be used in any manner that
 competes with the business of Gaussian, Inc. or will provide
 assistance to any competitor of Gaussian, Inc.  The licensee
 of this program is prohibited from giving any competitor of
 Gaussian, Inc. access to this program.  By using this program,
 the user acknowledges that Gaussian, Inc. is engaged in the
 business of creating and licensing software in the field of
 computational chemistry and represents and warrants to the
 licensee that it is not a competitor of Gaussian, Inc. and that
 it will not use this program in any manner prohibited above.
 ---------------------------------------------------------------
  

 Cite this work as:
 Gaussian 16, Revision A.03,
 M. J. Frisch, G. W. Trucks, H. B. Schlegel, G. E. Scuseria, 
 M. A. Robb, J. R. Cheeseman, G. Scalmani, V. Barone, 
 G. A. Petersson, H. Nakatsuji, X. Li, M. Caricato, A. V. Marenich, 
 J. Bloino, B. G. Janesko, R. Gomperts, B. Mennucci, H. P. Hratchian, 
 J. V. Ortiz, A. F. Izmaylov, J. L. Sonnenberg, D. Williams-Young, 
 F. Ding, F. Lipparini, F. Egidi, J. Goings, B. Peng, A. Petrone, 
 T. Henderson, D. Ranasinghe, V. G. Zakrzewski, J. Gao, N. Rega, 
 G. Zheng, W. Liang, M. Hada, M. Ehara, K. Toyota, R. Fukuda, 
 J. Hasegawa, M. Ishida, T. Nakajima, Y. Honda, O. Kitao, H. Nakai, 
 T. Vreven, K. Throssell, J. A. Montgomery, Jr., J. E. Peralta, 
 F. Ogliaro, M. J. Bearpark, J. J. Heyd, E. N. Brothers, K. N. Kudin, 
 V. N. Staroverov, T. A. Keith, R. Kobayashi, J. Normand, 
 K. Raghavachari, A. P. Rendell, J. C. Burant, S. S. Iyengar, 
 J. Tomasi, M. Cossi, J. M. Millam, M. Klene, C. Adamo, R. Cammi, 
 J. W. Ochterski, R. L. Martin, K. Morokuma, O. Farkas, 
 J. B. Foresman, and D. J. Fox, Gaussian, Inc., Wallingford CT, 2016.
 
 ******************************************
 Gaussian 16:  ES64L-G16RevA.03 25-Dec-2016
                19-Apr-2018 
 ******************************************
 %MEM=80GB
 %CPU=0-19
 SetSPE:  set environment variable "MP_BIND" = "yes"
 SetSPE:  set environment variable "MP_BLIST" = "0,1,2,3,4,5,6,7,8,9,10,11,12,13,14,15,16,17,18,19"
 Will use up to   20 processors via shared memory.
 %RWF=/scratch/04843/aannabe/gaussian/
 %Int=/scratch/04843/aannabe/gaussian/
 %D2E=/scratch/04843/aannabe/gaussian/
 %NoSave
 %CHK=ScH
 ----------------------------------------------------------------------
 #P ROCCSD(T)=(maxcyc=150, Full, SaveAmplitudes, ReadAmplitudes)/Gen 5d
  7f SCF=(maxcycles=300, VShift=400) Integral(NoXCTest) MaxDisk=500GB P
 op=Full Pseudo=Read Guess=Read IOp(5/15=2)
 ----------------------------------------------------------------------
 1/38=1,172=1/1;
 2/12=2,17=6,18=5,40=1/2;
 3/5=7,8=11,11=2,16=1,17=8,25=1,30=1,47=8,116=101/1,2,3;
 4/5=1/1;
 5/5=2,7=300,10=400,15=2,38=6/2;
 8/5=-1,6=4,9=120000,10=90,24=1/1,4;
 9/5=7,6=150,14=2,77=1/13;
 6/7=3/1;
 99/5=1,9=1/99;
 Leave Link    1 at Thu Apr 19 07:36:02 2018, MaxMem= 10737418240 cpu:               6.6 elap:               0.3
 (Enter /home1/apps/gaussian/16rA.03/g16/l101.exe)
 ---
 ScH
 ---
 Symbolic Z-matrix:
 Charge =  0 Multiplicity = 1
 Sc                    0.        0.        0. 
 H                     0.        0.        1.7 
 
 ITRead=  0  0
 MicOpt= -1 -1
 NAtoms=      2 NQM=        2 NQMF=       0 NMMI=      0 NMMIF=      0
                NMic=       0 NMicF=      0.
                    Isotopes and Nuclear Properties:
 (Nuclear quadrupole moments (NQMom) in fm**2, nuclear magnetic moments (NMagM)
  in nuclear magnetons)

  Atom         1           2
 IAtWgt=          45           1
 AtmWgt=  44.9559136   1.0078250
 NucSpn=           7           1
 AtZEff=  -0.0000000  -0.0000000
 NQMom=  -22.0000000   0.0000000
 NMagM=    4.7564830   2.7928460
 AtZNuc=  21.0000000   1.0000000
 Leave Link  101 at Thu Apr 19 07:36:02 2018, MaxMem= 10737418240 cpu:               2.0 elap:               0.1
 (Enter /home1/apps/gaussian/16rA.03/g16/l202.exe)
                          Input orientation:                          
 ---------------------------------------------------------------------
 Center     Atomic      Atomic             Coordinates (Angstroms)
 Number     Number       Type             X           Y           Z
 ---------------------------------------------------------------------
      1         21           0        0.000000    0.000000    0.000000
      2          1           0        0.000000    0.000000    1.700000
 ---------------------------------------------------------------------
 Stoichiometry    HSc
 Framework group  C*V[C*(HSc)]
 Deg. of freedom     1
 Full point group                 C*V     NOp   4
 Largest Abelian subgroup         C2V     NOp   4
 Largest concise Abelian subgroup C1      NOp   1
                         Standard orientation:                         
 ---------------------------------------------------------------------
 Center     Atomic      Atomic             Coordinates (Angstroms)
 Number     Number       Type             X           Y           Z
 ---------------------------------------------------------------------
      1         21           0        0.000000    0.000000    0.077273
      2          1           0        0.000000    0.000000   -1.622727
 ---------------------------------------------------------------------
 Rotational constants (GHZ):           0.0000000         177.4037241         177.4037241
 Leave Link  202 at Thu Apr 19 07:36:02 2018, MaxMem= 10737418240 cpu:               0.5 elap:               0.1
 (Enter /home1/apps/gaussian/16rA.03/g16/l301.exe)
 General basis read from cards:  (5D, 7F)
 Centers:       1
 S 1 1.00
     Exponent=  8.5494290000D+03 Coefficients=  1.0000000000D+00
 S 1 1.00
     Exponent=  3.0859750000D+03 Coefficients=  1.0000000000D+00
 S 1 1.00
     Exponent=  1.2031720000D+03 Coefficients=  1.0000000000D+00
 S 1 1.00
     Exponent=  4.9848690000D+02 Coefficients=  1.0000000000D+00
 S 1 1.00
     Exponent=  2.1673600000D+02 Coefficients=  1.0000000000D+00
 S 1 1.00
     Exponent=  9.7874760000D+01 Coefficients=  1.0000000000D+00
 S 1 1.00
     Exponent=  4.5204330000D+01 Coefficients=  1.0000000000D+00
 S 1 1.00
     Exponent=  2.0211870000D+01 Coefficients=  1.0000000000D+00
 S 1 1.00
     Exponent=  9.5747510000D+00 Coefficients=  1.0000000000D+00
 S 1 1.00
     Exponent=  4.5403460000D+00 Coefficients=  1.0000000000D+00
 S 1 1.00
     Exponent=  1.9956870000D+00 Coefficients=  1.0000000000D+00
 S 1 1.00
     Exponent=  9.4221500000D-01 Coefficients=  1.0000000000D+00
 S 1 1.00
     Exponent=  4.1784500000D-01 Coefficients=  1.0000000000D+00
 S 1 1.00
     Exponent=  9.5761000000D-02 Coefficients=  1.0000000000D+00
 S 1 1.00
     Exponent=  5.1351000000D-02 Coefficients=  1.0000000000D+00
 S 1 1.00
     Exponent=  2.3878000000D-02 Coefficients=  1.0000000000D+00
 S 1 1.00
     Exponent=  2.6472000000D+00 Coefficients=  1.0000000000D+00
 S 1 1.00
     Exponent=  6.2170000000D-01 Coefficients=  1.0000000000D+00
 S 1 1.00
     Exponent=  1.1100000000D-02 Coefficients=  1.0000000000D+00
 P 1 1.00
     Exponent=  2.5075330000D+03 Coefficients=  1.0000000000D+00
 P 1 1.00
     Exponent=  8.1445710000D+02 Coefficients=  1.0000000000D+00
 P 1 1.00
     Exponent=  3.1151950000D+02 Coefficients=  1.0000000000D+00
 P 1 1.00
     Exponent=  1.3196170000D+02 Coefficients=  1.0000000000D+00
 P 1 1.00
     Exponent=  5.9987180000D+01 Coefficients=  1.0000000000D+00
 P 1 1.00
     Exponent=  2.8662500000D+01 Coefficients=  1.0000000000D+00
 P 1 1.00
     Exponent=  1.4108510000D+01 Coefficients=  1.0000000000D+00
 P 1 1.00
     Exponent=  7.1037060000D+00 Coefficients=  1.0000000000D+00
 P 1 1.00
     Exponent=  3.6092000000D+00 Coefficients=  1.0000000000D+00
 P 1 1.00
     Exponent=  1.7760700000D+00 Coefficients=  1.0000000000D+00
 P 1 1.00
     Exponent=  8.5476000000D-01 Coefficients=  1.0000000000D+00
 P 1 1.00
     Exponent=  4.0223900000D-01 Coefficients=  1.0000000000D+00
 P 1 1.00
     Exponent=  1.5468000000D-01 Coefficients=  1.0000000000D+00
 P 1 1.00
     Exponent=  6.4888000000D-02 Coefficients=  1.0000000000D+00
 P 1 1.00
     Exponent=  2.6301000000D-02 Coefficients=  1.0000000000D+00
 P 1 1.00
     Exponent=  3.4418000000D+00 Coefficients=  1.0000000000D+00
 P 1 1.00
     Exponent=  8.0840000000D-01 Coefficients=  1.0000000000D+00
 P 1 1.00
     Exponent=  1.0660000000D-02 Coefficients=  1.0000000000D+00
 D 1 1.00
     Exponent=  5.0654200000D+01 Coefficients=  1.0000000000D+00
 D 1 1.00
     Exponent=  1.4732500000D+01 Coefficients=  1.0000000000D+00
 D 1 1.00
     Exponent=  5.1804600000D+00 Coefficients=  1.0000000000D+00
 D 1 1.00
     Exponent=  2.0195900000D+00 Coefficients=  1.0000000000D+00
 D 1 1.00
     Exponent=  7.9921900000D-01 Coefficients=  1.0000000000D+00
 D 1 1.00
     Exponent=  3.0531600000D-01 Coefficients=  1.0000000000D+00
 D 1 1.00
     Exponent=  1.1044400000D-01 Coefficients=  1.0000000000D+00
 D 1 1.00
     Exponent=  3.7065000000D-02 Coefficients=  1.0000000000D+00
 D 1 1.00
     Exponent=  1.8520000000D+00 Coefficients=  1.0000000000D+00
 D 1 1.00
     Exponent=  7.8750000000D-01 Coefficients=  1.0000000000D+00
 D 1 1.00
     Exponent=  1.2440000000D-02 Coefficients=  1.0000000000D+00
 F 1 1.00
     Exponent=  2.1048000000D+00 Coefficients=  1.0000000000D+00
 F 1 1.00
     Exponent=  6.5870000000D-01 Coefficients=  1.0000000000D+00
 F 1 1.00
     Exponent=  1.6360000000D-01 Coefficients=  1.0000000000D+00
 F 1 1.00
     Exponent=  4.0630000000D-02 Coefficients=  1.0000000000D+00
 G 1 1.00
     Exponent=  1.7850000000D+00 Coefficients=  1.0000000000D+00
 G 1 1.00
     Exponent=  4.1120000000D-01 Coefficients=  1.0000000000D+00
 G 1 1.00
     Exponent=  9.4730000000D-02 Coefficients=  1.0000000000D+00
 ****
 Centers:       2
 S 1 1.00
     Exponent=  3.3870000000D+01 Coefficients=  1.0000000000D+00
 S 1 1.00
     Exponent=  5.0950000000D+00 Coefficients=  1.0000000000D+00
 S 1 1.00
     Exponent=  1.1590000000D+00 Coefficients=  1.0000000000D+00
 S 1 1.00
     Exponent=  3.2580000000D-01 Coefficients=  1.0000000000D+00
 S 1 1.00
     Exponent=  1.0270000000D-01 Coefficients=  1.0000000000D+00
 S 1 1.00
     Exponent=  2.5260000000D-02 Coefficients=  1.0000000000D+00
 P 1 1.00
     Exponent=  1.4070000000D+00 Coefficients=  1.0000000000D+00
 P 1 1.00
     Exponent=  3.8800000000D-01 Coefficients=  1.0000000000D+00
 P 1 1.00
     Exponent=  1.0200000000D-01 Coefficients=  1.0000000000D+00
 D 1 1.00
     Exponent=  1.0570000000D+00 Coefficients=  1.0000000000D+00
 D 1 1.00
     Exponent=  2.4700000000D-01 Coefficients=  1.0000000000D+00
 ****
 ======================================================================================================
                                       Pseudopotential Parameters
 ======================================================================================================
  Center     Atomic      Valence      Angular      Power
  Number     Number     Electrons     Momentum     of R      Exponent        Coefficient   SO-Coeffient
 ======================================================================================================
    1         21           11
                                      D and up 
                                                     1       16.0484864       11.00000000    0.00000000
                                                     3       14.0776444      176.53335005    0.00000000
                                                     2       11.9934867      -83.67342052    0.00000000
                                                     2        3.7511530        0.33106479    0.00000000
                                      S - D
                                                     2       11.4712714      153.95987029    0.00000000
                                                     2        5.0075674       14.96431856    0.00000000
                                      P - D
                                                     2       11.4449481       97.20944543    0.00000000
                                                     2        4.7850946       10.81621631    0.00000000
    2          1            1
                                      P and up 
                                                     2       21.7769666      -10.85192405    0.00000000
                                                     1       21.2435951        1.00000000    0.00000000
                                                     3       21.2435951       21.24359508    0.00000000
                                      S - P
                                                     2        1.0000000        0.00000000    0.00000000
 ======================================================================================================
 Ernie: Thresh=  0.10000D-02 Tol=  0.10000D-05 Strict=F.
 There are   115 symmetry adapted cartesian basis functions of A1  symmetry.
 There are    26 symmetry adapted cartesian basis functions of A2  symmetry.
 There are    55 symmetry adapted cartesian basis functions of B1  symmetry.
 There are    55 symmetry adapted cartesian basis functions of B2  symmetry.
 There are    89 symmetry adapted basis functions of A1  symmetry.
 There are    23 symmetry adapted basis functions of A2  symmetry.
 There are    48 symmetry adapted basis functions of B1  symmetry.
 There are    48 symmetry adapted basis functions of B2  symmetry.
   208 basis functions,   251 primitive gaussians,   251 cartesian basis functions
     6 alpha electrons        6 beta electrons
       nuclear repulsion energy         3.4240878354 Hartrees.
 IExCor=    0 DFT=F Ex=HF Corr=None ExCW=0 ScaHFX=  1.000000
 ScaDFX=  1.000000  1.000000  1.000000  1.000000 ScalE2=  1.000000  1.000000
 IRadAn=      5 IRanWt=     -1 IRanGd=            0 ICorTp=0 IEmpDi=  4
 NAtoms=    2 NActive=    2 NUniq=    2 SFac= 1.00D+00 NAtFMM=   60 NAOKFM=F Big=F
 Integral buffers will be    131072 words long.
 Raffenetti 2 integral format.
 Two-electron integral symmetry is turned on.
 Leave Link  301 at Thu Apr 19 07:36:03 2018, MaxMem= 10737418240 cpu:               4.5 elap:               0.3
 (Enter /home1/apps/gaussian/16rA.03/g16/l302.exe)
 NPDir=0 NMtPBC=     1 NCelOv=     1 NCel=       1 NClECP=     1 NCelD=      1
         NCelK=      1 NCelE2=     1 NClLst=     1 CellRange=     0.0.
 One-electron integrals computed using PRISM.
 One-electron integral symmetry used in STVInt
   4 Symmetry operations used in ECPInt.
 ECPInt:  NShTT=    2211 NPrTT=    2211 LenC2=    2194 LenP2D=    2193.
 LDataN:  DoStor=T MaxTD1= 8 Len=  415
 NBasis=   208 RedAO= T EigKep=  1.33D-06  NBF=    89    23    48    48
 NBsUse=   205 1.00D-06 EigRej=  6.61D-07 NBFU=    88    23    47    47
 Leave Link  302 at Thu Apr 19 07:36:04 2018, MaxMem= 10737418240 cpu:              17.8 elap:               0.9
 (Enter /home1/apps/gaussian/16rA.03/g16/l303.exe)
 DipDrv:  MaxL=1.
 Leave Link  303 at Thu Apr 19 07:36:05 2018, MaxMem= 10737418240 cpu:               1.2 elap:               0.1
 (Enter /home1/apps/gaussian/16rA.03/g16/l401.exe)
 Initial guess from the checkpoint file:  "ScH.chk"
 B after Tr=     0.000000    0.000000    0.000000
         Rot=    1.000000    0.000000    0.000000    0.000000 Ang=   0.00 deg.
 Guess basis will be translated and rotated to current coordinates.
 JPrj=2 DoOrth=T DoCkMO=T.
 Initial guess orbital symmetries:
       Occupied  (SG) (SG) (PI) (PI) (SG) (SG)
       Virtual   (PI) (PI) (SG) (SG) (SG) (DLTA) (DLTA) (PI) (PI)
                 (PI) (PI) (SG) (DLTA) (DLTA) (SG) (PI) (PI) (SG)
                 (SG) (PI) (PI) (SG) (PI) (PI) (DLTA) (DLTA) (PHI)
                 (PHI) (DLTA) (DLTA) (PI) (PI) (SG) (SG) (SG) (PI)
                 (PI) (SG) (DLTA) (DLTA) (DLTA) (DLTA) (PI) (PI)
                 (?A) (?A) (PHI) (PHI) (SG) (PI) (PI) (SG) (PI)
                 (PI) (PHI) (PHI) (DLTA) (DLTA) (SG) (SG) (PI)
                 (PI) (SG) (PI) (PI) (SG) (DLTA) (DLTA) (SG) (DLTA)
                 (DLTA) (PI) (PI) (SG) (PI) (PI) (PI) (PI) (SG)
                 (SG) (?A) (?A) (PHI) (PHI) (DLTA) (DLTA) (PI)
                 (PI) (PHI) (PHI) (DLTA) (DLTA) (SG) (PI) (PI)
                 (SG) (SG) (DLTA) (DLTA) (PI) (PI) (SG) (SG) (PI)
                 (PI) (DLTA) (DLTA) (SG) (PI) (PI) (PI) (PI) (SG)
                 (SG) (DLTA) (DLTA) (PI) (PI) (PHI) (PHI) (DLTA)
                 (DLTA) (SG) (PI) (PI) (SG) (?A) (?A) (PHI) (PHI)
                 (DLTA) (DLTA) (PI) (PI) (SG) (SG) (PI) (PI) (SG)
                 (SG) (DLTA) (DLTA) (PI) (PI) (SG) (SG) (PI) (PI)
                 (SG) (DLTA) (DLTA) (PI) (PI) (SG) (PI) (PI) (SG)
                 (SG) (DLTA) (DLTA) (PI) (PI) (SG) (SG) (SG) (PI)
                 (PI) (SG) (SG) (PI) (PI) (SG) (DLTA) (DLTA) (PI)
                 (PI) (SG) (SG) (PI) (PI) (SG) (SG) (PI) (PI) (SG)
                 (SG) (PI) (PI) (SG) (SG) (PI) (PI) (SG) (SG) (PI)
                 (PI) (SG) (SG) (SG)
 The electronic state of the initial guess is 1-SG.
 Leave Link  401 at Thu Apr 19 07:36:06 2018, MaxMem= 10737418240 cpu:               6.2 elap:               0.4
 (Enter /home1/apps/gaussian/16rA.03/g16/l502.exe)
 Keep R1 and R2 ints in memory in symmetry-blocked form, NReq=296667361.
 FoFCou: FMM=F IPFlag=           8 FMFlag=           0 FMFlg1=           0
         NFxFlg=           0 DoJE=F BraDBF=F KetDBF=F FulRan=T
         wScrn=  0.000000 ICntrl=       600 IOpCl=  0 I1Cent=           0 NGrid=           0
         NMat0=    1 NMatS0=  21736 NMatT0=    0 NMatD0=    1 NMtDS0=    0 NMtDT0=    0
 Petite list used in FoFCou.
 Restricted open shell SCF:
 Using DIIS extrapolation, IDIIS=  1040.
 NGot= 10737418240 LenX= 10616480499 LenY= 10616417057
 Requested convergence on RMS density matrix=1.00D-08 within 300 cycles.
 Requested convergence on MAX density matrix=1.00D-06.
 Requested convergence on             energy=1.00D-06.
 Virtual orbitals will be shifted by   0.400 hartree.
 No special actions if energy rises.

 Cycle   1  Pass 1  IDiag  1:
 E= -46.5804080928142    
 DIIS: error= 1.61D-01 at cycle   1 NSaved=   1.
 NSaved= 1 IEnMin= 1 EnMin= -46.5804080928142     IErMin= 1 ErrMin= 1.61D-01
 ErrMax= 1.61D-01  0.00D+00 EMaxC= 1.00D-01 BMatC= 2.22D+00 BMatP= 2.22D+00
 IDIUse=3 WtCom= 0.00D+00 WtEn= 1.00D+00
 Coeff-Com:  0.100D+01
 Coeff-En:   0.100D+01
 Coeff:      0.100D+01
 Gap=     0.236 Goal=   None    Shift=    0.400
 GapD=    0.236 DampG=1.000 DampE=0.125 DampFc=0.1250 IDamp=-1.
 Damping current iteration by 1.25D-01
 RMSDP=9.41D-03 MaxDP=5.79D-01              OVMax= 1.85D-02

 Cycle   2  Pass 1  IDiag  1:
 E= -46.5919090100461     Delta-E=       -0.011500917232 Rises=F Damp=T
 DIIS: error= 1.42D-01 at cycle   2 NSaved=   2.
 NSaved= 2 IEnMin= 2 EnMin= -46.5919090100461     IErMin= 2 ErrMin= 1.42D-01
 ErrMax= 1.42D-01  0.00D+00 EMaxC= 1.00D-01 BMatC= 1.71D+00 BMatP= 2.22D+00
 IDIUse=3 WtCom= 0.00D+00 WtEn= 1.00D+00
 Coeff-Com: -0.722D+01 0.822D+01
 Coeff-En:   0.000D+00 0.100D+01
 Coeff:      0.000D+00 0.100D+01
 Gap=     0.239 Goal=   None    Shift=    0.400
 RMSDP=8.37D-03 MaxDP=5.02D-01 DE=-1.15D-02 OVMax= 3.58D-03

 Cycle   3  Pass 1  IDiag  1:
 E= -46.6744166174380     Delta-E=       -0.082507607392 Rises=F Damp=F
 DIIS: error= 2.27D-03 at cycle   3 NSaved=   3.
 NSaved= 3 IEnMin= 3 EnMin= -46.6744166174380     IErMin= 3 ErrMin= 2.27D-03
 ErrMax= 2.27D-03  0.00D+00 EMaxC= 1.00D-01 BMatC= 8.01D-04 BMatP= 1.71D+00
 IDIUse=3 WtCom= 9.77D-01 WtEn= 2.27D-02
 Coeff-Com:  0.723D+01-0.827D+01 0.204D+01
 Coeff-En:   0.000D+00 0.000D+00 0.100D+01
 Coeff:      0.706D+01-0.808D+01 0.202D+01
 Gap=     0.241 Goal=   None    Shift=    0.400
 RMSDP=3.38D-04 MaxDP=1.68D-02 DE=-8.25D-02 OVMax= 4.19D-03

 Cycle   4  Pass 1  IDiag  1:
 E= -46.6745704866614     Delta-E=       -0.000153869223 Rises=F Damp=F
 DIIS: error= 4.59D-04 at cycle   4 NSaved=   4.
 NSaved= 4 IEnMin= 4 EnMin= -46.6745704866614     IErMin= 4 ErrMin= 4.59D-04
 ErrMax= 4.59D-04  0.00D+00 EMaxC= 1.00D-01 BMatC= 1.01D-05 BMatP= 8.01D-04
 IDIUse=3 WtCom= 9.95D-01 WtEn= 4.59D-03
 Coeff-Com:  0.126D+01-0.144D+01 0.241D+00 0.939D+00
 Coeff-En:   0.000D+00 0.000D+00 0.000D+00 0.100D+01
 Coeff:      0.125D+01-0.143D+01 0.239D+00 0.939D+00
 Gap=     0.240 Goal=   None    Shift=    0.400
 RMSDP=4.16D-05 MaxDP=2.04D-03 DE=-1.54D-04 OVMax= 2.41D-03

 Cycle   5  Pass 1  IDiag  1:
 E= -46.6745984018311     Delta-E=       -0.000027915170 Rises=F Damp=F
 DIIS: error= 3.50D-04 at cycle   5 NSaved=   5.
 NSaved= 5 IEnMin= 5 EnMin= -46.6745984018311     IErMin= 5 ErrMin= 3.50D-04
 ErrMax= 3.50D-04  0.00D+00 EMaxC= 1.00D-01 BMatC= 3.71D-06 BMatP= 1.01D-05
 IDIUse=3 WtCom= 9.96D-01 WtEn= 3.50D-03
 Coeff-Com: -0.855D+00 0.977D+00-0.191D+00-0.858D+00 0.193D+01
 Coeff-En:   0.000D+00 0.000D+00 0.000D+00 0.000D+00 0.100D+01
 Coeff:     -0.852D+00 0.974D+00-0.190D+00-0.855D+00 0.192D+01
 Gap=     0.240 Goal=   None    Shift=    0.400
 RMSDP=3.13D-05 MaxDP=1.82D-03 DE=-2.79D-05 OVMax= 2.30D-03

 Cycle   6  Pass 1  IDiag  1:
 E= -46.6746163545616     Delta-E=       -0.000017952730 Rises=F Damp=F
 DIIS: error= 2.24D-04 at cycle   6 NSaved=   6.
 NSaved= 6 IEnMin= 6 EnMin= -46.6746163545616     IErMin= 6 ErrMin= 2.24D-04
 ErrMax= 2.24D-04  0.00D+00 EMaxC= 1.00D-01 BMatC= 1.48D-06 BMatP= 3.71D-06
 IDIUse=3 WtCom= 9.98D-01 WtEn= 2.24D-03
 Coeff-Com:  0.160D+00-0.183D+00 0.394D-01 0.347D+00-0.217D+01 0.281D+01
 Coeff-En:   0.000D+00 0.000D+00 0.000D+00 0.000D+00 0.000D+00 0.100D+01
 Coeff:      0.159D+00-0.182D+00 0.393D-01 0.346D+00-0.216D+01 0.280D+01
 Gap=     0.241 Goal=   None    Shift=    0.400
 RMSDP=2.31D-05 MaxDP=1.40D-03 DE=-1.80D-05 OVMax= 2.05D-03

 Cycle   7  Pass 1  IDiag  1:
 E= -46.6746259091110     Delta-E=       -0.000009554549 Rises=F Damp=F
 DIIS: error= 1.08D-04 at cycle   7 NSaved=   7.
 NSaved= 7 IEnMin= 7 EnMin= -46.6746259091110     IErMin= 7 ErrMin= 1.08D-04
 ErrMax= 1.08D-04  0.00D+00 EMaxC= 1.00D-01 BMatC= 4.37D-07 BMatP= 1.48D-06
 IDIUse=3 WtCom= 9.99D-01 WtEn= 1.08D-03
 Coeff-Com: -0.303D-01 0.346D-01-0.665D-02-0.975D-01 0.645D+00-0.184D+01
 Coeff-Com:  0.230D+01
 Coeff-En:   0.000D+00 0.000D+00 0.000D+00 0.000D+00 0.000D+00 0.000D+00
 Coeff-En:   0.100D+01
 Coeff:     -0.302D-01 0.346D-01-0.665D-02-0.974D-01 0.644D+00-0.184D+01
 Coeff:      0.229D+01
 Gap=     0.241 Goal=   None    Shift=    0.400
 RMSDP=9.36D-06 MaxDP=4.67D-04 DE=-9.55D-06 OVMax= 1.04D-03

 Cycle   8  Pass 1  IDiag  1:
 E= -46.6746286913569     Delta-E=       -0.000002782246 Rises=F Damp=F
 DIIS: error= 5.03D-05 at cycle   8 NSaved=   8.
 NSaved= 8 IEnMin= 8 EnMin= -46.6746286913569     IErMin= 8 ErrMin= 5.03D-05
 ErrMax= 5.03D-05  0.00D+00 EMaxC= 1.00D-01 BMatC= 1.56D-07 BMatP= 4.37D-07
 IDIUse=1 WtCom= 1.00D+00 WtEn= 0.00D+00
 Coeff-Com:  0.193D-01-0.220D-01 0.581D-02 0.102D-01-0.238D+00 0.923D+00
 Coeff-Com: -0.272D+01 0.302D+01
 Coeff:      0.193D-01-0.220D-01 0.581D-02 0.102D-01-0.238D+00 0.923D+00
 Coeff:     -0.272D+01 0.302D+01
 Gap=     0.241 Goal=   None    Shift=    0.400
 RMSDP=6.14D-06 MaxDP=2.56D-04 DE=-2.78D-06 OVMax= 6.37D-04

 Cycle   9  Pass 1  IDiag  1:
 E= -46.6746297284793     Delta-E=       -0.000001037122 Rises=F Damp=F
 DIIS: error= 2.53D-05 at cycle   9 NSaved=   9.
 NSaved= 9 IEnMin= 9 EnMin= -46.6746297284793     IErMin= 9 ErrMin= 2.53D-05
 ErrMax= 2.53D-05  0.00D+00 EMaxC= 1.00D-01 BMatC= 5.01D-08 BMatP= 1.56D-07
 IDIUse=1 WtCom= 1.00D+00 WtEn= 0.00D+00
 Coeff-Com:  0.190D-01-0.217D-01 0.514D-02 0.311D-01-0.277D+00 0.723D+00
 Coeff-Com: -0.114D+01 0.151D-01 0.165D+01
 Coeff:      0.190D-01-0.217D-01 0.514D-02 0.311D-01-0.277D+00 0.723D+00
 Coeff:     -0.114D+01 0.151D-01 0.165D+01
 Gap=     0.241 Goal=   None    Shift=    0.400
 RMSDP=3.65D-06 MaxDP=2.23D-04 DE=-1.04D-06 OVMax= 3.83D-04

 Cycle  10  Pass 1  IDiag  1:
 E= -46.6746300548691     Delta-E=       -0.000000326390 Rises=F Damp=F
 DIIS: error= 1.55D-05 at cycle  10 NSaved=  10.
 NSaved=10 IEnMin=10 EnMin= -46.6746300548691     IErMin=10 ErrMin= 1.55D-05
 ErrMax= 1.55D-05  0.00D+00 EMaxC= 1.00D-01 BMatC= 1.71D-08 BMatP= 5.01D-08
 IDIUse=1 WtCom= 1.00D+00 WtEn= 0.00D+00
 Coeff-Com: -0.216D-01 0.246D-01-0.537D-02-0.348D-01 0.282D+00-0.702D+00
 Coeff-Com:  0.130D+01-0.984D+00-0.192D+01 0.306D+01
 Coeff:     -0.216D-01 0.246D-01-0.537D-02-0.348D-01 0.282D+00-0.702D+00
 Coeff:      0.130D+01-0.984D+00-0.192D+01 0.306D+01
 Gap=     0.241 Goal=   None    Shift=    0.400
 RMSDP=3.07D-06 MaxDP=3.25D-04 DE=-3.26D-07 OVMax= 2.66D-04

 Cycle  11  Pass 1  IDiag  1:
 E= -46.6746301778323     Delta-E=       -0.000000122963 Rises=F Damp=F
 DIIS: error= 9.33D-06 at cycle  11 NSaved=  11.
 NSaved=11 IEnMin=11 EnMin= -46.6746301778323     IErMin=11 ErrMin= 9.33D-06
 ErrMax= 9.33D-06  0.00D+00 EMaxC= 1.00D-01 BMatC= 6.40D-09 BMatP= 1.71D-08
 IDIUse=1 WtCom= 1.00D+00 WtEn= 0.00D+00
 Coeff-Com:  0.197D-02-0.225D-02 0.561D-03 0.173D-02-0.523D-01 0.193D+00
 Coeff-Com: -0.479D+00 0.428D+00 0.958D+00-0.347D+01 0.342D+01
 Coeff:      0.197D-02-0.225D-02 0.561D-03 0.173D-02-0.523D-01 0.193D+00
 Coeff:     -0.479D+00 0.428D+00 0.958D+00-0.347D+01 0.342D+01
 Gap=     0.241 Goal=   None    Shift=    0.400
 RMSDP=2.17D-06 MaxDP=2.60D-04 DE=-1.23D-07 OVMax= 1.77D-04

 Cycle  12  Pass 1  IDiag  1:
 E= -46.6746302254045     Delta-E=       -0.000000047572 Rises=F Damp=F
 DIIS: error= 6.11D-06 at cycle  12 NSaved=  12.
 NSaved=12 IEnMin=12 EnMin= -46.6746302254045     IErMin=12 ErrMin= 6.11D-06
 ErrMax= 6.11D-06  0.00D+00 EMaxC= 1.00D-01 BMatC= 2.63D-09 BMatP= 6.40D-09
 IDIUse=1 WtCom= 1.00D+00 WtEn= 0.00D+00
 Coeff-Com: -0.320D-02 0.366D-02-0.669D-03-0.136D-01 0.101D+00-0.287D+00
 Coeff-Com:  0.671D+00-0.559D+00-0.993D+00 0.303D+01-0.511D+01 0.416D+01
 Coeff:     -0.320D-02 0.366D-02-0.669D-03-0.136D-01 0.101D+00-0.287D+00
 Coeff:      0.671D+00-0.559D+00-0.993D+00 0.303D+01-0.511D+01 0.416D+01
 Gap=     0.241 Goal=   None    Shift=    0.400
 RMSDP=1.59D-06 MaxDP=1.93D-04 DE=-4.76D-08 OVMax= 1.29D-04

 Cycle  13  Pass 1  IDiag  1:
 E= -46.6746302460665     Delta-E=       -0.000000020662 Rises=F Damp=F
 DIIS: error= 3.76D-06 at cycle  13 NSaved=  13.
 NSaved=13 IEnMin=13 EnMin= -46.6746302460665     IErMin=13 ErrMin= 3.76D-06
 ErrMax= 3.76D-06  0.00D+00 EMaxC= 1.00D-01 BMatC= 1.08D-09 BMatP= 2.63D-09
 IDIUse=1 WtCom= 1.00D+00 WtEn= 0.00D+00
 Coeff-Com: -0.230D-02 0.263D-02-0.539D-03-0.783D-02 0.562D-01-0.168D+00
 Coeff-Com:  0.423D+00-0.475D+00-0.921D-01 0.584D+00-0.465D+00-0.127D+01
 Coeff-Com:  0.241D+01
 Coeff:     -0.230D-02 0.263D-02-0.539D-03-0.783D-02 0.562D-01-0.168D+00
 Coeff:      0.423D+00-0.475D+00-0.921D-01 0.584D+00-0.465D+00-0.127D+01
 Coeff:      0.241D+01
 Gap=     0.241 Goal=   None    Shift=    0.400
 RMSDP=9.36D-07 MaxDP=1.09D-04 DE=-2.07D-08 OVMax= 8.33D-05

 Cycle  14  Pass 1  IDiag  1:
 E= -46.6746302541958     Delta-E=       -0.000000008129 Rises=F Damp=F
 DIIS: error= 2.45D-06 at cycle  14 NSaved=  14.
 NSaved=14 IEnMin=14 EnMin= -46.6746302541958     IErMin=14 ErrMin= 2.45D-06
 ErrMax= 2.45D-06  0.00D+00 EMaxC= 1.00D-01 BMatC= 4.78D-10 BMatP= 1.08D-09
 IDIUse=1 WtCom= 1.00D+00 WtEn= 0.00D+00
 Coeff-Com:  0.345D-02-0.394D-02 0.103D-02-0.216D-02-0.516D-02 0.277D-01
 Coeff-Com: -0.771D-01 0.176D+00-0.265D+00 0.331D+00-0.788D+00 0.245D+01
 Coeff-Com: -0.548D+01 0.463D+01
 Coeff:      0.345D-02-0.394D-02 0.103D-02-0.216D-02-0.516D-02 0.277D-01
 Coeff:     -0.771D-01 0.176D+00-0.265D+00 0.331D+00-0.788D+00 0.245D+01
 Coeff:     -0.548D+01 0.463D+01
 Gap=     0.241 Goal=   None    Shift=    0.400
 RMSDP=5.72D-07 MaxDP=5.79D-05 DE=-8.13D-09 OVMax= 5.74D-05

 Cycle  15  Pass 1  IDiag  1:
 E= -46.6746302576233     Delta-E=       -0.000000003427 Rises=F Damp=F
 DIIS: error= 1.73D-06 at cycle  15 NSaved=  15.
 NSaved=15 IEnMin=15 EnMin= -46.6746302576233     IErMin=15 ErrMin= 1.73D-06
 ErrMax= 1.73D-06  0.00D+00 EMaxC= 1.00D-01 BMatC= 2.20D-10 BMatP= 4.78D-10
 IDIUse=1 WtCom= 1.00D+00 WtEn= 0.00D+00
 Coeff-Com:  0.963D-03-0.110D-02 0.281D-03-0.193D-02 0.113D-01-0.450D-01
 Coeff-Com:  0.140D+00-0.167D+00-0.325D-01 0.312D+00-0.398D+00-0.237D-01
 Coeff-Com:  0.838D+00-0.266D+01 0.302D+01
 Coeff:      0.963D-03-0.110D-02 0.281D-03-0.193D-02 0.113D-01-0.450D-01
 Coeff:      0.140D+00-0.167D+00-0.325D-01 0.312D+00-0.398D+00-0.237D-01
 Coeff:      0.838D+00-0.266D+01 0.302D+01
 Gap=     0.241 Goal=   None    Shift=    0.400
 RMSDP=3.36D-07 MaxDP=2.81D-05 DE=-3.43D-09 OVMax= 3.80D-05

 Cycle  16  Pass 1  IDiag  1:
 E= -46.6746302589945     Delta-E=       -0.000000001371 Rises=F Damp=F
 DIIS: error= 1.21D-06 at cycle  16 NSaved=  16.
 NSaved=16 IEnMin=16 EnMin= -46.6746302589945     IErMin=16 ErrMin= 1.21D-06
 ErrMax= 1.21D-06  0.00D+00 EMaxC= 1.00D-01 BMatC= 1.09D-10 BMatP= 2.20D-10
 IDIUse=1 WtCom= 1.00D+00 WtEn= 0.00D+00
 Coeff-Com:  0.171D-02-0.196D-02 0.581D-03-0.228D-02-0.363D-02 0.378D-01
 Coeff-Com: -0.135D+00 0.221D+00-0.148D+00-0.846D-01 0.144D+00 0.101D+01
 Coeff-Com: -0.362D+01 0.683D+01-0.973D+01 0.648D+01
 Coeff:      0.171D-02-0.196D-02 0.581D-03-0.228D-02-0.363D-02 0.378D-01
 Coeff:     -0.135D+00 0.221D+00-0.148D+00-0.846D-01 0.144D+00 0.101D+01
 Coeff:     -0.362D+01 0.683D+01-0.973D+01 0.648D+01
 Gap=     0.241 Goal=   None    Shift=    0.400
 RMSDP=1.88D-07 MaxDP=1.19D-05 DE=-1.37D-09 OVMax= 2.50D-05

 Cycle  17  Pass 1  IDiag  1:
 E= -46.6746302595338     Delta-E=       -0.000000000539 Rises=F Damp=F
 DIIS: error= 8.30D-07 at cycle  17 NSaved=  17.
 NSaved=17 IEnMin=17 EnMin= -46.6746302595338     IErMin=17 ErrMin= 8.30D-07
 ErrMax= 8.30D-07  0.00D+00 EMaxC= 1.00D-01 BMatC= 5.63D-11 BMatP= 1.09D-10
 IDIUse=1 WtCom= 1.00D+00 WtEn= 0.00D+00
 Coeff-Com: -0.173D-03 0.199D-03-0.668D-04-0.126D-02 0.156D-01-0.586D-01
 Coeff-Com:  0.160D+00-0.190D+00-0.447D-01 0.408D+00-0.584D+00 0.179D+00
 Coeff-Com:  0.927D+00-0.335D+01 0.735D+01-0.943D+01 0.562D+01
 Coeff:     -0.173D-03 0.199D-03-0.668D-04-0.126D-02 0.156D-01-0.586D-01
 Coeff:      0.160D+00-0.190D+00-0.447D-01 0.408D+00-0.584D+00 0.179D+00
 Coeff:      0.927D+00-0.335D+01 0.735D+01-0.943D+01 0.562D+01
 Gap=     0.241 Goal=   None    Shift=    0.400
 RMSDP=1.21D-07 MaxDP=7.84D-06 DE=-5.39D-10 OVMax= 1.48D-05

 Cycle  18  Pass 1  IDiag  1:
 E= -46.6746302597407     Delta-E=       -0.000000000207 Rises=F Damp=F
 DIIS: error= 5.23D-07 at cycle  18 NSaved=  18.
 NSaved=18 IEnMin=18 EnMin= -46.6746302597407     IErMin=18 ErrMin= 5.23D-07
 ErrMax= 5.23D-07  0.00D+00 EMaxC= 1.00D-01 BMatC= 2.23D-11 BMatP= 5.63D-11
 IDIUse=1 WtCom= 1.00D+00 WtEn= 0.00D+00
 Coeff-Com:  0.212D-04-0.243D-04 0.128D-04-0.641D-04-0.596D-03 0.110D-01
 Coeff-Com: -0.506D-01 0.900D-01-0.811D-01 0.348D-01-0.645D-01 0.484D+00
 Coeff-Com: -0.140D+01 0.265D+01-0.432D+01 0.510D+01-0.507D+01 0.362D+01
 Coeff:      0.212D-04-0.243D-04 0.128D-04-0.641D-04-0.596D-03 0.110D-01
 Coeff:     -0.506D-01 0.900D-01-0.811D-01 0.348D-01-0.645D-01 0.484D+00
 Coeff:     -0.140D+01 0.265D+01-0.432D+01 0.510D+01-0.507D+01 0.362D+01
 Gap=     0.241 Goal=   None    Shift=    0.400
 RMSDP=8.31D-08 MaxDP=4.87D-06 DE=-2.07D-10 OVMax= 7.84D-06

 Cycle  19  Pass 1  IDiag  1:
 E= -46.6746302598181     Delta-E=       -0.000000000077 Rises=F Damp=F
 DIIS: error= 3.10D-07 at cycle  19 NSaved=  19.
 NSaved=19 IEnMin=19 EnMin= -46.6746302598181     IErMin=19 ErrMin= 3.10D-07
 ErrMax= 3.10D-07  0.00D+00 EMaxC= 1.00D-01 BMatC= 7.10D-12 BMatP= 2.23D-11
 IDIUse=1 WtCom= 1.00D+00 WtEn= 0.00D+00
 Large coefficients: NSaved= 19 BigCof=    0.00 CofMax=   10.00 Det=-5.62D-15
 Inversion failed.  Reducing to 18 matrices.
 Large coefficients: NSaved= 18 BigCof=    0.00 CofMax=   10.00 Det=-6.56D-15
 Inversion failed.  Reducing to 17 matrices.
 Large coefficients: NSaved= 17 BigCof=    0.00 CofMax=   10.00 Det=-8.17D-15
 Inversion failed.  Reducing to 16 matrices.
 Large coefficients: NSaved= 16 BigCof=    0.00 CofMax=   10.00 Det=-9.58D-15
 Inversion failed.  Reducing to 15 matrices.
 Coeff-Com:  0.869D-03-0.905D-02 0.396D-01-0.661D-01 0.448D-01 0.179D-01
 Coeff-Com: -0.525D-01-0.190D+00 0.848D+00-0.192D+01 0.343D+01-0.441D+01
 Coeff-Com:  0.425D+01-0.433D+01 0.335D+01
 Coeff:      0.869D-03-0.905D-02 0.396D-01-0.661D-01 0.448D-01 0.179D-01
 Coeff:     -0.525D-01-0.190D+00 0.848D+00-0.192D+01 0.343D+01-0.441D+01
 Coeff:      0.425D+01-0.433D+01 0.335D+01
 Gap=     0.241 Goal=   None    Shift=    0.400
 RMSDP=5.20D-08 MaxDP=3.24D-06 DE=-7.74D-11 OVMax= 4.56D-06

 Cycle  20  Pass 1  IDiag  1:
 E= -46.6746302598468     Delta-E=       -0.000000000029 Rises=F Damp=F
 DIIS: error= 1.83D-07 at cycle  20 NSaved=  16.
 NSaved=16 IEnMin=16 EnMin= -46.6746302598468     IErMin=16 ErrMin= 1.83D-07
 ErrMax= 1.83D-07  0.00D+00 EMaxC= 1.00D-01 BMatC= 2.30D-12 BMatP= 7.10D-12
 IDIUse=1 WtCom= 1.00D+00 WtEn= 0.00D+00
 Large coefficients: NSaved= 16 BigCof=    0.00 CofMax=   10.00 Det=-5.29D-15
 Inversion failed.  Reducing to 15 matrices.
 Coeff-Com:  0.443D-02-0.247D-01 0.472D-01-0.446D-01 0.201D-01-0.301D-01
 Coeff-Com:  0.227D+00-0.681D+00 0.129D+01-0.207D+01 0.258D+01-0.267D+01
 Coeff-Com:  0.356D+01-0.569D+01 0.448D+01
 Coeff:      0.443D-02-0.247D-01 0.472D-01-0.446D-01 0.201D-01-0.301D-01
 Coeff:      0.227D+00-0.681D+00 0.129D+01-0.207D+01 0.258D+01-0.267D+01
 Coeff:      0.356D+01-0.569D+01 0.448D+01
 Gap=     0.241 Goal=   None    Shift=    0.400
 RMSDP=3.62D-08 MaxDP=2.19D-06 DE=-2.88D-11 OVMax= 2.75D-06

 Cycle  21  Pass 1  IDiag  1:
 E= -46.6746302598583     Delta-E=       -0.000000000011 Rises=F Damp=F
 DIIS: error= 1.01D-07 at cycle  21 NSaved=  16.
 NSaved=16 IEnMin=16 EnMin= -46.6746302598583     IErMin=16 ErrMin= 1.01D-07
 ErrMax= 1.01D-07  0.00D+00 EMaxC= 1.00D-01 BMatC= 6.70D-13 BMatP= 2.30D-12
 IDIUse=1 WtCom= 1.00D+00 WtEn= 0.00D+00
 Large coefficients: NSaved= 16 BigCof=    0.00 CofMax=   10.00 Det=-7.92D-16
 Inversion failed.  Reducing to 15 matrices.
 Coeff-Com: -0.171D-03 0.657D-03-0.771D-03 0.666D-02-0.244D-01 0.366D-01
 Coeff-Com: -0.193D-01-0.105D+00 0.350D+00-0.710D+00 0.101D+01-0.880D+00
 Coeff-Com:  0.134D+01-0.338D+01 0.338D+01
 Coeff:     -0.171D-03 0.657D-03-0.771D-03 0.666D-02-0.244D-01 0.366D-01
 Coeff:     -0.193D-01-0.105D+00 0.350D+00-0.710D+00 0.101D+01-0.880D+00
 Coeff:      0.134D+01-0.338D+01 0.338D+01
 Gap=     0.241 Goal=   None    Shift=    0.400
 RMSDP=2.36D-08 MaxDP=1.43D-06 DE=-1.14D-11 OVMax= 1.67D-06

 Cycle  22  Pass 1  IDiag  1:
 E= -46.6746302598624     Delta-E=       -0.000000000004 Rises=F Damp=F
 DIIS: error= 5.60D-08 at cycle  22 NSaved=  16.
 NSaved=16 IEnMin=16 EnMin= -46.6746302598624     IErMin=16 ErrMin= 5.60D-08
 ErrMax= 5.60D-08  0.00D+00 EMaxC= 1.00D-01 BMatC= 2.27D-13 BMatP= 6.70D-13
 IDIUse=1 WtCom= 1.00D+00 WtEn= 0.00D+00
 Large coefficients: NSaved= 16 BigCof=    0.00 CofMax=   10.00 Det=-6.83D-16
 Inversion failed.  Reducing to 15 matrices.
 Coeff-Com:  0.465D-03-0.163D-02 0.138D-02 0.169D-02-0.452D-02-0.927D-03
 Coeff-Com:  0.176D-01-0.535D-01 0.167D+00-0.355D+00 0.545D+00-0.929D+00
 Coeff-Com:  0.216D+01-0.469D+01 0.414D+01
 Coeff:      0.465D-03-0.163D-02 0.138D-02 0.169D-02-0.452D-02-0.927D-03
 Coeff:      0.176D-01-0.535D-01 0.167D+00-0.355D+00 0.545D+00-0.929D+00
 Coeff:      0.216D+01-0.469D+01 0.414D+01
 Gap=     0.241 Goal=   None    Shift=    0.400
 RMSDP=1.67D-08 MaxDP=9.55D-07 DE=-4.09D-12 OVMax= 1.04D-06

 Cycle  23  Pass 1  IDiag  1:
 E= -46.6746302598639     Delta-E=       -0.000000000002 Rises=F Damp=F
 DIIS: error= 2.99D-08 at cycle  23 NSaved=  16.
 NSaved=16 IEnMin=16 EnMin= -46.6746302598639     IErMin=16 ErrMin= 2.99D-08
 ErrMax= 2.99D-08  0.00D+00 EMaxC= 1.00D-01 BMatC= 8.29D-14 BMatP= 2.27D-13
 IDIUse=1 WtCom= 1.00D+00 WtEn= 0.00D+00
 Large coefficients: NSaved= 16 BigCof=    0.00 CofMax=   10.00 Det=-8.64D-17
 Inversion failed.  Reducing to 15 matrices.
 Coeff-Com: -0.785D-04 0.123D-02-0.331D-02 0.684D-02-0.122D-01 0.108D-03
 Coeff-Com:  0.382D-01-0.155D+00 0.324D+00-0.335D+00 0.346D+00-0.705D+00
 Coeff-Com:  0.179D+01-0.399D+01 0.370D+01
 Coeff:     -0.785D-04 0.123D-02-0.331D-02 0.684D-02-0.122D-01 0.108D-03
 Coeff:      0.382D-01-0.155D+00 0.324D+00-0.335D+00 0.346D+00-0.705D+00
 Coeff:      0.179D+01-0.399D+01 0.370D+01
 Gap=     0.241 Goal=   None    Shift=    0.400
 RMSDP=1.10D-08 MaxDP=6.09D-07 DE=-1.57D-12 OVMax= 6.30D-07

 Cycle  24  Pass 1  IDiag  1:
 E= -46.6746302598645     Delta-E=       -0.000000000001 Rises=F Damp=F
 DIIS: error= 1.67D-08 at cycle  24 NSaved=  16.
 NSaved=16 IEnMin=16 EnMin= -46.6746302598645     IErMin=16 ErrMin= 1.67D-08
 ErrMax= 1.67D-08  0.00D+00 EMaxC= 1.00D-01 BMatC= 3.09D-14 BMatP= 8.29D-14
 IDIUse=1 WtCom= 1.00D+00 WtEn= 0.00D+00
 Large coefficients: NSaved= 16 BigCof=    0.00 CofMax=   10.00 Det=-3.14D-17
 Inversion failed.  Reducing to 15 matrices.
 Coeff-Com: -0.393D-03 0.151D-02-0.228D-02 0.140D-02 0.167D-02-0.159D-01
 Coeff-Com:  0.776D-01-0.185D+00 0.215D+00-0.196D+00 0.463D+00-0.120D+01
 Coeff-Com:  0.258D+01-0.494D+01 0.420D+01
 Coeff:     -0.393D-03 0.151D-02-0.228D-02 0.140D-02 0.167D-02-0.159D-01
 Coeff:      0.776D-01-0.185D+00 0.215D+00-0.196D+00 0.463D+00-0.120D+01
 Coeff:      0.258D+01-0.494D+01 0.420D+01
 Gap=     0.241 Goal=   None    Shift=    0.400
 RMSDP=7.18D-09 MaxDP=4.47D-07 DE=-6.11D-13 OVMax= 3.84D-07

 SCF Done:  E(ROHF) =  -46.6746302599     A.U. after   24 cycles
            NFock= 24  Conv=0.72D-08     -V/T= 3.5212
 <Sx>= 0.0000 <Sy>= 0.0000 <Sz>= 0.0000 <S**2>=-0.0000 S=-0.0000
 <L.S>=  0.00000000000    
 KE= 1.851257185315D+01 PE=-1.021017806641D+02 EE= 3.349049071573D+01
 Annihilation of the first spin contaminant:
 S**2 before annihilation    -0.0000,   after     0.0000
 Leave Link  502 at Thu Apr 19 07:36:20 2018, MaxMem= 10737418240 cpu:             257.7 elap:              13.9
 (Enter /home1/apps/gaussian/16rA.03/g16/l801.exe)
 Windowed orbitals will be sorted by symmetry type.
 GenMOA:  NOpAll=  4 NOp2=4 NOpUse=  4 JSym2X=1
 FoFJK:  IHMeth= 1 ICntrl=       0 DoSepK=F KAlg= 0 I1Cent=           0 FoldK=F
 IRaf=         0 NMat=       1 IRICut=       1 DoRegI=T DoRafI=F ISym2E= 1 IDoP0=0 IntGTp=1.
 FoFCou: FMM=F IPFlag=           8 FMFlag=      100000 FMFlg1=           0
         NFxFlg=           0 DoJE=F BraDBF=F KetDBF=F FulRan=T
         wScrn=  0.000000 ICntrl=         0 IOpCl=  1 I1Cent=           0 NGrid=           0
         NMat0=    1 NMatS0=      1 NMatT0=    0 NMatD0=    1 NMtDS0=    0 NMtDT0=    0
 Petite list used in FoFCou.
 <Sx>= 0.0000 <Sy>= 0.0000 <Sz>= 0.0000 <S**2>=-0.0000 S=-0.0000
 Range of M.O.s used for correlation:     1   205
 NBasis=   208 NAE=     6 NBE=     6 NFC=     0 NFV=     0
 NROrb=    205 NOA=     6 NOB=     6 NVA=   199 NVB=   199

 **** Warning!!: The largest alpha MO coefficient is  0.33325853D+03


 **** Warning!!: The largest beta MO coefficient is  0.33325853D+03

 Singles contribution to E2=   -0.8275956167D-13
 Leave Link  801 at Thu Apr 19 07:36:24 2018, MaxMem= 10737418240 cpu:              70.2 elap:               3.6
 (Enter /home1/apps/gaussian/16rA.03/g16/l804.exe)
 Open-shell transformation, MDV= 10737418240 ITran=4 ISComp=2.
 Unit  1 TFree=       1306222 TCopy=       1026414.
 Semi-Direct transformation.
 ModeAB=           2 MOrb=             6 LenV=   10736016432
 LASXX=      6565490 LTotXX=     6565490 LenRXX=     6565490
 LTotAB=     6698255 MaxLAS=    38899980 LenRXY=    38899980
 NonZer=    39736380 LenScr=    60358144 LnRSAI=           0
 LnScr1=           0 LExtra=     3151178 Total=    108974792
 MaxDsk= 67108864000 SrtSym=           F ITran=            4
 DoSDTr:  NPSUse= 20
 JobTyp=1 Pass  1:  I=   1 to   6.
 (rs|ai) integrals will be sorted in core.
 Complete sort for first half transformation.
 First half transformation complete.
 Complete sort for second half transformation.
 Second half transformation complete.
 ModeAB=           2 MOrb=             6 LenV=   10736016432
 LASXX=      6565490 LTotXX=     6565490 LenRXX=    38899980
 LTotAB=     6296380 MaxLAS=    38899980 LenRXY=     6296380
 NonZer=    39736380 LenScr=    60358144 LnRSAI=           0
 LnScr1=           0 LExtra=    48616648 Total=    154171152
 MaxDsk= 67108864000 SrtSym=           F ITran=            4
 DoSDTr:  NPSUse= 20
 JobTyp=2 Pass  1:  I=   1 to   6.
 (rs|ai) integrals will be sorted in core.
 Complete sort for first half transformation.
 First half transformation complete.
 Complete sort for second half transformation.
 Second half transformation complete.
 Spin components of T(2) and E(2):
     alpha-alpha T2 =       0.1228207563D-01 E2=     -0.4829499530D-01
     alpha-beta  T2 =       0.9709696672D-01 E2=     -0.3115138531D+00
     beta-beta   T2 =       0.1228207563D-01 E2=     -0.4829499530D-01
 ANorm=    0.1059085038D+01
 E2 =    -0.4081038437D+00 EUMP2 =    -0.47082734103549D+02
 (S**2,0)=  0.00000D+00           (S**2,1)=  0.00000D+00
 E(PUHF)=      -0.46674630260D+02        E(PMP2)=      -0.47082734104D+02
 Leave Link  804 at Thu Apr 19 07:37:35 2018, MaxMem= 10737418240 cpu:            1423.8 elap:              71.3
 (Enter /home1/apps/gaussian/16rA.03/g16/l913.exe)
 CIDS:  MDV= 10737418240.
 IFCWin=0 IBDFC=1 NFBD=     0     0 NFCmp=     0     0 NFFFC=     0     0
 Using original routines for 1st iteration.
 Using DD4UQ or CC4UQ for 2nd and later iterations.
 Keep R2 and R3 ints in memory in symmetry-blocked form, NReq=296675997.
 FoFCou: FMM=F IPFlag=           8 FMFlag=           0 FMFlg1=           0
         NFxFlg=           0 DoJE=F BraDBF=F KetDBF=F FulRan=T
         wScrn=  0.000000 ICntrl=       600 IOpCl=  0 I1Cent=           0 NGrid=           0
         NMat0=    1 NMatS0=  21736 NMatT0=    0 NMatD0=    1 NMtDS0=    0 NMtDT0=    0
 Petite list used in FoFCou.
 CIDS: In Core Option IDoMem=           1.
 CCSD(T)
 =======
 Iterations= 150 Convergence= 0.100D-06
 Produce multiple copies of IABC intergrals
 Iteration Nr.   1
 **********************
 DD1Dir will call FoFMem   1 times, MxPair=       102
 NAB=    36 NAA=    15 NBB=    15.
 DD1Dir will call FoFMem   1 times, MxPair=       102
 NAB=    36 NAA=    15 NBB=    15.
 MP4(R+Q)=  0.37079240D-01
 Maximum subspace dimension=  5
 A-vector RMS=  3.7978852D-05 Max=  5.6031681D-03 conv= 1.00D-05.
 RLE energy=       -0.3966952075
 E3=       -0.25342500D-01        EROMP3=      -0.47108076604D+02
 E4(SDQ)=  -0.14140689D-02        ROMP4(SDQ)=  -0.47109490673D+02
 VARIATIONAL ENERGIES WITH THE FIRST-ORDER WAVEFUNCTION:
 DE(Corr)= -0.39636710     E(Corr)=     -47.070997364    
 NORM(A)=   0.10529313D+01
 Iteration Nr.   2
 **********************
 DD1Dir will call FoFMem   1 times, MxPair=       102
 NAB=    36 NAA=    15 NBB=    15.
 A-vector RMS=  3.4063450D-03 Max=  2.4904507D-02 conv= 1.00D-05.
 RLE energy=       -0.4048440854
 DE(Corr)= -0.42091058     E(CORR)=     -47.095540841     Delta=-2.45D-02
 NORM(A)=   0.10571900D+01
 Iteration Nr.   3
 **********************
 DD1Dir will call FoFMem   1 times, MxPair=       102
 NAB=    36 NAA=    15 NBB=    15.
 A-vector RMS=  2.4210606D-03 Max=  1.8321856D-02 conv= 1.00D-05.
 RLE energy=       -0.4157059256
 DE(Corr)= -0.42428096     E(CORR)=     -47.098911216     Delta=-3.37D-03
 NORM(A)=   0.10646117D+01
 Iteration Nr.   4
 **********************
 DD1Dir will call FoFMem   1 times, MxPair=       102
 NAB=    36 NAA=    15 NBB=    15.
 A-vector RMS=  2.0589811D-03 Max=  1.5654033D-02 conv= 1.00D-05.
 RLE energy=       -0.4326924307
 DE(Corr)= -0.42712581     E(CORR)=     -47.101756070     Delta=-2.84D-03
 NORM(A)=   0.10848263D+01
 Iteration Nr.   5
 **********************
 DD1Dir will call FoFMem   1 times, MxPair=       102
 NAB=    36 NAA=    15 NBB=    15.
 A-vector RMS=  3.6441951D-04 Max=  3.9776806D-03 conv= 1.00D-05.
 RLE energy=       -0.4395386112
 DE(Corr)= -0.43379973     E(CORR)=     -47.108429989     Delta=-6.67D-03
 NORM(A)=   0.10973598D+01
 Iteration Nr.   6
 **********************
 DD1Dir will call FoFMem   1 times, MxPair=       102
 NAB=    36 NAA=    15 NBB=    15.
 A-vector RMS=  4.1959308D-04 Max=  3.4316125D-03 conv= 1.00D-05.
 RLE energy=       -0.4344406361
 DE(Corr)= -0.43630164     E(CORR)=     -47.110931896     Delta=-2.50D-03
 NORM(A)=   0.10906745D+01
 Iteration Nr.   7
 **********************
 DD1Dir will call FoFMem   1 times, MxPair=       102
 NAB=    36 NAA=    15 NBB=    15.
 A-vector RMS=  1.3517292D-04 Max=  1.5710156D-03 conv= 1.00D-05.
 RLE energy=       -0.4345611679
 DE(Corr)= -0.43445020     E(CORR)=     -47.109080464     Delta= 1.85D-03
 NORM(A)=   0.10922228D+01
 Iteration Nr.   8
 **********************
 DD1Dir will call FoFMem   1 times, MxPair=       102
 NAB=    36 NAA=    15 NBB=    15.
 A-vector RMS=  3.5162718D-05 Max=  3.0330638D-04 conv= 1.00D-05.
 RLE energy=       -0.4345388641
 DE(Corr)= -0.43457884     E(CORR)=     -47.109209097     Delta=-1.29D-04
 NORM(A)=   0.10921387D+01
 Iteration Nr.   9
 **********************
 DD1Dir will call FoFMem   1 times, MxPair=       102
 NAB=    36 NAA=    15 NBB=    15.
 A-vector RMS=  2.6814420D-05 Max=  2.6677340D-04 conv= 1.00D-05.
 RLE energy=       -0.4345256937
 DE(Corr)= -0.43451896     E(CORR)=     -47.109149221     Delta= 5.99D-05
 NORM(A)=   0.10922097D+01
 Iteration Nr.  10
 **********************
 DD1Dir will call FoFMem   1 times, MxPair=       102
 NAB=    36 NAA=    15 NBB=    15.
 A-vector RMS=  5.2150026D-06 Max=  5.0655503D-05 conv= 1.00D-05.
 RLE energy=       -0.4345216172
 DE(Corr)= -0.43452070     E(CORR)=     -47.109150962     Delta=-1.74D-06
 NORM(A)=   0.10922120D+01
 Iteration Nr.  11
 **********************
 DD1Dir will call FoFMem   1 times, MxPair=       102
 NAB=    36 NAA=    15 NBB=    15.
 A-vector RMS=  3.7621043D-06 Max=  3.4166927D-05 conv= 1.00D-05.
 RLE energy=       -0.4345262300
 DE(Corr)= -0.43452007     E(CORR)=     -47.109150329     Delta= 6.33D-07
 NORM(A)=   0.10922487D+01
 Iteration Nr.  12
 **********************
 DD1Dir will call FoFMem   1 times, MxPair=       102
 NAB=    36 NAA=    15 NBB=    15.
 A-vector RMS=  9.7714609D-07 Max=  6.4466779D-06 conv= 1.00D-05.
 RLE energy=       -0.4345213176
 DE(Corr)= -0.43452138     E(CORR)=     -47.109151635     Delta=-1.31D-06
 NORM(A)=   0.10922514D+01
 Iteration Nr.  13
 **********************
 DD1Dir will call FoFMem   1 times, MxPair=       102
 NAB=    36 NAA=    15 NBB=    15.
 A-vector RMS=  3.1110126D-07 Max=  3.3448531D-06 conv= 1.00D-05.
 RLE energy=       -0.4345226638
 DE(Corr)= -0.43452232     E(CORR)=     -47.109152575     Delta=-9.40D-07
 NORM(A)=   0.10922530D+01
 Iteration Nr.  14
 **********************
 DD1Dir will call FoFMem   1 times, MxPair=       102
 NAB=    36 NAA=    15 NBB=    15.
 A-vector RMS=  1.9083451D-07 Max=  1.4253880D-06 conv= 1.00D-05.
 RLE energy=       -0.4345217966
 DE(Corr)= -0.43452189     E(CORR)=     -47.109152148     Delta= 4.27D-07
 NORM(A)=   0.10922530D+01
 Iteration Nr.  15
 **********************
 DD1Dir will call FoFMem   1 times, MxPair=       102
 NAB=    36 NAA=    15 NBB=    15.
 A-vector RMS=  7.3864587D-08 Max=  6.7112244D-07 conv= 1.00D-05.
 RLE energy=       -0.4345219341
 DE(Corr)= -0.43452199     E(CORR)=     -47.109152246     Delta=-9.77D-08
 NORM(A)=   0.10922528D+01
 CI/CC converged in   15 iterations to DelEn=-9.77D-08 Conv= 1.00D-07 ErrA1= 7.39D-08 Conv= 1.00D-05
 Wavefunction amplitudes converged. E(Corr)=     -47.109152246    
 Largest amplitude= 6.38D-02
 Time for triples=     6013.49 seconds.
 T4(CCSD)= -0.19572073D-01
 T5(CCSD)=  0.13938140D-02
 CCSD(T)= -0.47127330505D+02
 Discarding MO integrals.
 Leave Link  913 at Thu Apr 19 07:44:01 2018, MaxMem= 10737418240 cpu:            7680.3 elap:             385.1
 (Enter /home1/apps/gaussian/16rA.03/g16/l601.exe)
 Copying SCF densities to generalized density rwf, IOpCl= 0 IROHF=1.

 **********************************************************************

            Population analysis using the SCF density.

 **********************************************************************

 Orbital symmetries:
       Occupied  (SG) (SG) (PI) (PI) (SG) (SG)
       Virtual   (PI) (PI) (SG) (SG) (SG) (DLTA) (DLTA) (PI) (PI)
                 (PI) (PI) (SG) (DLTA) (DLTA) (PI) (PI) (SG) (SG)
                 (SG) (PI) (PI) (SG) (PI) (PI) (DLTA) (DLTA) (PHI)
                 (PHI) (DLTA) (DLTA) (PI) (PI) (SG) (SG) (SG) (PI)
                 (PI) (SG) (DLTA) (DLTA) (DLTA) (DLTA) (PI) (PI)
                 (?A) (?A) (SG) (PHI) (PHI) (PI) (PI) (SG) (PI)
                 (PI) (PHI) (PHI) (DLTA) (DLTA) (SG) (SG) (PI)
                 (PI) (SG) (DLTA) (DLTA) (SG) (PI) (PI) (DLTA)
                 (DLTA) (PI) (PI) (SG) (SG) (PI) (PI) (SG) (PI)
                 (PI) (SG) (?A) (?A) (PHI) (PHI) (DLTA) (DLTA)
                 (PHI) (PHI) (PI) (PI) (DLTA) (DLTA) (SG) (PI)
                 (PI) (SG) (DLTA) (DLTA) (SG) (PI) (PI) (SG) (SG)
                 (PI) (PI) (DLTA) (DLTA) (SG) (PI) (PI) (PI) (PI)
                 (SG) (SG) (DLTA) (DLTA) (PI) (PI) (SG) (PHI) (PHI)
                 (DLTA) (DLTA) (PI) (PI) (SG) (?A) (?A) (PHI) (PHI)
                 (DLTA) (DLTA) (PI) (PI) (SG) (SG) (PI) (PI) (SG)
                 (SG) (DLTA) (DLTA) (PI) (PI) (SG) (SG) (PI) (PI)
                 (SG) (DLTA) (DLTA) (PI) (PI) (SG) (SG) (PI) (PI)
                 (SG) (DLTA) (DLTA) (PI) (PI) (SG) (SG) (SG) (PI)
                 (PI) (SG) (SG) (PI) (PI) (SG) (DLTA) (DLTA) (PI)
                 (PI) (SG) (SG) (PI) (PI) (SG) (SG) (PI) (PI) (SG)
                 (SG) (PI) (PI) (SG) (SG) (PI) (PI) (SG) (SG) (PI)
                 (PI) (SG) (SG) (SG)
 The electronic state is 1-SG.
 Alpha  occ. eigenvalues --   -2.67477  -1.66206  -1.66045  -1.66045  -0.41752
 Alpha  occ. eigenvalues --   -0.22886
 Alpha virt. eigenvalues --    0.01190   0.01190   0.01607   0.02183   0.03539
 Alpha virt. eigenvalues --    0.03858   0.03858   0.03921   0.03921   0.04590
 Alpha virt. eigenvalues --    0.04590   0.04845   0.08663   0.08663   0.09357
 Alpha virt. eigenvalues --    0.09357   0.09520   0.11178   0.14268   0.15844
 Alpha virt. eigenvalues --    0.15844   0.15848   0.16719   0.16719   0.16759
 Alpha virt. eigenvalues --    0.16759   0.17073   0.17073   0.17302   0.17302
 Alpha virt. eigenvalues --    0.17441   0.17441   0.21505   0.30001   0.36843
 Alpha virt. eigenvalues --    0.38206   0.38206   0.40356   0.46567   0.46567
 Alpha virt. eigenvalues --    0.47888   0.47888   0.48019   0.48019   0.48657
 Alpha virt. eigenvalues --    0.48657   0.48843   0.48858   0.48858   0.49612
 Alpha virt. eigenvalues --    0.49612   0.50733   0.53198   0.53198   0.63128
 Alpha virt. eigenvalues --    0.63128   0.63440   0.63440   0.65886   0.73490
 Alpha virt. eigenvalues --    0.76289   0.76289   0.99161   1.13455   1.13455
 Alpha virt. eigenvalues --    1.14104   1.14885   1.14885   1.26292   1.26292
 Alpha virt. eigenvalues --    1.27138   1.27138   1.28000   1.50682   1.52901
 Alpha virt. eigenvalues --    1.52901   1.55848   1.57646   1.57646   1.78308
 Alpha virt. eigenvalues --    1.94996   1.94996   1.95280   1.95280   2.01979
 Alpha virt. eigenvalues --    2.01979   2.14007   2.14007   2.14467   2.14467
 Alpha virt. eigenvalues --    2.15249   2.15249   2.26573   2.40332   2.40332
 Alpha virt. eigenvalues --    2.57754   2.92623   2.92623   2.94217   2.98038
 Alpha virt. eigenvalues --    2.98038   3.05888   3.51174   3.99549   3.99549
 Alpha virt. eigenvalues --    4.07149   4.07149   4.24598   4.29725   4.29725
 Alpha virt. eigenvalues --    4.52380   4.52380   4.70412   5.02373   5.91132
 Alpha virt. eigenvalues --    5.91132   5.97653   5.97653   6.12982   6.63536
 Alpha virt. eigenvalues --    6.63536   6.65196   6.65196   6.78098   6.78098
 Alpha virt. eigenvalues --    7.47949   7.69494   7.69494   7.70165   7.70165
 Alpha virt. eigenvalues --    7.72983   7.72983   7.81628   7.81628   7.89895
 Alpha virt. eigenvalues --    7.99276   8.74980   8.74980   9.11572  10.47937
 Alpha virt. eigenvalues --   11.15497  11.15497  11.20971  11.20971  11.38647
 Alpha virt. eigenvalues --   16.73562  17.91687  17.91687  18.35037  20.73297
 Alpha virt. eigenvalues --   20.73297  20.78460  20.78460  20.90640  34.65950
 Alpha virt. eigenvalues --   37.33299  37.33299  37.78250  47.80426  47.80426
 Alpha virt. eigenvalues --   47.84634  47.84634  47.94176  64.12071  70.76076
 Alpha virt. eigenvalues --   76.51921  76.51921  76.93790 127.98276 151.69002
 Alpha virt. eigenvalues --  151.69002 152.08811 173.72007 173.72007 173.74387
 Alpha virt. eigenvalues --  173.74387 173.80158 229.43241 302.41698 302.41698
 Alpha virt. eigenvalues --  302.80007 436.47912 625.87192 625.87192 626.23059
 Alpha virt. eigenvalues --  879.394481382.622851382.622851382.947411880.27516
 Alpha virt. eigenvalues -- 3367.386213367.386213367.668704281.334219654.75372
 Alpha virt. eigenvalues -- 9654.753729654.98517********************
     Molecular Orbital Coefficients:
                           1         2         3         4         5
                           O         O         O         O         O
     Eigenvalues --    -2.67477  -1.66206  -1.66045  -1.66045  -0.41752
   1 1   Sc 1S         -0.00001   0.00000   0.00000   0.00000   0.00000
   2        2S          0.00004  -0.00000   0.00000   0.00000  -0.00001
   3        3S         -0.00014   0.00000   0.00000   0.00000   0.00002
   4        4S          0.00046  -0.00000   0.00000   0.00000  -0.00007
   5        5S         -0.00142   0.00001   0.00000   0.00000   0.00022
   6        6S          0.00411  -0.00003   0.00000   0.00000  -0.00063
   7        7S         -0.01206   0.00008   0.00000   0.00000   0.00186
   8        8S          0.03822  -0.00025   0.00000   0.00000  -0.00606
   9        9S          0.02267   0.00057   0.00000   0.00000  -0.00231
  10       10S         -0.48656  -0.00179   0.00000   0.00000   0.07542
  11       11S         -0.07096  -0.01704   0.00000   0.00000   0.00232
  12       12S          0.79166   0.01155   0.00000   0.00000  -0.12850
  13       13S          0.42702   0.02115   0.00000   0.00000  -0.09021
  14       14S          0.01393   0.00613   0.00000   0.00000   0.13836
  15       15S         -0.00759  -0.00539   0.00000   0.00000   0.04774
  16       16S          0.00315   0.00161   0.00000   0.00000   0.01465
  17       17S          0.16940   0.01297   0.00000   0.00000  -0.02231
  18       18S         -0.03354  -0.02261   0.00000   0.00000  -0.05212
  19       19S         -0.00053  -0.00067   0.00000   0.00000  -0.00668
  20       20PX         0.00000   0.00000   0.00000  -0.00000   0.00000
  21       20PY         0.00000   0.00000  -0.00000   0.00000   0.00000
  22       20PZ        -0.00000  -0.00000   0.00000   0.00000  -0.00000
  23       21PX         0.00000   0.00000   0.00000   0.00001   0.00000
  24       21PY         0.00000   0.00000   0.00001   0.00000   0.00000
  25       21PZ         0.00000   0.00001   0.00000   0.00000   0.00000
  26       22PX         0.00000   0.00000   0.00000  -0.00006   0.00000
  27       22PY         0.00000   0.00000  -0.00006   0.00000   0.00000
  28       22PZ        -0.00000  -0.00006   0.00000   0.00000  -0.00001
  29       23PX         0.00000   0.00000   0.00000   0.00024   0.00000
  30       23PY         0.00000   0.00000   0.00024   0.00000   0.00000
  31       23PZ         0.00000   0.00024   0.00000   0.00000   0.00003
  32       24PX         0.00000   0.00000   0.00000  -0.00087   0.00000
  33       24PY         0.00000   0.00000  -0.00087   0.00000   0.00000
  34       24PZ        -0.00000  -0.00089   0.00000   0.00000  -0.00013
  35       25PX         0.00000   0.00000   0.00000   0.00330   0.00000
  36       25PY         0.00000   0.00000   0.00330   0.00000   0.00000
  37       25PZ         0.00001   0.00338   0.00000   0.00000   0.00052
  38       26PX         0.00000   0.00000   0.00000  -0.00082   0.00000
  39       26PY         0.00000   0.00000  -0.00082   0.00000   0.00000
  40       26PZ        -0.00007  -0.00108   0.00000   0.00000   0.00004
  41       27PX         0.00000   0.00000   0.00000  -0.08728   0.00000
  42       27PY         0.00000   0.00000  -0.08728   0.00000   0.00000
  43       27PZ         0.00053  -0.08666   0.00000   0.00000  -0.01727
  44       28PX         0.00000   0.00000   0.00000   0.12244   0.00000
  45       28PY         0.00000   0.00000   0.12244   0.00000   0.00000
  46       28PZ        -0.00670   0.11251   0.00000   0.00000   0.04263
  47       29PX         0.00000   0.00000   0.00000   0.32622   0.00000
  48       29PY         0.00000   0.00000   0.32622   0.00000   0.00000
  49       29PZ        -0.00408   0.32689   0.00000   0.00000   0.06519
  50       30PX         0.00000   0.00000   0.00000   0.47861   0.00000
  51       30PY         0.00000   0.00000   0.47861   0.00000   0.00000
  52       30PZ         0.00499   0.44183   0.00000   0.00000   0.11742
  53       31PX         0.00000   0.00000   0.00000   0.28402   0.00000
  54       31PY         0.00000   0.00000   0.28402   0.00000   0.00000
  55       31PZ         0.00387   0.27872   0.00000   0.00000   0.05296
  56       32PX         0.00000   0.00000   0.00000   0.03783   0.00000
  57       32PY         0.00000   0.00000   0.03783   0.00000   0.00000
  58       32PZ         0.00140   0.02801   0.00000   0.00000  -0.06640
  59       33PX         0.00000   0.00000   0.00000  -0.00353   0.00000
  60       33PY         0.00000   0.00000  -0.00353   0.00000   0.00000
  61       33PZ        -0.00001  -0.00322   0.00000   0.00000  -0.05925
  62       34PX         0.00000   0.00000   0.00000   0.00188   0.00000
  63       34PY         0.00000   0.00000   0.00188   0.00000   0.00000
  64       34PZ        -0.00021   0.00129   0.00000   0.00000  -0.00260
  65       35PX         0.00000   0.00000   0.00000  -0.10263   0.00000
  66       35PY         0.00000   0.00000  -0.10263   0.00000   0.00000
  67       35PZ         0.00724  -0.09228   0.00000   0.00000  -0.03764
  68       36PX         0.00000   0.00000   0.00000  -0.00370   0.00000
  69       36PY         0.00000   0.00000  -0.00370   0.00000   0.00000
  70       36PZ        -0.00400   0.03359   0.00000   0.00000  -0.01590
  71       37PX         0.00000   0.00000   0.00000  -0.00052   0.00000
  72       37PY         0.00000   0.00000  -0.00052   0.00000   0.00000
  73       37PZ        -0.00007  -0.00024   0.00000   0.00000   0.00154
  74       38D 0       -0.00000   0.00000   0.00000   0.00000   0.00007
  75       38D+1        0.00000   0.00000   0.00000  -0.00000   0.00000
  76       38D-1        0.00000   0.00000  -0.00000   0.00000   0.00000
  77       38D+2        0.00000  -0.00000   0.00000   0.00000  -0.00000
  78       38D-2        0.00000   0.00000   0.00000   0.00000   0.00000
  79       39D 0       -0.00005   0.00053   0.00000   0.00000   0.00855
  80       39D+1        0.00000   0.00000   0.00000  -0.00019   0.00000
  81       39D-1        0.00000   0.00000  -0.00019   0.00000   0.00000
  82       39D+2       -0.00000   0.00000   0.00000   0.00000   0.00000
  83       39D-2        0.00000   0.00000   0.00000   0.00000   0.00000
  84       40D 0       -0.00010   0.00243   0.00000   0.00000   0.03802
  85       40D+1        0.00000   0.00000   0.00000  -0.00092   0.00000
  86       40D-1        0.00000   0.00000  -0.00092   0.00000   0.00000
  87       40D+2        0.00000  -0.00000   0.00000   0.00000  -0.00000
  88       40D-2        0.00000   0.00000   0.00000   0.00000   0.00000
  89       41D 0       -0.00136   0.00310   0.00000   0.00000   0.05238
  90       41D+1        0.00000   0.00000   0.00000  -0.00258   0.00000
  91       41D-1        0.00000   0.00000  -0.00258   0.00000   0.00000
  92       41D+2       -0.00000   0.00000   0.00000   0.00000   0.00000
  93       41D-2        0.00000   0.00000   0.00000   0.00000   0.00000
  94       42D 0       -0.03520   0.02327   0.00000   0.00000  -0.15812
  95       42D+1        0.00000   0.00000   0.00000  -0.03324   0.00000
  96       42D-1        0.00000   0.00000  -0.03324   0.00000   0.00000
  97       42D+2       -0.00000   0.00000   0.00000   0.00000   0.00000
  98       42D-2        0.00000   0.00000   0.00000   0.00000   0.00000
  99       43D 0       -0.00181   0.00689   0.00000   0.00000   0.12970
 100       43D+1        0.00000   0.00000   0.00000   0.00249   0.00000
 101       43D-1        0.00000   0.00000   0.00249   0.00000   0.00000
 102       43D+2       -0.00000   0.00000   0.00000   0.00000   0.00000
 103       43D-2        0.00000   0.00000   0.00000   0.00000   0.00000
 104       44D 0       -0.00059  -0.00078   0.00000   0.00000   0.07793
 105       44D+1        0.00000   0.00000   0.00000   0.00216   0.00000
 106       44D-1        0.00000   0.00000   0.00216   0.00000   0.00000
 107       44D+2        0.00000  -0.00000   0.00000   0.00000  -0.00000
 108       44D-2        0.00000   0.00000   0.00000   0.00000   0.00000
 109       45D 0        0.00007  -0.00005   0.00000   0.00000   0.00617
 110       45D+1        0.00000   0.00000   0.00000   0.00033   0.00000
 111       45D-1        0.00000   0.00000   0.00033   0.00000   0.00000
 112       45D+2       -0.00000   0.00000   0.00000   0.00000   0.00000
 113       45D-2        0.00000   0.00000   0.00000   0.00000   0.00000
 114       46D 0        0.00020   0.00090   0.00000   0.00000   0.03102
 115       46D+1        0.00000   0.00000   0.00000  -0.00005   0.00000
 116       46D-1        0.00000   0.00000  -0.00005   0.00000   0.00000
 117       46D+2        0.00000  -0.00000   0.00000   0.00000  -0.00000
 118       46D-2        0.00000   0.00000   0.00000   0.00000   0.00000
 119       47D 0        0.03366  -0.01504   0.00000   0.00000   0.28110
 120       47D+1        0.00000   0.00000   0.00000   0.03288   0.00000
 121       47D-1        0.00000   0.00000   0.03288   0.00000   0.00000
 122       47D+2        0.00000  -0.00000   0.00000   0.00000  -0.00000
 123       47D-2        0.00000   0.00000   0.00000   0.00000   0.00000
 124       48D 0        0.00003  -0.00006   0.00000   0.00000  -0.00026
 125       48D+1        0.00000   0.00000   0.00000  -0.00005   0.00000
 126       48D-1        0.00000   0.00000  -0.00005   0.00000   0.00000
 127       48D+2        0.00000   0.00000   0.00000   0.00000  -0.00000
 128       48D-2        0.00000   0.00000   0.00000   0.00000   0.00000
 129       49F 0        0.00057   0.00003   0.00000   0.00000  -0.00235
 130       49F+1        0.00000   0.00000   0.00000  -0.00223   0.00000
 131       49F-1        0.00000   0.00000  -0.00223   0.00000   0.00000
 132       49F+2       -0.00000  -0.00000   0.00000   0.00000   0.00000
 133       49F-2        0.00000   0.00000   0.00000   0.00000   0.00000
 134       49F+3        0.00000   0.00000   0.00000  -0.00000   0.00000
 135       49F-3        0.00000   0.00000  -0.00000   0.00000   0.00000
 136       50F 0        0.00101   0.00199   0.00000   0.00000  -0.01189
 137       50F+1        0.00000   0.00000   0.00000  -0.00396   0.00000
 138       50F-1        0.00000   0.00000  -0.00396   0.00000   0.00000
 139       50F+2       -0.00000  -0.00000   0.00000   0.00000   0.00000
 140       50F-2        0.00000   0.00000   0.00000   0.00000   0.00000
 141       50F+3        0.00000   0.00000   0.00000  -0.00000   0.00000
 142       50F-3        0.00000   0.00000  -0.00000   0.00000   0.00000
 143       51F 0        0.00007   0.00041   0.00000   0.00000  -0.01753
 144       51F+1        0.00000   0.00000   0.00000  -0.00212   0.00000
 145       51F-1        0.00000   0.00000  -0.00212   0.00000   0.00000
 146       51F+2        0.00000  -0.00000   0.00000   0.00000   0.00000
 147       51F-2        0.00000   0.00000   0.00000   0.00000   0.00000
 148       51F+3        0.00000   0.00000   0.00000   0.00000   0.00000
 149       51F-3        0.00000   0.00000   0.00000   0.00000   0.00000
 150       52F 0       -0.00000   0.00008   0.00000   0.00000  -0.00441
 151       52F+1        0.00000   0.00000   0.00000  -0.00020   0.00000
 152       52F-1        0.00000   0.00000  -0.00020   0.00000   0.00000
 153       52F+2       -0.00000   0.00000   0.00000   0.00000  -0.00000
 154       52F-2        0.00000   0.00000   0.00000   0.00000   0.00000
 155       52F+3        0.00000   0.00000   0.00000  -0.00000   0.00000
 156       52F-3        0.00000   0.00000  -0.00000   0.00000   0.00000
 157       53G 0        0.00030  -0.00021   0.00000   0.00000   0.00045
 158       53G+1        0.00000   0.00000   0.00000   0.00003   0.00000
 159       53G-1        0.00000   0.00000   0.00003   0.00000   0.00000
 160       53G+2       -0.00000  -0.00000   0.00000   0.00000  -0.00000
 161       53G-2        0.00000   0.00000   0.00000   0.00000   0.00000
 162       53G+3        0.00000   0.00000   0.00000  -0.00000   0.00000
 163       53G-3        0.00000   0.00000   0.00000   0.00000   0.00000
 164       53G+4       -0.00000   0.00000   0.00000   0.00000  -0.00000
 165       53G-4        0.00000   0.00000   0.00000   0.00000   0.00000
 166       54G 0        0.00074   0.00042   0.00000   0.00000   0.00237
 167       54G+1        0.00000   0.00000   0.00000   0.00046   0.00000
 168       54G-1        0.00000   0.00000   0.00046   0.00000   0.00000
 169       54G+2       -0.00000   0.00000   0.00000   0.00000  -0.00000
 170       54G-2        0.00000   0.00000   0.00000   0.00000   0.00000
 171       54G+3        0.00000   0.00000   0.00000  -0.00000   0.00000
 172       54G-3        0.00000   0.00000  -0.00000   0.00000   0.00000
 173       54G+4       -0.00000  -0.00000   0.00000   0.00000  -0.00000
 174       54G-4        0.00000   0.00000   0.00000   0.00000   0.00000
 175       55G 0       -0.00007   0.00013   0.00000   0.00000   0.00256
 176       55G+1        0.00000   0.00000   0.00000   0.00024   0.00000
 177       55G-1        0.00000   0.00000   0.00024   0.00000   0.00000
 178       55G+2       -0.00000   0.00000   0.00000   0.00000  -0.00000
 179       55G-2        0.00000   0.00000   0.00000   0.00000   0.00000
 180       55G+3        0.00000   0.00000   0.00000   0.00000   0.00000
 181       55G-3        0.00000   0.00000   0.00000   0.00000   0.00000
 182       55G+4       -0.00000  -0.00000   0.00000   0.00000   0.00000
 183       55G-4        0.00000   0.00000   0.00000   0.00000   0.00000
 184 2   H  1S          0.00006  -0.00029   0.00000   0.00000   0.00350
 185        2S          0.00056  -0.00278   0.00000   0.00000   0.03802
 186        3S          0.00195  -0.01047   0.00000   0.00000   0.14375
 187        4S          0.00472  -0.02385   0.00000   0.00000   0.34971
 188        5S          0.00063  -0.00386   0.00000   0.00000   0.28238
 189        6S         -0.00073   0.00072   0.00000   0.00000   0.02047
 190        7PX         0.00000   0.00000   0.00000   0.00032   0.00000
 191        7PY         0.00000   0.00000   0.00032   0.00000   0.00000
 192        7PZ         0.00063  -0.00230   0.00000   0.00000   0.00519
 193        8PX         0.00000   0.00000   0.00000   0.00081   0.00000
 194        8PY         0.00000   0.00000   0.00081   0.00000   0.00000
 195        8PZ         0.00198  -0.00778   0.00000   0.00000   0.03422
 196        9PX         0.00000   0.00000   0.00000   0.00149   0.00000
 197        9PY         0.00000   0.00000   0.00149   0.00000   0.00000
 198        9PZ        -0.00001  -0.00059   0.00000   0.00000   0.02591
 199       10D 0        0.00049  -0.00126   0.00000   0.00000   0.00295
 200       10D+1        0.00000   0.00000   0.00000   0.00027   0.00000
 201       10D-1        0.00000   0.00000   0.00027   0.00000   0.00000
 202       10D+2        0.00000  -0.00000   0.00000   0.00000  -0.00000
 203       10D-2        0.00000   0.00000   0.00000   0.00000   0.00000
 204       11D 0        0.00019  -0.00116   0.00000   0.00000   0.00487
 205       11D+1        0.00000   0.00000   0.00000   0.00021   0.00000
 206       11D-1        0.00000   0.00000   0.00021   0.00000   0.00000
 207       11D+2       -0.00000  -0.00000   0.00000   0.00000  -0.00000
 208       11D-2        0.00000   0.00000   0.00000   0.00000   0.00000
                           6         7         8         9        10
                           O         V         V         V         V
     Eigenvalues --    -0.22886   0.01190   0.01190   0.01607   0.02183
   1 1   Sc 1S          0.00000   0.00000   0.00000  -0.00000  -0.00000
   2        2S         -0.00001   0.00000   0.00000   0.00000   0.00000
   3        3S          0.00003   0.00000   0.00000  -0.00000  -0.00000
   4        4S         -0.00011   0.00000   0.00000   0.00001   0.00001
   5        5S          0.00034   0.00000   0.00000  -0.00003  -0.00004
   6        6S         -0.00099   0.00000   0.00000   0.00009   0.00010
   7        7S          0.00293   0.00000   0.00000  -0.00017  -0.00018
   8        8S         -0.00957   0.00000   0.00000   0.00038   0.00033
   9        9S         -0.00373   0.00000   0.00000  -0.00518  -0.00780
  10       10S          0.12098   0.00000   0.00000   0.03673   0.05739
  11       11S          0.00757   0.00000   0.00000   0.12952   0.19253
  12       12S         -0.22563   0.00000   0.00000  -0.20593  -0.30462
  13       13S         -0.24191   0.00000   0.00000  -0.21718  -0.27644
  14       14S          0.36249   0.00000   0.00000   0.45156   0.30908
  15       15S          0.46696   0.00000   0.00000  -0.36234  -1.50566
  16       16S          0.18263   0.00000   0.00000   1.44600   0.36949
  17       17S         -0.03903   0.00000   0.00000  -0.10564  -0.15779
  18       18S         -0.02632   0.00000   0.00000   0.27441   0.38067
  19       19S         -0.00746   0.00000   0.00000  -0.87876  -2.70727
  20       20PX         0.00000   0.00000   0.00000   0.00000   0.00000
  21       20PY         0.00000   0.00000   0.00000   0.00000   0.00000
  22       20PZ         0.00000   0.00000   0.00000  -0.00000  -0.00000
  23       21PX         0.00000   0.00000  -0.00000   0.00000   0.00000
  24       21PY         0.00000  -0.00000   0.00000   0.00000   0.00000
  25       21PZ        -0.00000   0.00000   0.00000   0.00000   0.00000
  26       22PX         0.00000   0.00000   0.00002   0.00000   0.00000
  27       22PY         0.00000   0.00002   0.00000   0.00000   0.00000
  28       22PZ         0.00001   0.00000   0.00000  -0.00001  -0.00001
  29       23PX         0.00000   0.00000  -0.00008   0.00000   0.00000
  30       23PY         0.00000  -0.00008   0.00000   0.00000   0.00000
  31       23PZ        -0.00002   0.00000   0.00000   0.00005   0.00005
  32       24PX         0.00000   0.00000   0.00027   0.00000   0.00000
  33       24PY         0.00000   0.00027   0.00000   0.00000   0.00000
  34       24PZ         0.00008   0.00000   0.00000  -0.00016  -0.00015
  35       25PX         0.00000   0.00000  -0.00088   0.00000   0.00000
  36       25PY         0.00000  -0.00088   0.00000   0.00000   0.00000
  37       25PZ        -0.00031   0.00000   0.00000   0.00052   0.00044
  38       26PX         0.00000   0.00000   0.00169   0.00000   0.00000
  39       26PY         0.00000   0.00169   0.00000   0.00000   0.00000
  40       26PZ         0.00029   0.00000   0.00000  -0.00106  -0.00142
  41       27PX         0.00000   0.00000   0.00418   0.00000   0.00000
  42       27PY         0.00000   0.00418   0.00000   0.00000   0.00000
  43       27PZ         0.00614   0.00000   0.00000  -0.00137   0.00618
  44       28PX         0.00000   0.00000   0.08554   0.00000   0.00000
  45       28PY         0.00000   0.08554   0.00000   0.00000   0.00000
  46       28PZ         0.00406   0.00000   0.00000  -0.05651  -0.09622
  47       29PX         0.00000   0.00000  -0.03289   0.00000   0.00000
  48       29PY         0.00000  -0.03289   0.00000   0.00000   0.00000
  49       29PZ        -0.02498   0.00000   0.00000   0.01585  -0.00971
  50       30PX         0.00000   0.00000   0.12638   0.00000   0.00000
  51       30PY         0.00000   0.12638   0.00000   0.00000   0.00000
  52       30PZ        -0.01917   0.00000   0.00000  -0.09040  -0.16756
  53       31PX         0.00000   0.00000  -0.00423   0.00000   0.00000
  54       31PY         0.00000  -0.00423   0.00000   0.00000   0.00000
  55       31PZ        -0.03042   0.00000   0.00000   0.00279  -0.05622
  56       32PX         0.00000   0.00000   0.00795   0.00000   0.00000
  57       32PY         0.00000   0.00795   0.00000   0.00000   0.00000
  58       32PZ         0.08181   0.00000   0.00000  -0.03890   0.15783
  59       33PX         0.00000   0.00000   0.31654   0.00000   0.00000
  60       33PY         0.00000   0.31654   0.00000   0.00000   0.00000
  61       33PZ         0.15948   0.00000   0.00000  -0.38449   0.45284
  62       34PX         0.00000   0.00000  -0.06638   0.00000   0.00000
  63       34PY         0.00000  -0.06638   0.00000   0.00000   0.00000
  64       34PZ         0.06375   0.00000   0.00000   0.05876   0.90144
  65       35PX         0.00000   0.00000  -0.08950   0.00000   0.00000
  66       35PY         0.00000  -0.08950   0.00000   0.00000   0.00000
  67       35PZ        -0.00693   0.00000   0.00000   0.05854   0.09694
  68       36PX         0.00000   0.00000  -0.20278   0.00000   0.00000
  69       36PY         0.00000  -0.20278   0.00000   0.00000   0.00000
  70       36PZ        -0.02769   0.00000   0.00000   0.12971   0.17756
  71       37PX         0.00000   0.00000   0.88446   0.00000   0.00000
  72       37PY         0.00000   0.88446   0.00000   0.00000   0.00000
  73       37PZ        -0.00076   0.00000   0.00000  -1.02297   0.67796
  74       38D 0       -0.00008   0.00000   0.00000  -0.00005   0.00000
  75       38D+1        0.00000   0.00000   0.00001   0.00000   0.00000
  76       38D-1        0.00000   0.00001   0.00000   0.00000   0.00000
  77       38D+2       -0.00000   0.00000   0.00000  -0.00000  -0.00000
  78       38D-2        0.00000   0.00000   0.00000   0.00000   0.00000
  79       39D 0       -0.01026   0.00000   0.00000  -0.00610   0.00028
  80       39D+1        0.00000   0.00000   0.00094   0.00000   0.00000
  81       39D-1        0.00000   0.00094   0.00000   0.00000   0.00000
  82       39D+2        0.00000   0.00000   0.00000   0.00000   0.00000
  83       39D-2        0.00000   0.00000   0.00000   0.00000   0.00000
  84       40D 0       -0.04585   0.00000   0.00000  -0.02738   0.00115
  85       40D+1        0.00000   0.00000   0.00427   0.00000   0.00000
  86       40D-1        0.00000   0.00427   0.00000   0.00000   0.00000
  87       40D+2       -0.00000   0.00000   0.00000  -0.00000  -0.00000
  88       40D-2        0.00000   0.00000   0.00000   0.00000   0.00000
  89       41D 0       -0.06289   0.00000   0.00000  -0.03279   0.00474
  90       41D+1        0.00000   0.00000   0.00388   0.00000   0.00000
  91       41D-1        0.00000   0.00388   0.00000   0.00000   0.00000
  92       41D+2        0.00000   0.00000   0.00000   0.00000   0.00000
  93       41D-2        0.00000   0.00000   0.00000   0.00000   0.00000
  94       42D 0        0.03310   0.00000   0.00000   0.13459  -0.00366
  95       42D+1        0.00000   0.00000  -0.02695   0.00000   0.00000
  96       42D-1        0.00000  -0.02695   0.00000   0.00000   0.00000
  97       42D+2        0.00000   0.00000   0.00000   0.00000   0.00000
  98       42D-2        0.00000   0.00000   0.00000   0.00000   0.00000
  99       43D 0       -0.16763   0.00000   0.00000  -0.08665  -0.00383
 100       43D+1        0.00000   0.00000   0.01466   0.00000   0.00000
 101       43D-1        0.00000   0.01466   0.00000   0.00000   0.00000
 102       43D+2        0.00000   0.00000   0.00000   0.00000   0.00000
 103       43D-2        0.00000   0.00000   0.00000   0.00000   0.00000
 104       44D 0       -0.11755   0.00000   0.00000  -0.03124  -0.13992
 105       44D+1        0.00000   0.00000   0.02902   0.00000   0.00000
 106       44D-1        0.00000   0.02902   0.00000   0.00000   0.00000
 107       44D+2       -0.00000   0.00000   0.00000   0.00000  -0.00000
 108       44D-2        0.00000   0.00000   0.00000   0.00000   0.00000
 109       45D 0       -0.03056   0.00000   0.00000  -0.00861  -0.26148
 110       45D+1        0.00000   0.00000   0.03226   0.00000   0.00000
 111       45D-1        0.00000   0.03226   0.00000   0.00000   0.00000
 112       45D+2       -0.00000   0.00000   0.00000   0.00000   0.00000
 113       45D-2        0.00000   0.00000   0.00000   0.00000   0.00000
 114       46D 0       -0.03651   0.00000   0.00000  -0.02777  -0.00253
 115       46D+1        0.00000   0.00000   0.00582   0.00000   0.00000
 116       46D-1        0.00000   0.00582   0.00000   0.00000   0.00000
 117       46D+2       -0.00000   0.00000   0.00000  -0.00000  -0.00000
 118       46D-2        0.00000   0.00000   0.00000   0.00000   0.00000
 119       47D 0       -0.17572   0.00000   0.00000  -0.22102   0.00988
 120       47D+1        0.00000   0.00000   0.03966   0.00000   0.00000
 121       47D-1        0.00000   0.03966   0.00000   0.00000   0.00000
 122       47D+2       -0.00000   0.00000   0.00000  -0.00000  -0.00000
 123       47D-2        0.00000   0.00000   0.00000   0.00000   0.00000
 124       48D 0       -0.00005   0.00000   0.00000  -0.08900  -0.12596
 125       48D+1        0.00000   0.00000   0.07494   0.00000   0.00000
 126       48D-1        0.00000   0.07494   0.00000   0.00000   0.00000
 127       48D+2        0.00000   0.00000   0.00000   0.00000  -0.00000
 128       48D-2        0.00000   0.00000   0.00000   0.00000   0.00000
 129       49F 0        0.00029   0.00000   0.00000   0.00036  -0.00017
 130       49F+1        0.00000   0.00000  -0.00000   0.00000   0.00000
 131       49F-1        0.00000  -0.00000   0.00000   0.00000   0.00000
 132       49F+2        0.00000   0.00000   0.00000  -0.00000  -0.00000
 133       49F-2        0.00000   0.00000   0.00000   0.00000   0.00000
 134       49F+3        0.00000   0.00000   0.00000   0.00000   0.00000
 135       49F-3        0.00000  -0.00000   0.00000   0.00000   0.00000
 136       50F 0       -0.00136   0.00000   0.00000  -0.00085  -0.00084
 137       50F+1        0.00000   0.00000  -0.00124   0.00000   0.00000
 138       50F-1        0.00000  -0.00124   0.00000   0.00000   0.00000
 139       50F+2        0.00000   0.00000   0.00000  -0.00000   0.00000
 140       50F-2        0.00000   0.00000   0.00000   0.00000   0.00000
 141       50F+3        0.00000   0.00000   0.00000   0.00000   0.00000
 142       50F-3        0.00000   0.00000   0.00000   0.00000   0.00000
 143       51F 0       -0.00185   0.00000   0.00000  -0.01675   0.03855
[...]
 175       55G 0        0.00052   0.00026   0.00026   0.00000
 176       55G+1       -0.00000  -0.00000  -0.00000   0.00000
 177       55G-1       -0.00000  -0.00000  -0.00000   0.00000
 178       55G+2       -0.00000  -0.00000  -0.00000   0.00000
 179       55G-2       -0.00000  -0.00000  -0.00000   0.00000
 180       55G+3        0.00000   0.00000   0.00000   0.00000
 181       55G-3       -0.00000  -0.00000  -0.00000   0.00000
 182       55G+4        0.00000   0.00000   0.00000   0.00000
 183       55G-4        0.00000   0.00000   0.00000   0.00000
 184 2   H  1S          0.00077   0.00038   0.00038   0.00000
 185        2S          0.02669   0.01334   0.01334   0.00000
 186        3S          0.20011   0.10005   0.10005   0.00000
 187        4S          0.64158   0.32079   0.32079   0.00000
 188        5S          0.44480   0.22240   0.22240   0.00000
 189        6S          0.04603   0.02302   0.02302   0.00000
 190        7PX         0.00001   0.00000   0.00000   0.00000
 191        7PY         0.00001   0.00000   0.00000   0.00000
 192        7PZ         0.00119   0.00059   0.00059   0.00000
 193        8PX         0.00012   0.00006   0.00006   0.00000
 194        8PY         0.00012   0.00006   0.00006   0.00000
 195        8PZ         0.01055   0.00528   0.00528   0.00000
 196        9PX         0.00047   0.00024   0.00024   0.00000
 197        9PY         0.00047   0.00024   0.00024   0.00000
 198        9PZ         0.00015   0.00008   0.00008   0.00000
 199       10D 0        0.00047   0.00024   0.00024   0.00000
 200       10D+1        0.00002   0.00001   0.00001   0.00000
 201       10D-1        0.00002   0.00001   0.00001   0.00000
 202       10D+2       -0.00000  -0.00000  -0.00000   0.00000
 203       10D-2       -0.00000  -0.00000  -0.00000   0.00000
 204       11D 0       -0.00058  -0.00029  -0.00029   0.00000
 205       11D+1        0.00011   0.00005   0.00005   0.00000
 206       11D-1        0.00011   0.00005   0.00005   0.00000
 207       11D+2       -0.00000  -0.00000  -0.00000   0.00000
 208       11D-2       -0.00000  -0.00000  -0.00000   0.00000
          Condensed to atoms (all electrons):
               1          2
     1  Sc  10.317661   0.309124
     2  H    0.309124   1.064092
          Atomic-Atomic Spin Densities.
               1          2
     1  Sc   0.000000   0.000000
     2  H    0.000000   0.000000
 Mulliken charges and spin densities:
               1          2
     1  Sc   0.373216   0.000000
     2  H   -0.373216   0.000000
 Sum of Mulliken charges =  -0.00000   0.00000
 Mulliken charges and spin densities with hydrogens summed into heavy atoms:
               1          2
     1  Sc  -0.000000   0.000000
 Electronic spatial extent (au):  <R**2>=             63.4523
 Charge=             -0.0000 electrons
 Dipole moment (field-independent basis, Debye):
    X=              0.0000    Y=              0.0000    Z=              1.2063  Tot=              1.2063
 Quadrupole moment (field-independent basis, Debye-Ang):
   XX=            -23.1538   YY=            -23.1538   ZZ=            -26.0744
   XY=              0.0000   XZ=              0.0000   YZ=              0.0000
 Traceless Quadrupole moment (field-independent basis, Debye-Ang):
   XX=              0.9735   YY=              0.9735   ZZ=             -1.9471
   XY=              0.0000   XZ=              0.0000   YZ=              0.0000
 Octapole moment (field-independent basis, Debye-Ang**2):
  XXX=              0.0000  YYY=              0.0000  ZZZ=              2.3835  XYY=              0.0000
  XXY=              0.0000  XXZ=             -3.5670  XZZ=              0.0000  YZZ=              0.0000
  YYZ=             -3.5670  XYZ=              0.0000
 Hexadecapole moment (field-independent basis, Debye-Ang**3):
 XXXX=            -74.2797 YYYY=            -74.2797 ZZZZ=           -103.7025 XXXY=              0.0000
 XXXZ=              0.0000 YYYX=              0.0000 YYYZ=              0.0000 ZZZX=              0.0000
 ZZZY=              0.0000 XXYY=            -24.7599 XXZZ=            -27.8719 YYZZ=            -27.8719
 XXYZ=              0.0000 YYXZ=              0.0000 ZZXY=              0.0000
 N-N= 3.424087835365D+00 E-N=-1.021017810566D+02  KE= 1.851257185315D+01
 Symmetry A1   KE= 9.944961545008D+00
 Symmetry A2   KE=-1.476317041608D-49
 Symmetry B1   KE= 4.283805154002D+00
 Symmetry B2   KE= 4.283805153657D+00
 Symmetry A1   SP= 0.000000000000D+00
 Symmetry A2   SP= 0.000000000000D+00
 Symmetry B1   SP= 0.000000000000D+00
 Symmetry B2   SP= 0.000000000000D+00
 Orbital energies and kinetic energies (alpha):
                                 1                 2
   1         O                -2.674773          1.312898
   2         O                -1.662060          2.133707
   3         O                -1.660449          2.141903
   4         O                -1.660449          2.141903
   5         O                -0.417520          0.825674
   6         O                -0.228861          0.700202
   7         V                 0.011897          0.071568
   8         V                 0.011897          0.071568
   9         V                 0.016075          0.205949
  10         V                 0.021827          0.031117
  11         V                 0.035395          0.051093
  12         V                 0.038581          0.063440
  13         V                 0.038581          0.063440
  14         V                 0.039209          0.058377
  15         V                 0.039209          0.058377
  16         V                 0.045901          0.140585
  17         V                 0.045901          0.140585
  18         V                 0.048448          0.511470
  19         V                 0.086633          1.249394
  20         V                 0.086633          1.249394
  21         V                 0.093572          1.037426
  22         V                 0.093572          1.037426
  23         V                 0.095204          0.113494
  24         V                 0.111782          0.242911
  25         V                 0.142677          0.580150
  26         V                 0.158436          0.198609
  27         V                 0.158436          0.198609
  28         V                 0.158478          0.350609
  29         V                 0.167191          0.460597
  30         V                 0.167191          0.460597
  31         V                 0.167588          1.079027
  32         V                 0.167588          1.079027
  33         V                 0.170729          0.180233
  34         V                 0.170729          0.180233
  35         V                 0.173022          0.270184
  36         V                 0.173022          0.270184
  37         V                 0.174414          1.069519
  38         V                 0.174414          1.069519
  39         V                 0.215050          0.361897
  40         V                 0.300010          0.916120
  41         V                 0.368431          0.603382
  42         V                 0.382061          0.736568
  43         V                 0.382061          0.736568
  44         V                 0.403562          0.655140
  45         V                 0.465672          1.656502
  46         V                 0.465672          1.656502
  47         V                 0.478884          0.507335
  48         V                 0.478884          0.507335
  49         V                 0.480191          0.670562
  50         V                 0.480191          0.670562
  51         V                 0.486568          0.517409
  52         V                 0.486568          0.517409
  53         V                 0.488430          1.056523
  54         V                 0.488578          0.517522
  55         V                 0.488578          0.517522
  56         V                 0.496116          1.295310
  57         V                 0.496116          1.295310
  58         V                 0.507332          0.652478
  59         V                 0.531984          0.910158
  60         V                 0.531984          0.910158
  61         V                 0.631285          0.790659
  62         V                 0.631285          0.790659
  63         V                 0.634404          0.787432
  64         V                 0.634404          0.787432
  65         V                 0.658856          1.066330
  66         V                 0.734900          1.077091
  67         V                 0.762892          1.013964
  68         V                 0.762892          1.013964
  69         V                 0.991605          1.190249
  70         V                 1.134546          1.217512
  71         V                 1.134546          1.217512
  72         V                 1.141043          1.884252
  73         V                 1.148855          1.208309
  74         V                 1.148855          1.208309
  75         V                 1.262918          3.177037
  76         V                 1.262918          3.177037
  77         V                 1.271378          3.027976
  78         V                 1.271378          3.027976
  79         V                 1.279998          2.091202
  80         V                 1.506824          2.554139
  81         V                 1.529009          1.904526
  82         V                 1.529009          1.904526
  83         V                 1.558485          2.050182
  84         V                 1.576458          2.448655
  85         V                 1.576458          2.448655
  86         V                 1.783076          2.563985
  87         V                 1.949956          2.331143
  88         V                 1.949956          2.331143
  89         V                 1.952800          2.331417
  90         V                 1.952800          2.331417
  91         V                 2.019786          2.396912
  92         V                 2.019786          2.396912
  93         V                 2.140065          3.206588
  94         V                 2.140065          3.206588
  95         V                 2.144673          2.947842
  96         V                 2.144673          2.947842
  97         V                 2.152494          3.204191
  98         V                 2.152494          3.204191
  99         V                 2.265732          2.891453
 100         V                 2.403320          3.101986
 101         V                 2.403320          3.101986
 102         V                 2.577538          3.509352
 103         V                 2.926232          5.911828
 104         V                 2.926232          5.911828
 105         V                 2.942174          3.834835
 106         V                 2.980382          5.832336
 107         V                 2.980382          5.832336
 108         V                 3.058883          5.543439
 109         V                 3.511742          4.575755
 110         V                 3.995486          5.448715
 111         V                 3.995486          5.448715
 112         V                 4.071485          4.279203
 113         V                 4.071485          4.279203
 114         V                 4.245982          5.660969
 115         V                 4.297245          4.774972
 116         V                 4.297245          4.774972
 117         V                 4.523796          5.009395
 118         V                 4.523796          5.009395
 119         V                 4.704120          5.756474
 120         V                 5.023730          5.756933
 121         V                 5.911318         10.304576
 122         V                 5.911318         10.304576
 123         V                 5.976530         10.314093
 124         V                 5.976530         10.314093
 125         V                 6.129818         10.295964
 126         V                 6.635361         10.640614
 127         V                 6.635361         10.640614
 128         V                 6.651959         10.643771
 129         V                 6.651959         10.643771
 130         V                 6.780975         10.683713
 131         V                 6.780975         10.683713
 132         V                 7.479494         11.013592
 133         V                 7.694943         10.176772
 134         V                 7.694943         10.176772
 135         V                 7.701653         10.176871
 136         V                 7.701653         10.176871
 137         V                 7.729827         10.195283
 138         V                 7.729827         10.195283
 139         V                 7.816278         10.281130
 140         V                 7.816278         10.281130
 141         V                 7.898951         10.337746
 142         V                 7.992762          9.256290
 143         V                 8.749798         10.716859
 144         V                 8.749798         10.716859
 145         V                 9.115721         11.027983
 146         V                10.479368         12.800444
 147         V                11.154973         17.323891
 148         V                11.154973         17.323891
 149         V                11.209711         17.357665
 150         V                11.209711         17.357665
 151         V                11.386467         17.263595
 152         V                16.735620         17.404420
 153         V                17.916874         20.066974
 154         V                17.916874         20.066974
 155         V                18.350370         20.426815
 156         V                20.732975         31.207485
 157         V                20.732975         31.207485
 158         V                20.784605         31.238062
 159         V                20.784605         31.238062
 160         V                20.906403         31.316840
 161         V                34.659497         30.202971
 162         V                37.332988         37.131481
 163         V                37.332988         37.131481
 164         V                37.782501         37.507466
 165         V                47.804259         71.644430
 166         V                47.804259         71.644430
 167         V                47.846337         71.666641
 168         V                47.846337         71.666641
 169         V                47.941758         71.731077
 170         V                64.120706         69.876688
 171         V                70.760757         46.080629
 172         V                76.519208         69.455963
 173         V                76.519208         69.455963
 174         V                76.937903         69.847771
 175         V               127.982763         79.889272
 176         V               151.690021        137.111995
 177         V               151.690021        137.111995
 178         V               152.088114        137.513795
 179         V               173.720074        222.304152
 180         V               173.720074        222.304152
 181         V               173.743868        222.320704
 182         V               173.743868        222.320704
 183         V               173.801576        222.370103
 184         V               229.432409        170.296943
 185         V               302.416984        281.057496
 186         V               302.416984        281.057496
 187         V               302.800072        281.442966
 188         V               436.479115        366.129763
 189         V               625.871920        598.877490
 190         V               625.871920        598.877490
 191         V               626.230592        599.236015
 192         V               879.394476        798.998923
 193         V              1382.622853       1351.902063
 194         V              1382.622853       1351.902063
 195         V              1382.947410       1352.225880
 196         V              1880.275159       1792.939668
 197         V              3367.386208       3334.694704
 198         V              3367.386208       3334.694704
 199         V              3367.668701       3334.976711
 200         V              4281.334210       4190.002820
 201         V              9654.753724       9621.194559
 202         V              9654.753724       9621.194559
 203         V              9654.985173       9621.425817
 204         V             10491.180773      10397.819818
 205         V             28839.590644      28745.282857
 Total kinetic energy from orbitals= 1.851257185315D+01
                          Isotropic Fermi Contact Couplings
        Atom                 a.u.       MegaHertz       Gauss      10(-4) cm-1
     1  Sc(45)             0.00000       0.00000       0.00000       0.00000
     2  H(1)               0.00000       0.00000       0.00000       0.00000
 --------------------------------------------------------
       Center         ----  Spin Dipole Couplings  ----
                      3XX-RR        3YY-RR        3ZZ-RR
 --------------------------------------------------------
     1   Atom        0.000000      0.000000      0.000000
     2   Atom        0.000000      0.000000      0.000000
 --------------------------------------------------------
                        XY            XZ            YZ
 --------------------------------------------------------
     1   Atom        0.000000      0.000000      0.000000
     2   Atom        0.000000      0.000000      0.000000
 --------------------------------------------------------


 ---------------------------------------------------------------------------------
              Anisotropic Spin Dipole Couplings in Principal Axis System
 ---------------------------------------------------------------------------------

       Atom             a.u.   MegaHertz   Gauss  10(-4) cm-1        Axes

              Baa     0.0000     0.000     0.000     0.000  1.0000  0.0000  0.0000
     1 Sc(45) Bbb     0.0000     0.000     0.000     0.000 -0.0000  1.0000  0.0000
              Bcc     0.0000     0.000     0.000     0.000  0.0000  0.0000  1.0000
 
              Baa     0.0000     0.000     0.000     0.000  1.0000  0.0000  0.0000
     2 H(1)   Bbb     0.0000     0.000     0.000     0.000 -0.0000  1.0000  0.0000
              Bcc     0.0000     0.000     0.000     0.000  0.0000  0.0000  1.0000
 

 ---------------------------------------------------------------------------------

 No NMR shielding tensors so no spin-rotation constants.
 Leave Link  601 at Thu Apr 19 07:44:04 2018, MaxMem= 10737418240 cpu:              56.2 elap:               2.9
 (Enter /home1/apps/gaussian/16rA.03/g16/l9999.exe)

 Test job not archived.
 1\1\GINC-C411-113\SP\ROCCSD(T)-Full\Gen\H1Sc1\AANNABE\19-Apr-2018\0\\#
 P ROCCSD(T)=(maxcyc=150, Full, SaveAmplitudes, ReadAmplitudes)/Gen 5d 
 7f SCF=(maxcycles=300, VShift=400) Integral(NoXCTest) MaxDisk=500GB Po
 p=Full Pseudo=Read Guess=Read IOp(5/15=2)\\ScH\\0,1\Sc,0,0.,0.,0.\H,0,
 0.,0.,1.7\\Version=ES64L-G16RevA.03\State=1-SG\HF=-46.6746303\MP2=-47.
 0827341\MP3=-47.1080766\PUHF=-46.6746303\PMP2-0=-47.0827341\MP4SDQ=-47
 .1094907\CCSD=-47.1091522\CCSD(T)=-47.1273305\RMSD=7.180e-09\PG=C*V [C
 *(H1Sc1)]\\@


 THERE IS AN OLD, OLD RECIPE IN MAINE FOR STEWING COOT. PLACE THE
 BIRD IN A KETTLE OF WATER WITH A RED BUILDING BRICK FREE OF MORTAR AND
 BLEMISHES. PARBOIL THE COOT AND BRICK TOGETHER FOR THREE HOURS.
 POUR OFF THE WATER, REFILL THE KETTLE, AND AGAIN PARBOIL FOR THREE HOURS.
 ONCE AGAIN POUR OFF THE WATER, FOR THE LAST TIME ADD FRESH WATER,
 AND LET THE COOT AND BRICK SIMMER TOGETHER OVERNIGHT. IN THE MORNING,
 THROW AWAY THE COOT AND EAT THE BRICK.
 Job cpu time:       0 days  2 hours 38 minutes 52.5 seconds.
 Elapsed time:       0 days  0 hours  7 minutes 59.3 seconds.
 File lengths (MBytes):  RWF=   1748 Int=      0 D2E=      0 Chk=     10 Scr=      1
 Normal termination of Gaussian 16 at Thu Apr 19 07:44:05 2018.
