 Entering Gaussian System, Link 0=g16
 Initial command:
 /home1/apps/gaussian/16rA.03/g16/l1.exe "/tmp/Gau-198612.inp" -scrdir="/tmp/"
 Entering Link 1 = /home1/apps/gaussian/16rA.03/g16/l1.exe PID=    198613.
  
 Copyright (c) 1988,1990,1992,1993,1995,1998,2003,2009,2016,
            Gaussian, Inc.  All Rights Reserved.
  
 This is part of the Gaussian(R) 16 program.  It is based on
 the Gaussian(R) 09 system (copyright 2009, Gaussian, Inc.),
 the Gaussian(R) 03 system (copyright 2003, Gaussian, Inc.),
 the Gaussian(R) 98 system (copyright 1998, Gaussian, Inc.),
 the Gaussian(R) 94 system (copyright 1995, Gaussian, Inc.),
 the Gaussian 92(TM) system (copyright 1992, Gaussian, Inc.),
 the Gaussian 90(TM) system (copyright 1990, Gaussian, Inc.),
 the Gaussian 88(TM) system (copyright 1988, Gaussian, Inc.),
 the Gaussian 86(TM) system (copyright 1986, Carnegie Mellon
 University), and the Gaussian 82(TM) system (copyright 1983,
 Carnegie Mellon University). Gaussian is a federally registered
 trademark of Gaussian, Inc.
  
 This software contains proprietary and confidential information,
 including trade secrets, belonging to Gaussian, Inc.
  
 This software is provided under written license and may be
 used, copied, transmitted, or stored only in accord with that
 written license.
  
 The following legend is applicable only to US Government
 contracts under FAR:
  
                    RESTRICTED RIGHTS LEGEND
  
 Use, reproduction and disclosure by the US Government is
 subject to restrictions as set forth in subparagraphs (a)
 and (c) of the Commercial Computer Software - Restricted
 Rights clause in FAR 52.227-19.
  
 Gaussian, Inc.
 340 Quinnipiac St., Bldg. 40, Wallingford CT 06492
  
  
 ---------------------------------------------------------------
 Warning -- This program may not be used in any manner that
 competes with the business of Gaussian, Inc. or will provide
 assistance to any competitor of Gaussian, Inc.  The licensee
 of this program is prohibited from giving any competitor of
 Gaussian, Inc. access to this program.  By using this program,
 the user acknowledges that Gaussian, Inc. is engaged in the
 business of creating and licensing software in the field of
 computational chemistry and represents and warrants to the
 licensee that it is not a competitor of Gaussian, Inc. and that
 it will not use this program in any manner prohibited above.
 ---------------------------------------------------------------
  

 Cite this work as:
 Gaussian 16, Revision A.03,
 M. J. Frisch, G. W. Trucks, H. B. Schlegel, G. E. Scuseria, 
 M. A. Robb, J. R. Cheeseman, G. Scalmani, V. Barone, 
 G. A. Petersson, H. Nakatsuji, X. Li, M. Caricato, A. V. Marenich, 
 J. Bloino, B. G. Janesko, R. Gomperts, B. Mennucci, H. P. Hratchian, 
 J. V. Ortiz, A. F. Izmaylov, J. L. Sonnenberg, D. Williams-Young, 
 F. Ding, F. Lipparini, F. Egidi, J. Goings, B. Peng, A. Petrone, 
 T. Henderson, D. Ranasinghe, V. G. Zakrzewski, J. Gao, N. Rega, 
 G. Zheng, W. Liang, M. Hada, M. Ehara, K. Toyota, R. Fukuda, 
 J. Hasegawa, M. Ishida, T. Nakajima, Y. Honda, O. Kitao, H. Nakai, 
 T. Vreven, K. Throssell, J. A. Montgomery, Jr., J. E. Peralta, 
 F. Ogliaro, M. J. Bearpark, J. J. Heyd, E. N. Brothers, K. N. Kudin, 
 V. N. Staroverov, T. A. Keith, R. Kobayashi, J. Normand, 
 K. Raghavachari, A. P. Rendell, J. C. Burant, S. S. Iyengar, 
 J. Tomasi, M. Cossi, J. M. Millam, M. Klene, C. Adamo, R. Cammi, 
 J. W. Ochterski, R. L. Martin, K. Morokuma, O. Farkas, 
 J. B. Foresman, and D. J. Fox, Gaussian, Inc., Wallingford CT, 2016.
 
 ******************************************
 Gaussian 16:  ES64L-G16RevA.03 25-Dec-2016
                21-Apr-2018 
 ******************************************
 %mem=80GB
 %cpu=0-31
 SetSPE:  set environment variable "MP_BIND" = "yes"
 SetSPE:  set environment variable "MP_BLIST" = "0,1,2,3,4,5,6,7,8,9,10,11,12,13,14,15,16,17,18,19,20,21,22,23,24,25,26,27,28,29,30,31"
 Will use up to   32 processors via shared memory.
 %chk=qz.chk
 %rwf=/scratch/04843/gwang18/znh/
 ----------------------------------------------------------------------
 #P ROCCSD(T)=(MaxCyc=150, Full)/Gen SCF=(maxcycle=400, vshift=200) Pse
 udo=Read Integral(NoXCTest) Pop=Regular MaxDisk=500GB Guess=Read IOp(5
 /15=2)
 ----------------------------------------------------------------------
 1/38=1,172=1/1;
 2/12=2,17=6,18=5,40=1/2;
 3/5=7,11=2,16=1,17=8,25=1,30=1,47=8,116=101/1,2,3;
 4/5=1/1;
 5/5=2,7=400,10=200,15=2,38=6/2;
 8/5=-1,6=4,9=120000,10=90/1,4;
 9/5=7,6=150,14=2/13;
 6//1;
 99/5=1,9=1/99;
 Leave Link    1 at Sat Apr 21 11:00:10 2018, MaxMem= 10737418240 cpu:               6.7 elap:               0.2
 (Enter /home1/apps/gaussian/16rA.03/g16/l101.exe)
 ---
 ZnH
 ---
 Symbolic Z-matrix:
 Charge =  0 Multiplicity = 2
 Zn                    0.        0.        0. 
 H                     0.        0.        1.7 
 
 ITRead=  0  0
 MicOpt= -1 -1
 NAtoms=      2 NQM=        2 NQMF=       0 NMMI=      0 NMMIF=      0
                NMic=       0 NMicF=      0.
                    Isotopes and Nuclear Properties:
 (Nuclear quadrupole moments (NQMom) in fm**2, nuclear magnetic moments (NMagM)
  in nuclear magnetons)

  Atom         1           2
 IAtWgt=          64           1
 AtmWgt=  63.9291454   1.0078250
 NucSpn=           0           1
 AtZEff=  -0.0000000  -0.0000000
 NQMom=    0.0000000   0.0000000
 NMagM=    0.0000000   2.7928460
 AtZNuc=  30.0000000   1.0000000
 Leave Link  101 at Sat Apr 21 11:00:11 2018, MaxMem= 10737418240 cpu:               3.0 elap:               0.1
 (Enter /home1/apps/gaussian/16rA.03/g16/l202.exe)
                          Input orientation:                          
 ---------------------------------------------------------------------
 Center     Atomic      Atomic             Coordinates (Angstroms)
 Number     Number       Type             X           Y           Z
 ---------------------------------------------------------------------
      1         30           0        0.000000    0.000000    0.000000
      2          1           0        0.000000    0.000000    1.700000
 ---------------------------------------------------------------------
 Stoichiometry    HZn(2)
 Framework group  C*V[C*(HZn)]
 Deg. of freedom     1
 Full point group                 C*V     NOp   4
 Largest Abelian subgroup         C2V     NOp   4
 Largest concise Abelian subgroup C1      NOp   1
                         Standard orientation:                         
 ---------------------------------------------------------------------
 Center     Atomic      Atomic             Coordinates (Angstroms)
 Number     Number       Type             X           Y           Z
 ---------------------------------------------------------------------
      1         30           0        0.000000    0.000000    0.054839
      2          1           0        0.000000    0.000000   -1.645161
 ---------------------------------------------------------------------
 Rotational constants (GHZ):           0.0000000         176.2492746         176.2492746
 Leave Link  202 at Sat Apr 21 11:00:11 2018, MaxMem= 10737418240 cpu:               0.7 elap:               0.1
 (Enter /home1/apps/gaussian/16rA.03/g16/l301.exe)
 General basis read from cards:  (5D, 7F)
 Centers:       1
 S 1 1.00
     Exponent=  1.7852930000D+07 Coefficients=  1.0000000000D+00
 S 1 1.00
     Exponent=  2.6730380000D+06 Coefficients=  1.0000000000D+00
 S 1 1.00
     Exponent=  6.0832440000D+05 Coefficients=  1.0000000000D+00
 S 1 1.00
     Exponent=  1.7231760000D+05 Coefficients=  1.0000000000D+00
 S 1 1.00
     Exponent=  5.6222690000D+04 Coefficients=  1.0000000000D+00
 S 1 1.00
     Exponent=  2.0299850000D+04 Coefficients=  1.0000000000D+00
 S 1 1.00
     Exponent=  7.9188710000D+03 Coefficients=  1.0000000000D+00
 S 1 1.00
     Exponent=  3.2853400000D+03 Coefficients=  1.0000000000D+00
 S 1 1.00
     Exponent=  1.4335240000D+03 Coefficients=  1.0000000000D+00
 S 1 1.00
     Exponent=  6.5228890000D+02 Coefficients=  1.0000000000D+00
 S 1 1.00
     Exponent=  3.0743600000D+02 Coefficients=  1.0000000000D+00
 S 1 1.00
     Exponent=  1.4914660000D+02 Coefficients=  1.0000000000D+00
 S 1 1.00
     Exponent=  7.3451080000D+01 Coefficients=  1.0000000000D+00
 S 1 1.00
     Exponent=  3.3925620000D+01 Coefficients=  1.0000000000D+00
 S 1 1.00
     Exponent=  1.7189470000D+01 Coefficients=  1.0000000000D+00
 S 1 1.00
     Exponent=  8.6665950000D+00 Coefficients=  1.0000000000D+00
 S 1 1.00
     Exponent=  3.9725050000D+00 Coefficients=  1.0000000000D+00
 S 1 1.00
     Exponent=  1.8946650000D+00 Coefficients=  1.0000000000D+00
 S 1 1.00
     Exponent=  8.5938500000D-01 Coefficients=  1.0000000000D+00
 S 1 1.00
     Exponent=  1.9525600000D-01 Coefficients=  1.0000000000D+00
 S 1 1.00
     Exponent=  8.5854000000D-02 Coefficients=  1.0000000000D+00
 S 1 1.00
     Exponent=  3.6781000000D-02 Coefficients=  1.0000000000D+00
 S 1 1.00
     Exponent=  8.3276000000D+00 Coefficients=  1.0000000000D+00
 S 1 1.00
     Exponent=  3.4194000000D+00 Coefficients=  1.0000000000D+00
 S 1 1.00
     Exponent=  1.5760000000D-02 Coefficients=  1.0000000000D+00
 P 1 1.00
     Exponent=  5.2867930000D+04 Coefficients=  1.0000000000D+00
 P 1 1.00
     Exponent=  1.2511790000D+04 Coefficients=  1.0000000000D+00
 P 1 1.00
     Exponent=  4.0652860000D+03 Coefficients=  1.0000000000D+00
 P 1 1.00
     Exponent=  1.5575950000D+03 Coefficients=  1.0000000000D+00
 P 1 1.00
     Exponent=  6.6328920000D+02 Coefficients=  1.0000000000D+00
 P 1 1.00
     Exponent=  3.0415610000D+02 Coefficients=  1.0000000000D+00
 P 1 1.00
     Exponent=  1.4736800000D+02 Coefficients=  1.0000000000D+00
 P 1 1.00
     Exponent=  7.4454690000D+01 Coefficients=  1.0000000000D+00
 P 1 1.00
     Exponent=  3.8714930000D+01 Coefficients=  1.0000000000D+00
 P 1 1.00
     Exponent=  2.0570220000D+01 Coefficients=  1.0000000000D+00
 P 1 1.00
     Exponent=  1.1054250000D+01 Coefficients=  1.0000000000D+00
 P 1 1.00
     Exponent=  5.8746610000D+00 Coefficients=  1.0000000000D+00
 P 1 1.00
     Exponent=  3.0529360000D+00 Coefficients=  1.0000000000D+00
 P 1 1.00
     Exponent=  1.5472250000D+00 Coefficients=  1.0000000000D+00
 P 1 1.00
     Exponent=  7.5415100000D-01 Coefficients=  1.0000000000D+00
 P 1 1.00
     Exponent=  2.6534900000D-01 Coefficients=  1.0000000000D+00
 P 1 1.00
     Exponent=  1.0206700000D-01 Coefficients=  1.0000000000D+00
 P 1 1.00
     Exponent=  3.8755000000D-02 Coefficients=  1.0000000000D+00
 P 1 1.00
     Exponent=  1.2535700000D+01 Coefficients=  1.0000000000D+00
 P 1 1.00
     Exponent=  3.4227000000D+00 Coefficients=  1.0000000000D+00
 P 1 1.00
     Exponent=  1.4720000000D-02 Coefficients=  1.0000000000D+00
 D 1 1.00
     Exponent=  6.3978060000D+02 Coefficients=  1.0000000000D+00
 D 1 1.00
     Exponent=  1.9267420000D+02 Coefficients=  1.0000000000D+00
 D 1 1.00
     Exponent=  7.4843680000D+01 Coefficients=  1.0000000000D+00
 D 1 1.00
     Exponent=  3.2860480000D+01 Coefficients=  1.0000000000D+00
 D 1 1.00
     Exponent=  1.5393530000D+01 Coefficients=  1.0000000000D+00
 D 1 1.00
     Exponent=  7.5255120000D+00 Coefficients=  1.0000000000D+00
 D 1 1.00
     Exponent=  3.7154290000D+00 Coefficients=  1.0000000000D+00
 D 1 1.00
     Exponent=  1.8064590000D+00 Coefficients=  1.0000000000D+00
 D 1 1.00
     Exponent=  8.5297300000D-01 Coefficients=  1.0000000000D+00
 D 1 1.00
     Exponent=  3.8478000000D-01 Coefficients=  1.0000000000D+00
 D 1 1.00
     Exponent=  1.5933700000D-01 Coefficients=  1.0000000000D+00
 D 1 1.00
     Exponent=  9.2094000000D+00 Coefficients=  1.0000000000D+00
 D 1 1.00
     Exponent=  5.2262000000D+00 Coefficients=  1.0000000000D+00
 D 1 1.00
     Exponent=  6.5980000000D-02 Coefficients=  1.0000000000D+00
 F 1 1.00
     Exponent=  1.3235500000D+01 Coefficients=  1.0000000000D+00
 F 1 1.00
     Exponent=  5.6706000000D+00 Coefficients=  1.0000000000D+00
 F 1 1.00
     Exponent=  2.4295000000D+00 Coefficients=  1.0000000000D+00
 F 1 1.00
     Exponent=  8.5300000000D-01 Coefficients=  1.0000000000D+00
 F 1 1.00
     Exponent=  2.9949000000D-01 Coefficients=  1.0000000000D+00
 G 1 1.00
     Exponent=  1.0790200000D+01 Coefficients=  1.0000000000D+00
 G 1 1.00
     Exponent=  4.9368000000D+00 Coefficients=  1.0000000000D+00
 G 1 1.00
     Exponent=  2.0693000000D+00 Coefficients=  1.0000000000D+00
 G 1 1.00
     Exponent=  8.6736000000D-01 Coefficients=  1.0000000000D+00
 H 1 1.00
     Exponent=  9.6086000000D+00 Coefficients=  1.0000000000D+00
 H 1 1.00
     Exponent=  4.4136000000D+00 Coefficients=  1.0000000000D+00
 H 1 1.00
     Exponent=  2.0273400000D+00 Coefficients=  1.0000000000D+00
 ****
 Centers:       2
 S 1 1.00
     Exponent=  8.2640000000D+01 Coefficients=  1.0000000000D+00
 S 1 1.00
     Exponent=  1.2410000000D+01 Coefficients=  1.0000000000D+00
 S 1 1.00
     Exponent=  2.8240000000D+00 Coefficients=  1.0000000000D+00
 S 1 1.00
     Exponent=  7.9770000000D-01 Coefficients=  1.0000000000D+00
 S 1 1.00
     Exponent=  2.5810000000D-01 Coefficients=  1.0000000000D+00
 S 1 1.00
     Exponent=  8.9890000000D-02 Coefficients=  1.0000000000D+00
 S 1 1.00
     Exponent=  2.3630000000D-02 Coefficients=  1.0000000000D+00
 P 1 1.00
     Exponent=  2.2920000000D+00 Coefficients=  1.0000000000D+00
 P 1 1.00
     Exponent=  8.3800000000D-01 Coefficients=  1.0000000000D+00
 P 1 1.00
     Exponent=  2.9200000000D-01 Coefficients=  1.0000000000D+00
 P 1 1.00
     Exponent=  8.4800000000D-02 Coefficients=  1.0000000000D+00
 D 1 1.00
     Exponent=  2.0620000000D+00 Coefficients=  1.0000000000D+00
 D 1 1.00
     Exponent=  6.6200000000D-01 Coefficients=  1.0000000000D+00
 D 1 1.00
     Exponent=  1.9000000000D-01 Coefficients=  1.0000000000D+00
 F 1 1.00
     Exponent=  1.3970000000D+00 Coefficients=  1.0000000000D+00
 F 1 1.00
     Exponent=  3.6000000000D-01 Coefficients=  1.0000000000D+00
 ****
 ======================================================================================================
                                       Pseudopotential Parameters
 ======================================================================================================
  Center     Atomic      Valence      Angular      Power
  Number     Number     Electrons     Momentum     of R      Exponent        Coefficient   SO-Coeffient
 ======================================================================================================
    1         30           20
                                      D and up 
                                                     1       35.8079762       20.00000000    0.00000000
                                                     3       34.5364608      716.15952324    0.00000000
                                                     2       28.6283018     -204.68393324    0.00000000
                                                     2        7.9623968        0.76026614    0.00000000
                                      S - D
                                                     2       14.6349869       95.87640437    0.00000000
                                                     2       35.0214136      431.70804303    0.00000000
                                      P - D
                                                     2       14.5742930       74.01270049    0.00000000
                                                     2       42.2297923      313.57770564    0.00000000
    2          1            1
                                      P and up 
                                                     2       21.7769666      -10.85192405    0.00000000
                                                     1       21.2435951        1.00000000    0.00000000
                                                     3       21.2435951       21.24359508    0.00000000
                                      S - P
                                                     2        1.0000000        0.00000000    0.00000000
 ======================================================================================================
 Ernie: Thresh=  0.10000D-02 Tol=  0.10000D-05 Strict=F.
 There are   171 symmetry adapted cartesian basis functions of A1  symmetry.
 There are    45 symmetry adapted cartesian basis functions of A2  symmetry.
 There are    93 symmetry adapted cartesian basis functions of B1  symmetry.
 There are    93 symmetry adapted cartesian basis functions of B2  symmetry.
 There are   126 symmetry adapted basis functions of A1  symmetry.
 There are    38 symmetry adapted basis functions of A2  symmetry.
 There are    73 symmetry adapted basis functions of B1  symmetry.
 There are    73 symmetry adapted basis functions of B2  symmetry.
   310 basis functions,   402 primitive gaussians,   402 cartesian basis functions
    11 alpha electrons       10 beta electrons
       nuclear repulsion energy         6.2256142461 Hartrees.
 IExCor=    0 DFT=F Ex=HF Corr=None ExCW=0 ScaHFX=  1.000000
 ScaDFX=  1.000000  1.000000  1.000000  1.000000 ScalE2=  1.000000  1.000000
 IRadAn=      5 IRanWt=     -1 IRanGd=            0 ICorTp=0 IEmpDi=  4
 NAtoms=    2 NActive=    2 NUniq=    2 SFac= 1.00D+00 NAtFMM=   60 NAOKFM=F Big=F
 Integral buffers will be    131072 words long.
 Raffenetti 2 integral format.
 Two-electron integral symmetry is turned on.
 Leave Link  301 at Sat Apr 21 11:00:11 2018, MaxMem= 10737418240 cpu:               8.5 elap:               0.3
 (Enter /home1/apps/gaussian/16rA.03/g16/l302.exe)
 NPDir=0 NMtPBC=     1 NCelOv=     1 NCel=       1 NClECP=     1 NCelD=      1
         NCelK=      1 NCelE2=     1 NClLst=     1 CellRange=     0.0.
 One-electron integrals computed using PRISM.
 One-electron integral symmetry used in STVInt
   4 Symmetry operations used in ECPInt.
 ECPInt:  NShTT=    3916 NPrTT=    3916 LenC2=    3850 LenP2D=    3849.
 LDataN:  DoStor=T MaxTD1=10 Len=  848
 NBasis=   310 RedAO= T EigKep=  6.49D-06  NBF=   126    38    73    73
 NBsUse=   306 1.00D-06 EigRej=  9.75D-07 NBFU=   124    38    72    72
 Leave Link  302 at Sat Apr 21 11:00:13 2018, MaxMem= 10737418240 cpu:              75.1 elap:               2.4
 (Enter /home1/apps/gaussian/16rA.03/g16/l303.exe)
 DipDrv:  MaxL=1.
 Leave Link  303 at Sat Apr 21 11:00:14 2018, MaxMem= 10737418240 cpu:               2.9 elap:               0.2
 (Enter /home1/apps/gaussian/16rA.03/g16/l401.exe)
 Initial guess from the checkpoint file:  "qz.chk"
 B after Tr=     0.000000    0.000000    0.000000
         Rot=    1.000000    0.000000    0.000000    0.000000 Ang=   0.00 deg.
 Guess basis will be translated and rotated to current coordinates.
 JPrj=2 DoOrth=T DoCkMO=T.
 Initial guess orbital symmetries:
       Occupied  (SG) (PI) (PI) (SG) (DLTA) (DLTA) (PI) (PI) (SG)
                 (SG) (SG)
       Virtual   (PI) (PI) (SG) (SG) (PI) (PI) (SG) (SG) (SG) (PI)
                 (PI) (DLTA) (DLTA) (SG) (PI) (PI) (SG) (PI) (PI)
                 (SG) (SG) (SG) (DLTA) (DLTA) (PI) (PI) (DLTA)
                 (DLTA) (SG) (PI) (PI) (PI) (PI) (SG) (PI) (PI)
                 (SG) (SG) (PHI) (PHI) (DLTA) (DLTA) (PI) (PI)
                 (SG) (SG) (DLTA) (DLTA) (SG) (PI) (PI) (SG) (PI)
                 (PI) (SG) (DLTA) (DLTA) (PI) (PI) (PI) (PI) (SG)
                 (SG) (PHI) (PHI) (DLTA) (DLTA) (PI) (PI) (SG)
                 (DLTA) (DLTA) (PI) (PI) (SG) (?A) (?A) (PHI) (PHI)
                 (DLTA) (DLTA) (PI) (PI) (SG) (SG) (PI) (PI) (SG)
                 (SG) (PHI) (PHI) (DLTA) (DLTA) (PI) (PI) (SG)
                 (DLTA) (DLTA) (PI) (PI) (SG) (PI) (PI) (SG) (SG)
                 (?A) (?A) (PHI) (PHI) (DLTA) (DLTA) (PI) (PI)
                 (SG) (DLTA) (DLTA) (PI) (PI) (SG) (PHI) (PHI)
                 (DLTA) (DLTA) (PI) (PI) (SG) (PI) (PI) (SG) (SG)
                 (?A) (?A) (PHI) (PHI) (DLTA) (DLTA) (PI) (PI)
                 (SG) (DLTA) (DLTA) (PI) (PI) (SG) (SG) (PI) (PI)
                 (SG) (SG) (DLTA) (DLTA) (PI) (PI) (SG) (PI) (PI)
                 (SG) (SG) (PI) (PI) (SG) (DLTA) (DLTA) (PI) (PI)
                 (SG) (SG) (PI) (PI) (SG) (SG) (DLTA) (DLTA) (PI)
                 (PI) (SG) (PI) (PI) (SG) (SG) (PI) (PI) (SG) (SG)
                 (PI) (PI) (SG) (SG) (PI) (PI) (SG) (SG) (PI) (PI)
                 (SG) (SG) (SG) (PI) (PI) (SG) (SG) (SG) (SG) (SG)
                 (SG) (DLTA) (SG) (SG) (SG) (DLTA) (SG) (SG) (DLTA)
                 (SG) (DLTA) (?A) (SG) (SG) (SG) (DLTA) (?A) (SG)
                 (DLTA) (SG) (DLTA) (DLTA) (SG) (DLTA) (SG) (?A)
                 (DLTA) (SG) (DLTA) (?A) (DLTA) (DLTA) (DLTA) (DLTA)
                 (?A) (DLTA) (?A) (DLTA) (DLTA) (DLTA) (DLTA) (?A)
                 (DLTA) (DLTA) (?A) (PI) (PI) (PI) (PI) (PHI) (PI)
                 (PI) (PHI) (PI) (PI) (PHI) (?B) (PI) (PI) (PHI)
                 (PHI) (PI) (PI) (PHI) (?B) (PI) (?B) (PHI) (PI)
                 (PI) (PI) (PI) (PHI) (PI) (PI) (PHI) (PI) (PI)
                 (PHI) (?B) (PI) (PI) (PHI) (PHI) (PI) (PI) (PHI)
                 (?B) (PI) (?B) (PHI)
 The electronic state of the initial guess is 2-SG.
 Leave Link  401 at Sat Apr 21 11:00:14 2018, MaxMem= 10737418240 cpu:              19.1 elap:               0.7
 (Enter /home1/apps/gaussian/16rA.03/g16/l502.exe)
 Keep R1 and R2 ints in memory in symmetry-blocked form, NReq=1456552531.
 FoFCou: FMM=F IPFlag=           8 FMFlag=           0 FMFlg1=           0
         NFxFlg=           0 DoJE=F BraDBF=F KetDBF=F FulRan=T
         wScrn=  0.000000 ICntrl=       600 IOpCl=  0 I1Cent=           0 NGrid=           0
         NMat0=    1 NMatS0=  48205 NMatT0=    0 NMatD0=    1 NMtDS0=    0 NMtDT0=    0
 Petite list used in FoFCou.
 Restricted open shell SCF:
 Using DIIS extrapolation, IDIIS=  1040.
 NGot= 10737418240 LenX= 10147857266 LenY= 10147695221
 Requested convergence on RMS density matrix=1.00D-08 within 400 cycles.
 Requested convergence on MAX density matrix=1.00D-06.
 Requested convergence on             energy=1.00D-06.
 Virtual orbitals will be shifted by   0.200 hartree.
 No special actions if energy rises.

 Cycle   1  Pass 1  IDiag  1:
 E= -225.800261110071    
 DIIS: error= 3.70D-01 at cycle   1 NSaved=   1.
 NSaved= 1 IEnMin= 1 EnMin= -225.800261110071     IErMin= 1 ErrMin= 3.70D-01
 ErrMax= 3.70D-01  0.00D+00 EMaxC= 1.00D-01 BMatC= 2.05D+01 BMatP= 2.05D+01
 IDIUse=3 WtCom= 0.00D+00 WtEn= 1.00D+00
 Coeff-Com:  0.100D+01
 Coeff-En:   0.100D+01
 Coeff:      0.100D+01
 Gap=     0.104 Goal=   None    Shift=    0.200
 GapD=    0.104 DampG=1.000 DampE=0.125 DampFc=0.1250 IDamp=-1.
 Damping current iteration by 1.25D-01
 RMSDP=6.46D-04 MaxDP=4.39D-02              OVMax= 1.62D-03

 Cycle   2  Pass 1  IDiag  1:
 E= -225.800314185232     Delta-E=       -0.000053075161 Rises=F Damp=T
 DIIS: error= 3.23D-01 at cycle   2 NSaved=   2.
 NSaved= 2 IEnMin= 2 EnMin= -225.800314185232     IErMin= 2 ErrMin= 3.23D-01
 ErrMax= 3.23D-01  0.00D+00 EMaxC= 1.00D-01 BMatC= 1.57D+01 BMatP= 2.05D+01
 IDIUse=3 WtCom= 0.00D+00 WtEn= 1.00D+00
 Coeff-Com: -0.700D+01 0.800D+01
 Coeff-En:   0.000D+00 0.100D+01
 Coeff:      0.000D+00 0.100D+01
 Gap=     0.102 Goal=   None    Shift=    0.200
 RMSDP=5.69D-04 MaxDP=3.85D-02 DE=-5.31D-05 OVMax= 1.91D-04

 Cycle   3  Pass 1  IDiag  1:
 E= -225.800694622666     Delta-E=       -0.000380437434 Rises=F Damp=F
 DIIS: error= 1.04D-04 at cycle   3 NSaved=   3.
 NSaved= 3 IEnMin= 3 EnMin= -225.800694622666     IErMin= 3 ErrMin= 1.04D-04
 ErrMax= 1.04D-04  0.00D+00 EMaxC= 1.00D-01 BMatC= 1.53D-06 BMatP= 1.57D+01
 IDIUse=3 WtCom= 9.99D-01 WtEn= 1.04D-03
 Coeff-Com:  0.299D+00-0.342D+00 0.104D+01
 Coeff-En:   0.000D+00 0.000D+00 0.100D+01
 Coeff:      0.299D+00-0.341D+00 0.104D+01
 Gap=     0.102 Goal=   None    Shift=    0.200
 RMSDP=2.72D-05 MaxDP=3.89D-03 DE=-3.80D-04 OVMax= 3.32D-04

 Cycle   4  Pass 1  IDiag  1:
 E= -225.800695598805     Delta-E=       -0.000000976139 Rises=F Damp=F
 DIIS: error= 1.74D-05 at cycle   4 NSaved=   4.
 NSaved= 4 IEnMin= 4 EnMin= -225.800695598805     IErMin= 4 ErrMin= 1.74D-05
 ErrMax= 1.74D-05  0.00D+00 EMaxC= 1.00D-01 BMatC= 3.93D-08 BMatP= 1.53D-06
 IDIUse=1 WtCom= 1.00D+00 WtEn= 0.00D+00
 Coeff-Com:  0.295D+00-0.337D+00-0.617D-01 0.110D+01
 Coeff:      0.295D+00-0.337D+00-0.617D-01 0.110D+01
 Gap=     0.102 Goal=   None    Shift=    0.200
 RMSDP=3.90D-06 MaxDP=4.51D-04 DE=-9.76D-07 OVMax= 7.70D-05

 Cycle   5  Pass 1  IDiag  1:
 E= -225.800695642560     Delta-E=       -0.000000043755 Rises=F Damp=F
 DIIS: error= 1.04D-05 at cycle   5 NSaved=   5.
 NSaved= 5 IEnMin= 5 EnMin= -225.800695642560     IErMin= 5 ErrMin= 1.04D-05
 ErrMax= 1.04D-05  0.00D+00 EMaxC= 1.00D-01 BMatC= 8.83D-09 BMatP= 3.93D-08
 IDIUse=1 WtCom= 1.00D+00 WtEn= 0.00D+00
 Coeff-Com:  0.261D+00-0.298D+00 0.661D-01-0.214D+00 0.119D+01
 Coeff:      0.261D+00-0.298D+00 0.661D-01-0.214D+00 0.119D+01
 Gap=     0.102 Goal=   None    Shift=    0.200
 RMSDP=5.34D-07 MaxDP=5.46D-05 DE=-4.38D-08 OVMax= 2.91D-05

 Cycle   6  Pass 1  IDiag  1:
 E= -225.800695645514     Delta-E=       -0.000000002953 Rises=F Damp=F
 DIIS: error= 1.02D-05 at cycle   6 NSaved=   6.
 NSaved= 6 IEnMin= 6 EnMin= -225.800695645514     IErMin= 6 ErrMin= 1.02D-05
 ErrMax= 1.02D-05  0.00D+00 EMaxC= 1.00D-01 BMatC= 7.12D-09 BMatP= 8.83D-09
 IDIUse=1 WtCom= 1.00D+00 WtEn= 0.00D+00
 Coeff-Com:  0.246D+00-0.281D+00 0.581D-01-0.765D-01 0.299D+00 0.755D+00
 Coeff:      0.246D+00-0.281D+00 0.581D-01-0.765D-01 0.299D+00 0.755D+00
 Gap=     0.102 Goal=   None    Shift=    0.200
 RMSDP=3.49D-07 MaxDP=6.91D-05 DE=-2.95D-09 OVMax= 1.45D-05

 Cycle   7  Pass 1  IDiag  1:
 E= -225.800695646535     Delta-E=       -0.000000001021 Rises=F Damp=F
 DIIS: error= 9.71D-06 at cycle   7 NSaved=   7.
 NSaved= 7 IEnMin= 7 EnMin= -225.800695646535     IErMin= 7 ErrMin= 9.71D-06
 ErrMax= 9.71D-06  0.00D+00 EMaxC= 1.00D-01 BMatC= 6.27D-09 BMatP= 7.12D-09
 IDIUse=1 WtCom= 1.00D+00 WtEn= 0.00D+00
 Coeff-Com:  0.222D+00-0.254D+00 0.413D-01 0.116D+00-0.422D+00 0.485D-01
 Coeff-Com:  0.125D+01
 Coeff:      0.222D+00-0.254D+00 0.413D-01 0.116D+00-0.422D+00 0.485D-01
 Coeff:      0.125D+01
 Gap=     0.102 Goal=   None    Shift=    0.200
 RMSDP=6.10D-07 MaxDP=1.11D-04 DE=-1.02D-09 OVMax= 1.38D-05

 Cycle   8  Pass 1  IDiag  1:
 E= -225.800695647908     Delta-E=       -0.000000001374 Rises=F Damp=F
 DIIS: error= 8.87D-06 at cycle   8 NSaved=   8.
 NSaved= 8 IEnMin= 8 EnMin= -225.800695647908     IErMin= 8 ErrMin= 8.87D-06
 ErrMax= 8.87D-06  0.00D+00 EMaxC= 1.00D-01 BMatC= 5.22D-09 BMatP= 6.27D-09
 IDIUse=1 WtCom= 1.00D+00 WtEn= 0.00D+00
 Coeff-Com:  0.196D+00-0.225D+00 0.376D-01 0.628D-01-0.826D-01-0.269D+00
 Coeff-Com: -0.274D+00 0.155D+01
 Coeff:      0.196D+00-0.225D+00 0.376D-01 0.628D-01-0.826D-01-0.269D+00
 Coeff:     -0.274D+00 0.155D+01
 Gap=     0.102 Goal=   None    Shift=    0.200
 RMSDP=7.15D-07 MaxDP=1.28D-04 DE=-1.37D-09 OVMax= 1.42D-05

 Cycle   9  Pass 1  IDiag  1:
 E= -225.800695649342     Delta-E=       -0.000000001434 Rises=F Damp=F
 DIIS: error= 7.92D-06 at cycle   9 NSaved=   9.
 NSaved= 9 IEnMin= 9 EnMin= -225.800695649342     IErMin= 9 ErrMin= 7.92D-06
 ErrMax= 7.92D-06  0.00D+00 EMaxC= 1.00D-01 BMatC= 4.16D-09 BMatP= 5.22D-09
 IDIUse=1 WtCom= 1.00D+00 WtEn= 0.00D+00
 Coeff-Com:  0.144D+00-0.165D+00 0.297D-01 0.474D-02 0.144D+00-0.124D+00
 Coeff-Com: -0.490D+00-0.124D+01 0.270D+01
 Coeff:      0.144D+00-0.165D+00 0.297D-01 0.474D-02 0.144D+00-0.124D+00
 Coeff:     -0.490D+00-0.124D+01 0.270D+01
 Gap=     0.102 Goal=   None    Shift=    0.200
 RMSDP=1.35D-06 MaxDP=2.42D-04 DE=-1.43D-09 OVMax= 2.29D-05

 Cycle  10  Pass 1  IDiag  1:
 E= -225.800695651523     Delta-E=       -0.000000002181 Rises=F Damp=F
 DIIS: error= 6.11D-06 at cycle  10 NSaved=  10.
 NSaved=10 IEnMin=10 EnMin= -225.800695651523     IErMin=10 ErrMin= 6.11D-06
 ErrMax= 6.11D-06  0.00D+00 EMaxC= 1.00D-01 BMatC= 2.51D-09 BMatP= 4.16D-09
 IDIUse=1 WtCom= 1.00D+00 WtEn= 0.00D+00
 Coeff-Com:  0.121D+00-0.138D+00 0.240D-01 0.196D-01 0.291D-01-0.152D-01
 Coeff-Com: -0.236D-01-0.116D+01 0.111D+01 0.104D+01
 Coeff:      0.121D+00-0.138D+00 0.240D-01 0.196D-01 0.291D-01-0.152D-01
 Coeff:     -0.236D-01-0.116D+01 0.111D+01 0.104D+01
 Gap=     0.102 Goal=   None    Shift=    0.200
 RMSDP=8.78D-07 MaxDP=1.52D-04 DE=-2.18D-09 OVMax= 1.74D-05

 Cycle  11  Pass 1  IDiag  1:
 E= -225.800695652798     Delta-E=       -0.000000001275 Rises=F Damp=F
 DIIS: error= 5.02D-06 at cycle  11 NSaved=  11.
 NSaved=11 IEnMin=11 EnMin= -225.800695652798     IErMin=11 ErrMin= 5.02D-06
 ErrMax= 5.02D-06  0.00D+00 EMaxC= 1.00D-01 BMatC= 1.68D-09 BMatP= 2.51D-09
 IDIUse=1 WtCom= 1.00D+00 WtEn= 0.00D+00
 Coeff-Com:  0.209D-01-0.239D-01 0.401D-02 0.127D-01-0.630D-01-0.153D-02
 Coeff-Com:  0.204D+00 0.566D+00-0.118D+01-0.322D+01 0.468D+01
 Coeff:      0.209D-01-0.239D-01 0.401D-02 0.127D-01-0.630D-01-0.153D-02
 Coeff:      0.204D+00 0.566D+00-0.118D+01-0.322D+01 0.468D+01
 Gap=     0.102 Goal=   None    Shift=    0.200
 RMSDP=2.45D-06 MaxDP=4.44D-04 DE=-1.28D-09 OVMax= 3.88D-05

 Cycle  12  Pass 1  IDiag  1:
 E= -225.800695654798     Delta-E=       -0.000000002000 Rises=F Damp=F
 DIIS: error= 1.71D-06 at cycle  12 NSaved=  12.
 NSaved=12 IEnMin=12 EnMin= -225.800695654798     IErMin=12 ErrMin= 1.71D-06
 ErrMax= 1.71D-06  0.00D+00 EMaxC= 1.00D-01 BMatC= 2.50D-10 BMatP= 1.68D-09
 IDIUse=1 WtCom= 1.00D+00 WtEn= 0.00D+00
 Coeff-Com:  0.273D-02-0.312D-02 0.118D-02-0.175D-01 0.119D+00-0.183D+00
 Coeff-Com: -0.473D+00 0.104D+01 0.787D+00-0.539D+01 0.430D+01 0.821D+00
 Coeff:      0.273D-02-0.312D-02 0.118D-02-0.175D-01 0.119D+00-0.183D+00
 Coeff:     -0.473D+00 0.104D+01 0.787D+00-0.539D+01 0.430D+01 0.821D+00
 Gap=     0.102 Goal=   None    Shift=    0.200
 RMSDP=1.01D-06 MaxDP=1.73D-04 DE=-2.00D-09 OVMax= 2.10D-05

 Cycle  13  Pass 1  IDiag  1:
 E= -225.800695655236     Delta-E=       -0.000000000438 Rises=F Damp=F
 DIIS: error= 6.58D-07 at cycle  13 NSaved=  13.
 NSaved=13 IEnMin=13 EnMin= -225.800695655236     IErMin=13 ErrMin= 6.58D-07
 ErrMax= 6.58D-07  0.00D+00 EMaxC= 1.00D-01 BMatC= 3.95D-11 BMatP= 2.50D-10
 IDIUse=1 WtCom= 1.00D+00 WtEn= 0.00D+00
 Coeff-Com:  0.260D-02-0.297D-02 0.995D-03-0.102D-01 0.648D-01-0.109D+00
 Coeff-Com: -0.254D+00 0.556D+00 0.492D+00-0.364D+01 0.321D+01 0.318D-01
 Coeff-Com:  0.659D+00
 Coeff:      0.260D-02-0.297D-02 0.995D-03-0.102D-01 0.648D-01-0.109D+00
 Coeff:     -0.254D+00 0.556D+00 0.492D+00-0.364D+01 0.321D+01 0.318D-01
 Coeff:      0.659D+00
 Gap=     0.102 Goal=   None    Shift=    0.200
 RMSDP=2.92D-07 MaxDP=3.96D-05 DE=-4.38D-10 OVMax= 9.34D-06

 Cycle  14  Pass 1  IDiag  1:
 E= -225.800695655320     Delta-E=       -0.000000000084 Rises=F Damp=F
 DIIS: error= 3.04D-07 at cycle  14 NSaved=  14.
 NSaved=14 IEnMin=14 EnMin= -225.800695655320     IErMin=14 ErrMin= 3.04D-07
 ErrMax= 3.04D-07  0.00D+00 EMaxC= 1.00D-01 BMatC= 9.75D-12 BMatP= 3.95D-11
 IDIUse=1 WtCom= 1.00D+00 WtEn= 0.00D+00
 Coeff-Com: -0.359D-03 0.410D-03-0.810D-04-0.121D-02 0.126D-01-0.298D-01
 Coeff-Com: -0.541D-01 0.828D-01 0.235D+00-0.962D+00 0.549D+00 0.119D+01
 Coeff-Com: -0.284D+01 0.282D+01
 Coeff:     -0.359D-03 0.410D-03-0.810D-04-0.121D-02 0.126D-01-0.298D-01
 Coeff:     -0.541D-01 0.828D-01 0.235D+00-0.962D+00 0.549D+00 0.119D+01
 Coeff:     -0.284D+01 0.282D+01
 Gap=     0.102 Goal=   None    Shift=    0.200
 RMSDP=1.63D-07 MaxDP=2.37D-05 DE=-8.37D-11 OVMax= 5.07D-06

 Cycle  15  Pass 1  IDiag  1:
 E= -225.800695655343     Delta-E=       -0.000000000023 Rises=F Damp=F
 DIIS: error= 1.25D-07 at cycle  15 NSaved=  15.
 NSaved=15 IEnMin=15 EnMin= -225.800695655343     IErMin=15 ErrMin= 1.25D-07
 ErrMax= 1.25D-07  0.00D+00 EMaxC= 1.00D-01 BMatC= 2.06D-12 BMatP= 9.75D-12
 IDIUse=1 WtCom= 1.00D+00 WtEn= 0.00D+00
 Coeff-Com: -0.442D-03 0.506D-03-0.243D-04-0.335D-02 0.262D-01-0.443D-01
 Coeff-Com: -0.114D+00 0.262D+00 0.152D+00-0.929D+00 0.523D+00 0.825D+00
 Coeff-Com: -0.168D+01 0.894D+00 0.109D+01
 Coeff:     -0.442D-03 0.506D-03-0.243D-04-0.335D-02 0.262D-01-0.443D-01
 Coeff:     -0.114D+00 0.262D+00 0.152D+00-0.929D+00 0.523D+00 0.825D+00
 Coeff:     -0.168D+01 0.894D+00 0.109D+01
 Gap=     0.102 Goal=   None    Shift=    0.200
 RMSDP=5.59D-08 MaxDP=5.92D-06 DE=-2.26D-11 OVMax= 2.60D-06

 Cycle  16  Pass 1  IDiag  1:
 E= -225.800695655348     Delta-E=       -0.000000000005 Rises=F Damp=F
 DIIS: error= 6.22D-08 at cycle  16 NSaved=  16.
 NSaved=16 IEnMin=16 EnMin= -225.800695655348     IErMin=16 ErrMin= 6.22D-08
 ErrMax= 6.22D-08  0.00D+00 EMaxC= 1.00D-01 BMatC= 4.95D-13 BMatP= 2.06D-12
 IDIUse=1 WtCom= 1.00D+00 WtEn= 0.00D+00
 Large coefficients: NSaved= 16 BigCof=    0.00 CofMax=   10.00 Det=-3.66D-15
 Inversion failed.  Reducing to 15 matrices.
 Coeff-Com:  0.372D-09-0.278D-04 0.107D-02-0.820D-02 0.144D-01 0.349D-01
 Coeff-Com: -0.548D-01-0.724D-01 0.274D+00-0.208D+00 0.364D-01-0.159D+00
 Coeff-Com:  0.652D+00-0.248D+01 0.297D+01
 Coeff:      0.372D-09-0.278D-04 0.107D-02-0.820D-02 0.144D-01 0.349D-01
 Coeff:     -0.548D-01-0.724D-01 0.274D+00-0.208D+00 0.364D-01-0.159D+00
 Coeff:      0.652D+00-0.248D+01 0.297D+01
 Gap=     0.102 Goal=   None    Shift=    0.200
 RMSDP=1.80D-08 MaxDP=2.39D-06 DE=-5.03D-12 OVMax= 1.21D-06

 Cycle  17  Pass 1  IDiag  1:
 E= -225.800695655349     Delta-E=       -0.000000000001 Rises=F Damp=F
 DIIS: error= 3.18D-08 at cycle  17 NSaved=  16.
 NSaved=16 IEnMin=16 EnMin= -225.800695655349     IErMin=16 ErrMin= 3.18D-08
 ErrMax= 3.18D-08  0.00D+00 EMaxC= 1.00D-01 BMatC= 1.42D-13 BMatP= 4.95D-13
 IDIUse=1 WtCom= 1.00D+00 WtEn= 0.00D+00
 Large coefficients: NSaved= 16 BigCof=    0.00 CofMax=   10.00 Det=-4.53D-16
 Inversion failed.  Reducing to 15 matrices.
 Coeff-Com: -0.328D-04 0.989D-03-0.692D-02 0.117D-01 0.226D-01-0.382D-01
 Coeff-Com: -0.581D-01 0.174D+00-0.113D+00 0.248D-01-0.916D-01 0.225D+00
 Coeff-Com: -0.588D+00-0.413D+00 0.185D+01
 Coeff:     -0.328D-04 0.989D-03-0.692D-02 0.117D-01 0.226D-01-0.382D-01
 Coeff:     -0.581D-01 0.174D+00-0.113D+00 0.248D-01-0.916D-01 0.225D+00
 Coeff:     -0.588D+00-0.413D+00 0.185D+01
 Gap=     0.102 Goal=   None    Shift=    0.200
 RMSDP=9.10D-09 MaxDP=1.18D-06 DE=-1.19D-12 OVMax= 6.76D-07

 Cycle  18  Pass 1  IDiag  1:
 E= -225.800695655350     Delta-E=       -0.000000000001 Rises=F Damp=F
 DIIS: error= 1.62D-08 at cycle  18 NSaved=  16.
 NSaved=16 IEnMin=16 EnMin= -225.800695655350     IErMin=16 ErrMin= 1.62D-08
 ErrMax= 1.62D-08  0.00D+00 EMaxC= 1.00D-01 BMatC= 4.27D-14 BMatP= 1.42D-13
 IDIUse=1 WtCom= 1.00D+00 WtEn= 0.00D+00
 Large coefficients: NSaved= 16 BigCof=    0.00 CofMax=   10.00 Det=-3.09D-16
 Inversion failed.  Reducing to 15 matrices.
 Coeff-Com: -0.583D-04 0.672D-03-0.329D-02 0.184D-02 0.872D-02 0.496D-02
 Coeff-Com: -0.718D-01 0.663D-01 0.874D-03 0.138D-01-0.426D-01 0.467D-01
 Coeff-Com:  0.542D+00-0.268D+01 0.311D+01
 Coeff:     -0.583D-04 0.672D-03-0.329D-02 0.184D-02 0.872D-02 0.496D-02
 Coeff:     -0.718D-01 0.663D-01 0.874D-03 0.138D-01-0.426D-01 0.467D-01
 Coeff:      0.542D+00-0.268D+01 0.311D+01
 Gap=     0.102 Goal=   None    Shift=    0.200
 RMSDP=5.12D-09 MaxDP=6.88D-07 DE=-7.67D-13 OVMax= 3.51D-07

 SCF Done:  E(ROHF) =  -225.800695655     A.U. after   18 cycles
            NFock= 18  Conv=0.51D-08     -V/T= 2.4983
 <Sx>= 0.0000 <Sy>= 0.0000 <Sz>= 0.5000 <S**2>= 0.7500 S= 0.5000
 <L.S>=  0.00000000000    
 KE= 1.507089090871D+02 PE=-5.701775186871D+02 EE= 1.874422996986D+02
 Annihilation of the first spin contaminant:
 S**2 before annihilation     0.7500,   after     0.7500
 Leave Link  502 at Sat Apr 21 11:01:01 2018, MaxMem= 10737418240 cpu:            1262.4 elap:              46.1
 (Enter /home1/apps/gaussian/16rA.03/g16/l801.exe)
 Windowed orbitals will be sorted by symmetry type.
 GenMOA:  NOpAll=  4 NOp2=4 NOpUse=  4 JSym2X=1
 FoFJK:  IHMeth= 1 ICntrl=       0 DoSepK=F KAlg= 0 I1Cent=           0 FoldK=F
 IRaf=         0 NMat=       1 IRICut=       1 DoRegI=T DoRafI=F ISym2E= 1 IDoP0=0 IntGTp=1.
 FoFCou: FMM=F IPFlag=           8 FMFlag=      100000 FMFlg1=           0
         NFxFlg=           0 DoJE=F BraDBF=F KetDBF=F FulRan=T
         wScrn=  0.000000 ICntrl=         0 IOpCl=  1 I1Cent=           0 NGrid=           0
         NMat0=    1 NMatS0=      1 NMatT0=    0 NMatD0=    1 NMtDS0=    0 NMtDT0=    0
 Petite list used in FoFCou.
 <Sx>= 0.0000 <Sy>= 0.0000 <Sz>= 0.5000 <S**2>= 0.7500 S= 0.5000
 Range of M.O.s used for correlation:     1   306
 NBasis=   310 NAE=    11 NBE=    10 NFC=     0 NFV=     0
 NROrb=    306 NOA=    11 NOB=    10 NVA=   295 NVB=   296

 **** Warning!!: The largest alpha MO coefficient is  0.15386335D+03


 **** Warning!!: The largest beta MO coefficient is  0.15386234D+03

 Singles contribution to E2=   -0.1209332974D-02
 Leave Link  801 at Sat Apr 21 11:01:14 2018, MaxMem= 10737418240 cpu:             420.6 elap:              13.2
 (Enter /home1/apps/gaussian/16rA.03/g16/l804.exe)
 Open-shell transformation, MDV= 10737418240 ITran=4 ISComp=2.
 Unit  1 TFree=       2912892 TCopy=       2133986.
 Semi-Direct transformation.
 ModeAB=           2 MOrb=            11 LenV=   10734515099
 LASXX=     39182606 LTotXX=    39182606 LenRXX=    39182606
 LTotAB=    39699063 MaxLAS=   272656098 LenRXY=   272656098
 NonZer=   277388694 LenScr=   417715200 LnRSAI=           0
 LnScr1=           0 LExtra=    16204701 Total=    745758605
 MaxDsk= 67108864000 SrtSym=           F ITran=            4
 DoSDTr:  NPSUse= 32
 JobTyp=1 Pass  1:  I=   1 to  11.
 (rs|ai) integrals will be sorted in core.
 Complete sort for first half transformation.
 First half transformation complete.
 Begin second half transformation for I=  10.
 Begin second half transformation for I=  10.
 Complete sort for second half transformation.
 Second half transformation complete.
 ModeAB=           2 MOrb=            10 LenV=   10734515099
 LASXX=     35609842 LTotXX=    35609842 LenRXX=   247869180
 LTotAB=    33495734 MaxLAS=   247869180 LenRXY=    33495734
 NonZer=   252171540 LenScr=   379741184 LnRSAI=           0
 LnScr1=           0 LExtra=   328043405 Total=    989149503
 MaxDsk= 67108864000 SrtSym=           F ITran=            4
 DoSDTr:  NPSUse= 32
 JobTyp=2 Pass  1:  I=   1 to  10.
 (rs|ai) integrals will be sorted in core.
 Complete sort for first half transformation.
 First half transformation complete.
 Begin second half transformation for I=  10.
 Begin second half transformation for I=  10.
 Complete sort for second half transformation.
 Second half transformation complete.
 Spin components of T(2) and E(2):
     alpha-alpha T2 =       0.1825018249D-01 E2=     -0.1665628830D+00
     alpha-beta  T2 =       0.7989913984D-01 E2=     -0.7587286544D+00
     beta-beta   T2 =       0.1551927913D-01 E2=     -0.1574112225D+00
 ANorm=    0.1055959840D+01
 E2 =    -0.1083912093D+01 EUMP2 =    -0.22688460774821D+03
 (S**2,0)=  0.75000D+00           (S**2,1)=  0.75000D+00
 E(PUHF)=      -0.22580069566D+03        E(PMP2)=      -0.22688460775D+03
 Leave Link  804 at Sat Apr 21 11:10:35 2018, MaxMem= 10737418240 cpu:           17954.5 elap:             561.3
 (Enter /home1/apps/gaussian/16rA.03/g16/l913.exe)
 CIDS:  MDV= 10737418240.
 IFCWin=0 IBDFC=1 NFBD=     0     0 NFCmp=     0     0 NFFFC=     0     0
 Using original routines for 1st iteration.
 Using DD4UQ or CC4UQ for 2nd and later iterations.
 Keep R2 and R3 ints in memory in symmetry-blocked form, NReq=1456570172.
 FoFCou: FMM=F IPFlag=           8 FMFlag=           0 FMFlg1=           0
         NFxFlg=           0 DoJE=F BraDBF=F KetDBF=F FulRan=T
         wScrn=  0.000000 ICntrl=       600 IOpCl=  0 I1Cent=           0 NGrid=           0
         NMat0=    1 NMatS0=  48205 NMatT0=    0 NMatD0=    1 NMtDS0=    0 NMtDT0=    0
 Petite list used in FoFCou.
 CIDS: In Core Option IDoMem=           1.
 CCSD(T)
 =======
 Iterations= 150 Convergence= 0.100D-06
 Produce multiple copies of IABC intergrals
 Iteration Nr.   1
 **********************
 DD1Dir will call FoFMem   1 times, MxPair=       320
 NAB=   110 NAA=    55 NBB=    45.
 DD1Dir will call FoFMem   1 times, MxPair=       320
 NAB=   110 NAA=    55 NBB=    45.
 MP4(R+Q)= -0.12878923D+00
 Maximum subspace dimension=  5
 A-vector RMS=  1.0085628D-04 Max=  1.2810122D-03 conv= 1.00D-05.
 RLE energy=       -1.0887186751
 E3=        0.12396165D+00        EROMP3=      -0.22676064609D+03
 E4(SDQ)=  -0.76746063D-01        ROMP4(SDQ)=  -0.22683739216D+03
 VARIATIONAL ENERGIES WITH THE FIRST-ORDER WAVEFUNCTION:
 DE(Corr)=  -1.0886979     E(Corr)=     -226.88939351    
 NORM(A)=   0.10558197D+01
 Iteration Nr.   2
 **********************
 DD1Dir will call FoFMem   1 times, MxPair=       320
 NAB=   110 NAA=    55 NBB=    45.
 A-vector RMS=  2.7701918D-03 Max=  2.7941423D-02 conv= 1.00D-05.
 RLE energy=       -1.0699164616
 DE(Corr)= -0.95948063     E(CORR)=     -226.76017628     Delta= 1.29D-01
 NORM(A)=   0.10537307D+01
 Iteration Nr.   3
 **********************
 DD1Dir will call FoFMem   1 times, MxPair=       320
 NAB=   110 NAA=    55 NBB=    45.
 A-vector RMS=  2.2918714D-03 Max=  2.5836789D-02 conv= 1.00D-05.
 RLE energy=       -1.0303208431
 DE(Corr)= -0.96779526     E(CORR)=     -226.76849092     Delta=-8.31D-03
 NORM(A)=   0.10544236D+01
 Iteration Nr.   4
 **********************
 DD1Dir will call FoFMem   1 times, MxPair=       320
 NAB=   110 NAA=    55 NBB=    45.
 A-vector RMS=  1.3350939D-03 Max=  1.8348353D-02 conv= 1.00D-05.
 RLE energy=       -0.9231360210
 DE(Corr)= -0.98997719     E(CORR)=     -226.79067285     Delta=-2.22D-02
 NORM(A)=   0.10989698D+01
 Iteration Nr.   5
 **********************
 DD1Dir will call FoFMem   1 times, MxPair=       320
 NAB=   110 NAA=    55 NBB=    45.
 A-vector RMS=  2.9167877D-03 Max=  2.3291901D-02 conv= 1.00D-05.
 RLE energy=       -1.0097707653
 DE(Corr)=  -1.0660081     E(CORR)=     -226.86670371     Delta=-7.60D-02
 NORM(A)=   0.10697967D+01
 Iteration Nr.   6
 **********************
 DD1Dir will call FoFMem   1 times, MxPair=       320
 NAB=   110 NAA=    55 NBB=    45.
 A-vector RMS=  1.9031291D-04 Max=  3.8125973D-03 conv= 1.00D-05.
 RLE energy=       -1.0096168429
 DE(Corr)=  -1.0096600     E(CORR)=     -226.81035570     Delta= 5.63D-02
 NORM(A)=   0.10697791D+01
 Iteration Nr.   7
 **********************
 DD1Dir will call FoFMem   1 times, MxPair=       320
 NAB=   110 NAA=    55 NBB=    45.
 A-vector RMS=  9.9256646D-05 Max=  2.3668511D-03 conv= 1.00D-05.
 RLE energy=       -1.0091135835
 DE(Corr)=  -1.0091870     E(CORR)=     -226.80988268     Delta= 4.73D-04
 NORM(A)=   0.10713291D+01
 Iteration Nr.   8
 **********************
 DD1Dir will call FoFMem   1 times, MxPair=       320
 NAB=   110 NAA=    55 NBB=    45.
 A-vector RMS=  5.0729519D-05 Max=  7.6689755D-04 conv= 1.00D-05.
 RLE energy=       -1.0094082888
 DE(Corr)=  -1.0096132     E(CORR)=     -226.81030890     Delta=-4.26D-04
 NORM(A)=   0.10715950D+01
 Iteration Nr.   9
 **********************
 DD1Dir will call FoFMem   1 times, MxPair=       320
 NAB=   110 NAA=    55 NBB=    45.
 A-vector RMS=  2.1441102D-05 Max=  2.0728479D-04 conv= 1.00D-05.
 RLE energy=       -1.0094714519
 DE(Corr)=  -1.0094374     E(CORR)=     -226.81013306     Delta= 1.76D-04
 NORM(A)=   0.10718061D+01
 Iteration Nr.  10
 **********************
 DD1Dir will call FoFMem   1 times, MxPair=       320
 NAB=   110 NAA=    55 NBB=    45.
 A-vector RMS=  8.2921986D-06 Max=  1.2421458D-04 conv= 1.00D-05.
 RLE energy=       -1.0094630852
 DE(Corr)=  -1.0094817     E(CORR)=     -226.81017734     Delta=-4.43D-05
 NORM(A)=   0.10717654D+01
 Iteration Nr.  11
 **********************
 DD1Dir will call FoFMem   1 times, MxPair=       320
 NAB=   110 NAA=    55 NBB=    45.
 A-vector RMS=  3.4779445D-06 Max=  4.5108666D-05 conv= 1.00D-05.
 RLE energy=       -1.0094585738
 DE(Corr)=  -1.0094679     E(CORR)=     -226.81016353     Delta= 1.38D-05
 NORM(A)=   0.10717330D+01
 Iteration Nr.  12
 **********************
 DD1Dir will call FoFMem   1 times, MxPair=       320
 NAB=   110 NAA=    55 NBB=    45.
 A-vector RMS=  1.4095140D-06 Max=  3.8131645D-05 conv= 1.00D-05.
 RLE energy=       -1.0094596889
 DE(Corr)=  -1.0094606     E(CORR)=     -226.81015622     Delta= 7.31D-06
 NORM(A)=   0.10717273D+01
 Iteration Nr.  13
 **********************
 DD1Dir will call FoFMem   1 times, MxPair=       320
 NAB=   110 NAA=    55 NBB=    45.
 A-vector RMS=  6.4209567D-07 Max=  1.1780405D-05 conv= 1.00D-05.
 RLE energy=       -1.0094583300
 DE(Corr)=  -1.0094590     E(CORR)=     -226.81015465     Delta= 1.57D-06
 NORM(A)=   0.10717255D+01
 Iteration Nr.  14
 **********************
 DD1Dir will call FoFMem   1 times, MxPair=       320
 NAB=   110 NAA=    55 NBB=    45.
 A-vector RMS=  4.2128182D-07 Max=  1.0412890D-05 conv= 1.00D-05.
 RLE energy=       -1.0094577294
 DE(Corr)=  -1.0094581     E(CORR)=     -226.81015372     Delta= 9.30D-07
 NORM(A)=   0.10717258D+01
 Iteration Nr.  15
 **********************
 DD1Dir will call FoFMem   1 times, MxPair=       320
 NAB=   110 NAA=    55 NBB=    45.
 A-vector RMS=  1.4727100D-07 Max=  2.4919238D-06 conv= 1.00D-05.
 RLE energy=       -1.0094586396
 DE(Corr)=  -1.0094587     E(CORR)=     -226.81015435     Delta=-6.23D-07
 NORM(A)=   0.10717270D+01
 Iteration Nr.  16
 **********************
 DD1Dir will call FoFMem   1 times, MxPair=       320
 NAB=   110 NAA=    55 NBB=    45.
 A-vector RMS=  1.0560207D-07 Max=  2.0680908D-06 conv= 1.00D-05.
 RLE energy=       -1.0094587503
 DE(Corr)=  -1.0094587     E(CORR)=     -226.81015432     Delta= 2.50D-08
 NORM(A)=   0.10717278D+01
 CI/CC converged in   16 iterations to DelEn= 2.50D-08 Conv= 1.00D-07 ErrA1= 1.06D-07 Conv= 1.00D-05
 Wavefunction amplitudes converged. E(Corr)=     -226.81015432    
 Largest amplitude= 9.47D-02
 Time for triples=    64884.30 seconds.
 T4(CCSD)= -0.31275631D-01
 T5(CCSD)=  0.29353010D-02
 CCSD(T)= -0.22683849465D+03
 Discarding MO integrals.
 Leave Link  913 at Sat Apr 21 11:53:47 2018, MaxMem= 10737418240 cpu:           82650.8 elap:            2591.5
 (Enter /home1/apps/gaussian/16rA.03/g16/l601.exe)
 Copying SCF densities to generalized density rwf, IOpCl= 0 IROHF=1.

 **********************************************************************

            Population analysis using the SCF density.

 **********************************************************************

 Orbital symmetries:
       Occupied  (SG) (PI) (PI) (SG) (DLTA) (DLTA) (PI) (PI) (SG)
                 (SG) (SG)
       Virtual   (PI) (PI) (SG) (SG) (PI) (PI) (SG) (SG) (SG) (DLTA)
                 (DLTA) (PI) (PI) (SG) (PI) (PI) (SG) (PI) (PI)
                 (SG) (SG) (PI) (PI) (DLTA) (DLTA) (SG) (DLTA)
                 (DLTA) (SG) (SG) (PI) (PI) (PI) (PI) (SG) (PI)
                 (PI) (PHI) (PHI) (DLTA) (DLTA) (SG) (PI) (PI)
                 (SG) (DLTA) (DLTA) (PI) (PI) (PHI) (PHI) (SG)
                 (DLTA) (DLTA) (SG) (SG) (PI) (PI) (DLTA) (DLTA)
                 (PI) (PI) (SG) (PI) (PI) (SG) (PI) (PI) (PHI)
                 (PHI) (SG) (DLTA) (DLTA) (SG) (PI) (PI) (DLTA)
                 (DLTA) (PI) (PI) (?A) (?A) (SG) (PHI) (PHI) (DLTA)
                 (DLTA) (SG) (PI) (PI) (SG) (SG) (PHI) (PHI) (DLTA)
                 (DLTA) (PI) (PI) (SG) (PI) (PI) (SG) (PI) (PI)
                 (SG) (PHI) (PHI) (DLTA) (DLTA) (DLTA) (DLTA) (PI)
                 (PI) (DLTA) (DLTA) (SG) (PI) (PI) (PI) (PI) (SG)
                 (SG) (SG) (?A) (?A) (PHI) (PHI) (DLTA) (DLTA)
                 (PI) (PI) (SG) (?B) (?B) (?A) (?A) (PHI) (PHI)
                 (DLTA) (DLTA) (PI) (PI) (SG) (PI) (PI) (SG) (DLTA)
                 (DLTA) (PI) (PI) (SG) (PHI) (PHI) (DLTA) (DLTA)
                 (PI) (PI) (SG) (SG) (?A) (?A) (PHI) (PHI) (DLTA)
                 (DLTA) (PI) (PI) (SG) (SG) (?B) (?B) (?A) (?A)
                 (PHI) (PHI) (DLTA) (DLTA) (PI) (PI) (SG) (DLTA)
                 (DLTA) (PI) (PI) (SG) (PI) (PI) (SG) (PHI) (PHI)
                 (DLTA) (DLTA) (PI) (PI) (SG) (SG) (?A) (?A) (PHI)
                 (PHI) (DLTA) (DLTA) (PI) (PI) (SG) (DLTA) (DLTA)
                 (PI) (PI) (SG) (?B) (?B) (?A) (?A) (PHI) (PHI)
                 (DLTA) (DLTA) (PI) (PI) (SG) (PI) (PI) (SG) (DLTA)
                 (DLTA) (PI) (PI) (SG) (SG) (PI) (PI) (SG) (SG)
                 (DLTA) (DLTA) (PI) (PI) (SG) (PI) (PI) (SG) (SG)
                 (DLTA) (DLTA) (PI) (PI) (SG) (SG) (PI) (PI) (SG)
                 (SG) (PI) (PI) (SG) (DLTA) (DLTA) (PI) (PI) (SG)
                 (SG) (PI) (PI) (SG) (DLTA) (DLTA) (PI) (PI) (SG)
                 (SG) (PI) (PI) (SG) (SG) (PI) (PI) (SG) (SG) (PI)
                 (PI) (SG) (SG) (PI) (PI) (SG) (SG) (PI) (PI) (SG)
                 (SG) (SG) (SG) (SG) (SG)
 The electronic state is 2-SG.
 Alpha  occ. eigenvalues --   -5.87941  -3.95920  -3.95920  -3.95670  -0.80273
 Alpha  occ. eigenvalues --   -0.80273  -0.79996  -0.79757  -0.79757  -0.44654
 Alpha  occ. eigenvalues --   -0.28150
 Alpha virt. eigenvalues --    0.01898   0.01898   0.02836   0.03477   0.06623
 Alpha virt. eigenvalues --    0.06623   0.07794   0.14064   0.16581   0.17924
 Alpha virt. eigenvalues --    0.17924   0.18031   0.18031   0.20955   0.23412
 Alpha virt. eigenvalues --    0.23412   0.27567   0.30362   0.30362   0.39395
 Alpha virt. eigenvalues --    0.51241   0.54963   0.54963   0.57014   0.57014
 Alpha virt. eigenvalues --    0.63751   0.67836   0.67836   0.71192   0.75475
 Alpha virt. eigenvalues --    0.76446   0.76446   0.83179   0.83179   0.91012
 Alpha virt. eigenvalues --    0.94698   0.94698   1.07550   1.07550   1.20225
 Alpha virt. eigenvalues --    1.20225   1.30056   1.46194   1.46194   1.51494
 Alpha virt. eigenvalues --    1.54419   1.54419   1.58129   1.58129   1.62134
 Alpha virt. eigenvalues --    1.62134   1.75832   1.89067   1.89067   1.89799
 Alpha virt. eigenvalues --    1.98658   2.06173   2.06173   2.52232   2.52232
 Alpha virt. eigenvalues --    2.59665   2.59665   2.60184   2.62147   2.62147
 Alpha virt. eigenvalues --    2.85108   3.02413   3.02413   3.24921   3.24921
 Alpha virt. eigenvalues --    3.27163   3.30929   3.30929   3.35043   3.50274
 Alpha virt. eigenvalues --    3.50274   3.81849   3.81849   3.83807   3.83807
 Alpha virt. eigenvalues --    3.89273   3.89273   3.91317   3.93137   3.93137
 Alpha virt. eigenvalues --    4.14925   4.14925   4.20632   4.63551   4.63551
 Alpha virt. eigenvalues --    5.08109   6.42732   6.64068   6.64068   6.70246
 Alpha virt. eigenvalues --    6.70246   6.82580   6.82580   6.92755   7.33512
 Alpha virt. eigenvalues --    7.33512   7.62031   8.16644   8.16644   8.33708
 Alpha virt. eigenvalues --    8.35879   8.35879   8.39240   8.39240   8.52816
 Alpha virt. eigenvalues --    8.52816   8.53208   8.53208   8.55382   8.55382
 Alpha virt. eigenvalues --    8.66647   8.66865   8.66865   8.89393   8.89393
 Alpha virt. eigenvalues --    9.20037   9.48516  10.19583  10.42772  10.42772
 Alpha virt. eigenvalues --   10.44776  10.44776  10.56112  10.56112  10.76035
 Alpha virt. eigenvalues --   10.76035  10.86408  10.95883  10.95883  10.96440
 Alpha virt. eigenvalues --   10.96440  10.97064  10.97064  10.99204  10.99204
 Alpha virt. eigenvalues --   11.23903  11.23903  11.80717  17.21736  17.21736
 Alpha virt. eigenvalues --   17.39382  17.44157  17.44157  17.50543  17.50543
 Alpha virt. eigenvalues --   17.93215  20.50927  20.50927  20.54314  20.54314
 Alpha virt. eigenvalues --   20.63368  20.63368  21.00592  23.11296  24.62529
 Alpha virt. eigenvalues --   24.62529  24.63823  24.63823  24.70771  24.70771
 Alpha virt. eigenvalues --   24.88180  24.88180  25.02848  26.46928  27.21747
 Alpha virt. eigenvalues --   27.21747  27.22123  27.22123  27.22504  27.22504
 Alpha virt. eigenvalues --   27.23338  27.23338  27.27818  27.27818  27.41819
 Alpha virt. eigenvalues --   32.51428  32.51428  32.56680  32.56680  32.73232
 Alpha virt. eigenvalues --   35.39752  35.39752  35.91644  49.73366  49.73366
 Alpha virt. eigenvalues --   49.75966  49.75966  49.82146  49.82146  50.06494
 Alpha virt. eigenvalues --   52.24104  55.84116  55.84116  55.85132  55.85132
 Alpha virt. eigenvalues --   55.89745  55.89745  56.00934  56.00934  56.13061
 Alpha virt. eigenvalues --   56.79684  56.79684  56.84924  56.84924  57.01515
 Alpha virt. eigenvalues --   61.53541  61.53541  61.53974  61.53974  61.54342
 Alpha virt. eigenvalues --   61.54342  61.54889  61.54889  61.57094  61.57094
 Alpha virt. eigenvalues --   61.61658  68.15569  68.15569  68.78845  95.65926
 Alpha virt. eigenvalues --   95.65926  95.70612  95.70612  95.86125 121.42048
 Alpha virt. eigenvalues --  130.10611 130.10611 130.81561 162.74324 167.14820
 Alpha virt. eigenvalues --  167.14820 167.19098 167.19098 167.33436 247.56236
 Alpha virt. eigenvalues --  247.56236 248.22728 257.93907 341.01981 341.01981
 Alpha virt. eigenvalues --  341.05472 341.05472 341.17102 457.66509 459.76200
 Alpha virt. eigenvalues --  459.76200 460.44330 796.88404 850.30040 850.30040
 Alpha virt. eigenvalues --  850.91173 854.62768 854.62768 854.65355 854.65355
 Alpha virt. eigenvalues --  854.758251459.999641617.901961617.901961618.50756
 Alpha virt. eigenvalues -- 2713.405712713.405712713.422202713.422202713.48011
 Alpha virt. eigenvalues -- 2811.824873246.113653246.113653246.680925713.85737
 Alpha virt. eigenvalues -- 7027.193167027.193167027.70678********************
 Alpha virt. eigenvalues -- **************************************************
 Alpha virt. eigenvalues -- **************************************************
 Alpha virt. eigenvalues -- **************************************************
     Molecular Orbital Coefficients:
                           6         7         8         9        10
                           O         O         O         O         O
     Eigenvalues --    -0.80273  -0.79996  -0.79757  -0.79757  -0.44654
   1 1   Zn 1S          0.00000   0.00000   0.00000   0.00000  -0.00000
   2        2S          0.00000   0.00000   0.00000  -0.00000   0.00000
   3        3S          0.00000   0.00000   0.00000   0.00000  -0.00000
   4        4S          0.00000   0.00000   0.00000  -0.00000   0.00000
   5        5S          0.00000   0.00000   0.00000   0.00000  -0.00000
   6        6S          0.00000   0.00000   0.00000  -0.00000   0.00000
   7        7S          0.00000   0.00000   0.00000   0.00000  -0.00000
   8        8S          0.00000   0.00000   0.00000  -0.00000   0.00000
   9        9S          0.00000   0.00000   0.00000   0.00000  -0.00001
  10       10S          0.00000   0.00000   0.00000  -0.00001   0.00004
  11       11S          0.00000   0.00000   0.00000   0.00002  -0.00010
  12       12S          0.00000   0.00000   0.00000  -0.00005   0.00023
  13       13S          0.00000   0.00000   0.00000   0.00008   0.00032
  14       14S          0.00000   0.00000   0.00000   0.00029  -0.01286
  15       15S          0.00000   0.00000   0.00000  -0.00061   0.03009
  16       16S          0.00000   0.00000   0.00000  -0.00695   0.05299
  17       17S          0.00000   0.00000   0.00000   0.02188  -0.11381
  18       18S          0.00000   0.00000   0.00000   0.01747  -0.16661
  19       19S          0.00000   0.00000   0.00000  -0.00410  -0.11117
  20       20S          0.00000   0.00000   0.00000  -0.02412   0.24199
  21       21S          0.00000   0.00000   0.00000   0.00096   0.23077
  22       22S          0.00000   0.00000   0.00000  -0.00667   0.03484
  23       23S          0.00000   0.00000   0.00000   0.00301   0.00715
  24       24S          0.00000   0.00000   0.00000  -0.02383   0.06303
  25       25S          0.00000   0.00000   0.00000  -0.00002  -0.00891
  26       26PX         0.00000   0.00000  -0.00000   0.00000   0.00000
  27       26PY         0.00000  -0.00000   0.00000   0.00000   0.00000
  28       26PZ         0.00000   0.00000   0.00000   0.00000  -0.00000
  29       27PX         0.00000   0.00000   0.00000   0.00000   0.00000
  30       27PY         0.00000   0.00000   0.00000   0.00000   0.00000
  31       27PZ         0.00000   0.00000   0.00000  -0.00000   0.00000
  32       28PX         0.00000   0.00000  -0.00000   0.00000   0.00000
  33       28PY         0.00000  -0.00000   0.00000   0.00000   0.00000
  34       28PZ         0.00000   0.00000   0.00000   0.00000  -0.00000
  35       29PX         0.00000   0.00000   0.00000   0.00000   0.00000
  36       29PY         0.00000   0.00000   0.00000   0.00000   0.00000
  37       29PZ         0.00000   0.00000   0.00000  -0.00000   0.00000
  38       30PX         0.00000   0.00000  -0.00000   0.00000   0.00000
  39       30PY         0.00000  -0.00000   0.00000   0.00000   0.00000
  40       30PZ         0.00000   0.00000   0.00000   0.00000  -0.00001
  41       31PX         0.00000   0.00000  -0.00000   0.00000   0.00000
  42       31PY         0.00000  -0.00000   0.00000   0.00000   0.00000
  43       31PZ         0.00000   0.00000   0.00000  -0.00000   0.00002
  44       32PX         0.00000   0.00000   0.00000   0.00000   0.00000
  45       32PY         0.00000   0.00000   0.00000   0.00000   0.00000
  46       32PZ         0.00000   0.00000   0.00000   0.00001  -0.00009
  47       33PX         0.00000   0.00000  -0.00001   0.00000   0.00000
  48       33PY         0.00000  -0.00001   0.00000   0.00000   0.00000
  49       33PZ         0.00000   0.00000   0.00000  -0.00001   0.00048
  50       34PX         0.00000   0.00000   0.00002   0.00000   0.00000
  51       34PY         0.00000   0.00002   0.00000   0.00000   0.00000
  52       34PZ         0.00000   0.00000   0.00000   0.00003  -0.00124
  53       35PX         0.00000   0.00000   0.00017   0.00000   0.00000
  54       35PY         0.00000   0.00017   0.00000   0.00000   0.00000
  55       35PZ         0.00000   0.00000   0.00000  -0.00050  -0.00360
  56       36PX         0.00000   0.00000   0.00035   0.00000   0.00000
  57       36PY         0.00000   0.00035   0.00000   0.00000   0.00000
  58       36PZ         0.00000   0.00000   0.00000  -0.00216   0.00089
  59       37PX         0.00000   0.00000  -0.00040   0.00000   0.00000
  60       37PY         0.00000  -0.00040   0.00000   0.00000   0.00000
  61       37PZ         0.00000   0.00000   0.00000   0.00124   0.01561
  62       38PX         0.00000   0.00000   0.00048   0.00000   0.00000
  63       38PY         0.00000   0.00048   0.00000   0.00000   0.00000
  64       38PZ         0.00000   0.00000   0.00000  -0.00001   0.02116
  65       39PX         0.00000   0.00000  -0.00166   0.00000   0.00000
  66       39PY         0.00000  -0.00166   0.00000   0.00000   0.00000
  67       39PZ         0.00000   0.00000   0.00000   0.00217   0.03795
  68       40PX         0.00000   0.00000   0.00067   0.00000   0.00000
  69       40PY         0.00000   0.00067   0.00000   0.00000   0.00000
  70       40PZ         0.00000   0.00000   0.00000   0.00153   0.00627
  71       41PX         0.00000   0.00000   0.00138   0.00000   0.00000
  72       41PY         0.00000   0.00138   0.00000   0.00000   0.00000
  73       41PZ         0.00000   0.00000   0.00000  -0.00075  -0.07872
  74       42PX         0.00000   0.00000   0.00044   0.00000   0.00000
  75       42PY         0.00000   0.00044   0.00000   0.00000   0.00000
  76       42PZ         0.00000   0.00000   0.00000  -0.00593  -0.08081
  77       43PX         0.00000   0.00000   0.00030   0.00000   0.00000
  78       43PY         0.00000   0.00030   0.00000   0.00000   0.00000
  79       43PZ         0.00000   0.00000   0.00000  -0.00089  -0.01177
  80       44PX         0.00000   0.00000  -0.00028   0.00000   0.00000
  81       44PY         0.00000  -0.00028   0.00000   0.00000   0.00000
  82       44PZ         0.00000   0.00000   0.00000   0.00201  -0.00325
  83       45PX         0.00000   0.00000  -0.00129   0.00000   0.00000
  84       45PY         0.00000  -0.00129   0.00000   0.00000   0.00000
  85       45PZ         0.00000   0.00000   0.00000   0.00090   0.01240
  86       46PX         0.00000   0.00000  -0.00005   0.00000   0.00000
  87       46PY         0.00000  -0.00005   0.00000   0.00000   0.00000
  88       46PZ         0.00000   0.00000   0.00000   0.00034   0.00171
  89       47D 0        0.00000   0.00000   0.00000  -0.00000   0.00000
  90       47D+1        0.00000   0.00000  -0.00000   0.00000   0.00000
  91       47D-1        0.00000  -0.00000   0.00000   0.00000   0.00000
  92       47D+2        0.00000   0.00000   0.00000  -0.00000   0.00000
  93       47D-2       -0.00000   0.00000   0.00000   0.00000   0.00000
  94       48D 0        0.00000   0.00000   0.00000   0.00001  -0.00000
  95       48D+1        0.00000   0.00000   0.00001   0.00000   0.00000
  96       48D-1        0.00000   0.00001   0.00000   0.00000   0.00000
  97       48D+2        0.00000   0.00000   0.00000  -0.00000  -0.00000
  98       48D-2        0.00001   0.00000   0.00000   0.00000   0.00000
  99       49D 0        0.00000   0.00000   0.00000   0.00223  -0.00026
 100       49D+1        0.00000   0.00000   0.00225   0.00000   0.00000
 101       49D-1        0.00000   0.00225   0.00000   0.00000   0.00000
 102       49D+2        0.00000   0.00000   0.00000  -0.00000   0.00000
 103       49D-2        0.00225   0.00000   0.00000   0.00000   0.00000
 104       50D 0        0.00000   0.00000   0.00000   0.03069  -0.00365
 105       50D+1        0.00000   0.00000   0.03105   0.00000   0.00000
 106       50D-1        0.00000   0.03105   0.00000   0.00000   0.00000
 107       50D+2        0.00000   0.00000   0.00000  -0.00000  -0.00000
 108       50D-2        0.03103   0.00000   0.00000   0.00000   0.00000
 109       51D 0        0.00000   0.00000   0.00000   0.11665  -0.01377
 110       51D+1        0.00000   0.00000   0.11783   0.00000   0.00000
 111       51D-1        0.00000   0.11783   0.00000   0.00000   0.00000
 112       51D+2        0.00000   0.00000   0.00000  -0.00000   0.00000
 113       51D-2        0.11779   0.00000   0.00000   0.00000   0.00000
 114       52D 0        0.00000   0.00000   0.00000   0.25417  -0.02868
 115       52D+1        0.00000   0.00000   0.25480   0.00000   0.00000
 116       52D-1        0.00000   0.25480   0.00000   0.00000   0.00000
 117       52D+2        0.00000   0.00000   0.00000  -0.00000   0.00000
 118       52D-2        0.25506   0.00000   0.00000   0.00000   0.00000
 119       53D 0        0.00000   0.00000   0.00000   0.29304  -0.03364
 120       53D+1        0.00000   0.00000   0.29498   0.00000   0.00000
 121       53D-1        0.00000   0.29498   0.00000   0.00000   0.00000
 122       53D+2        0.00000   0.00000   0.00000  -0.00000   0.00000
 123       53D-2        0.29508   0.00000   0.00000   0.00000   0.00000
 124       54D 0        0.00000   0.00000   0.00000   0.29640  -0.03553
 125       54D+1        0.00000   0.00000   0.30028   0.00000   0.00000
 126       54D-1        0.00000   0.30028   0.00000   0.00000   0.00000
 127       54D+2        0.00000   0.00000   0.00000  -0.00000  -0.00000
 128       54D-2        0.29998   0.00000   0.00000   0.00000   0.00000
 129       55D 0        0.00000   0.00000   0.00000   0.24602  -0.02680
 130       55D+1        0.00000   0.00000   0.24789   0.00000   0.00000
 131       55D-1        0.00000   0.24789   0.00000   0.00000   0.00000
 132       55D+2        0.00000   0.00000   0.00000  -0.00000   0.00000
 133       55D-2        0.24893   0.00000   0.00000   0.00000   0.00000
 134       56D 0        0.00000   0.00000   0.00000   0.13936  -0.00612
 135       56D+1        0.00000   0.00000   0.13993   0.00000   0.00000
 136       56D-1        0.00000   0.13993   0.00000   0.00000   0.00000
 137       56D+2        0.00000   0.00000   0.00000  -0.00000  -0.00000
 138       56D-2        0.14070   0.00000   0.00000   0.00000   0.00000
 139       57D 0        0.00000   0.00000   0.00000   0.03826   0.00922
 140       57D+1        0.00000   0.00000   0.03690   0.00000   0.00000
 141       57D-1        0.00000   0.03690   0.00000   0.00000   0.00000
 142       57D+2        0.00000   0.00000   0.00000  -0.00000   0.00000
 143       57D-2        0.03533   0.00000   0.00000   0.00000   0.00000
 144       58D 0        0.00000   0.00000   0.00000  -0.04233   0.00415
 145       58D+1        0.00000   0.00000  -0.04149   0.00000   0.00000
 146       58D-1        0.00000  -0.04149   0.00000   0.00000   0.00000
 147       58D+2        0.00000   0.00000   0.00000   0.00000  -0.00000
 148       58D-2       -0.04169   0.00000   0.00000   0.00000   0.00000
 149       59D 0        0.00000   0.00000   0.00000  -0.02831   0.00192
 150       59D+1        0.00000   0.00000  -0.02658   0.00000   0.00000
 151       59D-1        0.00000  -0.02658   0.00000   0.00000   0.00000
 152       59D+2        0.00000   0.00000   0.00000   0.00000  -0.00000
 153       59D-2       -0.02692   0.00000   0.00000   0.00000   0.00000
 154       60D 0        0.00000   0.00000   0.00000   0.00087   0.00522
 155       60D+1        0.00000   0.00000   0.00054   0.00000   0.00000
 156       60D-1        0.00000   0.00054   0.00000   0.00000   0.00000
 157       60D+2        0.00000   0.00000   0.00000   0.00000  -0.00000
 158       60D-2        0.00015   0.00000   0.00000   0.00000   0.00000
 159       61F 0        0.00000   0.00000   0.00000   0.00007  -0.00003
 160       61F+1        0.00000   0.00000   0.00007   0.00000   0.00000
 161       61F-1        0.00000   0.00007   0.00000   0.00000   0.00000
 162       61F+2        0.00000   0.00000   0.00000   0.00000   0.00000
 163       61F-2        0.00005   0.00000   0.00000   0.00000   0.00000
 164       61F+3        0.00000   0.00000   0.00000   0.00000   0.00000
 165       61F-3        0.00000   0.00000   0.00000   0.00000   0.00000
 166       62F 0        0.00000   0.00000   0.00000   0.00013  -0.00021
 167       62F+1        0.00000   0.00000   0.00016   0.00000   0.00000
 168       62F-1        0.00000   0.00016   0.00000   0.00000   0.00000
 169       62F+2        0.00000   0.00000   0.00000  -0.00000  -0.00000
 170       62F-2        0.00013   0.00000   0.00000   0.00000   0.00000
 171       62F+3        0.00000   0.00000   0.00000   0.00000   0.00000
 172       62F-3        0.00000  -0.00000   0.00000   0.00000   0.00000
 173       63F 0        0.00000   0.00000   0.00000   0.00044  -0.00030
 174       63F+1        0.00000   0.00000   0.00041   0.00000   0.00000
 175       63F-1        0.00000   0.00041   0.00000   0.00000   0.00000
 176       63F+2        0.00000   0.00000   0.00000   0.00000  -0.00000
 177       63F-2        0.00029   0.00000   0.00000   0.00000   0.00000
 178       63F+3        0.00000   0.00000   0.00000   0.00000   0.00000
 179       63F-3        0.00000  -0.00000   0.00000   0.00000   0.00000
 180       64F 0        0.00000   0.00000   0.00000   0.00064  -0.00306
 181       64F+1        0.00000   0.00000   0.00110   0.00000   0.00000
 182       64F-1        0.00000   0.00110   0.00000   0.00000   0.00000
 183       64F+2        0.00000   0.00000   0.00000  -0.00000  -0.00000
 184       64F-2        0.00079   0.00000   0.00000   0.00000   0.00000
 185       64F+3        0.00000   0.00000   0.00000   0.00000   0.00000
 186       64F-3        0.00000   0.00000   0.00000   0.00000   0.00000
 187       65F 0        0.00000   0.00000   0.00000  -0.00023  -0.00398
 188       65F+1        0.00000   0.00000   0.00007   0.00000   0.00000
 189       65F-1        0.00000   0.00007   0.00000   0.00000   0.00000
 190       65F+2        0.00000   0.00000   0.00000  -0.00000   0.00000
 191       65F-2        0.00053   0.00000   0.00000   0.00000   0.00000
 192       65F+3        0.00000   0.00000  -0.00000   0.00000   0.00000
 193       65F-3        0.00000  -0.00000   0.00000   0.00000   0.00000
 194       66G 0        0.00000   0.00000   0.00000  -0.00004   0.00000
 195       66G+1        0.00000   0.00000  -0.00004   0.00000   0.00000
 196       66G-1        0.00000  -0.00004   0.00000   0.00000   0.00000
 197       66G+2        0.00000   0.00000   0.00000  -0.00000   0.00000
 198       66G-2       -0.00002   0.00000   0.00000   0.00000   0.00000
 199       66G+3        0.00000   0.00000  -0.00000   0.00000   0.00000
 200       66G-3        0.00000  -0.00000   0.00000   0.00000   0.00000
 201       66G+4        0.00000   0.00000   0.00000  -0.00000   0.00000
 202       66G-4       -0.00000   0.00000   0.00000   0.00000   0.00000
 203       67G 0        0.00000   0.00000   0.00000  -0.00010   0.00005
 204       67G+1        0.00000   0.00000  -0.00010   0.00000   0.00000
 205       67G-1        0.00000  -0.00010   0.00000   0.00000   0.00000
 206       67G+2        0.00000   0.00000   0.00000   0.00000  -0.00000
 207       67G-2       -0.00009   0.00000   0.00000   0.00000   0.00000
 208       67G+3        0.00000   0.00000  -0.00000   0.00000   0.00000
 209       67G-3        0.00000  -0.00000   0.00000   0.00000   0.00000
 210       67G+4        0.00000   0.00000   0.00000  -0.00000   0.00000
 211       67G-4       -0.00000   0.00000   0.00000   0.00000   0.00000
 212       68G 0        0.00000   0.00000   0.00000  -0.00018  -0.00001
 213       68G+1        0.00000   0.00000  -0.00016   0.00000   0.00000
 214       68G-1        0.00000  -0.00016   0.00000   0.00000   0.00000
 215       68G+2        0.00000   0.00000   0.00000  -0.00000   0.00000
 216       68G-2       -0.00006   0.00000   0.00000   0.00000   0.00000
 217       68G+3        0.00000   0.00000  -0.00000   0.00000   0.00000
 218       68G-3        0.00000  -0.00000   0.00000   0.00000   0.00000
 219       68G+4        0.00000   0.00000   0.00000  -0.00000   0.00000
 220       68G-4       -0.00000   0.00000   0.00000   0.00000   0.00000
 221       69G 0        0.00000   0.00000   0.00000  -0.00087   0.00109
 222       69G+1        0.00000   0.00000  -0.00096   0.00000   0.00000
 223       69G-1        0.00000  -0.00096   0.00000   0.00000   0.00000
 224       69G+2        0.00000   0.00000   0.00000   0.00000   0.00000
 225       69G-2       -0.00085   0.00000   0.00000   0.00000   0.00000
 226       69G+3        0.00000   0.00000  -0.00000   0.00000   0.00000
 227       69G-3        0.00000  -0.00000   0.00000   0.00000   0.00000
 228       69G+4        0.00000   0.00000   0.00000   0.00000  -0.00000
 229       69G-4       -0.00000   0.00000   0.00000   0.00000   0.00000
 230       70H 0        0.00000   0.00000   0.00000   0.00000  -0.00001
 231       70H+1        0.00000   0.00000   0.00000   0.00000   0.00000
 232       70H-1        0.00000   0.00000   0.00000   0.00000   0.00000
 233       70H+2        0.00000   0.00000   0.00000  -0.00000  -0.00000
 234       70H-2        0.00000   0.00000   0.00000   0.00000   0.00000
 235       70H+3        0.00000   0.00000   0.00000   0.00000   0.00000
 236       70H-3        0.00000   0.00000   0.00000   0.00000   0.00000
 237       70H+4        0.00000   0.00000   0.00000  -0.00000   0.00000
 238       70H-4        0.00000   0.00000   0.00000   0.00000   0.00000
 239       70H+5        0.00000   0.00000   0.00000   0.00000   0.00000
 240       70H-5        0.00000   0.00000   0.00000   0.00000   0.00000
 241       71H 0        0.00000   0.00000   0.00000   0.00002   0.00002
 242       71H+1        0.00000   0.00000   0.00001   0.00000   0.00000
 243       71H-1        0.00000   0.00001   0.00000   0.00000   0.00000
 244       71H+2        0.00000   0.00000   0.00000   0.00000   0.00000
 245       71H-2        0.00000   0.00000   0.00000   0.00000   0.00000
 246       71H+3        0.00000   0.00000   0.00000   0.00000   0.00000
 247       71H-3        0.00000   0.00000   0.00000   0.00000   0.00000
 248       71H+4        0.00000   0.00000   0.00000   0.00000  -0.00000
 249       71H-4        0.00000   0.00000   0.00000   0.00000   0.00000
 250       71H+5        0.00000   0.00000   0.00000   0.00000   0.00000
 251       71H-5        0.00000   0.00000   0.00000   0.00000   0.00000
 252       72H 0        0.00000   0.00000   0.00000  -0.00003  -0.00009
 253       72H+1        0.00000   0.00000  -0.00000   0.00000   0.00000
 254       72H-1        0.00000  -0.00000   0.00000   0.00000   0.00000
 255       72H+2        0.00000   0.00000   0.00000  -0.00000  -0.00000
 256       72H-2        0.00002   0.00000   0.00000   0.00000   0.00000
 257       72H+3        0.00000   0.00000  -0.00000   0.00000   0.00000
 258       72H-3        0.00000  -0.00000   0.00000   0.00000   0.00000
 259       72H+4        0.00000   0.00000   0.00000  -0.00000   0.00000
 260       72H-4        0.00000   0.00000   0.00000   0.00000   0.00000
 261       72H+5        0.00000   0.00000   0.00000   0.00000   0.00000
 262       72H-5        0.00000   0.00000   0.00000   0.00000   0.00000
 263 2   H  1S          0.00000   0.00000   0.00000   0.00005   0.00031
 264        2S          0.00000   0.00000   0.00000   0.00193   0.01134
 265        3S          0.00000   0.00000   0.00000   0.00824   0.05079
 266        4S          0.00000   0.00000   0.00000   0.02601   0.15616
 267        5S          0.00000   0.00000   0.00000   0.03510   0.29783
 268        6S          0.00000   0.00000   0.00000   0.01097   0.21707
 269        7S          0.00000   0.00000   0.00000   0.00166   0.01943
 270        8PX         0.00000   0.00000  -0.00025   0.00000   0.00000
 271        8PY         0.00000  -0.00025   0.00000   0.00000   0.00000
 272        8PZ         0.00000   0.00000   0.00000   0.00091   0.00111
 273        9PX         0.00000   0.00000  -0.00172   0.00000   0.00000
 274        9PY         0.00000  -0.00172   0.00000   0.00000   0.00000
 275        9PZ         0.00000   0.00000   0.00000   0.00331   0.00754
 276       10PX         0.00000   0.00000  -0.00135   0.00000   0.00000
 277       10PY         0.00000  -0.00135   0.00000   0.00000   0.00000
 278       10PZ         0.00000   0.00000   0.00000   0.00572   0.02290
 279       11PX         0.00000   0.00000  -0.00042   0.00000   0.00000
 280       11PY         0.00000  -0.00042   0.00000   0.00000   0.00000
 281       11PZ         0.00000   0.00000   0.00000  -0.00002   0.00874
 282       12D 0        0.00000   0.00000   0.00000   0.00042   0.00021
 283       12D+1        0.00000   0.00000  -0.00021   0.00000   0.00000
 284       12D-1        0.00000  -0.00021   0.00000   0.00000   0.00000
 285       12D+2        0.00000   0.00000   0.00000   0.00000  -0.00000
 286       12D-2        0.00003   0.00000   0.00000   0.00000   0.00000
 287       13D 0        0.00000   0.00000   0.00000   0.00112   0.00274
 288       13D+1        0.00000   0.00000  -0.00060   0.00000   0.00000
 289       13D-1        0.00000  -0.00060   0.00000   0.00000   0.00000
 290       13D+2        0.00000   0.00000   0.00000  -0.00000   0.00000
 291       13D-2        0.00020   0.00000   0.00000   0.00000   0.00000
 292       14D 0        0.00000   0.00000   0.00000   0.00095  -0.00061
 293       14D+1        0.00000   0.00000   0.00027   0.00000   0.00000
 294       14D-1        0.00000   0.00027   0.00000   0.00000   0.00000
 295       14D+2        0.00000   0.00000   0.00000  -0.00000  -0.00000
 296       14D-2       -0.00036   0.00000   0.00000   0.00000   0.00000
 297       15F 0        0.00000   0.00000   0.00000   0.00032   0.00033
 298       15F+1        0.00000   0.00000  -0.00020   0.00000   0.00000
 299       15F-1        0.00000  -0.00020   0.00000   0.00000   0.00000
 300       15F+2        0.00000   0.00000   0.00000   0.00000  -0.00000
 301       15F-2        0.00008   0.00000   0.00000   0.00000   0.00000
 302       15F+3        0.00000   0.00000  -0.00000   0.00000   0.00000
 303       15F-3        0.00000  -0.00000   0.00000   0.00000   0.00000
 304       16F 0        0.00000   0.00000   0.00000  -0.00003  -0.00032
 305       16F+1        0.00000   0.00000   0.00017   0.00000   0.00000
 306       16F-1        0.00000   0.00017   0.00000   0.00000   0.00000
 307       16F+2        0.00000   0.00000   0.00000   0.00000  -0.00000
 308       16F-2       -0.00024   0.00000   0.00000   0.00000   0.00000
 309       16F+3        0.00000   0.00000   0.00000   0.00000   0.00000
 310       16F-3        0.00000   0.00000   0.00000   0.00000   0.00000
                          11        12        13        14        15
                           O         V         V         V         V
     Eigenvalues --    -0.28150   0.01898   0.01898   0.02836   0.03477
   1 1   Zn 1S         -0.00000   0.00000   0.00000  -0.00000  -0.00000
   2        2S          0.00000   0.00000   0.00000   0.00000   0.00000
   3        3S         -0.00000   0.00000   0.00000  -0.00000  -0.00000
   4        4S          0.00000   0.00000   0.00000   0.00000   0.00000
   5        5S         -0.00000   0.00000   0.00000  -0.00000  -0.00000
   6        6S          0.00000   0.00000   0.00000   0.00000   0.00000
   7        7S         -0.00000   0.00000   0.00000  -0.00000  -0.00000
   8        8S          0.00000   0.00000   0.00000   0.00001   0.00001
   9        9S         -0.00001   0.00000   0.00000  -0.00002  -0.00002
  10       10S          0.00002   0.00000   0.00000   0.00005   0.00004
  11       11S         -0.00006   0.00000   0.00000  -0.00014  -0.00011
  12       12S          0.00014   0.00000   0.00000   0.00035   0.00028
  13       13S          0.00056   0.00000   0.00000  -0.00097  -0.00075
  14       14S         -0.01419   0.00000   0.00000   0.00561   0.00393
  15       15S          0.03350   0.00000   0.00000  -0.01408  -0.00994
  16       16S          0.04449   0.00000   0.00000   0.03077   0.02630
  17       17S         -0.08192   0.00000   0.00000  -0.11859  -0.09762
  18       18S         -0.15801   0.00000   0.00000  -0.02523  -0.02730
  19       19S         -0.13858   0.00000   0.00000   0.07335   0.05570
  20       20S          0.24769   0.00000   0.00000  -0.23712  -0.13806
  21       21S          0.51870   0.00000   0.00000   0.72812   0.08540
  22       22S          0.20089   0.00000   0.00000  -1.15811  -1.32828
  23       23S          0.01568   0.00000   0.00000  -0.03207  -0.02524
  24       24S          0.01835   0.00000   0.00000   0.16522   0.13301
  25       25S          0.00933   0.00000   0.00000   3.37814  -0.80872
  26       26PX         0.00000   0.00000  -0.00000   0.00000   0.00000
  27       26PY         0.00000  -0.00000   0.00000   0.00000   0.00000
  28       26PZ         0.00000   0.00000   0.00000  -0.00000  -0.00000
  29       27PX         0.00000   0.00000   0.00000   0.00000   0.00000
  30       27PY         0.00000   0.00000   0.00000   0.00000   0.00000
  31       27PZ        -0.00000   0.00000   0.00000   0.00000   0.00000
  32       28PX         0.00000   0.00000  -0.00000   0.00000   0.00000
  33       28PY         0.00000  -0.00000   0.00000   0.00000   0.00000
  34       28PZ         0.00000   0.00000   0.00000  -0.00000  -0.00000
  35       29PX         0.00000   0.00000   0.00000   0.00000   0.00000
  36       29PY         0.00000   0.00000   0.00000   0.00000   0.00000
  37       29PZ        -0.00000   0.00000   0.00000   0.00000   0.00001
  38       30PX         0.00000   0.00000  -0.00001   0.00000   0.00000
  39       30PY         0.00000  -0.00001   0.00000   0.00000   0.00000
  40       30PZ         0.00001   0.00000   0.00000  -0.00001  -0.00002
  41       31PX         0.00000   0.00000   0.00004   0.00000   0.00000
  42       31PY         0.00000   0.00004   0.00000   0.00000   0.00000
  43       31PZ        -0.00004   0.00000   0.00000   0.00004   0.00008
  44       32PX         0.00000   0.00000  -0.00009   0.00000   0.00000
  45       32PY         0.00000  -0.00009   0.00000   0.00000   0.00000
  46       32PZ         0.00016   0.00000   0.00000  -0.00012  -0.00025
  47       33PX         0.00000   0.00000   0.00013   0.00000   0.00000
  48       33PY         0.00000   0.00013   0.00000   0.00000   0.00000
  49       33PZ        -0.00081   0.00000   0.00000   0.00037   0.00076
  50       34PX         0.00000   0.00000  -0.00052   0.00000   0.00000
  51       34PY         0.00000  -0.00052   0.00000   0.00000   0.00000
  52       34PZ         0.00213   0.00000   0.00000  -0.00111  -0.00226
  53       35PX         0.00000   0.00000   0.00766   0.00000   0.00000
  54       35PY         0.00000   0.00766   0.00000   0.00000   0.00000
[...]
  96       48D-1        0.00000   0.00000   0.00000   0.00000
  97       48D+2        0.00000   0.00000   0.00000   0.00000
  98       48D-2        0.00000   0.00000   0.00000   0.00000
  99       49D 0        0.00052   0.00026   0.00026   0.00000
 100       49D+1        0.00052   0.00026   0.00026   0.00000
 101       49D-1        0.00052   0.00026   0.00026   0.00000
 102       49D+2        0.00052   0.00026   0.00026   0.00000
 103       49D-2        0.00052   0.00026   0.00026   0.00000
 104       50D 0        0.01701   0.00852   0.00849   0.00004
 105       50D+1        0.01712   0.00856   0.00856   0.00000
 106       50D-1        0.01712   0.00856   0.00856   0.00000
 107       50D+2        0.01710   0.00855   0.00855   0.00000
 108       50D-2        0.01710   0.00855   0.00855   0.00000
 109       51D 0        0.11623   0.05825   0.05798   0.00027
 110       51D+1        0.11681   0.05840   0.05840   0.00000
 111       51D-1        0.11681   0.05840   0.05840   0.00000
 112       51D+2        0.11673   0.05836   0.05836   0.00000
 113       51D-2        0.11673   0.05836   0.05836   0.00000
 114       52D 0        0.36621   0.18350   0.18271   0.00079
 115       52D+1        0.36549   0.18275   0.18275   0.00000
 116       52D-1        0.36549   0.18275   0.18275   0.00000
 117       52D+2        0.36578   0.18289   0.18289   0.00000
 118       52D-2        0.36578   0.18289   0.18289   0.00000
 119       53D 0        0.51247   0.25678   0.25568   0.00110
 120       53D+1        0.51342   0.25671   0.25671   0.00000
 121       53D-1        0.51342   0.25671   0.25671   0.00000
 122       53D+2        0.51361   0.25680   0.25680   0.00000
 123       53D-2        0.51361   0.25680   0.25680   0.00000
 124       54D 0        0.53244   0.26676   0.26567   0.00109
 125       54D+1        0.53649   0.26825   0.26825   0.00000
 126       54D-1        0.53649   0.26825   0.26825   0.00000
 127       54D+2        0.53621   0.26810   0.26810   0.00000
 128       54D-2        0.53621   0.26810   0.26810   0.00000
 129       55D 0        0.37833   0.18937   0.18897   0.00040
 130       55D+1        0.37930   0.18965   0.18965   0.00000
 131       55D-1        0.37930   0.18965   0.18965   0.00000
 132       55D+2        0.38113   0.19057   0.19057   0.00000
 133       55D-2        0.38113   0.19057   0.19057   0.00000
 134       56D 0        0.15030   0.07495   0.07535  -0.00041
 135       56D+1        0.14780   0.07390   0.07390   0.00000
 136       56D-1        0.14780   0.07390   0.07390   0.00000
 137       56D+2        0.14840   0.07420   0.07420   0.00000
 138       56D-2        0.14840   0.07420   0.07420   0.00000
 139       57D 0        0.02674   0.01253   0.01421  -0.00168
 140       57D+1        0.02003   0.01001   0.01001   0.00000
 141       57D-1        0.02003   0.01001   0.01001   0.00000
 142       57D+2        0.01899   0.00950   0.00950   0.00000
 143       57D-2        0.01899   0.00950   0.00950   0.00000
 144       58D 0       -0.05582  -0.02796  -0.02786  -0.00010
 145       58D+1       -0.05459  -0.02730  -0.02730  -0.00000
 146       58D-1       -0.05459  -0.02730  -0.02730  -0.00000
 147       58D+2       -0.05484  -0.02742  -0.02742  -0.00000
 148       58D-2       -0.05484  -0.02742  -0.02742  -0.00000
 149       59D 0       -0.04575  -0.02290  -0.02285  -0.00005
 150       59D+1       -0.04303  -0.02151  -0.02151  -0.00000
 151       59D-1       -0.04303  -0.02151  -0.02151   0.00000
 152       59D+2       -0.04357  -0.02179  -0.02179  -0.00000
 153       59D-2       -0.04357  -0.02179  -0.02179  -0.00000
 154       60D 0        0.00152   0.00011   0.00141  -0.00130
 155       60D+1        0.00012   0.00006   0.00006   0.00000
 156       60D-1        0.00012   0.00006   0.00006   0.00000
 157       60D+2        0.00003   0.00002   0.00002   0.00000
 158       60D-2        0.00003   0.00002   0.00002   0.00000
 159       61F 0        0.00000   0.00000   0.00000   0.00000
 160       61F+1        0.00000   0.00000   0.00000   0.00000
 161       61F-1        0.00000   0.00000   0.00000   0.00000
 162       61F+2        0.00000   0.00000   0.00000   0.00000
 163       61F-2        0.00000   0.00000   0.00000   0.00000
 164       61F+3        0.00000   0.00000   0.00000   0.00000
 165       61F-3        0.00000   0.00000   0.00000   0.00000
 166       62F 0        0.00000   0.00000   0.00000   0.00000
 167       62F+1        0.00000   0.00000   0.00000   0.00000
 168       62F-1        0.00000   0.00000   0.00000   0.00000
 169       62F+2        0.00000   0.00000   0.00000   0.00000
 170       62F-2        0.00000   0.00000   0.00000   0.00000
 171       62F+3        0.00000   0.00000   0.00000   0.00000
 172       62F-3       -0.00000  -0.00000  -0.00000  -0.00000
 173       63F 0        0.00001   0.00000   0.00000   0.00000
 174       63F+1        0.00000   0.00000   0.00000   0.00000
 175       63F-1        0.00000   0.00000   0.00000   0.00000
 176       63F+2        0.00000   0.00000   0.00000  -0.00000
 177       63F-2        0.00000   0.00000   0.00000   0.00000
 178       63F+3       -0.00000  -0.00000  -0.00000  -0.00000
 179       63F-3        0.00000   0.00000   0.00000   0.00000
 180       64F 0        0.00032   0.00018   0.00014   0.00005
 181       64F+1        0.00000   0.00000   0.00000   0.00000
 182       64F-1        0.00000   0.00000   0.00000   0.00000
 183       64F+2        0.00000   0.00000   0.00000   0.00000
 184       64F-2        0.00000   0.00000   0.00000   0.00000
 185       64F+3        0.00000   0.00000   0.00000   0.00000
 186       64F-3        0.00000   0.00000   0.00000   0.00000
 187       65F 0        0.00156   0.00088   0.00068   0.00020
 188       65F+1       -0.00000  -0.00000  -0.00000  -0.00000
 189       65F-1       -0.00000  -0.00000  -0.00000  -0.00000
 190       65F+2        0.00000   0.00000   0.00000   0.00000
 191       65F-2        0.00000   0.00000   0.00000   0.00000
 192       65F+3        0.00000   0.00000   0.00000   0.00000
 193       65F-3       -0.00000  -0.00000  -0.00000   0.00000
 194       66G 0        0.00000   0.00000   0.00000   0.00000
 195       66G+1        0.00000   0.00000   0.00000   0.00000
 196       66G-1        0.00000   0.00000   0.00000   0.00000
 197       66G+2        0.00000   0.00000   0.00000   0.00000
 198       66G-2        0.00000   0.00000   0.00000   0.00000
 199       66G+3        0.00000   0.00000   0.00000   0.00000
 200       66G-3        0.00000   0.00000   0.00000   0.00000
 201       66G+4        0.00000   0.00000   0.00000  -0.00000
 202       66G-4        0.00000   0.00000   0.00000   0.00000
 203       67G 0        0.00000   0.00000   0.00000   0.00000
 204       67G+1        0.00000   0.00000   0.00000   0.00000
 205       67G-1        0.00000   0.00000   0.00000   0.00000
 206       67G+2        0.00000   0.00000   0.00000   0.00000
 207       67G-2        0.00000   0.00000   0.00000   0.00000
 208       67G+3       -0.00000  -0.00000  -0.00000   0.00000
 209       67G-3       -0.00000  -0.00000  -0.00000   0.00000
 210       67G+4        0.00000   0.00000   0.00000   0.00000
 211       67G-4        0.00000   0.00000   0.00000   0.00000
 212       68G 0        0.00000   0.00000  -0.00000   0.00000
 213       68G+1        0.00000   0.00000   0.00000   0.00000
 214       68G-1        0.00000   0.00000   0.00000   0.00000
 215       68G+2        0.00000   0.00000   0.00000   0.00000
 216       68G-2        0.00000   0.00000   0.00000   0.00000
 217       68G+3        0.00000   0.00000   0.00000   0.00000
 218       68G-3        0.00000   0.00000   0.00000   0.00000
 219       68G+4        0.00000   0.00000   0.00000  -0.00000
 220       68G-4        0.00000   0.00000   0.00000   0.00000
 221       69G 0        0.00006   0.00003   0.00003   0.00000
 222       69G+1        0.00000   0.00000   0.00000   0.00000
 223       69G-1        0.00000   0.00000   0.00000   0.00000
 224       69G+2        0.00000   0.00000   0.00000   0.00000
 225       69G-2        0.00000   0.00000   0.00000   0.00000
 226       69G+3        0.00000   0.00000   0.00000   0.00000
 227       69G-3        0.00000   0.00000   0.00000   0.00000
 228       69G+4        0.00000   0.00000  -0.00000   0.00000
 229       69G-4        0.00000   0.00000   0.00000   0.00000
 230       70H 0        0.00000   0.00000   0.00000   0.00000
 231       70H+1        0.00000   0.00000   0.00000   0.00000
 232       70H-1        0.00000   0.00000   0.00000   0.00000
 233       70H+2        0.00000   0.00000   0.00000  -0.00000
 234       70H-2        0.00000   0.00000   0.00000   0.00000
 235       70H+3        0.00000   0.00000   0.00000   0.00000
 236       70H-3        0.00000   0.00000   0.00000   0.00000
 237       70H+4       -0.00000  -0.00000  -0.00000  -0.00000
 238       70H-4        0.00000   0.00000   0.00000   0.00000
 239       70H+5        0.00000   0.00000   0.00000   0.00000
 240       70H-5        0.00000   0.00000   0.00000   0.00000
 241       71H 0       -0.00000  -0.00000  -0.00000  -0.00000
 242       71H+1        0.00000   0.00000   0.00000   0.00000
 243       71H-1        0.00000   0.00000   0.00000   0.00000
 244       71H+2        0.00000   0.00000   0.00000   0.00000
 245       71H-2        0.00000   0.00000   0.00000   0.00000
 246       71H+3        0.00000   0.00000   0.00000   0.00000
 247       71H-3        0.00000   0.00000   0.00000   0.00000
 248       71H+4        0.00000   0.00000   0.00000   0.00000
 249       71H-4        0.00000   0.00000   0.00000   0.00000
 250       71H+5        0.00000   0.00000   0.00000   0.00000
 251       71H-5        0.00000   0.00000   0.00000   0.00000
 252       72H 0        0.00000   0.00000   0.00000   0.00000
 253       72H+1        0.00000   0.00000   0.00000   0.00000
 254       72H-1        0.00000   0.00000   0.00000   0.00000
 255       72H+2        0.00000   0.00000   0.00000  -0.00000
 256       72H-2        0.00000   0.00000   0.00000   0.00000
 257       72H+3        0.00000   0.00000   0.00000   0.00000
 258       72H-3        0.00000   0.00000   0.00000   0.00000
 259       72H+4       -0.00000  -0.00000  -0.00000   0.00000
 260       72H-4        0.00000   0.00000   0.00000   0.00000
 261       72H+5        0.00000   0.00000   0.00000   0.00000
 262       72H-5        0.00000   0.00000   0.00000   0.00000
 263 2   H  1S          0.00004   0.00002   0.00002   0.00000
 264        2S          0.00461   0.00253   0.00207   0.00046
 265        3S          0.04681   0.02572   0.02109   0.00463
 266        4S          0.24241   0.13262   0.10979   0.02282
 267        5S          0.58118   0.31445   0.26673   0.04772
 268        6S          0.40185   0.21008   0.19177   0.01831
 269        7S          0.01815   0.00657   0.01157  -0.00500
 270        8PX         0.00001   0.00000   0.00000   0.00000
 271        8PY         0.00001   0.00000   0.00000   0.00000
 272        8PZ         0.00016   0.00008   0.00008   0.00000
 273        9PX         0.00015   0.00008   0.00008   0.00000
 274        9PY         0.00015   0.00008   0.00008   0.00000
 275        9PZ         0.00228   0.00114   0.00114  -0.00001
 276       10PX         0.00027   0.00013   0.00013   0.00000
 277       10PY         0.00027   0.00013   0.00013   0.00000
 278       10PZ         0.00910   0.00414   0.00495  -0.00081
 279       11PX         0.00004   0.00002   0.00002   0.00000
 280       11PY         0.00004   0.00002   0.00002   0.00000
 281       11PZ         0.00394   0.00159   0.00235  -0.00077
 282       12D 0        0.00003   0.00001   0.00001  -0.00000
 283       12D+1        0.00001   0.00000   0.00000   0.00000
 284       12D-1        0.00001   0.00000   0.00000   0.00000
 285       12D+2        0.00000   0.00000   0.00000  -0.00000
 286       12D-2        0.00000   0.00000   0.00000   0.00000
 287       13D 0        0.00045   0.00022   0.00024  -0.00002
 288       13D+1        0.00012   0.00006   0.00006   0.00000
 289       13D-1        0.00012   0.00006   0.00006   0.00000
 290       13D+2        0.00001   0.00000   0.00000   0.00000
 291       13D-2        0.00001   0.00000   0.00000   0.00000
 292       14D 0        0.00010   0.00006   0.00004   0.00002
 293       14D+1       -0.00018  -0.00009  -0.00009   0.00000
 294       14D-1       -0.00018  -0.00009  -0.00009  -0.00000
 295       14D+2       -0.00005  -0.00003  -0.00003  -0.00000
 296       14D-2       -0.00005  -0.00003  -0.00003  -0.00000
 297       15F 0        0.00003   0.00001   0.00002  -0.00000
 298       15F+1        0.00001   0.00001   0.00001   0.00000
 299       15F-1        0.00001   0.00001   0.00001   0.00000
 300       15F+2        0.00000   0.00000   0.00000   0.00000
 301       15F-2        0.00000   0.00000   0.00000   0.00000
 302       15F+3       -0.00000  -0.00000  -0.00000  -0.00000
 303       15F-3       -0.00000  -0.00000  -0.00000  -0.00000
 304       16F 0        0.00025   0.00013   0.00012   0.00001
 305       16F+1       -0.00009  -0.00005  -0.00005  -0.00000
 306       16F-1       -0.00009  -0.00005  -0.00005  -0.00000
 307       16F+2       -0.00005  -0.00003  -0.00003  -0.00000
 308       16F-2       -0.00005  -0.00003  -0.00003  -0.00000
 309       16F+3        0.00000   0.00000   0.00000   0.00000
 310       16F-3        0.00000   0.00000   0.00000   0.00000
          Condensed to atoms (all electrons):
               1          2
     1  Zn  19.387402   0.300740
     2  H    0.300740   1.011119
          Atomic-Atomic Spin Densities.
               1          2
     1  Zn   0.983932  -0.071291
     2  H   -0.071291   0.158651
 Mulliken charges and spin densities:
               1          2
     1  Zn   0.311858   0.912641
     2  H   -0.311858   0.087359
 Sum of Mulliken charges =  -0.00000   1.00000
 Mulliken charges and spin densities with hydrogens summed into heavy atoms:
               1          2
     1  Zn  -0.000000   1.000000
 Electronic spatial extent (au):  <R**2>=             47.7919
 Charge=             -0.0000 electrons
 Dipole moment (field-independent basis, Debye):
    X=              0.0000    Y=              0.0000    Z=              1.0917  Tot=              1.0917
 Quadrupole moment (field-independent basis, Debye-Ang):
   XX=            -14.7209   YY=            -14.7209   ZZ=            -21.5510
   XY=              0.0000   XZ=              0.0000   YZ=              0.0000
 Traceless Quadrupole moment (field-independent basis, Debye-Ang):
   XX=              2.2767   YY=              2.2767   ZZ=             -4.5535
   XY=              0.0000   XZ=              0.0000   YZ=              0.0000
 Octapole moment (field-independent basis, Debye-Ang**2):
  XXX=              0.0000  YYY=              0.0000  ZZZ=              6.5944  XYY=              0.0000
  XXY=              0.0000  XXZ=              0.9856  XZZ=              0.0000  YZZ=              0.0000
  YYZ=              0.9856  XYZ=              0.0000
 Hexadecapole moment (field-independent basis, Debye-Ang**3):
 XXXX=            -20.4535 YYYY=            -20.4535 ZZZZ=            -74.9187 XXXY=              0.0000
 XXXZ=              0.0000 YYYX=              0.0000 YYYZ=              0.0000 ZZZX=              0.0000
 ZZZY=              0.0000 XXYY=             -6.8178 XXZZ=            -15.2648 YYZZ=            -15.2648
 XXYZ=              0.0000 YYXZ=              0.0000 ZZXY=              0.0000
 N-N= 6.225614246118D+00 E-N=-5.701775186258D+02  KE= 1.507089090871D+02
 Symmetry A1   KE= 6.276599928652D+01
 Symmetry A2   KE= 2.174324882361D+01
 Symmetry B1   KE= 3.309983048749D+01
 Symmetry B2   KE= 3.309983048792D+01
 Symmetry A1   SP= 1.000000000000D+00
 Symmetry A2   SP= 1.970059489566D-16
 Symmetry B1   SP= 4.239878750105D-16
 Symmetry B2   SP= 3.685865401634D-16
 Orbital energies and kinetic energies (alpha):
                                 1                 2
   6         O                -0.802733         10.871624
   7         O                -0.799960         10.876307
   8         O                -0.797573         10.876307
   9         O                -0.797573         10.652857
  10         O                -0.446538          0.615700
  11         O                -0.281503          0.521273
  12         V                 0.018978          0.064353
  13         V                 0.018978          0.064353
  14         V                 0.028358          0.044610
  15         V                 0.034773          0.051039
  16         V                 0.066233          0.199635
 Total kinetic energy from orbitals= 1.512301819409D+02
                          Isotropic Fermi Contact Couplings
        Atom                 a.u.       MegaHertz       Gauss      10(-4) cm-1
     1  Zn(67)             0.00002       0.00465       0.00166       0.00155
     2  H(1)               0.03085     137.89905      49.20581      45.99817
 --------------------------------------------------------
       Center         ----  Spin Dipole Couplings  ----
                      3XX-RR        3YY-RR        3ZZ-RR
 --------------------------------------------------------
     1   Atom       -0.000234     -0.000234      0.000467
     2   Atom       -0.003951     -0.003951      0.007902
 --------------------------------------------------------
                        XY            XZ            YZ
 --------------------------------------------------------
     1   Atom        0.000000      0.000000      0.000000
     2   Atom        0.000000      0.000000      0.000000
 --------------------------------------------------------


 ---------------------------------------------------------------------------------
              Anisotropic Spin Dipole Couplings in Principal Axis System
 ---------------------------------------------------------------------------------

       Atom             a.u.   MegaHertz   Gauss  10(-4) cm-1        Axes

              Baa    -0.0002    -0.008    -0.003    -0.003 -0.0000  1.0000  0.0000
     1 Zn(67) Bbb    -0.0002    -0.008    -0.003    -0.003  1.0000  0.0000  0.0000
              Bcc     0.0005     0.016     0.006     0.005  0.0000  0.0000  1.0000
 
              Baa    -0.0040    -2.108    -0.752    -0.703 -0.0000  1.0000  0.0000
     2 H(1)   Bbb    -0.0040    -2.108    -0.752    -0.703  1.0000  0.0000  0.0000
              Bcc     0.0079     4.216     1.504     1.406  0.0000  0.0000  1.0000
 

 ---------------------------------------------------------------------------------

 No NMR shielding tensors so no spin-rotation constants.
 Leave Link  601 at Sat Apr 21 11:53:53 2018, MaxMem= 10737418240 cpu:             179.7 elap:               5.8
 (Enter /home1/apps/gaussian/16rA.03/g16/l9999.exe)

 Test job not archived.
 1\1\GINC-C427-092\SP\ROCCSD(T)-Full\Gen\H1Zn1(2)\GWANG18\21-Apr-2018\0
 \\#P ROCCSD(T)=(MaxCyc=150, Full)/Gen SCF=(maxcycle=400, vshift=200) P
 seudo=Read Integral(NoXCTest) Pop=Regular MaxDisk=500GB Guess=Read IOp
 (5/15=2)\\ZnH\\0,2\Zn,0,0.,0.,0.\H,0,0.,0.,1.7\\Version=ES64L-G16RevA.
 03\State=2-SG\HF=-225.8006957\MP2=-226.8846077\MP3=-226.7606461\PUHF=-
 225.8006957\PMP2-0=-226.8846077\MP4SDQ=-226.8373922\CCSD=-226.8101543\
 CCSD(T)=-226.8384947\RMSD=5.118e-09\PG=C*V [C*(H1Zn1)]\\@


            ARSENIC

 FOR SMELTER FUMES HAVE I BEEN NAMED,
    I AM AN EVIL POISONOUS SMOKE...
 BUT WHEN FROM POISON I AM FREED,
    THROUGH ART AND SLEIGHT OF HAND,
 THEN CAN I CURE BOTH MAN AND BEAST,
    FROM DIRE DISEASE OFTTIMES DIRECT THEM;
 BUT PREPARE ME CORRECTLY, AND TAKE GREAT CARE
    THAT YOU FAITHFULLY KEEP WATCHFUL GUARD OVER ME;
 FOR ELSE I AM POISON, AND POISON REMAIN,
    THAT PIERCES THE HEART OF MANY A ONE.

 ATTRIBUTED TO THE PROBABLY MYTHICAL 15TH
 CENTURY MONK, BASILIUS VALENTINUS
 Job cpu time:       1 days  4 hours 29 minutes 47.7 seconds.
 Elapsed time:       0 days  0 hours 53 minutes 42.1 seconds.
 File lengths (MBytes):  RWF=  10433 Int=      0 D2E=      0 Chk=     12 Scr=      1
 Normal termination of Gaussian 16 at Sat Apr 21 11:53:53 2018.
