<?xml version="1.0"?>
<molpro xmlns="http://www.molpro.net/schema/molpro-output"
  xmlns:xsd="http://www.w3.org/1999/XMLSchema"
  xmlns:cml="http://www.xml-cml.org/schema"
  xmlns:stm="http://www.xml-cml.org/schema"
  xmlns:xhtml="http://www.w3.org/1999/xhtml">
 <!--

 Primary working directories    : /tmp/cmelton
 Secondary working directories  : /tmp/cmelton
 Wavefunction directory         : /remote/cmelton/wfu/
 Main file repository           : /tmp/cmelton/

 SHA1      : 4c1979699e6aeda0524d0210415ba82a958648b0
 NAME      : 2012.1.39
 ARCHNAME  : Linux/x86_64
 FC        : /projects/sems/install/rhel6-x86_64/sems/compiler/intel/16.0.1/base/bin/ifort
 FCVERSION : 16.0.1
 BLASLIB   : -L/projects/sems/install/rhel6-x86_64/sems/compiler/intel/16.0.1/base/compilers_and_libraries_2016.1.150/linux/mkl/lib/intel64 -lmkl_intel_ilp64 -lmkl_sequential -lmkl_core
 id        : sandiacon

 Nodes           nprocs
 breve.sandia.gov    1

 Using customized tuning parameters: mindgm=7; mindgv=16; mindgc=1; mindgr=1; noblas=0; minvec=7
 default implementation of scratch files=df  

 --><job>
  <!--
 ***,Calculation for Be atom, singlet and triplet
 memory,512,m
 geometry={
 1
 Fe
 Fe  0.0 0.0 0.0
 }
 
 basis={
 Including file /remote/cmelton/data/corrECP/Fe/ae/nr/basis/aug-cc-pwCVQZ-dk.basis
 }
 
 Including file /remote/cmelton/data/corrECP/Fe/ae/nr/basis/states.proc
 Including file /remote/cmelton/data/corrECP/Fe/ae/nr/basis/aug-cc-pwCVTZ-dk.basis
 Including file /remote/cmelton/data/corrECP/Fe/ae/nr/basis/aug-cc-pwCVQZ-dk.basis
 
 do i=2,2
 if (i.eq.1) then
     Is2d6
 else if (i.eq.2) then
     Is1d7
 else if (i.eq.3) then
     Id8
 else if (i.eq.4) then
     IIs1d6
 else if (i.eq.5) then
     IId7
 else if (i.eq.6) then
     IX
 else if (i.eq.7) then
     XV
 else if (i.eq.8) then
     As2d7
 else if (i.eq.9) then
     IIId6
 else if (i.eq.10) then
     IVd5
 else if (i.eq.11) then
     Vd4
 else if (i.eq.12) then
     VId3
 else if (i.eq.13) then
     VIId2
 else if (i.eq.14) then
     VIIId1
 endif
     scf(i)=energy
     _CC_NORM_MAX=2.0
     {rccsd(t),maxit=100;core}
     ccsd(i)=energy
 enddo
 
 table,scf,ccsd
 save
 type,csv

 Variables initialized (782), CPU time= 0.01 sec
 Commands  initialized (547), CPU time= 0.00 sec, 517 directives.
 Default parameters read. Elapsed time= 0.08 sec

 Checking input...
 Passed
1


                                         ***  PROGRAM SYSTEM MOLPRO  ***
                         Copyright, University College Cardiff Consultants Limited, 2008

                                    Version 2012.1 linked Aug  2 2016 14:07:26


 **********************************************************************************************************************************
 LABEL *   Calculation for Be atom, singlet and triplet                                  
 Linux-3.10.0-693.11.6.el7.x86_64/breve.sandia.gov(x86_64) 64 bit serial version         DATE: 10-Jan-18          TIME: 12:49:23  
 **********************************************************************************************************************************

 SHA1:             4c1979699e6aeda0524d0210415ba82a958648b0
 **********************************************************************************************************************************
  -->
  <!--

Geometry recognized as XYZ


 Variable memory set to  512000000 words,  buffer space   230000 words

 SETTING BASIS          =    USERDEF

 DO I                   =         2.00000000   

 Running procedure=IS1D7
  --><jobstep command="RHF-SCF" commandset="SCFPRO">
   <!--


 Recomputing integrals since basis changed


 Using spherical harmonics


1PROGRAM * SEWARD (Integral evaluation for generally contracted gaussian basis sets)     Author: Roland Lindh, 1990

 Geometry written to block  1 of record 700

 Orientation using atomic masses  
 Molecule type: Atom
 Symmetry elements: X,Y,Z
 Rotational constants:       0.0000000      0.0000000      0.0000000 GHz  (calculated with average atomic masses)

 Point group  D2h 


   --><cml:symmetry pointGroup="D2h"/><!--
   --><cml:atomArray>
    <cml:atom id="a1" elementType="Fe" x3="0.0" y3="0.0" z3="0.0"/>
   </cml:atomArray><!--
   --><cml:bondArray>
   </cml:bondArray><!--

 ATOMIC COORDINATES

 NR  ATOM    CHARGE       X              Y              Z

   1  FE     26.00    0.000000000    0.000000000    0.000000000

 NUCLEAR CHARGE:                   26
 NUMBER OF PRIMITIVE AOS:         345
 NUMBER OF SYMMETRY AOS:          262
 NUMBER OF CONTRACTIONS:          262   (  65Ag  +  40B3u +  40B2u +  22B1g +  40B1u +  22B2g +  22B3g +  11Au  )
 NUMBER OF CORE ORBITALS:           9   (   3Ag  +   2B3u +   2B2u +   0B1g +   2B1u +   0B2g +   0B3g +   0Au  )
 NUMBER OF VALENCE ORBITALS:        6   (   3Ag  +   0B3u +   0B2u +   1B1g +   0B1u +   1B2g +   1B3g +   0Au  )


 NUCLEAR REPULSION ENERGY    0.00000000

 EXTRA SYMMETRY OF AOS IN SYMMETRY 1:   1 1 1 1 1 1 1 1 1 1   1 1 1 1 1 1 1 1 1 1   1 1 1 1 1 2 3 2 3 2   3 2 3 2 3 2 3 2 3 2
                                        3 2 3 2 3 2 3 2 3 2   3 2 3 4 5 6 4 5 6 4   5 6 4 5 6
 EXTRA SYMMETRY OF AOS IN SYMMETRY 2:   1 1 1 1 1 1 1 1 1 1   1 1 1 1 1 1 1 1 1 1   1 2 3 2 3 2 3 2 3 2   3 4 5 6 4 5 6 4 5 6
 EXTRA SYMMETRY OF AOS IN SYMMETRY 3:   1 1 1 1 1 1 1 1 1 1   1 1 1 1 1 1 1 1 1 1   1 2 3 2 3 2 3 2 3 2   3 4 5 6 4 5 6 4 5 6
 EXTRA SYMMETRY OF AOS IN SYMMETRY 4:   1 1 1 1 1 1 1 1 1 1   1 1 1 1 2 3 2 3 2 3   2 3
 EXTRA SYMMETRY OF AOS IN SYMMETRY 5:   1 1 1 1 1 1 1 1 1 1   1 1 1 1 1 1 1 1 1 1   1 2 3 2 3 2 3 2 3 2   3 4 5 6 4 5 6 4 5 6
 EXTRA SYMMETRY OF AOS IN SYMMETRY 6:   1 1 1 1 1 1 1 1 1 1   1 1 1 1 2 3 2 3 2 3   2 3
 EXTRA SYMMETRY OF AOS IN SYMMETRY 7:   1 1 1 1 1 1 1 1 1 1   1 1 1 1 2 3 2 3 2 3   2 3
 EXTRA SYMMETRY OF AOS IN SYMMETRY 8:   1 1 1 1 1 2 3 2 3 2   3

 Eigenvalues of metric

         1 0.506E-06 0.182E-04 0.197E-04 0.197E-04 0.292E-03 0.775E-03 0.775E-03 0.824E-03
         2 0.207E-06 0.176E-05 0.513E-03 0.199E-02 0.524E-02 0.119E-01 0.228E-01 0.380E-01
         3 0.207E-06 0.176E-05 0.513E-03 0.199E-02 0.524E-02 0.119E-01 0.228E-01 0.380E-01
         4 0.197E-04 0.775E-03 0.996E-02 0.352E-01 0.718E-01 0.146E+00 0.190E+00 0.190E+00
         5 0.207E-06 0.176E-05 0.513E-03 0.199E-02 0.524E-02 0.119E-01 0.228E-01 0.380E-01
         6 0.197E-04 0.775E-03 0.996E-02 0.352E-01 0.718E-01 0.146E+00 0.190E+00 0.190E+00
         7 0.197E-04 0.775E-03 0.996E-02 0.352E-01 0.718E-01 0.146E+00 0.190E+00 0.190E+00
         8 0.119E+00 0.317E+00 0.317E+00 0.364E+00 0.788E+00 0.913E+00 0.913E+00 0.148E+01


 Contracted 2-electron integrals neglected if value below      1.0D-13
 AO integral compression algorithm  1   Integral accuracy      1.0D-13

     460.063 MB (compressed) written to integral file ( 47.2%)


 NUMBER OF SORTED TWO-ELECTRON INTEGRALS:   76744857.     BUFFER LENGTH:  32768
 NUMBER OF SEGMENTS:   5  SEGMENT LENGTH:   15998535      RECORD LENGTH: 524288

 Memory used in sort:      16.56 MW

 SORT1 READ   121794176. AND WROTE    46080396. INTEGRALS IN    135 RECORDS. CPU TIME:     2.46 SEC, REAL TIME:     2.87 SEC
 SORT2 READ    46080396. AND WROTE    76744857. INTEGRALS IN   1755 RECORDS. CPU TIME:     1.02 SEC, REAL TIME:     1.34 SEC

 FILE SIZES:   FILE 1:   469.2 MBYTE,  FILE 4:   566.3 MBYTE,   TOTAL:   1035.4 MBYTE

 OPERATOR DM      FOR CENTER  0  COORDINATES:    0.000000    0.000000    0.000000


 **********************************************************************************************************************************
 DATASETS  * FILE   NREC   LENGTH (MB)   RECORD NAMES
              1      19      269.74       500      610      700      900      950      970     1000      129      960     1100   
                                          VAR    BASINP    GEOM    SYMINP    ZMAT    AOBASIS   BASIS     P2S    ABASIS      S 
                                         1400     1410     1200     1210     1080     1600     1650     1300     1700   
                                           T        V       H0       H01     AOSYM     SMH    MOLCAS    ERIS     OPER   

 PROGRAMS   *        TOTAL       INT
 CPU TIMES  *        28.62     28.45
 REAL TIME  *        30.37 SEC
 DISK USED  *         1.04 GB      
 **********************************************************************************************************************************

1PROGRAM * RHF-SCF (OPEN SHELL)       Authors: W. Meyer, H.-J. Werner


 NUMBER OF ELECTRONS:      15+   11-    SPACE SYMMETRY=6    SPIN SYMMETRY: Quintet 
 CONVERGENCE THRESHOLDS:    1.00E-05 (Density)    1.00E-07 (Energy)
 MAX. NUMBER OF ITERATIONS:       60
 INTERPOLATION TYPE:            DIIS
 INTERPOLATION STEPS:              2 (START)      1 (STEP)
 LEVEL SHIFTS:                 -0.30 (CLOSED)  0.00 (OPEN) 


 Singly occupied orbitals:      5.1       6.1       1.4       1.7
 
 Extra symmetries of mos in symmetry 1:   1   1   1   3   2   1
 Orbital guess generated from atomic densities. Full valence occupancy:    6   2   2   1   2   1   1   0


 Molecular orbital dump at record        4202.2

 ITERATION    DDIFF          GRAD             ENERGY        2-EL.EN.            DIPOLE MOMENTS         DIIS   ORB.
    1      0.000D+00      0.000D+00     -1262.26173284    989.389354    0.00000    0.00000    0.00000    0    start
    2      0.000D+00      0.172D-01     -1262.28868848    961.357845    0.00000    0.00000    0.00000    1    diag,B
    3      0.821D-02      0.148D-01     -1262.33655975    974.628142    0.00000    0.00000    0.00000    2    diag,B
    4      0.214D-02      0.102D-02     -1262.33807214    974.207274    0.00000    0.00000    0.00000    3    diag,B
    5      0.465D-03      0.558D-03     -1262.33948359    973.915261    0.00000    0.00000    0.00000    4    diag,B
    6      0.344D-03      0.394D-03     -1262.34033477    973.891877    0.00000    0.00000    0.00000    5    diag,B
    7      0.133D-03      0.398D-03     -1262.33934831    973.888865    0.00000    0.00000    0.00000    6    fixocc
    8      0.125D-03      0.384D-03     -1262.36178741    976.113009    0.00000    0.00000    0.00000    7    diag,B
    9      0.420D-02      0.827D-02     -1262.36127551    976.165787    0.00000    0.00000    0.00000    8    diag,B
   10      0.253D-04      0.840D-02     -1262.36233845    976.088684    0.00000    0.00000    0.00000    9    orth
   11      0.733D-04      0.812D-02     -1262.36219120    976.099748    0.00000    0.00000    0.00000    9    diag,B
   12      0.595D-05      0.815D-02     -1262.36562983    975.834447    0.00000    0.00000    0.00000    9    diag,B
   13      0.174D-03      0.728D-02     -1262.36351832    976.037038    0.00000    0.00000    0.00000    9    diag,B
   14      0.206D-03      0.792D-02     -1262.36504904    975.907051    0.00000    0.00000    0.00000    9    diag,B
   15      0.179D-03      0.755D-02     -1262.36507727    975.916245    0.00000    0.00000    0.00000    9    diag,B
   16      0.953D-04      0.756D-02     -1262.36521287    975.901616    0.00000    0.00000    0.00000    9    diag,B
   17      0.267D-04      0.750D-02     -1262.36114593    976.186433    0.00000    0.00000    0.00000    9    diag,B
   18      0.192D-03      0.843D-02     -1262.36496356    975.919905    0.00000    0.00000    0.00000    9    diag,B
   19      0.192D-03      0.759D-02     -1262.36500231    975.916582    0.00000    0.00000    0.00000    9    diag,B
   20      0.138D-04      0.758D-02     -1262.36212688    976.120069    0.00000    0.00000    0.00000    9    orth
   21      0.162D-03      0.823D-02     -1262.36456681    975.946215    0.00000    0.00000    0.00000    9    diag,B
   22      0.147D-03      0.767D-02     -1262.36530904    975.892615    0.00000    0.00000    0.00000    9    diag,B
   23      0.691D-04      0.750D-02     -1262.36291963    976.067455    0.00000    0.00000    0.00000    9    diag,B
   24      0.178D-03      0.806D-02     -1262.36352205    976.016297    0.00000    0.00000    0.00000    9    diag,B
   25      0.872D-04      0.792D-02     -1262.36310202    976.036817    0.00000    0.00000    0.00000    9    diag,B
   26      0.852D-04      0.801D-02     -1262.36263924    976.073760    0.00000    0.00000    0.00000    9    diag,B
   27      0.378D-04      0.812D-02     -1262.36286486    976.050636    0.00000    0.00000    0.00000    9    diag,B
   28      0.463D-04      0.806D-02     -1262.36269895    976.059149    0.00000    0.00000    0.00000    9    diag,B
   29      0.290D-04      0.810D-02     -1262.36264159    976.064711    0.00000    0.00000    0.00000    9    diag,B
   30      0.108D-04      0.811D-02     -1262.36265720    976.060390    0.00000    0.00000    0.00000    9    orth
   31      0.163D-04      0.811D-02     -1262.36265526    976.060876    0.00000    0.00000    0.00000    9    diag,B
   32      0.119D-04      0.811D-02     -1262.36266767    976.061210    0.00000    0.00000    0.00000    9    diag,B
   33      0.321D-05      0.811D-02     -1262.36264072    976.060782    0.00000    0.00000    0.00000    9    diag,B
   34      0.413D-05      0.811D-02     -1262.36267832    976.056289    0.00000    0.00000    0.00000    9    diag,B
   35      0.149D-04      0.811D-02     -1262.36265846    976.059859    0.00000    0.00000    0.00000    9    diag,B
   36      0.131D-04      0.811D-02     -1262.36266427    976.061182    0.00000    0.00000    0.00000    9    diag,B
   37      0.179D-04      0.811D-02     -1262.36267257    976.058627    0.00000    0.00000    0.00000    9    diag,B
   38      0.151D-04      0.811D-02     -1262.36267904    976.058267    0.00000    0.00000    0.00000    9    diag,B
   39      0.143D-05      0.810D-02     -1262.36262512    976.062096    0.00000    0.00000    0.00000    9    diag,B
   40      0.677D-05      0.812D-02     -1262.36265224    976.060761    0.00000    0.00000    0.00000    9    orth
   41      0.683D-05      0.811D-02     -1262.36265330    976.059507    0.00000    0.00000    0.00000    9    diag,B
   42      0.179D-04      0.811D-02     -1262.36271681    976.054751    0.00000    0.00000    0.00000    9    diag,B
   43      0.118D-04      0.810D-02     -1262.36281700    976.047152    0.00000    0.00000    0.00000    9    diag,B
   44      0.125D-04      0.807D-02     -1262.36262913    976.063467    0.00000    0.00000    0.00000    9    diag,B
   45      0.401D-04      0.811D-02     -1262.36290460    976.043204    0.00000    0.00000    0.00000    9    diag,B
   46      0.491D-04      0.806D-02     -1262.36292061    976.042124    0.00000    0.00000    0.00000    9    diag,B
   47      0.531D-05      0.805D-02     -1262.36247479    976.076057    0.00000    0.00000    0.00000    9    diag,B
   48      0.565D-04      0.815D-02     -1262.36310173    976.030737    0.00000    0.00000    0.00000    9    diag,B
   49      0.680D-04      0.801D-02     -1262.36304489    976.034015    0.00000    0.00000    0.00000    9    diag,B
   50      0.126D-04      0.802D-02     -1262.36262962    976.062317    0.00000    0.00000    0.00000    9    orth
   51      0.408D-04      0.811D-02     -1262.36264361    976.063201    0.00000    0.00000    0.00000    9    diag,B
   52      0.385D-04      0.811D-02     -1262.36275799    976.053727    0.00000    0.00000    0.00000    9    diag,B
   53      0.324D-04      0.809D-02     -1262.36295662    976.042826    0.00000    0.00000    0.00000    9    diag,B
   54      0.216D-04      0.804D-02     -1262.36292599    976.037822    0.00000    0.00000    0.00000    9    diag,B
   55      0.896D-05      0.805D-02     -1262.36246516    976.074979    0.00000    0.00000    0.00000    9    diag,B
   56      0.606D-04      0.815D-02     -1262.36332056    976.018968    0.00000    0.00000    0.00000    9    diag,B
   57      0.830D-04      0.796D-02     -1262.36351881    976.003599    0.00000    0.00000    0.00000    9    diag,B
   58      0.162D-04      0.792D-02     -1262.36312225    976.032662    0.00000    0.00000    0.00000    9    diag,B
   59      0.394D-04      0.800D-02     -1262.36270502    975.970950    0.00000    0.00000    0.00000    9    orth
   60      0.406D-03      0.800D-02     -1262.37746837    972.970973    0.00000    0.00000    0.00000    0    orth

 Final alpha occupancy:   6   2   2   1   2   1   1   0
 Final beta  occupancy:   4   2   2   0   2   1   0   0

 !RHF STATE 1.6 Energy              -1262.377468366775
   --><property name="Energy" method="RHF" principal="true" stateSymmetry="6" stateNumber="1"
     value="-1262.37746836678"/><!--
 Nuclear energy                         0.00000000
 One-electron energy                -1748.86295483
 Two-electron energy                  486.48548647
 Virial quotient                       -1.00047930
 !RHF STATE 1.6 Dipole moment           0.00000000     0.00000000     0.00000000
 Dipole moment /Debye                   0.00000000     0.00000000     0.00000000
   --><property name="Dipole moment" method="RHF" principal="true" stateSymmetry="6"
     stateNumber="1" value="0.0 0.0 0.0"/><!--

 ELECTRON ORBITALS
 =================


   Orb  Occ    Energy  Couls-En    Coefficients

                                   1 1s      1 1s      1 1s      1 1s      1 1s      1 1s      1 1s      1 1s      1 1s      1 1s   
                                   1 1s      1 1s      1 1s      1 1s      1 1s      1 1s      1 1s      1 1s      1 1s      1 1s   
                                   1 1s      1 1s      1 1s      1 1s      1 1s      1 3d0     1 3d2+    1 3d0     1 3d2+    1 3d0  
                                   1 3d2+    1 3d0     1 3d2+    1 3d0     1 3d2+    1 3d0     1 3d2+    1 3d0     1 3d2+    1 3d0  
                                   1 3d2+    1 3d0     1 3d2+    1 3d0     1 3d2+    1 3d0     1 3d2+    1 3d0     1 3d2+    1 3d0  
                                   1 3d2+    1 3d0     1 3d2+    1 5g0     1 5g4+    1 5g2+    1 5g0     1 5g4+    1 5g2+    1 5g0  
                                   1 5g4+    1 5g2+    1 5g0     1 5g4+    1 5g2+ 

   1.1   2  -261.1215 -598.9759  0.000002  0.000017  0.000087  0.000368  0.001339  0.004360  0.012917  0.034926  0.084919  0.178021
                                 0.295501  0.328055  0.181953  0.028574 -0.002682  0.012502  0.001243  0.000655 -0.000047  0.000008
                                -0.000006  0.000003 -0.011576 -0.001193 -0.000001 -0.000000  0.000000 -0.000000  0.000003 -0.000001
                                 0.000003  0.000000 -0.000001 -0.000000  0.000002 -0.000001  0.000006 -0.000000  0.000001  0.000000
                                -0.000000  0.000000  0.000000  0.000000 -0.000000  0.000000  0.000000  0.000001 -0.000004  0.000001
                                -0.000004 -0.000000 -0.000000 -0.000000  0.000000  0.000001  0.000000 -0.000000 -0.000000 -0.000000
                                 0.000000  0.000000  0.000000 -0.000000 -0.000000

   2.1   2   -31.6656 -114.3569 -0.000001 -0.000005 -0.000026 -0.000112 -0.000407 -0.001330 -0.003964 -0.010927 -0.027552 -0.062689
                                -0.121455 -0.182054 -0.131424  0.194961  0.555646  0.393825  0.060464  0.009175  0.000325  0.000077
                                 0.000041  0.000049 -0.019106 -0.013655 -0.000002 -0.000000  0.000000 -0.000001  0.000001 -0.000006
                                 0.000013 -0.000039  0.000100 -0.000073  0.000222 -0.000045  0.000143  0.000016 -0.000005  0.000021
                                -0.000012  0.000014 -0.000006  0.000008 -0.000007  0.000001 -0.000002  0.000045 -0.000116  0.000038
                                -0.000102 -0.000000 -0.000000 -0.000005  0.000029  0.000063 -0.000008  0.000042  0.000089 -0.000002
                                 0.000006  0.000012 -0.000001  0.000002  0.000003

   3.1   2    -3.9311  -35.6564  0.000000  0.000002  0.000010  0.000041  0.000149  0.000489  0.001458  0.004035  0.010201  0.023481
                                 0.046254  0.072331  0.054982 -0.093106 -0.366872 -0.423439  0.241624  0.637306  0.344558  0.017396
                                -0.008283  0.003991  0.069568  0.056293 -0.001027  0.000000  0.000000  0.000004  0.000004  0.000017
                                 0.000018  0.000078  0.000020  0.000164  0.000002 -0.000031  0.000267 -0.000134  0.000638  0.000431
                                 0.000314  0.000637  0.000310  0.000274  0.000024  0.000050 -0.000028  0.000034  0.000271  0.000090
                                 0.000581 -0.000004  0.000002 -0.000014  0.000088  0.000189 -0.000009  0.000121  0.000237 -0.000074
                                 0.000355  0.000721 -0.000047  0.000096  0.000203

   4.1   2    -0.3579  -24.1007  0.000000  0.000000  0.000000  0.000000  0.000001  0.000003  0.000008  0.000021  0.000053  0.000123
                                 0.000243  0.000384  0.000292 -0.000502 -0.002142 -0.002112  0.002361  0.007373  0.005720 -0.012364
                                -0.015614 -0.007407 -0.000107 -0.001111 -0.000206  0.000197  0.000259  0.001846  0.002431  0.009540
                                 0.012563  0.032435  0.042706  0.081053  0.106746  0.142526  0.187877  0.181834  0.239797  0.180270
                                 0.237163  0.139667  0.181838  0.066490  0.083731  0.008706  0.009219  0.000381  0.000507  0.000423
                                 0.000560 -0.000278  0.000746 -0.000098  0.000101  0.000059 -0.000272  0.000163  0.000008 -0.000684
                                -0.000240 -0.000312 -0.000850 -0.000872 -0.000649

   5.1   +    -0.4253  -23.8074 -0.000000 -0.000000 -0.000000 -0.000000 -0.000000 -0.000001 -0.000004 -0.000012 -0.000029 -0.000068
                                -0.000132 -0.000215 -0.000151  0.000250  0.001311 -0.001140 -0.002588 -0.006517 -0.001264  0.004976
                                 0.004115  0.001908  0.002612  0.003789 -0.000082 -0.000252  0.000193 -0.002365  0.001813 -0.012224
                                 0.009367 -0.041509  0.031803 -0.103740  0.079504 -0.183382  0.140685 -0.235784  0.180903 -0.234029
                                 0.179031 -0.184542  0.139713 -0.101048  0.074500 -0.019577  0.013728 -0.000676  0.000508 -0.000998
                                 0.000733  0.000887 -0.000696  0.000304  0.000085 -0.000073  0.000956  0.000151 -0.000126  0.001402
                                 0.000143 -0.000152  0.000820 -0.000075 -0.000016

   6.1   +    -0.2280   -8.9912 -0.000000 -0.000000 -0.000002 -0.000008 -0.000029 -0.000095 -0.000285 -0.000785 -0.001996 -0.004569
                                -0.009104 -0.014110 -0.011186  0.019661  0.073276  0.170429 -0.020591 -0.093712 -0.224005  0.188694
                                 0.609966  0.326865 -0.103708 -0.120653  0.015736  0.000010  0.000007  0.000090  0.000067  0.000465
                                 0.000350  0.001572  0.001195  0.003951  0.003020  0.007138  0.005346  0.009041  0.006572  0.008354
                                 0.007034  0.004911  0.005228 -0.001176 -0.003795 -0.003227 -0.007256 -0.000013 -0.000102 -0.000070
                                -0.000274 -0.000336 -0.000625 -0.000005  0.000067  0.000115 -0.000005  0.000156  0.000242  0.000067
                                -0.000254 -0.000659  0.000417 -0.000653 -0.001888

   7.1   0     0.0296   -2.7730  0.000000  0.000000  0.000000  0.000002  0.000008  0.000023  0.000078  0.000185  0.000558  0.001028
                                 0.002700  0.002659  0.005094 -0.012149  0.009966 -0.593228 -0.298011 -0.612476  0.219916 -0.399352
                                 0.889551 -2.549252  0.652442  0.766431  2.456721 -0.000001 -0.000000 -0.000007 -0.000003 -0.000036
                                -0.000016 -0.000122 -0.000050 -0.000303 -0.000200 -0.000542 -0.000699 -0.000706 -0.000465 -0.000592
                                -0.000304 -0.000061 -0.000776  0.000620  0.000869  0.000532 -0.000419 -0.000011  0.000210 -0.000024
                                 0.000513  0.000343  0.006143  0.000002 -0.000015 -0.000029  0.000005 -0.000033 -0.000064 -0.000019
                                 0.000078  0.000183 -0.000107  0.000176  0.000502

   8.1   0     0.0675   -2.8345 -0.000000 -0.000000 -0.000000 -0.000000 -0.000000 -0.000000 -0.000001 -0.000002 -0.000005 -0.000009
                                -0.000026 -0.000023 -0.000052  0.000126 -0.000144  0.006471  0.003292  0.006755 -0.002349  0.004364
                                -0.010360  0.021928 -0.007149 -0.008366 -0.014679  0.000012 -0.000016  0.000056 -0.000070  0.000569
                                -0.000765  0.000667 -0.000767  0.012892 -0.018153  0.078640 -0.112865  0.040236 -0.057023 -0.015323
                                 0.023378  0.041547 -0.059048 -0.072942  0.106376  0.195807 -0.281902 -0.030058  0.043485 -0.072124
                                 0.104334 -0.674473  0.975465 -0.000016 -0.000008  0.000004 -0.000042 -0.000016  0.000006 -0.000075
                                -0.000021  0.000017  0.000063  0.000032 -0.000033

                                   1 2px     1 2px     1 2px     1 2px     1 2px     1 2px     1 2px     1 2px     1 2px     1 2px  
                                   1 2px     1 2px     1 2px     1 2px     1 2px     1 2px     1 2px     1 2px     1 2px     1 2px  
                                   1 2px     1 4f1+    1 4f3+    1 4f1+    1 4f3+    1 4f1+    1 4f3+    1 4f1+    1 4f3+    1 4f1+ 
                                   1 4f3+    1 6h1+    1 6h3+    1 6h5+    1 6h1+    1 6h3+    1 6h5+    1 6h1+    1 6h3+    1 6h5+ 


   1.2   2   -27.1544 -109.1740  0.000011  0.000096  0.000565  0.002568  0.009649  0.030555  0.081324  0.174697  0.287609  0.329326
                                 0.206991  0.058866  0.014498  0.000516  0.000251  0.000039  0.000003 -0.000000  0.005204 -0.009998
                                 0.000000  0.000125  0.000229  0.000243  0.000003  0.000111  0.000062  0.000033 -0.000004  0.000001
                                 0.000005  0.000008 -0.000013 -0.000008 -0.000013  0.000020  0.000013  0.000002 -0.000004 -0.000002

   2.2   2    -2.5271  -32.2991 -0.000004 -0.000035 -0.000202 -0.000924 -0.003489 -0.011203 -0.030484 -0.067945 -0.116440 -0.141864
                                -0.065306  0.194053  0.455712  0.375562  0.177748  0.020764 -0.001954  0.001125  0.012931 -0.057482
                                -0.000331  0.000692  0.000313  0.001069  0.001122  0.002507  0.001287  0.001980  0.000738  0.000192
                                 0.000108  0.000058 -0.000100 -0.000061  0.000111 -0.000189 -0.000110 -0.000037  0.000035  0.000036

   3.2   0     0.0193   -3.4425  0.000000  0.000002  0.000011  0.000044  0.000196  0.000531  0.001750  0.003051  0.007763 -0.000189
                                -0.175095  0.039000  0.663972 -0.079460  0.029346 -0.025982  0.262225 -0.201738  0.164745 -0.686509
                                 1.046698  0.000013  0.000003  0.000120 -0.000011  0.000023  0.000058 -0.000503  0.000244 -0.001515
                                -0.000005 -0.000009  0.000017  0.000011 -0.000030  0.000043  0.000024  0.000110 -0.000156 -0.000084

   4.2   0     0.0662   -4.4709  0.000000  0.000004  0.000016  0.000099  0.000281  0.001211  0.002373  0.007946  0.005962  0.037061
                                 0.551925 -0.176967 -2.163740  0.122354 -0.145578  0.257407 -0.265786  1.740735 -0.508046  2.114886
                                -1.337353  0.000025  0.000005  0.000214 -0.000022  0.000044  0.000100 -0.000980  0.000428 -0.002713
                                 0.000165 -0.000017  0.000030  0.000021 -0.000053  0.000077  0.000043  0.000201 -0.000285 -0.000154

                                   1 2py     1 2py     1 2py     1 2py     1 2py     1 2py     1 2py     1 2py     1 2py     1 2py  
                                   1 2py     1 2py     1 2py     1 2py     1 2py     1 2py     1 2py     1 2py     1 2py     1 2py  
                                   1 2py     1 4f1-    1 4f3-    1 4f1-    1 4f3-    1 4f1-    1 4f3-    1 4f1-    1 4f3-    1 4f1- 
                                   1 4f3-    1 6h1-    1 6h3-    1 6h5-    1 6h1-    1 6h3-    1 6h5-    1 6h1-    1 6h3-    1 6h5- 


   1.3   2   -27.1417 -109.1628  0.000011  0.000096  0.000565  0.002568  0.009651  0.030559  0.081337  0.174727  0.287663  0.329333
                                 0.206860  0.058841  0.014395  0.000570  0.000254  0.000032  0.000000  0.000000  0.005170 -0.009776
                                -0.000000 -0.000183 -0.000011 -0.000180 -0.000241 -0.000101 -0.000075 -0.000017 -0.000029 -0.000001
                                 0.000003 -0.000004 -0.000014 -0.000007  0.000009  0.000025  0.000014 -0.000001 -0.000004 -0.000002

   2.3   2    -2.5140  -32.2987 -0.000004 -0.000035 -0.000203 -0.000925 -0.003493 -0.011215 -0.030522 -0.068022 -0.116605 -0.141920
                                -0.063112  0.193757  0.448398  0.376767  0.177395  0.019537 -0.002081  0.001106  0.011081 -0.050461
                                -0.000323 -0.000641 -0.000554 -0.001370 -0.000651 -0.002825 -0.002302 -0.001601 -0.001643 -0.000006
                                -0.000021 -0.000037 -0.000113 -0.000060 -0.000059 -0.000203 -0.000105  0.000033  0.000076  0.000051

   3.3   0     0.0193   -3.4429  0.000000  0.000002  0.000011  0.000043  0.000192  0.000518  0.001713  0.002973  0.007615 -0.000315
                                -0.174103  0.038950  0.660044 -0.078401  0.028692 -0.028012  0.262339 -0.197425  0.163763 -0.681981
                                 1.043733 -0.000003 -0.000009 -0.000041 -0.000103  0.000011  0.000016  0.000261  0.000503 -0.000289
                                 0.000236  0.000007  0.000019  0.000011  0.000013  0.000049  0.000024 -0.000049 -0.000184 -0.000087

   4.3   0     0.0665   -4.4344  0.000000  0.000004  0.000016  0.000097  0.000270  0.001181  0.002282  0.007767  0.005580  0.036876
                                 0.556978 -0.177822 -2.182886  0.125587 -0.147284  0.254301 -0.271123  1.749505 -0.512882  2.135429
                                -1.342604 -0.000005 -0.000017 -0.000077 -0.000186  0.000022  0.000029  0.000462  0.000934 -0.000350
                                 0.000649  0.000013  0.000034  0.000020  0.000024  0.000088  0.000042 -0.000090 -0.000334 -0.000159

                                   1 3d2-    1 3d2-    1 3d2-    1 3d2-    1 3d2-    1 3d2-    1 3d2-    1 3d2-    1 3d2-    1 3d2- 
                                   1 3d2-    1 3d2-    1 3d2-    1 3d2-    1 5g2-    1 5g4-    1 5g2-    1 5g4-    1 5g2-    1 5g4- 
                                   1 5g2-    1 5g4- 

   1.4   +    -0.4465  -24.3122  0.000326  0.003059  0.015810  0.053686  0.134272  0.237599  0.304365  0.298191  0.224165  0.104277
                                 0.013582  0.000702  0.000854 -0.000471 -0.000172  0.000336 -0.000574  0.000801 -0.000925  0.000783
                                -0.000622 -0.000160

   2.4   0     0.0675   -2.8285 -0.000018 -0.000071 -0.000856 -0.000682 -0.021431 -0.136011 -0.067843  0.029899 -0.070327  0.130428
                                -0.341273  0.052830  0.126753  1.184855  0.000008 -0.000014  0.000017 -0.000031  0.000044 -0.000038
                                -0.000049  0.000062

   3.4   0     0.2194   -4.6164 -0.000033 -0.000624 -0.001737 -0.012689  0.028386  0.350858  0.125844 -0.174114  0.168519 -0.430003
                                 1.640097 -0.161562 -0.388661 -0.830121  0.000031 -0.000059  0.000069 -0.000125  0.000177 -0.000164
                                -0.000285  0.000405

                                   1 2pz     1 2pz     1 2pz     1 2pz     1 2pz     1 2pz     1 2pz     1 2pz     1 2pz     1 2pz  
                                   1 2pz     1 2pz     1 2pz     1 2pz     1 2pz     1 2pz     1 2pz     1 2pz     1 2pz     1 2pz  
                                   1 2pz     1 4f0     1 4f2+    1 4f0     1 4f2+    1 4f0     1 4f2+    1 4f0     1 4f2+    1 4f0  
                                   1 4f2+    1 6h2+    1 6h4+    1 6h0     1 6h2+    1 6h4+    1 6h0     1 6h2+    1 6h4+    1 6h0  


   1.5   2   -27.1458 -109.1660  0.000011  0.000096  0.000565  0.002568  0.009650  0.030558  0.081333  0.174718  0.287647  0.329311
                                 0.206916  0.058875  0.014483  0.000564  0.000265  0.000041  0.000002  0.000000  0.005153 -0.009877
                                -0.000000 -0.000076  0.000377 -0.000001  0.000189 -0.000022  0.000160 -0.000000  0.000019 -0.000002
                                 0.000007 -0.000017 -0.000006  0.000002  0.000027  0.000008 -0.000003 -0.000005 -0.000002  0.000000

   2.5   2    -2.5214  -32.2891 -0.000004 -0.000035 -0.000202 -0.000925 -0.003490 -0.011206 -0.030495 -0.067970 -0.116485 -0.141893
                                -0.065266  0.194152  0.455789  0.375322  0.178429  0.020912 -0.001991  0.001138  0.013047 -0.058123
                                -0.000335 -0.000115  0.000905 -0.000462  0.002210 -0.000822  0.003574 -0.000399  0.002255 -0.000019
                                 0.000206 -0.000132 -0.000043  0.000013 -0.000246 -0.000083  0.000032  0.000058  0.000003 -0.000011

   3.5   0     0.0198   -3.3880  0.000000  0.000002  0.000011  0.000042  0.000189  0.000503  0.001681  0.002876  0.007525 -0.000728
                                -0.179718  0.040817  0.682222 -0.079525  0.030463 -0.030578  0.260460 -0.218928  0.168922 -0.703530
                                 1.062579  0.000005  0.000008  0.000031  0.000054  0.000018  0.000050 -0.000015 -0.000144 -0.000551
                                -0.000812  0.000021  0.000007 -0.000001  0.000055  0.000014 -0.000010 -0.000198 -0.000051  0.000036

   4.5   0     0.0674   -4.4683  0.000000  0.000004  0.000016  0.000098  0.000274  0.001194  0.002314  0.007851  0.005689  0.037143
                                 0.559524 -0.178759 -2.192914  0.125810 -0.147729  0.256153 -0.277930  1.757481 -0.515194  2.144943
                                -1.330116  0.000010  0.000015  0.000055  0.000097  0.000034  0.000090 -0.000059 -0.000306 -0.000921
                                -0.001371  0.000040  0.000013 -0.000002  0.000101  0.000027 -0.000018 -0.000373 -0.000096  0.000067

                                   1 3d1+    1 3d1+    1 3d1+    1 3d1+    1 3d1+    1 3d1+    1 3d1+    1 3d1+    1 3d1+    1 3d1+ 
                                   1 3d1+    1 3d1+    1 3d1+    1 3d1+    1 5g1+    1 5g3+    1 5g1+    1 5g3+    1 5g1+    1 5g3+ 
                                   1 5g1+    1 5g3+ 

   1.6   2    -0.3472  -23.4520  0.000315  0.002952  0.015251  0.051846  0.129392  0.227098  0.291624  0.292302  0.236054  0.137492
                                 0.030506  0.001098  0.001870 -0.001739 -0.000081  0.000250 -0.000277  0.000480 -0.000407  0.000507
                                -0.000266 -0.000157

   2.6   0     0.0677   -2.8370 -0.000022 -0.000104 -0.001026 -0.001251 -0.022948 -0.139154 -0.071359  0.026694 -0.073901  0.127736
                                -0.347112  0.053084  0.127360  1.188059  0.000017  0.000008  0.000043  0.000028  0.000081  0.000054
                                -0.000053 -0.000020

   3.6   0     0.2221   -4.7485 -0.000042 -0.000715 -0.002180 -0.014324  0.025451  0.351404  0.120352 -0.185960  0.162418 -0.452028
                                 1.651016 -0.164634 -0.396024 -0.828900  0.000067  0.000031  0.000160  0.000106  0.000312  0.000199
                                -0.000370 -0.000139

                                   1 3d1-    1 3d1-    1 3d1-    1 3d1-    1 3d1-    1 3d1-    1 3d1-    1 3d1-    1 3d1-    1 3d1- 
                                   1 3d1-    1 3d1-    1 3d1-    1 3d1-    1 5g1-    1 5g3-    1 5g1-    1 5g3-    1 5g1-    1 5g3- 
                                   1 5g1-    1 5g3- 

   1.7   +    -0.4357  -24.2805  0.000326  0.003057  0.015801  0.053661  0.134192  0.237331  0.303903  0.298029  0.224809  0.105127
                                 0.013796  0.000690  0.000830 -0.000479  0.000079  0.000051  0.000164 -0.000039  0.000009 -0.000298
                                -0.000376 -0.000516

   2.7   0     0.0677   -2.8270 -0.000018 -0.000071 -0.000856 -0.000679 -0.021471 -0.136317 -0.067968  0.029991 -0.070542  0.130508
                                -0.342620  0.052961  0.127064  1.185574 -0.000003 -0.000002 -0.000009 -0.000001  0.000001  0.000012
                                 0.000005 -0.000002

   3.7   0     0.2200   -4.6135 -0.000033 -0.000624 -0.001734 -0.012706  0.028567  0.352278  0.126499 -0.174610  0.168854 -0.432848
                                 1.641836 -0.162146 -0.390057 -0.829688 -0.000013 -0.000009 -0.000038 -0.000006  0.000002  0.000041
                                 0.000055  0.000012

                                   1 4f2-    1 4f2-    1 4f2-    1 4f2-    1 4f2-    1 6h4-    1 6h2-    1 6h4-    1 6h2-    1 6h4- 
                                   1 6h2- 

   1.8   0     0.5963   -5.8494  0.004099 -0.012136  0.048133 -0.130697  1.059740 -0.000001 -0.000009  0.000002  0.000023 -0.000010
                                -0.000205

   2.8   0     1.8438   -8.4838 -0.007209  0.071834 -0.088011  1.213132 -0.542716 -0.000001 -0.000047  0.000010  0.000039  0.000000
                                -0.001320

 HOMO      6.1    -0.228043 =      -6.2054eV
 LUMO      3.2     0.019275 =       0.5245eV
 LUMO-HOMO         0.247318 =       6.7299eV

 No convergence



 **********************************************************************************************************************************
 DATASETS  * FILE   NREC   LENGTH (MB)   RECORD NAMES
              1      19      269.74       500      610      700      900      950      970     1000      129      960     1100   
                                          VAR    BASINP    GEOM    SYMINP    ZMAT    AOBASIS   BASIS     P2S    ABASIS      S 
                                         1400     1410     1200     1210     1080     1600     1650     1300     1700   
                                           T        V       H0       H01     AOSYM     SMH    MOLCAS    ERIS     OPER   

              2       5        5.68       200      700     1000      520     4202   
                                        OPTIONS   GEOM     BASIS   MCVARS     RHF  

 PROGRAMS   *        TOTAL       RHF       INT
 CPU TIMES  *        38.88     10.26     28.45
 REAL TIME  *        41.76 SEC
 DISK USED  *         1.04 GB      
 **********************************************************************************************************************************
   -->
   <time start="12:49:23" end="12:50:04" cpu="38.88" system="2.56" real="41.76"/>
   <storage units="megabyte" memory="4097.84" sf="0.0" df="1038.37" eaf="0.0"/>
  </jobstep><!--
  --><jobstep command="POP" commandset="POP">
   <!--

1PROGRAM * POP (Mulliken population analysis)

 
 Density matrix read from record         4202.2  Type=RHF/CHARGE (state 1.6)
 
 Population analysis by basis function type

 Unique atom        s        p        d        f        g    Total    Charge
   1  FE      7.00071 11.99975  6.99925  0.00025  0.00003 26.00000  - 0.00000


 **********************************************************************************************************************************
 DATASETS  * FILE   NREC   LENGTH (MB)   RECORD NAMES
              1      19      269.74       500      610      700      900      950      970     1000      129      960     1100   
                                          VAR    BASINP    GEOM    SYMINP    ZMAT    AOBASIS   BASIS     P2S    ABASIS      S 
                                         1400     1410     1200     1210     1080     1600     1650     1300     1700   
                                           T        V       H0       H01     AOSYM     SMH    MOLCAS    ERIS     OPER   

              2       5        5.68       200      700     1000      520     4202   
                                        OPTIONS   GEOM     BASIS   MCVARS     RHF  

 PROGRAMS   *        TOTAL       POP       RHF       INT
 CPU TIMES  *        38.88      0.00     10.26     28.45
 REAL TIME  *        41.77 SEC
 DISK USED  *         1.04 GB      
 **********************************************************************************************************************************
   -->
   <time start="12:50:04" end="12:50:04" cpu="0.0" system="0.0" real="0.01"/>
   <storage units="megabyte" memory="4097.84" sf="0.0" df="1038.37" eaf="0.0"/>
  </jobstep><!--
  --><jobstep command="MULTI" commandset="MULTI">
   <!--

1PROGRAM * MULTI (Direct Multiconfiguration SCF)       Authors: P.J. Knowles, H.-J. Werner (1984)     S.T. Elbert (1988)


 Number of closed-shell orbitals:   9 (   3   2   2   0   2   0   0   0 )
 Number of active  orbitals:        6 (   3   0   0   1   0   1   1   0 )
 Number of external orbitals:     247 (  59  38  38  21  38  21  21  11 )

 State symmetry 1

 Orbital occupancy restrictions for symmetry 1
  1      1       002000                          

 Number of electrons:     8    Spin symmetry=Quintet   Space symmetry=1
 Number of states:        1
 Number of CSFs:          1

 State symmetry 2

 Orbital occupancy restrictions for symmetry 4
  1      1       002000                          

 Number of electrons:     8    Spin symmetry=Quintet   Space symmetry=4
 Number of states:        3
 Number of CSFs:          3

 State symmetry 3

 Orbital occupancy restrictions for symmetry 6
  1      1       002000                          

 Number of electrons:     8    Spin symmetry=Quintet   Space symmetry=6
 Number of states:        3
 Number of CSFs:          3

 State symmetry 4

 Orbital occupancy restrictions for symmetry 7
  1      1       002000                          

 Number of electrons:     8    Spin symmetry=Quintet   Space symmetry=7
 Number of states:        3
 Number of CSFs:          3
 
 Maximum number of shells:             3
 Maximum number of spin couplings:    20

 Storage for configuration lists     156, coupling coefficients   4184, address lists    730

 Molecular orbitals read from record     4202.2  Type=RHF/CANONICAL (state 1.6)
 *** IN SYMMETRY 1 ORBITAL  1 SYMMETRY CONTAMINATION OF 0.251D-04 HAS BEEN REMOVED
 *** IN SYMMETRY 1 ORBITAL  2 SYMMETRY CONTAMINATION OF 0.723D-03 HAS BEEN REMOVED
 *** IN SYMMETRY 1 ORBITAL  3 SYMMETRY CONTAMINATION OF 0.265D-02 HAS BEEN REMOVED
 *** IN SYMMETRY 1 ORBITAL  4 SYMMETRY CONTAMINATION OF 0.451D+00 HAS BEEN REMOVED
 *** IN SYMMETRY 1 ORBITAL  5 SYMMETRY CONTAMINATION OF 0.442D+00 HAS BEEN REMOVED
 *** IN SYMMETRY 1 ORBITAL  6 SYMMETRY CONTAMINATION OF 0.409D-01 HAS BEEN REMOVED

 EXTRA SYMMETRY OF MOS IN SYMMETRY 1:   1 1 1 3 2 1 1 3 2 1   3 2 1 3 2 3 2 5 4 6   1 3 2 5 4 6 1 2 3 5   4 1 1 2 3 2 3 1 5 4
                                        6 2 3 1 2 3 1 2 3 1   2 3 1 3 2 1 1 1 1 1   1 1 1 1 6
 *** IN SYMMETRY 2 ORBITAL  1 SYMMETRY CONTAMINATION OF 0.742D-03 HAS BEEN REMOVED
 *** IN SYMMETRY 2 ORBITAL  2 SYMMETRY CONTAMINATION OF 0.615D-02 HAS BEEN REMOVED
 EXTRA SYMMETRY OF MOS IN SYMMETRY 2:   1 1 1 1 1 2 3 1 3 2   1 3 2 1 6 4 5 1 3 2   6 4 5 1 3 2 6 4 5 1   1 1 1 1 1 1 1 1 1 1
 *** IN SYMMETRY 3 ORBITAL  1 SYMMETRY CONTAMINATION OF 0.761D-03 HAS BEEN REMOVED
 *** IN SYMMETRY 3 ORBITAL  2 SYMMETRY CONTAMINATION OF 0.714D-02 HAS BEEN REMOVED
 EXTRA SYMMETRY OF MOS IN SYMMETRY 3:   1 1 1 1 1 3 2 1 3 2   1 3 1 1 6 4 5 1 3 2   6 4 5 1 3 2 6 4 5 1   1 1 1 1 1 1 1 1 1 2
 *** IN SYMMETRY 4 ORBITAL  1 SYMMETRY CONTAMINATION OF 0.313D-02 HAS BEEN REMOVED
 EXTRA SYMMETRY OF MOS IN SYMMETRY 4:   1 1 1 1 1 3 2 1 3 2   1 3 2 1 1 3 2 1 1 1   1 1
 *** IN SYMMETRY 5 ORBITAL  1 SYMMETRY CONTAMINATION OF 0.759D-03 HAS BEEN REMOVED
 *** IN SYMMETRY 5 ORBITAL  2 SYMMETRY CONTAMINATION OF 0.663D-02 HAS BEEN REMOVED
 EXTRA SYMMETRY OF MOS IN SYMMETRY 5:   1 1 1 1 1 2 3 1 2 3   1 2 3 1 5 6 4 1 2 3   5 6 4 1 2 3 5 6 4 1   1 1 1 1 1 1 1 1 1 1
 *** IN SYMMETRY 6 ORBITAL  1 SYMMETRY CONTAMINATION OF 0.171D-02 HAS BEEN REMOVED
 EXTRA SYMMETRY OF MOS IN SYMMETRY 6:   1 1 1 1 1 3 2 1 3 2   1 3 2 1 1 3 2 1 1 1   1 1
 *** IN SYMMETRY 7 ORBITAL  1 SYMMETRY CONTAMINATION OF 0.110D-02 HAS BEEN REMOVED
 EXTRA SYMMETRY OF MOS IN SYMMETRY 7:   1 1 1 1 1 3 2 1 3 2   1 3 2 1 1 3 2 1 1 1   1 1
 EXTRA SYMMETRY OF MOS IN SYMMETRY 8:   1 1 1 3 2 1 3 2 1 3   2

 Wavefunction dump at record             5202.2

 Convergence thresholds  0.10E-01 (gradient)  0.10E-05 (energy)  0.10E-02 (step length)

 Weight factors for state symmetry  1:    0.10000
 Weight factors for state symmetry  2:    0.10000   0.10000   0.10000
 Weight factors for state symmetry  3:    0.10000   0.10000   0.10000
 Weight factors for state symmetry  4:    0.10000   0.10000   0.10000

 Eigenvalues of redundancy matrix
   1-  3    0.000000    1.000130    2.757690

 Non-redundant active-active orbital rotations:
     1  2  3  4  5
  2   
  3  +  +
  4         
  5            
  6               

 Number of orbital rotations:      656   (     9 Core/Active    405 Core/Virtual   2 Active/Active    240 Active/Virtual)
 Total number of variables:        684


 ITER. MIC  NCI  NEG     ENERGY(VAR)     ENERGY(PROJ)   ENERGY CHANGE     GRAD(0)  GRAD(ORB)   GRAD(CI)     STEP       TIME

   1   33   28    0   -1262.35384186   -1262.35967209   -0.00583023   *********** 0.00000000 0.00000000  0.53D-01      0.81
   2   32   20    0   -1262.34077641   -1262.35608430   -0.01530788   *********** 0.00000000 0.00000000  0.96D-03      1.56
   3   82   48    0   -1262.35608430   -1262.35608430   -0.00000000    0.00003004 0.00000000 0.00000000  0.95D-07      2.36

 ** WVFN ****  CONVERGENCE REACHED, FINAL GRADIENT:  0.48D-08



 Results for state 1.1
 =====================

 !MCSCF STATE 1.1 Energy            -1262.377521684023
   --><property name="Energy" method="MCSCF" principal="true" stateSymmetry="1" stateNumber="1"
     value="-1262.37752168402"/><!--
 Nuclear energy                         0.00000000
 Kinetic energy                      1262.35614900
 One electron energy                -1749.44837864
 Two electron energy                  487.07085695
 Virial ratio                           2.00001693

 !MCSCF STATE 1.1 Dipole moment         0.00000000     0.00000000     0.00000000
 Dipole moment /Debye                   0.00000000     0.00000000     0.00000000
   --><property name="Dipole moment" method="MCSCF" principal="true" stateSymmetry="1"
     stateNumber="1" value="0.0 0.0 0.0"/><!--



 Results for state 1.4
 =====================

 !MCSCF STATE 1.4 Energy            -1262.377521684023
   --><property name="Energy" method="MCSCF" principal="true" stateSymmetry="4" stateNumber="1"
     value="-1262.37752168402"/><!--
 Nuclear energy                         0.00000000
 Kinetic energy                      1262.35614900
 One electron energy                -1749.44837864
 Two electron energy                  487.07085695
 Virial ratio                           2.00001693

 !MCSCF STATE 1.4 Dipole moment         0.00000000     0.00000000     0.00000000
 Dipole moment /Debye                   0.00000000     0.00000000     0.00000000
   --><property name="Dipole moment" method="MCSCF" principal="true" stateSymmetry="4"
     stateNumber="1" value="0.0 0.0 0.0"/><!--

 Results for state 2.4
 =====================

 !MCSCF STATE 2.4 Energy            -1262.377521684023
   --><property name="Energy" method="MCSCF" principal="true" stateSymmetry="4" stateNumber="2"
     value="-1262.37752168402"/><!--
 Nuclear energy                         0.00000000
 Kinetic energy                      1262.35614900
 One electron energy                -1749.44837864
 Two electron energy                  487.07085695
 Virial ratio                           2.00001693

 !MCSCF STATE 2.4 Dipole moment         0.00000000     0.00000000     0.00000000
 Dipole moment /Debye                   0.00000000     0.00000000     0.00000000
   --><property name="Dipole moment" method="MCSCF" principal="true" stateSymmetry="4"
     stateNumber="2" value="0.0 0.0 0.0"/><!--

 Results for state 3.4
 =====================

 !MCSCF STATE 3.4 Energy            -1262.306063732504
   --><property name="Energy" method="MCSCF" principal="true" stateSymmetry="4" stateNumber="3"
     value="-1262.3060637325"/><!--
 Nuclear energy                         0.00000000
 Kinetic energy                      1262.35614900
 One electron energy                -1749.44837864
 Two electron energy                  487.14231490
 Virial ratio                           1.99996032

 !MCSCF STATE 3.4 Dipole moment         0.00000000     0.00000000     0.00000000
 Dipole moment /Debye                   0.00000000     0.00000000     0.00000000
   --><property name="Dipole moment" method="MCSCF" principal="true" stateSymmetry="4"
     stateNumber="3" value="0.0 0.0 0.0"/><!--



 Results for state 1.6
 =====================

 !MCSCF STATE 1.6 Energy            -1262.377521684023
   --><property name="Energy" method="MCSCF" principal="true" stateSymmetry="6" stateNumber="1"
     value="-1262.37752168402"/><!--
 Nuclear energy                         0.00000000
 Kinetic energy                      1262.35614900
 One electron energy                -1749.44837864
 Two electron energy                  487.07085695
 Virial ratio                           2.00001693

 !MCSCF STATE 1.6 Dipole moment         0.00000000     0.00000000     0.00000000
 Dipole moment /Debye                   0.00000000     0.00000000     0.00000000
   --><property name="Dipole moment" method="MCSCF" principal="true" stateSymmetry="6"
     stateNumber="1" value="0.0 0.0 0.0"/><!--

 Results for state 2.6
 =====================

 !MCSCF STATE 2.6 Energy            -1262.377521684023
   --><property name="Energy" method="MCSCF" principal="true" stateSymmetry="6" stateNumber="2"
     value="-1262.37752168402"/><!--
 Nuclear energy                         0.00000000
 Kinetic energy                      1262.35614900
 One electron energy                -1749.44837864
 Two electron energy                  487.07085695
 Virial ratio                           2.00001693

 !MCSCF STATE 2.6 Dipole moment         0.00000000     0.00000000     0.00000000
 Dipole moment /Debye                   0.00000000     0.00000000     0.00000000
   --><property name="Dipole moment" method="MCSCF" principal="true" stateSymmetry="6"
     stateNumber="2" value="0.0 0.0 0.0"/><!--

 Results for state 3.6
 =====================

 !MCSCF STATE 3.6 Energy            -1262.306063732504
   --><property name="Energy" method="MCSCF" principal="true" stateSymmetry="6" stateNumber="3"
     value="-1262.3060637325"/><!--
 Nuclear energy                         0.00000000
 Kinetic energy                      1262.35614900
 One electron energy                -1749.44837864
 Two electron energy                  487.14231490
 Virial ratio                           1.99996032

 !MCSCF STATE 3.6 Dipole moment         0.00000000     0.00000000     0.00000000
 Dipole moment /Debye                   0.00000000     0.00000000     0.00000000
   --><property name="Dipole moment" method="MCSCF" principal="true" stateSymmetry="6"
     stateNumber="3" value="0.0 0.0 0.0"/><!--



 Results for state 1.7
 =====================

 !MCSCF STATE 1.7 Energy            -1262.377521684023
   --><property name="Energy" method="MCSCF" principal="true" stateSymmetry="7" stateNumber="1"
     value="-1262.37752168402"/><!--
 Nuclear energy                         0.00000000
 Kinetic energy                      1262.35614900
 One electron energy                -1749.44837864
 Two electron energy                  487.07085695
 Virial ratio                           2.00001693

 !MCSCF STATE 1.7 Dipole moment         0.00000000     0.00000000     0.00000000
 Dipole moment /Debye                   0.00000000     0.00000000     0.00000000
   --><property name="Dipole moment" method="MCSCF" principal="true" stateSymmetry="7"
     stateNumber="1" value="0.0 0.0 0.0"/><!--

 Results for state 2.7
 =====================

 !MCSCF STATE 2.7 Energy            -1262.377521684023
   --><property name="Energy" method="MCSCF" principal="true" stateSymmetry="7" stateNumber="2"
     value="-1262.37752168402"/><!--
 Nuclear energy                         0.00000000
 Kinetic energy                      1262.35614900
 One electron energy                -1749.44837864
 Two electron energy                  487.07085695
 Virial ratio                           2.00001693

 !MCSCF STATE 2.7 Dipole moment         0.00000000     0.00000000     0.00000000
 Dipole moment /Debye                   0.00000000     0.00000000     0.00000000
   --><property name="Dipole moment" method="MCSCF" principal="true" stateSymmetry="7"
     stateNumber="2" value="0.0 0.0 0.0"/><!--

 Results for state 3.7
 =====================

 !MCSCF STATE 3.7 Energy            -1262.306063732504
   --><property name="Energy" method="MCSCF" principal="true" stateSymmetry="7" stateNumber="3"
     value="-1262.3060637325"/><!--
 Nuclear energy                         0.00000000
 Kinetic energy                      1262.35614900
 One electron energy                -1749.44837864
 Two electron energy                  487.14231490
 Virial ratio                           1.99996032

 !MCSCF STATE 3.7 Dipole moment         0.00000000     0.00000000     0.00000000
 Dipole moment /Debye                   0.00000000     0.00000000     0.00000000
   --><property name="Dipole moment" method="MCSCF" principal="true" stateSymmetry="7"
     stateNumber="3" value="0.0 0.0 0.0"/><!--

 State-averaged charge density matrix saved on record  5202.2 (density set 1)


 NATURAL ORBITALS (state averaged)
 =================================

   Orb     Occ        Energy       Coefficients

                                   1 1s      1 1s      1 1s      1 1s      1 1s      1 1s      1 1s      1 1s      1 1s      1 1s   
                                   1 1s      1 1s      1 1s      1 1s      1 1s      1 1s      1 1s      1 1s      1 1s      1 1s   
                                   1 1s      1 1s      1 1s      1 1s      1 1s      1 3d0     1 3d2+    1 3d0     1 3d2+    1 3d0  
                                   1 3d2+    1 3d0     1 3d2+    1 3d0     1 3d2+    1 3d0     1 3d2+    1 3d0     1 3d2+    1 3d0  
                                   1 3d2+    1 3d0     1 3d2+    1 3d0     1 3d2+    1 3d0     1 3d2+    1 3d0     1 3d2+    1 3d0  
                                   1 3d2+    1 3d0     1 3d2+    1 5g0     1 5g4+    1 5g2+    1 5g0     1 5g4+    1 5g2+    1 5g0  
                                   1 5g4+    1 5g2+    1 5g0     1 5g4+    1 5g2+ 

   1.1  2.00000  -261.178180     0.000002  0.000017  0.000087  0.000368  0.001339  0.004360  0.012917  0.034926  0.084919  0.178021
                                 0.295501  0.328055  0.181952  0.028573 -0.002682  0.012502  0.001243  0.000655 -0.000047  0.000008
                                -0.000006  0.000003 -0.011576 -0.001193 -0.000001  0.000000  0.000000  0.000000  0.000000  0.000000
                                 0.000000  0.000000  0.000000  0.000000  0.000000  0.000000  0.000000  0.000000  0.000000  0.000000
                                 0.000000  0.000000  0.000000  0.000000  0.000000  0.000000  0.000000  0.000000  0.000000  0.000000
                                 0.000000  0.000000  0.000000  0.000000  0.000000  0.000000  0.000000  0.000000  0.000000  0.000000
                                 0.000000  0.000000  0.000000  0.000000  0.000000

   2.1  2.00000   -31.718475    -0.000001 -0.000005 -0.000026 -0.000112 -0.000407 -0.001330 -0.003964 -0.010928 -0.027554 -0.062694
                                -0.121465 -0.182070 -0.131436  0.194987  0.555757  0.394111  0.060346  0.009150  0.000326  0.000077
                                 0.000038  0.000047 -0.019408 -0.013649 -0.000002  0.000000  0.000000  0.000000  0.000000  0.000000
                                 0.000000  0.000000  0.000000  0.000000  0.000000  0.000000  0.000000  0.000000  0.000000  0.000000
                                 0.000000  0.000000  0.000000  0.000000  0.000000  0.000000  0.000000  0.000000  0.000000  0.000000
                                 0.000000  0.000000  0.000000  0.000000  0.000000  0.000000  0.000000  0.000000  0.000000  0.000000
                                 0.000000  0.000000  0.000000  0.000000  0.000000

   3.1  2.00000    -3.961296     0.000000  0.000002  0.000010  0.000041  0.000150  0.000490  0.001460  0.004040  0.010215  0.023515
                                 0.046320  0.072442  0.055059 -0.093237 -0.367711 -0.423199  0.244142  0.639338  0.342009  0.017021
                                -0.008244  0.003817  0.068458  0.055655 -0.001004  0.000000  0.000000  0.000000  0.000000  0.000000
                                 0.000000  0.000000  0.000000  0.000000  0.000000  0.000000  0.000000  0.000000  0.000000  0.000000
                                 0.000000  0.000000  0.000000  0.000000  0.000000  0.000000  0.000000  0.000000  0.000000  0.000000
                                 0.000000  0.000000  0.000000  0.000000  0.000000  0.000000  0.000000  0.000000  0.000000  0.000000
                                 0.000000  0.000000  0.000000  0.000000  0.000000

   4.1  1.40000    -0.149061     0.000000  0.000000  0.000000  0.000000  0.000000  0.000000  0.000000  0.000000  0.000000  0.000000
                                 0.000000  0.000000  0.000000  0.000000  0.000000  0.000000  0.000000  0.000000  0.000000  0.000000
                                 0.000000  0.000000  0.000000  0.000000  0.000000  0.000000  0.000323  0.000000  0.003027  0.000000
                                 0.015645  0.000000  0.053166  0.000000  0.132867  0.000000  0.234050  0.000000  0.299176  0.000000
                                 0.295204  0.000000  0.229161  0.000000  0.118022  0.000000  0.020074  0.000000  0.000791  0.000000
                                 0.001085  0.000000 -0.000741  0.000000  0.000000  0.000000  0.000000  0.000000  0.000000  0.000000
                                 0.000000  0.000000  0.000000  0.000000  0.000000

   5.1  1.40000    -0.149061     0.000000  0.000000  0.000000  0.000000  0.000000  0.000000  0.000000  0.000000  0.000000  0.000000
                                 0.000000  0.000000  0.000000  0.000000  0.000000  0.000000  0.000000  0.000000  0.000000  0.000000
                                 0.000000  0.000000  0.000000  0.000000  0.000000 -0.000323  0.000000 -0.003027  0.000000 -0.015645
                                 0.000000 -0.053166  0.000000 -0.132867  0.000000 -0.234050  0.000000 -0.299176  0.000000 -0.295204
                                 0.000000 -0.229161  0.000000 -0.118022  0.000000 -0.020074  0.000000 -0.000791  0.000000 -0.001085
                                 0.000000  0.000741  0.000000  0.000000  0.000000  0.000000  0.000000  0.000000  0.000000  0.000000
                                 0.000000  0.000000  0.000000  0.000000  0.000000

   6.1  1.00000    -0.090086    -0.000000 -0.000000 -0.000002 -0.000008 -0.000029 -0.000096 -0.000287 -0.000792 -0.002013 -0.004610
                                -0.009176 -0.014245 -0.011249  0.019727  0.074430  0.163566 -0.026213 -0.106942 -0.221208  0.196884
                                 0.610326  0.321171 -0.094966 -0.109192  0.014408  0.000000  0.000000  0.000000  0.000000  0.000000
                                 0.000000  0.000000  0.000000  0.000000  0.000000  0.000000  0.000000  0.000000  0.000000  0.000000
                                 0.000000  0.000000  0.000000  0.000000  0.000000  0.000000  0.000000  0.000000  0.000000  0.000000
                                 0.000000  0.000000  0.000000  0.000000  0.000000  0.000000  0.000000  0.000000  0.000000  0.000000
                                 0.000000  0.000000  0.000000  0.000000  0.000000

                                   1 2px     1 2px     1 2px     1 2px     1 2px     1 2px     1 2px     1 2px     1 2px     1 2px  
                                   1 2px     1 2px     1 2px     1 2px     1 2px     1 2px     1 2px     1 2px     1 2px     1 2px  
                                   1 2px     1 4f1+    1 4f3+    1 4f1+    1 4f3+    1 4f1+    1 4f3+    1 4f1+    1 4f3+    1 4f1+ 
                                   1 4f3+    1 6h1+    1 6h3+    1 6h5+    1 6h1+    1 6h3+    1 6h5+    1 6h1+    1 6h3+    1 6h5+ 


   1.2  2.00000   -27.200742     0.000011  0.000096  0.000565  0.002569  0.009651  0.030560  0.081339  0.174732  0.287672  0.329362
                                 0.206839  0.058772  0.014482  0.000540  0.000258  0.000039  0.000002  0.000000  0.005242 -0.009952
                                -0.000000  0.000000  0.000000  0.000000  0.000000  0.000000  0.000000  0.000000  0.000000  0.000000
                                 0.000000  0.000000  0.000000  0.000000  0.000000  0.000000  0.000000  0.000000  0.000000  0.000000

   2.2  2.00000    -2.548891    -0.000004 -0.000035 -0.000203 -0.000926 -0.003497 -0.011230 -0.030562 -0.068118 -0.116756 -0.142196
                                -0.064435  0.194881  0.454139  0.375505  0.176074  0.020110 -0.001944  0.001096  0.012216 -0.054800
                                -0.000322  0.000000  0.000000  0.000000  0.000000  0.000000  0.000000  0.000000  0.000000  0.000000
                                 0.000000  0.000000  0.000000  0.000000  0.000000  0.000000  0.000000  0.000000  0.000000  0.000000

                                   1 2py     1 2py     1 2py     1 2py     1 2py     1 2py     1 2py     1 2py     1 2py     1 2py  
                                   1 2py     1 2py     1 2py     1 2py     1 2py     1 2py     1 2py     1 2py     1 2py     1 2py  
                                   1 2py     1 4f1-    1 4f3-    1 4f1-    1 4f3-    1 4f1-    1 4f3-    1 4f1-    1 4f3-    1 4f1- 
                                   1 4f3-    1 6h1-    1 6h3-    1 6h5-    1 6h1-    1 6h3-    1 6h5-    1 6h1-    1 6h3-    1 6h5- 


   1.3  2.00000   -27.200742     0.000011  0.000096  0.000565  0.002569  0.009651  0.030560  0.081339  0.174732  0.287672  0.329362
                                 0.206839  0.058772  0.014482  0.000540  0.000258  0.000039  0.000002  0.000000  0.005242 -0.009952
                                -0.000000  0.000000  0.000000  0.000000  0.000000  0.000000  0.000000  0.000000  0.000000  0.000000
                                 0.000000  0.000000  0.000000  0.000000  0.000000  0.000000  0.000000  0.000000  0.000000  0.000000

   2.3  2.00000    -2.548891    -0.000004 -0.000035 -0.000203 -0.000926 -0.003497 -0.011230 -0.030562 -0.068118 -0.116756 -0.142196
                                -0.064435  0.194881  0.454139  0.375505  0.176074  0.020110 -0.001944  0.001096  0.012216 -0.054800
                                -0.000322  0.000000  0.000000  0.000000  0.000000  0.000000  0.000000  0.000000  0.000000  0.000000
                                 0.000000  0.000000  0.000000  0.000000  0.000000  0.000000  0.000000  0.000000  0.000000  0.000000

                                   1 3d2-    1 3d2-    1 3d2-    1 3d2-    1 3d2-    1 3d2-    1 3d2-    1 3d2-    1 3d2-    1 3d2- 
                                   1 3d2-    1 3d2-    1 3d2-    1 3d2-    1 5g2-    1 5g4-    1 5g2-    1 5g4-    1 5g2-    1 5g4- 
                                   1 5g2-    1 5g4- 

   1.4  1.40000    -0.149061     0.000323  0.003027  0.015645  0.053166  0.132867  0.234050  0.299176  0.295204  0.229161  0.118022
                                 0.020074  0.000791  0.001085 -0.000741  0.000000  0.000000  0.000000  0.000000  0.000000  0.000000
                                 0.000000  0.000000

                                   1 2pz     1 2pz     1 2pz     1 2pz     1 2pz     1 2pz     1 2pz     1 2pz     1 2pz     1 2pz  
                                   1 2pz     1 2pz     1 2pz     1 2pz     1 2pz     1 2pz     1 2pz     1 2pz     1 2pz     1 2pz  
                                   1 2pz     1 4f0     1 4f2+    1 4f0     1 4f2+    1 4f0     1 4f2+    1 4f0     1 4f2+    1 4f0  
                                   1 4f2+    1 6h2+    1 6h4+    1 6h0     1 6h2+    1 6h4+    1 6h0     1 6h2+    1 6h4+    1 6h0  


   1.5  2.00000   -27.200742     0.000011  0.000096  0.000565  0.002569  0.009651  0.030560  0.081339  0.174732  0.287672  0.329362
                                 0.206839  0.058772  0.014482  0.000540  0.000258  0.000039  0.000002  0.000000  0.005242 -0.009952
                                -0.000000  0.000000  0.000000  0.000000  0.000000  0.000000  0.000000  0.000000  0.000000  0.000000
                                 0.000000  0.000000  0.000000  0.000000  0.000000  0.000000  0.000000  0.000000  0.000000  0.000000

   2.5  2.00000    -2.548891    -0.000004 -0.000035 -0.000203 -0.000926 -0.003497 -0.011230 -0.030562 -0.068118 -0.116756 -0.142196
                                -0.064435  0.194881  0.454139  0.375505  0.176074  0.020110 -0.001944  0.001096  0.012216 -0.054800
                                -0.000322  0.000000  0.000000  0.000000  0.000000  0.000000  0.000000  0.000000  0.000000  0.000000
                                 0.000000  0.000000  0.000000  0.000000  0.000000  0.000000  0.000000  0.000000  0.000000  0.000000

                                   1 3d1+    1 3d1+    1 3d1+    1 3d1+    1 3d1+    1 3d1+    1 3d1+    1 3d1+    1 3d1+    1 3d1+ 
                                   1 3d1+    1 3d1+    1 3d1+    1 3d1+    1 5g1+    1 5g3+    1 5g1+    1 5g3+    1 5g1+    1 5g3+ 
                                   1 5g1+    1 5g3+ 

   1.6  1.40000    -0.149061     0.000323  0.003027  0.015645  0.053166  0.132867  0.234050  0.299176  0.295204  0.229161  0.118022
                                 0.020074  0.000791  0.001085 -0.000741  0.000000  0.000000  0.000000  0.000000  0.000000  0.000000
                                 0.000000  0.000000

                                   1 3d1-    1 3d1-    1 3d1-    1 3d1-    1 3d1-    1 3d1-    1 3d1-    1 3d1-    1 3d1-    1 3d1- 
                                   1 3d1-    1 3d1-    1 3d1-    1 3d1-    1 5g1-    1 5g3-    1 5g1-    1 5g3-    1 5g1-    1 5g3- 
                                   1 5g1-    1 5g3- 

   1.7  1.40000    -0.149061     0.000323  0.003027  0.015645  0.053166  0.132867  0.234050  0.299176  0.295204  0.229161  0.118022
                                 0.020074  0.000791  0.001085 -0.000741  0.000000  0.000000  0.000000  0.000000  0.000000  0.000000
                                 0.000000  0.000000
 

 EXTRA SYMMETRY OF MOS IN SYMMETRY 1:   1 1 1 3 2 1 1 3 2 1   3 2 1 2 3 3 2 6 4 5   1 2 3 5 4 6 1 2 3 4   6 5 1 2 3 2 3 1 6 4
                                        5 2 3 1 3 2 1 2 3 1   3 2 1 3 2 1 1 1 1 1   1 1 1 1 1
 EXTRA SYMMETRY OF MOS IN SYMMETRY 2:   1 1 1 1 1 2 3 1 2 3   1 2 3 1 5 4 6 1 3 2   5 6 4 1 2 3 5 6 4 1   1 1 1 1 1 1 1 1 1 1
 EXTRA SYMMETRY OF MOS IN SYMMETRY 3:   1 1 1 1 1 3 2 1 3 2   1 3 2 1 6 4 5 1 3 2   5 4 6 1 3 2 5 6 4 1   1 1 1 1 1 1 1 1 1 1
 EXTRA SYMMETRY OF MOS IN SYMMETRY 4:   1 1 1 1 1 2 3 1 3 2   1 3 2 1 1 3 2 1 1 1   1 1
 EXTRA SYMMETRY OF MOS IN SYMMETRY 5:   1 1 1 1 1 3 2 1 3 2   1 2 3 1 4 6 5 1 2 3   4 5 6 1 3 2 5 4 6 1   1 1 1 1 1 1 1 1 1 1
 EXTRA SYMMETRY OF MOS IN SYMMETRY 6:   1 1 1 1 1 2 3 1 2 3   1 2 3 1 1 2 3 1 1 1   1 1
 EXTRA SYMMETRY OF MOS IN SYMMETRY 7:   1 1 1 1 1 3 2 1 2 3   1 2 3 1 1 2 3 1 1 1   1 1
 EXTRA SYMMETRY OF MOS IN SYMMETRY 8:   1 1 1 3 2 1 2 3 1 3   2

 Natural orbital dump (state averaged) at molpro section  5202.2    (Orbital set 2)


 CI vector for state symmetry 1
 ==============================

 22/ / / /          1.0000000

 TOTAL ENERGIES                     -1262.37752168

 CI vector for state symmetry 2
 ==============================

 /2/ 2 / /          1.0000000   0.0000000   0.0000000
 2// 2 / /          0.0000000  -0.4472136   0.8944272
 /// / 2 2          0.0000000   0.8944272   0.4472136

 TOTAL ENERGIES                     -1262.37752168 -1262.37752168 -1262.30606373

 CI vector for state symmetry 3
 ==============================

 /2/ / 2 /          0.0761360   0.6278561   0.7745967
 /// 2 / 2          0.7679002   0.4586167  -0.4472136
 2// / 2 /         -0.6360287   0.6288620  -0.4472136

 TOTAL ENERGIES                     -1262.37752168 -1262.37752168 -1262.30606373

 CI vector for state symmetry 4
 ==============================

 /// 2 2 /          0.7967570  -0.4064213  -0.4472136
 /2/ / / 2          0.1178095  -0.6213863   0.7745967
 2// / / 2          0.5927050   0.6698513   0.4472136

 TOTAL ENERGIES                     -1262.37752168 -1262.37752168 -1262.30606373



 **********************************************************************************************************************************
 DATASETS  * FILE   NREC   LENGTH (MB)   RECORD NAMES
              1      20      283.08       500      610      700      900      950      970     1000      129      960     1100   
                                          VAR    BASINP    GEOM    SYMINP    ZMAT    AOBASIS   BASIS     P2S    ABASIS      S 
                                         1400     1410     1200     1210     1080     1600     1650     1300     1700     1380   
                                           T        V       H0       H01     AOSYM     SMH    MOLCAS    ERIS     OPER     JKOP   

              2       6        8.52       200      700     1000      520     4202     5202   
                                        OPTIONS   GEOM     BASIS   MCVARS     RHF     MCSCF   

 PROGRAMS   *        TOTAL     MULTI       POP       RHF       INT
 CPU TIMES  *        42.07      3.19      0.00     10.26     28.45
 REAL TIME  *        46.06 SEC
 DISK USED  *         1.04 GB      
 **********************************************************************************************************************************
   -->
   <time start="12:50:04" end="12:50:09" cpu="3.19" system="0.56" real="4.29"/>
   <storage units="megabyte" memory="4097.84" sf="0.0" df="1038.37" eaf="0.0"/>
  </jobstep><!--
  --><jobstep command="RHF-SCF" commandset="SCFPRO">
   <!--

1PROGRAM * RHF-SCF (OPEN SHELL)       Authors: W. Meyer, H.-J. Werner


 NUMBER OF ELECTRONS:      15+   11-    SPACE SYMMETRY=1    SPIN SYMMETRY: Quintet 
 CONVERGENCE THRESHOLDS:    1.00E-05 (Density)    1.00E-07 (Energy)
 MAX. NUMBER OF ITERATIONS:        0
 INTERPOLATION TYPE:            DIIS
 INTERPOLATION STEPS:              2 (START)      1 (STEP)
 LEVEL SHIFTS:                 -0.30 (CLOSED)  0.00 (OPEN) 


 Singly occupied orbitals:      6.1       1.4       1.6       1.7
 Molecular orbitals read from record     5202.2  Type=MCSCF/NATURAL  

 Molecular orbital dump at record        2103.2
 ROTATION OF ORBITALS   4.1    5.1       90.00 DEGREES

 ITERATION    DDIFF          GRAD             ENERGY        2-EL.EN.            DIPOLE MOMENTS         DIIS   ORB.
    1      0.000D+00      0.000D+00     -1262.37752168    974.141714    0.00000    0.00000    0.00000    0    start

 Final alpha occupancy:   6   2   2   1   2   1   1   0
 Final beta  occupancy:   5   2   2   0   2   0   0   0

 !RHF STATE 1.1 Energy              -1262.377521684022
   --><property name="Energy" method="RHF" principal="true" stateSymmetry="1" stateNumber="1"
     value="-1262.37752168402"/><!--
 Nuclear energy                         0.00000000
 One-electron energy                -1749.44837864
 Two-electron energy                  487.07085695
 Virial quotient                       -1.00001693
 !RHF STATE 1.1 Dipole moment           0.00000000     0.00000000     0.00000000
 Dipole moment /Debye                   0.00000000     0.00000000     0.00000000
   --><property name="Dipole moment" method="RHF" principal="true" stateSymmetry="1"
     stateNumber="1" value="0.0 0.0 0.0"/><!--

 Orbital energies:

         1.1          2.1          3.1          4.1          5.1          6.1          7.1          8.1
   -261.178180   -31.718475    -3.961296    -0.149061    -0.149061    -0.090086     0.031924     0.068579

         1.2          2.2          3.2          4.2
    -27.200742    -2.548891     0.024236     0.081289

         1.3          2.3          3.3          4.3
    -27.200742    -2.548891     0.024236     0.081289

         1.4          2.4          3.4
     -0.149061     0.068579     0.229194

         1.5          2.5          3.5          4.5
    -27.200742    -2.548891     0.024236     0.081289

         1.6          2.6          3.6
     -0.149061     0.068579     0.229194

         1.7          2.7          3.7
     -0.149061     0.068579     0.229194

         1.8          2.8
      0.606034     1.870626

 HOMO      6.1    -0.090086 =      -2.4514eV
 LUMO      3.2     0.024236 =       0.6595eV
 LUMO-HOMO         0.114322 =       3.1109eV


 **********************************************************************************************************************************
 DATASETS  * FILE   NREC   LENGTH (MB)   RECORD NAMES
              1      20      283.08       500      610      700      900      950      970     1000      129      960     1100   
                                          VAR    BASINP    GEOM    SYMINP    ZMAT    AOBASIS   BASIS     P2S    ABASIS      S 
                                         1400     1410     1200     1210     1080     1600     1650     1300     1700     1380   
                                           T        V       H0       H01     AOSYM     SMH    MOLCAS    ERIS     OPER     JKOP   

              2       7       11.85       200      700     1000      520     4202     5202     2103   
                                        OPTIONS   GEOM     BASIS   MCVARS     RHF     MCSCF     RHF  

 PROGRAMS   *        TOTAL       RHF     MULTI       POP       RHF       INT
 CPU TIMES  *        42.26      0.18      3.19      0.00     10.26     28.45
 REAL TIME  *        46.28 SEC
 DISK USED  *         1.04 GB      
 **********************************************************************************************************************************
   -->
   <time start="12:50:09" end="12:50:09" cpu="0.19" system="0.02" real="0.22"/>
   <storage units="megabyte" memory="4097.84" sf="0.0" df="1038.37" eaf="0.0"/>
  </jobstep><!--
 SETTING SCF(2)         =     -1262.37752168  AU                              
 SETTING _CC_NORM_MAX   =         2.00000000                                  
  --><jobstep command="RCCSD(T)" commandset="CCSD">
   <!--


1PROGRAM * CCSD (Restricted open-shell coupled cluster)     Authors: C. Hampel, H.-J. Werner, 1991, M. Deegan, P.J. Knowles, 1992


 Convergence thresholds:  THRVAR = 1.00D-08  THRDEN = 1.00D-06

 CCSD(T)     terms to be evaluated (factor= 1.000)


 Number of closed-shell orbitals:  11 (   5   2   2   0   2   0   0   0 )
 Number of active  orbitals:        4 (   1   0   0   1   0   1   1   0 )
 Number of external orbitals:     247 (  59  38  38  21  38  21  21  11 )

 Memory could be reduced to 50.91 Mwords without degradation in triples

 Number of N-1 electron functions:              26
 Number of N-2 electron functions:             325
 Number of singly external CSFs:              1182
 Number of doubly external CSFs:           2079568
 Total number of CSFs:                     2080750

 Molecular orbitals read from record     2103.2  Type=RHF/CANONICAL (state 1.1)

 Integral transformation finished. Total CPU:   1.12 sec, npass=  1  Memory used:  10.16 MW

 Starting RMP2 calculation

 Wavefunction is spin-projected

 ITER.      SQ.NORM     CORR.ENERGY   TOTAL ENERGY   ENERGY CHANGE        DEN1      VAR(S)    VAR(P)  DIIS     TIME
   1      1.10742272    -1.16138316 -1263.53890484    -1.16138316    -0.00125175  0.13D-04  0.45D-03  1  1     1.23
   2      1.10851123    -1.16271612 -1263.54023781    -0.00133296    -0.00000417  0.22D-06  0.25D-05  2  2     1.33
   3      1.10858133    -1.16276184 -1263.54028353    -0.00004572    -0.00000002  0.26D-08  0.16D-07  3  3     1.43
   4      1.10858425    -1.16276265 -1263.54028433    -0.00000081    -0.00000000  0.19D-10  0.12D-09  4  4     1.55

 Norm of t1 vector:      0.04131692      S-energy:    -0.00758990      T1 diagnostic:  0.00431674
 Norm of t2 vector:      0.32692072      P-energy:    -1.15517275
                                         Alpha-Beta:  -0.78859445
                                         Alpha-Alpha: -0.24403695
                                         Beta-Beta:   -0.12254135

 Spin contamination <S**2-Sz**2-Sz>     0.00000000
  Reference energy                  -1262.377521684022
   --><property name="energy" method="Reference" stateSymmetry="1" stateNumber="1"
     value="-1262.37752168402"/><!--
  RHF-RMP2 correlation energy          -1.162762650227
   --><property name="energy" method="RHF-RMP2 correlation" stateSymmetry="1" stateNumber="1"
     value="-1.16276265022738"/><!--
 !RHF-RMP2 energy                   -1263.540284334250
   --><property name="energy" method="RHF-RMP2" principal="true" stateSymmetry="1"
     stateNumber="1" value="-1263.54028433425"/><!--
 (NB above energy spin projected)

 Starting RCCSD calculation

 ITER.      SQ.NORM     CORR.ENERGY   TOTAL ENERGY   ENERGY CHANGE        DEN1      VAR(S)    VAR(P)  DIIS     TIME
   1      1.08734138    -1.08716742 -1263.46468910    -1.08716742    -0.02514520  0.48D-02  0.34D-02  0  0     4.99
   2      1.09898027    -1.10939643 -1263.48691812    -0.02222901    -0.00260781  0.44D-03  0.78D-03  1  1     8.30
   3      1.10152043    -1.10654300 -1263.48406468     0.00285344    -0.00043129  0.39D-03  0.64D-04  2  2    11.54
   4      1.10532347    -1.10767103 -1263.48519272    -0.00112804    -0.00012100  0.10D-03  0.24D-04  3  3    14.80
   5      1.11006020    -1.10876905 -1263.48629073    -0.00109801    -0.00001349  0.15D-04  0.17D-05  4  4    18.12
   6      1.11144256    -1.10890186 -1263.48642354    -0.00013281    -0.00000150  0.80D-06  0.43D-06  5  5    21.44
   7      1.11175082    -1.10892441 -1263.48644610    -0.00002255    -0.00000036  0.43D-06  0.43D-07  6  6    24.71
   8      1.11183742    -1.10893059 -1263.48645227    -0.00000617    -0.00000008  0.76D-07  0.14D-07  6  1    27.96
   9      1.11187367    -1.10893136 -1263.48645305    -0.00000078    -0.00000001  0.12D-07  0.14D-08  6  2    31.25
  10      1.11188137    -1.10893403 -1263.48645572    -0.00000267    -0.00000000  0.20D-08  0.40D-09  6  3    34.55
  11      1.11187624    -1.10893274 -1263.48645443     0.00000129    -0.00000000  0.64D-09  0.64D-10  6  6    37.83
  12      1.11187523    -1.10893288 -1263.48645456    -0.00000013    -0.00000000  0.39D-10  0.78D-11  6  4    41.11

 Norm of t1 vector:      0.13075745      S-energy:    -0.00788501      T1 diagnostic:  0.01712381
                                                                       D1 diagnostic:  0.05112679
 Norm of t2 vector:      0.30785991      P-energy:    -1.10104787
                                         Alpha-Beta:  -0.77347948
                                         Alpha-Alpha: -0.21468385
                                         Beta-Beta:   -0.11288454

 Singles amplitudes (print threshold =  0.500E-01):

         I         SYM. A    A   T(IA) [Alpha-Alpha]

         6         1         5     -0.05135390

 Spin contamination <S**2-Sz**2-Sz>     0.00000000

 Memory could be reduced to 56.45 Mwords without degradation in triples
 

  Correlated core orbitals:             1.1       2.1       3.1       1.2       2.2       1.3       2.3       1.5       2.5
  Orbital energies:                  -261.1797  -31.7586   -4.0817  -27.2394   -2.6935  -27.2394   -2.6935  -27.2394   -2.6935
 
  RCCSD core-core energy               -0.521377996625
   --><property name="core-core energy" method="RCCSD" stateSymmetry="1" stateNumber="1"
     value="-0.521377996624732"/><!--
  RCCSD core-valence energy            -0.358410584704
   --><property name="core-valence energy" method="RCCSD" stateSymmetry="1" stateNumber="1"
     value="-0.358410584704155"/><!--
  RCCSD valence correlation energy     -0.229144295401
   --><property name="valence correlation energy" method="RCCSD" stateSymmetry="1"
     stateNumber="1" value="-0.229144295400899"/><!--
 

 RESULTS
 =======

  Reference energy                  -1262.377521684022
   --><property name="energy" method="Reference" stateSymmetry="1" stateNumber="1"
     value="-1262.37752168402"/><!--
  RCCSD singles energy                 -0.007885009340
   --><property name="energy" method="RCCSD singles" stateSymmetry="1" stateNumber="1"
     value="-0.788500933993364E-02"/><!--
  RCCSD pair energy                    -1.101047867390
   --><property name="energy" method="RCCSD pair" stateSymmetry="1" stateNumber="1"
     value="-1.10104786738985"/><!--
  RCCSD correlation energy             -1.108932876730
   --><property name="energy" method="RCCSD correlation" stateSymmetry="1" stateNumber="1"
     value="-1.10893287672979"/><!--
  Triples (T) contribution             -0.026593920530
   --><property name="contribution" method="Triples (T)" stateSymmetry="1" stateNumber="1"
     value="-0.265939205296642E-01"/><!--
  Total correlation energy             -1.135526797259
   --><property name="energy" method="Total correlation" stateSymmetry="1" stateNumber="1"
     value="-1.13552679725945"/><!--
 
  RHF-RCCSD energy                  -1263.486454560752
   --><property name="energy" method="RHF-RCCSD" stateSymmetry="1" stateNumber="1"
     value="-1263.48645456075"/><!--
  RHF-RCCSD[T] energy               -1263.514892670655
   --><property name="energy" method="RHF-RCCSD[T]" stateSymmetry="1" stateNumber="1"
     value="-1263.51489267066"/><!--
  RHF-RCCSD-T energy                -1263.512782607739
   --><property name="energy" method="RHF-RCCSD-T" stateSymmetry="1" stateNumber="1"
     value="-1263.51278260774"/><!--
 !RHF-RCCSD(T) energy               -1263.513048481282
   --><property name="energy" method="RHF-RCCSD(T)" principal="true" stateSymmetry="1"
     stateNumber="1" value="-1263.51304848128"/><!--

 Program statistics:

 Available memory in ccsd:               511997950
 Min. memory needed in ccsd:               5985103
 Max. memory used in ccsd:                 8596412
 Max. memory used in cckext:               6500556 (12 integral passes)
 Max. memory used in cckint:              10163115 ( 1 integral passes)



 **********************************************************************************************************************************
 DATASETS  * FILE   NREC   LENGTH (MB)   RECORD NAMES
              1      20      283.08       500      610      700      900      950      970     1000      129      960     1100   
                                          VAR    BASINP    GEOM    SYMINP    ZMAT    AOBASIS   BASIS     P2S    ABASIS      S 
                                         1400     1410     1200     1210     1080     1600     1650     1300     1700     1380   
                                           T        V       H0       H01     AOSYM     SMH    MOLCAS    ERIS     OPER     JKOP   

              2       7       11.85       200      700     1000      520     4202     5202     2103   
                                        OPTIONS   GEOM     BASIS   MCVARS     RHF     MCSCF     RHF  

 PROGRAMS   *        TOTAL  RCCSD(T)       RHF     MULTI       POP       RHF       INT
 CPU TIMES  *       214.55    172.28      0.18      3.19      0.00     10.26     28.45
 REAL TIME  *       227.18 SEC
 DISK USED  *         1.40 GB      
 **********************************************************************************************************************************
   -->
   <time start="12:50:09" end="12:53:10" cpu="172.29" system="8.12" real="180.9"/>
   <storage units="megabyte" memory="4097.84" sf="0.0" df="1398.08" eaf="0.0"/>
  </jobstep><!--
 SETTING CCSD(2)        =     -1263.51304848  AU                              
 Output type csv         
                                                                                                                                                                                                                                                                

         SCF,CCSD
       0.000000,       0.000000
   -1262.377522,   -1263.513048
                                                  
-->
<table xmlns="http://www.w3.org/1999/xhtml" id="table1">
<thead><tr><th>SCF</th><th>CCSD</th></tr></thead><tbody>
<tr><td>       0.000000</td><td>       0.000000</td></tr>
<tr><td>   -1262.377522</td><td>   -1263.513048</td></tr>
</tbody></table>
<!--

        RCCSD(T)        RHF-SCF         MULTI           RHF-SCF 
  -1263.51304848  -1262.37752168  -1262.30606373  -1262.37746837
 **********************************************************************************************************************************
 Variable memory released
  --><stm:metadataList>
   <stm:metadata name="dc:date" content="2018-01-10T12:53:10-07:00"/>
   <stm:metadata name="dc:creator" content="cmelton"/>
   <stm:metadata name="dc:title" content="Calculation for Be atom, singlet and triplet"/>
   <stm:metadata name="cmlm:insilico" content="Molpro"/>
  </stm:metadataList><!--
  --><platform>
   <version major="2012" minor="1" SHA="4c1979699e6aeda0524d0210415ba82a958648b0"
     integer_bits="64" parallelism="serial">
    2012.1
    <date year="2018" month="1" day="10" hour="12" minute="49" second="23">
     2018-01-10T12:49:23
    </date>
   </version>
   <licence id="sandiacon"/>
   <parallel processes="1" nodes="1" all_processes="1" openmp="1"/>
   <machine hostname="breve.sandia.gov" architecture="x86_64">
    Linux-3.10.0-693.11.6.el7.x86_64/breve.sandia.gov(x86_64) 64 bit serial version
    <sysinfo name="cpu MHz" content="3434.976"/>
    <sysinfo name="MemTotal" content="394697952 kB"/>
    <sysinfo name="vendor_id" content="GenuineIntel"/>
    <sysinfo name="cpu family" content="6"/>
    <sysinfo name="model name" content="Intel(R) Xeon(R) Gold 6130 CPU @ 2.10GHz"/>
    <sysinfo name="flags"
      content="fpu vme de pse tsc msr pae mce cx8 apic sep mtrr pge mca cmov pat pse36 clflush dts acpi mmx fxsr sse sse2 ss ht tm pbe syscall nx pdpe1gb rdtscp lm constant_tsc art arch_perfmon pebs bts rep_good nopl xtopology nonstop_tsc aperfmperf eagerfpu pni pclmulqdq dtes64 monitor ds_cpl vmx smx est tm2 ssse3 fma cx16 xtpr pdcm pcid dca sse4_1 sse4_2 x2apic movbe popcnt tsc_deadline_timer aes xsave avx f16c rdrand lahf_lm abm 3dnowprefetch epb cat_l3 cdp_l3 invpcid_single intel_pt spec_ctrl ibpb_support tpr_shadow vnmi flexpriority ept vpid fsgsbase tsc_adjust bmi1 hle avx2 smep bmi2 erms invpcid rtm cqm mpx rdt_a avx512f avx512dq rdseed adx smap clflushopt clwb avx512cd avx512bw avx512vl xsaveopt xsavec xgetbv1 cqm_llc cqm_occup_llc cqm_mbm_total cqm_mbm_local dtherm ida arat pln pts hwp hwp_act_window hwp_epp hwp_pkg_req"/>
    <sysinfo name="MemTotal" content="394697952 kB"/>
    <sysinfo name="cache size" content="22528 KB"/>
    <sysinfo name="ncpu" content="64"/>
   </machine>
  </platform><!--
  -->
  <input>
   <p> ***,Calculation for Be atom, singlet and triplet </p>
   <p> memory,512,m </p>
   <p> geometry={ </p>
   <p> 1 </p>
   <p> Fe </p>
   <p> Fe  0.0 0.0 0.0 </p>
   <p> } </p>
   <p> basis={ </p>
   <include file="/remote/cmelton/data/corrECP/Fe/ae/nr/basis/aug-cc-pwCVQZ-dk.basis"/>
   <p> } </p>
   <include file="/remote/cmelton/data/corrECP/Fe/ae/nr/basis/states.proc"/>
   <include file="/remote/cmelton/data/corrECP/Fe/ae/nr/basis/aug-cc-pwCVTZ-dk.basis"/>
   <include file="/remote/cmelton/data/corrECP/Fe/ae/nr/basis/aug-cc-pwCVQZ-dk.basis"/>
   <p> do i=2,2 </p>
   <p> if (i.eq.1) then </p>
   <p>     Is2d6 </p>
   <p> else if (i.eq.2) then </p>
   <p>     Is1d7 </p>
   <p> else if (i.eq.3) then </p>
   <p>     Id8 </p>
   <p> else if (i.eq.4) then </p>
   <p>     IIs1d6 </p>
   <p> else if (i.eq.5) then </p>
   <p>     IId7 </p>
   <p> else if (i.eq.6) then </p>
   <p>     IX </p>
   <p> else if (i.eq.7) then </p>
   <p>     XV </p>
   <p> else if (i.eq.8) then </p>
   <p>     As2d7 </p>
   <p> else if (i.eq.9) then </p>
   <p>     IIId6 </p>
   <p> else if (i.eq.10) then </p>
   <p>     IVd5 </p>
   <p> else if (i.eq.11) then </p>
   <p>     Vd4 </p>
   <p> else if (i.eq.12) then </p>
   <p>     VId3 </p>
   <p> else if (i.eq.13) then </p>
   <p>     VIId2 </p>
   <p> else if (i.eq.14) then </p>
   <p>     VIIId1 </p>
   <p> endif </p>
   <p>     scf(i)=energy </p>
   <p>     _CC_NORM_MAX=2.0 </p>
   <p>     {rccsd(t),maxit=100;core} </p>
   <p>     ccsd(i)=energy </p>
   <p> enddo </p>
   <p> table,scf,ccsd </p>
   <p> save </p>
   <p> type,csv </p>
  </input>
  <!--
 --></job><!--
--></molpro>
