 Entering Gaussian System, Link 0=g16
 Initial command:
 /home1/apps/gaussian/16rA.03/g16/l1.exe "/tmp/Gau-214262.inp" -scrdir="/tmp/"
 Entering Link 1 = /home1/apps/gaussian/16rA.03/g16/l1.exe PID=    214263.
  
 Copyright (c) 1988,1990,1992,1993,1995,1998,2003,2009,2016,
            Gaussian, Inc.  All Rights Reserved.
  
 This is part of the Gaussian(R) 16 program.  It is based on
 the Gaussian(R) 09 system (copyright 2009, Gaussian, Inc.),
 the Gaussian(R) 03 system (copyright 2003, Gaussian, Inc.),
 the Gaussian(R) 98 system (copyright 1998, Gaussian, Inc.),
 the Gaussian(R) 94 system (copyright 1995, Gaussian, Inc.),
 the Gaussian 92(TM) system (copyright 1992, Gaussian, Inc.),
 the Gaussian 90(TM) system (copyright 1990, Gaussian, Inc.),
 the Gaussian 88(TM) system (copyright 1988, Gaussian, Inc.),
 the Gaussian 86(TM) system (copyright 1986, Carnegie Mellon
 University), and the Gaussian 82(TM) system (copyright 1983,
 Carnegie Mellon University). Gaussian is a federally registered
 trademark of Gaussian, Inc.
  
 This software contains proprietary and confidential information,
 including trade secrets, belonging to Gaussian, Inc.
  
 This software is provided under written license and may be
 used, copied, transmitted, or stored only in accord with that
 written license.
  
 The following legend is applicable only to US Government
 contracts under FAR:
  
                    RESTRICTED RIGHTS LEGEND
  
 Use, reproduction and disclosure by the US Government is
 subject to restrictions as set forth in subparagraphs (a)
 and (c) of the Commercial Computer Software - Restricted
 Rights clause in FAR 52.227-19.
  
 Gaussian, Inc.
 340 Quinnipiac St., Bldg. 40, Wallingford CT 06492
  
  
 ---------------------------------------------------------------
 Warning -- This program may not be used in any manner that
 competes with the business of Gaussian, Inc. or will provide
 assistance to any competitor of Gaussian, Inc.  The licensee
 of this program is prohibited from giving any competitor of
 Gaussian, Inc. access to this program.  By using this program,
 the user acknowledges that Gaussian, Inc. is engaged in the
 business of creating and licensing software in the field of
 computational chemistry and represents and warrants to the
 licensee that it is not a competitor of Gaussian, Inc. and that
 it will not use this program in any manner prohibited above.
 ---------------------------------------------------------------
  

 Cite this work as:
 Gaussian 16, Revision A.03,
 M. J. Frisch, G. W. Trucks, H. B. Schlegel, G. E. Scuseria, 
 M. A. Robb, J. R. Cheeseman, G. Scalmani, V. Barone, 
 G. A. Petersson, H. Nakatsuji, X. Li, M. Caricato, A. V. Marenich, 
 J. Bloino, B. G. Janesko, R. Gomperts, B. Mennucci, H. P. Hratchian, 
 J. V. Ortiz, A. F. Izmaylov, J. L. Sonnenberg, D. Williams-Young, 
 F. Ding, F. Lipparini, F. Egidi, J. Goings, B. Peng, A. Petrone, 
 T. Henderson, D. Ranasinghe, V. G. Zakrzewski, J. Gao, N. Rega, 
 G. Zheng, W. Liang, M. Hada, M. Ehara, K. Toyota, R. Fukuda, 
 J. Hasegawa, M. Ishida, T. Nakajima, Y. Honda, O. Kitao, H. Nakai, 
 T. Vreven, K. Throssell, J. A. Montgomery, Jr., J. E. Peralta, 
 F. Ogliaro, M. J. Bearpark, J. J. Heyd, E. N. Brothers, K. N. Kudin, 
 V. N. Staroverov, T. A. Keith, R. Kobayashi, J. Normand, 
 K. Raghavachari, A. P. Rendell, J. C. Burant, S. S. Iyengar, 
 J. Tomasi, M. Cossi, J. M. Millam, M. Klene, C. Adamo, R. Cammi, 
 J. W. Ochterski, R. L. Martin, K. Morokuma, O. Farkas, 
 J. B. Foresman, and D. J. Fox, Gaussian, Inc., Wallingford CT, 2016.
 
 ******************************************
 Gaussian 16:  ES64L-G16RevA.03 25-Dec-2016
                 9-Mar-2018 
 ******************************************
 %MEM=80GB
 %CPU=0-15
 SetSPE:  set environment variable "MP_BIND" = "yes"
 SetSPE:  set environment variable "MP_BLIST" = "0,1,2,3,4,5,6,7,8,9,10,11,12,13,14,15"
 Will use up to   16 processors via shared memory.
 %RWF=/scratch/04843/aannabe/gaussian/
 %Int=/scratch/04843/aannabe/gaussian/
 %D2E=/scratch/04843/aannabe/gaussian/
 %NoSave
 %CHK=MnO
 ----------------------------------------------------------------------
 #P ROCCSD(T)=(maxcyc=150, Full, SaveAmplitudes, ReadAmplitudes)/Gen 5d
  7f SCF=(maxcycles=300) Integral(NoXCTest) MaxDisk=500GB Pop=Regular P
 seudo=Read Guess=Read
 ----------------------------------------------------------------------
 1/38=1,172=1/1;
 2/12=2,17=6,18=5,40=1/2;
 3/5=7,8=11,11=2,16=1,17=8,25=1,30=1,47=8,116=101/1,2,3;
 4/5=1/1;
 5/5=2,7=300,38=6/2;
 8/5=-1,6=4,9=120000,10=90,24=1/1,4;
 9/5=7,6=150,14=2,77=1/13;
 6//1;
 99/5=1,9=1/99;
 Leave Link    1 at Fri Mar  9 16:36:37 2018, MaxMem= 10737418240 cpu:               3.6 elap:               0.2
 (Enter /home1/apps/gaussian/16rA.03/g16/l101.exe)
 ---
 MnO
 ---
 Symbolic Z-matrix:
 Charge =  0 Multiplicity = 6
 Mn                    0.        0.        0. 
 O                     0.        0.        1.2 
 
 ITRead=  0  0
 MicOpt= -1 -1
 NAtoms=      2 NQM=        2 NQMF=       0 NMMI=      0 NMMIF=      0
                NMic=       0 NMicF=      0.
                    Isotopes and Nuclear Properties:
 (Nuclear quadrupole moments (NQMom) in fm**2, nuclear magnetic moments (NMagM)
  in nuclear magnetons)

  Atom         1           2
 IAtWgt=          55          16
 AtmWgt=  54.9380463  15.9949146
 NucSpn=           5           0
 AtZEff=  -0.0000000  -0.0000000
 NQMom=   33.0000000   0.0000000
 NMagM=    3.4532000   0.0000000
 AtZNuc=  25.0000000   8.0000000
 Leave Link  101 at Fri Mar  9 16:36:37 2018, MaxMem= 10737418240 cpu:               1.4 elap:               0.1
 (Enter /home1/apps/gaussian/16rA.03/g16/l202.exe)
                          Input orientation:                          
 ---------------------------------------------------------------------
 Center     Atomic      Atomic             Coordinates (Angstroms)
 Number     Number       Type             X           Y           Z
 ---------------------------------------------------------------------
      1         25           0        0.000000    0.000000    0.000000
      2          8           0        0.000000    0.000000    1.200000
 ---------------------------------------------------------------------
 Stoichiometry    MnO(6)
 Framework group  C*V[C*(OMn)]
 Deg. of freedom     1
 Full point group                 C*V     NOp   4
 Largest Abelian subgroup         C2V     NOp   4
 Largest concise Abelian subgroup C1      NOp   1
                         Standard orientation:                         
 ---------------------------------------------------------------------
 Center     Atomic      Atomic             Coordinates (Angstroms)
 Number     Number       Type             X           Y           Z
 ---------------------------------------------------------------------
      1         25           0        0.000000    0.000000    0.290909
      2          8           0        0.000000    0.000000   -0.909091
 ---------------------------------------------------------------------
 Rotational constants (GHZ):           0.0000000          28.3300707          28.3300707
 Leave Link  202 at Fri Mar  9 16:36:38 2018, MaxMem= 10737418240 cpu:               0.3 elap:               0.1
 (Enter /home1/apps/gaussian/16rA.03/g16/l301.exe)
 General basis read from cards:  (5D, 7F)
 Centers:       1
 S 1 1.00
     Exponent=  1.2210500000D+07 Coefficients=  1.0000000000D+00
 S 1 1.00
     Exponent=  1.8281570000D+06 Coefficients=  1.0000000000D+00
 S 1 1.00
     Exponent=  4.1603030000D+05 Coefficients=  1.0000000000D+00
 S 1 1.00
     Exponent=  1.1784360000D+05 Coefficients=  1.0000000000D+00
 S 1 1.00
     Exponent=  3.8448140000D+04 Coefficients=  1.0000000000D+00
 S 1 1.00
     Exponent=  1.3881710000D+04 Coefficients=  1.0000000000D+00
 S 1 1.00
     Exponent=  5.4150020000D+03 Coefficients=  1.0000000000D+00
 S 1 1.00
     Exponent=  2.2464600000D+03 Coefficients=  1.0000000000D+00
 S 1 1.00
     Exponent=  9.8014630000D+02 Coefficients=  1.0000000000D+00
 S 1 1.00
     Exponent=  4.4589520000D+02 Coefficients=  1.0000000000D+00
 S 1 1.00
     Exponent=  2.1005580000D+02 Coefficients=  1.0000000000D+00
 S 1 1.00
     Exponent=  1.0180460000D+02 Coefficients=  1.0000000000D+00
 S 1 1.00
     Exponent=  5.0011260000D+01 Coefficients=  1.0000000000D+00
 S 1 1.00
     Exponent=  2.2939390000D+01 Coefficients=  1.0000000000D+00
 S 1 1.00
     Exponent=  1.1522640000D+01 Coefficients=  1.0000000000D+00
 S 1 1.00
     Exponent=  5.7763380000D+00 Coefficients=  1.0000000000D+00
 S 1 1.00
     Exponent=  2.6259590000D+00 Coefficients=  1.0000000000D+00
 S 1 1.00
     Exponent=  1.2603220000D+00 Coefficients=  1.0000000000D+00
 S 1 1.00
     Exponent=  5.7713000000D-01 Coefficients=  1.0000000000D+00
 S 1 1.00
     Exponent=  1.3658200000D-01 Coefficients=  1.0000000000D+00
 S 1 1.00
     Exponent=  6.3535000000D-02 Coefficients=  1.0000000000D+00
 S 1 1.00
     Exponent=  2.8521000000D-02 Coefficients=  1.0000000000D+00
 S 1 1.00
     Exponent=  5.3389000000D+00 Coefficients=  1.0000000000D+00
 S 1 1.00
     Exponent=  1.6013000000D+00 Coefficients=  1.0000000000D+00
 S 1 1.00
     Exponent=  1.2800000000D-02 Coefficients=  1.0000000000D+00
 P 1 1.00
     Exponent=  3.5005120000D+04 Coefficients=  1.0000000000D+00
 P 1 1.00
     Exponent=  8.2794620000D+03 Coefficients=  1.0000000000D+00
 P 1 1.00
     Exponent=  2.6884650000D+03 Coefficients=  1.0000000000D+00
 P 1 1.00
     Exponent=  1.0294900000D+03 Coefficients=  1.0000000000D+00
 P 1 1.00
     Exponent=  4.3807080000D+02 Coefficients=  1.0000000000D+00
 P 1 1.00
     Exponent=  2.0061530000D+02 Coefficients=  1.0000000000D+00
 P 1 1.00
     Exponent=  9.7007690000D+01 Coefficients=  1.0000000000D+00
 P 1 1.00
     Exponent=  4.8870520000D+01 Coefficients=  1.0000000000D+00
 P 1 1.00
     Exponent=  2.5292810000D+01 Coefficients=  1.0000000000D+00
 P 1 1.00
     Exponent=  1.3353820000D+01 Coefficients=  1.0000000000D+00
 P 1 1.00
     Exponent=  7.1317860000D+00 Coefficients=  1.0000000000D+00
 P 1 1.00
     Exponent=  3.7643650000D+00 Coefficients=  1.0000000000D+00
 P 1 1.00
     Exponent=  1.9462650000D+00 Coefficients=  1.0000000000D+00
 P 1 1.00
     Exponent=  9.8545500000D-01 Coefficients=  1.0000000000D+00
 P 1 1.00
     Exponent=  4.8186500000D-01 Coefficients=  1.0000000000D+00
 P 1 1.00
     Exponent=  1.8822219000D-01 Coefficients=  1.0000000000D+00
 P 1 1.00
     Exponent=  7.7539570000D-02 Coefficients=  1.0000000000D+00
 P 1 1.00
     Exponent=  3.1549450000D-02 Coefficients=  1.0000000000D+00
 P 1 1.00
     Exponent=  7.3423000000D+00 Coefficients=  1.0000000000D+00
 P 1 1.00
     Exponent=  1.9340000000D+00 Coefficients=  1.0000000000D+00
 P 1 1.00
     Exponent=  1.2840000000D-02 Coefficients=  1.0000000000D+00
 D 1 1.00
     Exponent=  3.1310900000D+02 Coefficients=  1.0000000000D+00
 D 1 1.00
     Exponent=  9.2527600000D+01 Coefficients=  1.0000000000D+00
 D 1 1.00
     Exponent=  3.5419100000D+01 Coefficients=  1.0000000000D+00
 D 1 1.00
     Exponent=  1.5157700000D+01 Coefficients=  1.0000000000D+00
 D 1 1.00
     Exponent=  6.9096400000D+00 Coefficients=  1.0000000000D+00
 D 1 1.00
     Exponent=  3.2725600000D+00 Coefficients=  1.0000000000D+00
 D 1 1.00
     Exponent=  1.5493600000D+00 Coefficients=  1.0000000000D+00
 D 1 1.00
     Exponent=  7.1709400000D-01 Coefficients=  1.0000000000D+00
 D 1 1.00
     Exponent=  3.1931000000D-01 Coefficients=  1.0000000000D+00
 D 1 1.00
     Exponent=  1.3415700000D-01 Coefficients=  1.0000000000D+00
 D 1 1.00
     Exponent=  5.1400000000D-02 Coefficients=  1.0000000000D+00
 D 1 1.00
     Exponent=  4.6851000000D+00 Coefficients=  1.0000000000D+00
 D 1 1.00
     Exponent=  2.4217000000D+00 Coefficients=  1.0000000000D+00
 D 1 1.00
     Exponent=  1.9690000000D-02 Coefficients=  1.0000000000D+00
 F 1 1.00
     Exponent=  6.6540000000D+00 Coefficients=  1.0000000000D+00
 F 1 1.00
     Exponent=  2.7676000000D+00 Coefficients=  1.0000000000D+00
 F 1 1.00
     Exponent=  1.1511000000D+00 Coefficients=  1.0000000000D+00
 F 1 1.00
     Exponent=  3.8120000000D-01 Coefficients=  1.0000000000D+00
 F 1 1.00
     Exponent=  1.2624000000D-01 Coefficients=  1.0000000000D+00
 G 1 1.00
     Exponent=  5.4683000000D+00 Coefficients=  1.0000000000D+00
 G 1 1.00
     Exponent=  2.3327000000D+00 Coefficients=  1.0000000000D+00
 G 1 1.00
     Exponent=  8.5200000000D-01 Coefficients=  1.0000000000D+00
 G 1 1.00
     Exponent=  3.1119000000D-01 Coefficients=  1.0000000000D+00
 H 1 1.00
     Exponent=  5.1185000000D+00 Coefficients=  1.0000000000D+00
 H 1 1.00
     Exponent=  1.9660000000D+00 Coefficients=  1.0000000000D+00
 H 1 1.00
     Exponent=  7.5513000000D-01 Coefficients=  1.0000000000D+00
 ****
 Centers:       2
 S 1 1.00
     Exponent=  6.1420000000D+04 Coefficients=  1.0000000000D+00
 S 1 1.00
     Exponent=  9.1990000000D+03 Coefficients=  1.0000000000D+00
 S 1 1.00
     Exponent=  2.0910000000D+03 Coefficients=  1.0000000000D+00
 S 1 1.00
     Exponent=  5.9090000000D+02 Coefficients=  1.0000000000D+00
 S 1 1.00
     Exponent=  1.9230000000D+02 Coefficients=  1.0000000000D+00
 S 1 1.00
     Exponent=  6.9320000000D+01 Coefficients=  1.0000000000D+00
 S 1 1.00
     Exponent=  2.6970000000D+01 Coefficients=  1.0000000000D+00
 S 1 1.00
     Exponent=  1.1100000000D+01 Coefficients=  1.0000000000D+00
 S 1 1.00
     Exponent=  4.6820000000D+00 Coefficients=  1.0000000000D+00
 S 1 1.00
     Exponent=  1.4280000000D+00 Coefficients=  1.0000000000D+00
 S 1 1.00
     Exponent=  5.5470000000D-01 Coefficients=  1.0000000000D+00
 S 1 1.00
     Exponent=  2.0670000000D-01 Coefficients=  1.0000000000D+00
 S 1 1.00
     Exponent=  1.2974000000D+01 Coefficients=  1.0000000000D+00
 S 1 1.00
     Exponent=  3.4900000000D+01 Coefficients=  1.0000000000D+00
 S 1 1.00
     Exponent=  9.3881000000D+01 Coefficients=  1.0000000000D+00
 S 1 1.00
     Exponent=  6.9590000000D-02 Coefficients=  1.0000000000D+00
 P 1 1.00
     Exponent=  6.3420000000D+01 Coefficients=  1.0000000000D+00
 P 1 1.00
     Exponent=  1.4660000000D+01 Coefficients=  1.0000000000D+00
 P 1 1.00
     Exponent=  4.4590000000D+00 Coefficients=  1.0000000000D+00
 P 1 1.00
     Exponent=  1.5310000000D+00 Coefficients=  1.0000000000D+00
 P 1 1.00
     Exponent=  5.3020000000D-01 Coefficients=  1.0000000000D+00
 P 1 1.00
     Exponent=  1.7500000000D-01 Coefficients=  1.0000000000D+00
 P 1 1.00
     Exponent=  1.4475000000D+01 Coefficients=  1.0000000000D+00
 P 1 1.00
     Exponent=  4.2730000000D+01 Coefficients=  1.0000000000D+00
 P 1 1.00
     Exponent=  1.2614000000D+02 Coefficients=  1.0000000000D+00
 P 1 1.00
     Exponent=  5.3480000000D-02 Coefficients=  1.0000000000D+00
 D 1 1.00
     Exponent=  3.7750000000D+00 Coefficients=  1.0000000000D+00
 D 1 1.00
     Exponent=  1.3000000000D+00 Coefficients=  1.0000000000D+00
 D 1 1.00
     Exponent=  4.4400000000D-01 Coefficients=  1.0000000000D+00
 D 1 1.00
     Exponent=  1.4927000000D+01 Coefficients=  1.0000000000D+00
 D 1 1.00
     Exponent=  5.7544000000D+01 Coefficients=  1.0000000000D+00
 D 1 1.00
     Exponent=  1.5400000000D-01 Coefficients=  1.0000000000D+00
 F 1 1.00
     Exponent=  2.6660000000D+00 Coefficients=  1.0000000000D+00
 F 1 1.00
     Exponent=  8.5900000000D-01 Coefficients=  1.0000000000D+00
 F 1 1.00
     Exponent=  2.6483000000D+01 Coefficients=  1.0000000000D+00
 F 1 1.00
     Exponent=  3.2400000000D-01 Coefficients=  1.0000000000D+00
 G 1 1.00
     Exponent=  1.8460000000D+00 Coefficients=  1.0000000000D+00
 G 1 1.00
     Exponent=  7.1400000000D-01 Coefficients=  1.0000000000D+00
 ****
 ======================================================================================================
                                       Pseudopotential Parameters
 ======================================================================================================
  Center     Atomic      Valence      Angular      Power
  Number     Number     Electrons     Momentum     of R      Exponent        Coefficient   SO-Coeffient
 ======================================================================================================
    1         25           15
                                      D and up 
                                                     1       23.9390799       15.00000000    0.00000000
                                                     3       22.6487595      359.08619845    0.00000000
                                                     2       21.8940654     -152.94067313    0.00000000
                                                     2        6.3591050       -2.00927518    0.00000000
                                      S - D
                                                     2       18.5418030      245.53111290    0.00000000
                                                     2        8.3984596       33.14202299    0.00000000
                                      P - D
                                                     2       19.3120237      163.21059049    0.00000000
                                                     2        8.3700777       25.03088136    0.00000000
    2          8            6
                                      P and up 
                                                     1       12.3099700        6.00000000    0.00000000
                                                     3       14.7696200       73.85984000    0.00000000
                                                     2       13.7141900      -47.87600000    0.00000000
                                      S - P
                                                     2       13.6551200       85.86406000    0.00000000
 ======================================================================================================
 Ernie: Thresh=  0.10000D-02 Tol=  0.10000D-05 Strict=F.
 There are   213 symmetry adapted cartesian basis functions of A1  symmetry.
 There are    56 symmetry adapted cartesian basis functions of A2  symmetry.
 There are   114 symmetry adapted cartesian basis functions of B1  symmetry.
 There are   114 symmetry adapted cartesian basis functions of B2  symmetry.
 There are   157 symmetry adapted basis functions of A1  symmetry.
 There are    47 symmetry adapted basis functions of A2  symmetry.
 There are    90 symmetry adapted basis functions of B1  symmetry.
 There are    90 symmetry adapted basis functions of B2  symmetry.
   384 basis functions,   497 primitive gaussians,   497 cartesian basis functions
    13 alpha electrons        8 beta electrons
       nuclear repulsion energy        39.6882908190 Hartrees.
 IExCor=    0 DFT=F Ex=HF Corr=None ExCW=0 ScaHFX=  1.000000
 ScaDFX=  1.000000  1.000000  1.000000  1.000000 ScalE2=  1.000000  1.000000
 IRadAn=      5 IRanWt=     -1 IRanGd=            0 ICorTp=0 IEmpDi=  4
 NAtoms=    2 NActive=    2 NUniq=    2 SFac= 1.00D+00 NAtFMM=   60 NAOKFM=F Big=F
 Integral buffers will be    131072 words long.
 Raffenetti 2 integral format.
 Two-electron integral symmetry is turned on.
 Leave Link  301 at Fri Mar  9 16:36:38 2018, MaxMem= 10737418240 cpu:               4.6 elap:               0.3
 (Enter /home1/apps/gaussian/16rA.03/g16/l302.exe)
 NPDir=0 NMtPBC=     1 NCelOv=     1 NCel=       1 NClECP=     1 NCelD=      1
         NCelK=      1 NCelE2=     1 NClLst=     1 CellRange=     0.0.
 One-electron integrals computed using PRISM.
 One-electron integral symmetry used in STVInt
   4 Symmetry operations used in ECPInt.
 ECPInt:  NShTT=    6105 NPrTT=    6105 LenC2=    5685 LenP2D=    5684.
 LDataN:  DoStor=T MaxTD1=10 Len=  848
 NBasis=   384 RedAO= T EigKep=  1.96D-06  NBF=   157    47    90    90
 NBsUse=   377 1.00D-06 EigRej=  3.47D-07 NBFU=   154    47    88    88
 Leave Link  302 at Fri Mar  9 16:36:40 2018, MaxMem= 10737418240 cpu:              40.3 elap:               2.6
 (Enter /home1/apps/gaussian/16rA.03/g16/l303.exe)
 DipDrv:  MaxL=1.
 Leave Link  303 at Fri Mar  9 16:36:41 2018, MaxMem= 10737418240 cpu:               1.9 elap:               0.2
 (Enter /home1/apps/gaussian/16rA.03/g16/l401.exe)
 Initial guess from the checkpoint file:  "MnO.chk"
 B after Tr=     0.000000    0.000000    0.000000
         Rot=    1.000000    0.000000    0.000000    0.000000 Ang=   0.00 deg.
 Guess basis will be translated and rotated to current coordinates.
 JPrj=2 DoOrth=T DoCkMO=T.
 Initial guess orbital symmetries:
       Occupied  (SG) (SG) (PI) (PI) (SG) (PI) (PI) (SG) (DLTA)
                 (DLTA) (SG) (PI) (PI)
       Virtual   (SG) (PI) (PI) (SG) (SG) (PI) (PI) (DLTA) (DLTA)
                 (PI) (PI) (SG) (SG) (SG) (PI) (PI) (SG) (PI) (PI)
                 (DLTA) (DLTA) (SG) (PI) (PI) (SG) (SG) (SG) (DLTA)
                 (DLTA) (PI) (PI) (PHI) (PHI) (SG) (PI) (PI) (PI)
                 (PI) (SG) (DLTA) (DLTA) (SG) (DLTA) (DLTA) (PI)
                 (PI) (SG) (SG) (PI) (PI) (SG) (DLTA) (DLTA) (PHI)
                 (PHI) (PI) (PI) (SG) (DLTA) (DLTA) (PHI) (PHI)
                 (SG) (PI) (PI) (PI) (PI) (DLTA) (DLTA) (SG) (?A)
                 (?A) (DLTA) (DLTA) (SG) (PI) (PI) (PHI) (PHI)
                 (SG) (SG) (PI) (PI) (PI) (PI) (DLTA) (DLTA) (SG)
                 (SG) (PI) (PI) (SG) (SG) (PHI) (PHI) (PHI) (PHI)
                 (DLTA) (DLTA) (SG) (DLTA) (DLTA) (PI) (PI) (DLTA)
                 (DLTA) (PI) (PI) (DLTA) (DLTA) (PI) (PI) (PI)
                 (PI) (SG) (PI) (PI) (SG) (?A) (?A) (SG) (PHI)
                 (PHI) (DLTA) (DLTA) (PI) (PI) (SG) (SG) (SG) (DLTA)
                 (DLTA) (PI) (PI) (PI) (PI) (SG) (SG) (PHI) (PHI)
                 (DLTA) (DLTA) (PI) (PI) (PI) (PI) (SG) (SG) (SG)
                 (?A) (?A) (PHI) (PHI) (DLTA) (DLTA) (PI) (PI)
                 (SG) (DLTA) (DLTA) (PI) (PI) (SG) (SG) (PI) (PI)
                 (SG) (SG) (DLTA) (DLTA) (PI) (PI) (SG) (PI) (PI)
                 (DLTA) (DLTA) (PI) (PI) (SG) (SG) (SG) (PI) (PI)
                 (SG) (SG) (DLTA) (DLTA) (PI) (PI) (SG) (PI) (PI)
                 (SG) (SG) (PI) (PI) (SG) (SG) (SG) (PI) (PI) (SG)
                 (PI) (PI) (SG) (SG) (SG) (DLTA) (DLTA) (PI) (PI)
                 (SG) (PI) (PI) (SG) (SG) (SG) (PI) (PI) (SG) (SG)
                 (SG) (PI) (PI) (SG) (SG) (PI) (PI) (SG) (SG) (SG)
                 (PI) (PI) (SG) (SG) (SG) (SG) (PI) (PI) (SG) (SG)
                 (SG) (SG) (SG) (DLTA) (SG) (DLTA) (SG) (SG) (SG)
                 (DLTA) (SG) (SG) (DLTA) (SG) (SG) (DLTA) (SG)
                 (SG) (SG) (DLTA) (?A) (SG) (DLTA) (?A) (SG) (SG)
                 (DLTA) (SG) (DLTA) (SG) (DLTA) (SG) (?A) (SG)
                 (DLTA) (DLTA) (SG) (?A) (DLTA) (DLTA) (SG) (SG)
                 (?A) (?A) (DLTA) (DLTA) (DLTA) (DLTA) (DLTA) (DLTA)
                 (?A) (DLTA) (?A) (DLTA) (DLTA) (DLTA) (?A) (DLTA)
                 (DLTA) (?A) (DLTA) (DLTA) (?A) (?A) (PI) (PI)
                 (PI) (PI) (PI) (PI) (PHI) (PI) (PI) (PI) (PI)
                 (PHI) (PI) (PI) (PHI) (PHI) (PI) (?B) (PI) (PI)
                 (PHI) (PI) (PHI) (PI) (PHI) (PHI) (?B) (PHI) (?B)
                 (PI) (PI) (PI) (PI) (PI) (PI) (PHI) (PI) (PI)
                 (PI) (PI) (PHI) (PI) (PI) (PHI) (PHI) (PI) (?B)
                 (PI) (PI) (PHI) (PI) (PHI) (PI) (PHI) (PHI) (?B)
                 (PHI) (?B)
 The electronic state of the initial guess is 6-SG.
 Leave Link  401 at Fri Mar  9 16:36:42 2018, MaxMem= 10737418240 cpu:              13.8 elap:               1.0
 (Enter /home1/apps/gaussian/16rA.03/g16/l502.exe)
 Keep R1 and R2 ints in memory in symmetry-blocked form, NReq=3425113631.
 FoFCou: FMM=F IPFlag=           8 FMFlag=           0 FMFlg1=           0
         NFxFlg=           0 DoJE=F BraDBF=F KetDBF=F FulRan=T
         wScrn=  0.000000 ICntrl=       600 IOpCl=  0 I1Cent=           0 NGrid=           0
         NMat0=    1 NMatS0=  73920 NMatT0=    0 NMatD0=    1 NMtDS0=    0 NMtDT0=    0
 Petite list used in FoFCou.
 Restricted open shell SCF:
 Using DIIS extrapolation, IDIIS=  1040.
 NGot= 10737418240 LenX=  9351093905 LenY=  9350846399
 Requested convergence on RMS density matrix=1.00D-08 within 300 cycles.
 Requested convergence on MAX density matrix=1.00D-06.
 Requested convergence on             energy=1.00D-06.
 No special actions if energy rises.

 Cycle   1  Pass 1  IDiag  1:
 E= -118.858574400783    
 DIIS: error= 1.02D+00 at cycle   1 NSaved=   1.
 NSaved= 1 IEnMin= 1 EnMin= -118.858574400783     IErMin= 1 ErrMin= 1.02D+00
 ErrMax= 1.02D+00  0.00D+00 EMaxC= 1.00D-01 BMatC= 3.21D+02 BMatP= 3.21D+02
 IDIUse=3 WtCom= 0.00D+00 WtEn= 1.00D+00
 Coeff-Com:  0.100D+01
 Coeff-En:   0.100D+01
 Coeff:      0.100D+01
 Gap=     0.065 Goal=   None    Shift=    0.000
 GapD=    0.065 DampG=0.500 DampE=0.125 DampFc=0.1250 IDamp=-1.
 Damping current iteration by 1.25D-01
 RMSDP=2.11D-03 MaxDP=1.00D-01              OVMax= 6.21D-03

 Cycle   2  Pass 1  IDiag  1:
 E= -118.858900163598     Delta-E=       -0.000325762815 Rises=F Damp=T
 DIIS: error= 8.94D-01 at cycle   2 NSaved=   2.
 NSaved= 2 IEnMin= 2 EnMin= -118.858900163598     IErMin= 2 ErrMin= 8.94D-01
 ErrMax= 8.94D-01  0.00D+00 EMaxC= 1.00D-01 BMatC= 2.46D+02 BMatP= 3.21D+02
 IDIUse=3 WtCom= 0.00D+00 WtEn= 1.00D+00
 Coeff-Com: -0.700D+01 0.800D+01
 Coeff-En:   0.000D+00 0.100D+01
 Coeff:      0.000D+00 0.100D+01
 Gap=     0.060 Goal=   None    Shift=    0.000
 RMSDP=1.83D-03 MaxDP=8.76D-02 DE=-3.26D-04 OVMax= 9.05D-03

 Cycle   3  Pass 1  IDiag  1:
 E= -118.861184463680     Delta-E=       -0.002284300082 Rises=F Damp=F
 DIIS: error= 7.43D-04 at cycle   3 NSaved=   3.
 NSaved= 3 IEnMin= 3 EnMin= -118.861184463680     IErMin= 3 ErrMin= 7.43D-04
 ErrMax= 7.43D-04  0.00D+00 EMaxC= 1.00D-01 BMatC= 6.97D-05 BMatP= 2.46D+02
 IDIUse=3 WtCom= 9.93D-01 WtEn= 7.43D-03
 Coeff-Com: -0.114D+01 0.130D+01 0.837D+00
 Coeff-En:   0.000D+00 0.000D+00 0.100D+01
 Coeff:     -0.113D+01 0.129D+01 0.838D+00
 Gap=     0.060 Goal=   None    Shift=    0.000
 RMSDP=1.32D-04 MaxDP=8.54D-03 DE=-2.28D-03 OVMax= 1.93D-02

 Cycle   4  Pass 1  IDiag  1:
 E= -118.861096943790     Delta-E=        0.000087519890 Rises=F Damp=F
 DIIS: error= 7.05D-04 at cycle   4 NSaved=   4.
 NSaved= 4 IEnMin= 3 EnMin= -118.861184463680     IErMin= 4 ErrMin= 7.05D-04
 ErrMax= 7.05D-04  0.00D+00 EMaxC= 1.00D-01 BMatC= 9.55D-05 BMatP= 6.97D-05
 IDIUse=3 WtCom= 2.74D-01 WtEn= 7.26D-01
 Coeff-Com: -0.835D+00 0.955D+00 0.572D+00 0.309D+00
 Coeff-En:   0.000D+00 0.000D+00 0.566D+00 0.434D+00
 Coeff:     -0.228D+00 0.261D+00 0.568D+00 0.400D+00
 Gap=     0.060 Goal=   None    Shift=    0.000
 RMSDP=2.08D-04 MaxDP=1.28D-02 DE= 8.75D-05 OVMax= 2.82D-02

 Cycle   5  Pass 1  IDiag  1:
 E= -118.861107550026     Delta-E=       -0.000010606236 Rises=F Damp=F
 DIIS: error= 6.09D-04 at cycle   5 NSaved=   5.
 NSaved= 5 IEnMin= 3 EnMin= -118.861184463680     IErMin= 5 ErrMin= 6.09D-04
 ErrMax= 6.09D-04  0.00D+00 EMaxC= 1.00D-01 BMatC= 7.58D-05 BMatP= 6.97D-05
 IDIUse=3 WtCom= 9.94D-01 WtEn= 6.09D-03
 EnCoef did     5 forward-backward iterations
 Coeff-Com: -0.522D+00 0.597D+00 0.370D+00 0.317D+00 0.239D+00
 Coeff-En:   0.000D+00 0.000D+00 0.160D+00 0.440D+00 0.400D+00
 Coeff:     -0.519D+00 0.593D+00 0.368D+00 0.317D+00 0.240D+00
 Gap=     0.060 Goal=   None    Shift=    0.000
 RMSDP=1.22D-04 MaxDP=7.98D-03 DE=-1.06D-05 OVMax= 1.62D-02

 Cycle   6  Pass 1  IDiag  1:
 E= -118.861255454226     Delta-E=       -0.000147904200 Rises=F Damp=F
 DIIS: error= 3.79D-04 at cycle   6 NSaved=   6.
 NSaved= 6 IEnMin= 6 EnMin= -118.861255454226     IErMin= 6 ErrMin= 3.79D-04
 ErrMax= 3.79D-04  0.00D+00 EMaxC= 1.00D-01 BMatC= 1.72D-05 BMatP= 6.97D-05
 IDIUse=3 WtCom= 9.96D-01 WtEn= 3.79D-03
 Rare condition: small coef for last iteration:  0.555D-15
 Coeff-Com: -0.380D+00 0.434D+00-0.681D-02 0.142D+00 0.223D+00 0.588D+00
 Coeff-En:   0.000D+00 0.000D+00 0.000D+00 0.279D+00 0.236D+00 0.485D+00
 Coeff:     -0.380D+00 0.434D+00-0.681D-02 0.142D+00 0.223D+00 0.588D+00
 Gap=     0.060 Goal=   None    Shift=    0.000
 RMSDP=2.12D-05 MaxDP=1.46D-03 DE=-1.48D-04 OVMax= 3.43D-03

 Cycle   7  Pass 1  IDiag  1:
 E= -118.861276701042     Delta-E=       -0.000021246816 Rises=F Damp=F
 DIIS: error= 2.14D-04 at cycle   7 NSaved=   7.
 NSaved= 7 IEnMin= 7 EnMin= -118.861276701042     IErMin= 7 ErrMin= 2.14D-04
 ErrMax= 2.14D-04  0.00D+00 EMaxC= 1.00D-01 BMatC= 4.87D-06 BMatP= 1.72D-05
 IDIUse=3 WtCom= 9.98D-01 WtEn= 2.14D-03
 EnCoef did   100 forward-backward iterations
 Rare condition: small coef for last iteration:  0.000D+00
 Coeff-Com: -0.352D+00 0.402D+00-0.754D-01 0.367D-01 0.998D-01 0.388D+00
 Coeff-Com:  0.500D+00
 Coeff-En:   0.000D+00 0.000D+00 0.720D-01 0.242D+00 0.152D+00 0.979D-01
 Coeff-En:   0.437D+00
 Coeff:     -0.352D+00 0.402D+00-0.754D-01 0.367D-01 0.998D-01 0.388D+00
 Coeff:      0.500D+00
 Gap=     0.060 Goal=   None    Shift=    0.000
 RMSDP=1.30D-05 MaxDP=9.65D-04 DE=-2.12D-05 OVMax= 1.67D-03

 Cycle   8  Pass 1  IDiag  1:
 E= -118.861278975498     Delta-E=       -0.000002274456 Rises=F Damp=F
 DIIS: error= 1.58D-04 at cycle   8 NSaved=   8.
 NSaved= 8 IEnMin= 8 EnMin= -118.861278975498     IErMin= 8 ErrMin= 1.58D-04
 ErrMax= 1.58D-04  0.00D+00 EMaxC= 1.00D-01 BMatC= 2.95D-06 BMatP= 4.87D-06
 IDIUse=3 WtCom= 9.98D-01 WtEn= 1.58D-03
 EnCoef did   100 forward-backward iterations
 Rare condition: small coef for last iteration:  0.000D+00
 Coeff-Com: -0.332D+00 0.380D+00-0.687D-01 0.546D-02 0.411D-01 0.230D+00
 Coeff-Com:  0.358D+00 0.386D+00
 Coeff-En:   0.000D+00 0.000D+00 0.871D-01 0.239D+00 0.136D+00 0.418D-01
 Coeff-En:   0.101D+00 0.395D+00
 Coeff:     -0.332D+00 0.380D+00-0.687D-01 0.546D-02 0.411D-01 0.230D+00
 Coeff:      0.358D+00 0.386D+00
 Gap=     0.060 Goal=   None    Shift=    0.000
 RMSDP=9.15D-06 MaxDP=6.26D-04 DE=-2.27D-06 OVMax= 9.47D-04

 Cycle   9  Pass 1  IDiag  1:
 E= -118.861280017942     Delta-E=       -0.000001042444 Rises=F Damp=F
 DIIS: error= 1.53D-04 at cycle   9 NSaved=   9.
 NSaved= 9 IEnMin= 9 EnMin= -118.861280017942     IErMin= 9 ErrMin= 1.53D-04
 ErrMax= 1.53D-04  0.00D+00 EMaxC= 1.00D-01 BMatC= 2.37D-06 BMatP= 2.95D-06
 IDIUse=3 WtCom= 9.98D-01 WtEn= 1.53D-03
 EnCoef did   100 forward-backward iterations
 Rare condition: small coef for last iteration:  0.000D+00
 Coeff-Com: -0.300D+00 0.342D+00-0.535D-01-0.179D-01-0.560D-02 0.768D-01
 Coeff-Com:  0.158D+00 0.312D+00 0.488D+00
 Coeff-En:   0.000D+00 0.000D+00 0.936D-01 0.234D+00 0.135D+00 0.298D-01
 Coeff-En:   0.000D+00 0.341D-01 0.474D+00
 Coeff:     -0.300D+00 0.342D+00-0.535D-01-0.179D-01-0.560D-02 0.768D-01
 Coeff:      0.158D+00 0.312D+00 0.488D+00
 Gap=     0.060 Goal=   None    Shift=    0.000
 RMSDP=4.33D-06 MaxDP=2.70D-04 DE=-1.04D-06 OVMax= 3.72D-04

 Cycle  10  Pass 1  IDiag  1:
 E= -118.861280640845     Delta-E=       -0.000000622903 Rises=F Damp=F
 DIIS: error= 1.33D-04 at cycle  10 NSaved=  10.
 NSaved=10 IEnMin=10 EnMin= -118.861280640845     IErMin=10 ErrMin= 1.33D-04
 ErrMax= 1.33D-04  0.00D+00 EMaxC= 1.00D-01 BMatC= 1.83D-06 BMatP= 2.37D-06
 IDIUse=3 WtCom= 9.99D-01 WtEn= 1.33D-03
 EnCoef did   100 forward-backward iterations
 Rare condition: small coef for last iteration:  0.000D+00
 Coeff-Com: -0.242D+00 0.277D+00-0.350D-01-0.332D-01-0.321D-01-0.506D-01
 Coeff-Com: -0.226D-01 0.105D+00 0.301D+00 0.733D+00
 Coeff-En:   0.000D+00 0.000D+00 0.101D+00 0.228D+00 0.137D+00 0.165D-01
 Coeff-En:   0.000D+00 0.000D+00 0.000D+00 0.518D+00
 Coeff:     -0.242D+00 0.277D+00-0.350D-01-0.332D-01-0.321D-01-0.506D-01
 Coeff:     -0.226D-01 0.105D+00 0.301D+00 0.733D+00
 Gap=     0.060 Goal=   None    Shift=    0.000
 RMSDP=6.79D-06 MaxDP=4.40D-04 DE=-6.23D-07 OVMax= 1.61D-04

 Cycle  11  Pass 1  IDiag  1:
 E= -118.861281261872     Delta-E=       -0.000000621028 Rises=F Damp=F
 DIIS: error= 1.09D-04 at cycle  11 NSaved=  11.
 NSaved=11 IEnMin=11 EnMin= -118.861281261872     IErMin=11 ErrMin= 1.09D-04
 ErrMax= 1.09D-04  0.00D+00 EMaxC= 1.00D-01 BMatC= 1.21D-06 BMatP= 1.83D-06
 IDIUse=3 WtCom= 9.99D-01 WtEn= 1.09D-03
 EnCoef did   100 forward-backward iterations
 Coeff-Com: -0.193D+00 0.221D+00-0.278D-01-0.248D-01-0.218D-01-0.326D-01
 Coeff-Com: -0.142D-01 0.575D-01 0.118D+00-0.798D-01 0.998D+00
 Coeff-En:   0.000D+00 0.000D+00 0.158D+00 0.435D+00 0.394D+00 0.642D-03
 Coeff-En:   0.000D+00 0.000D+00 0.000D+00 0.000D+00 0.118D-01
 Coeff:     -0.193D+00 0.220D+00-0.276D-01-0.243D-01-0.213D-01-0.325D-01
 Coeff:     -0.142D-01 0.574D-01 0.118D+00-0.798D-01 0.997D+00
 Gap=     0.060 Goal=   None    Shift=    0.000
 RMSDP=6.21D-06 MaxDP=3.91D-04 DE=-6.21D-07 OVMax= 1.53D-04

 Cycle  12  Pass 1  IDiag  1:
 E= -118.861281704744     Delta-E=       -0.000000442871 Rises=F Damp=F
 DIIS: error= 8.71D-05 at cycle  12 NSaved=  12.
 NSaved=12 IEnMin=12 EnMin= -118.861281704744     IErMin=12 ErrMin= 8.71D-05
 ErrMax= 8.71D-05  0.00D+00 EMaxC= 1.00D-01 BMatC= 7.68D-07 BMatP= 1.21D-06
 IDIUse=1 WtCom= 1.00D+00 WtEn= 0.00D+00
 Coeff-Com: -0.138D+00 0.158D+00-0.214D-01-0.120D-01-0.720D-02 0.586D-02
 Coeff-Com:  0.219D-01 0.619D-01 0.415D-01-0.809D+00 0.886D+00 0.813D+00
 Coeff:     -0.138D+00 0.158D+00-0.214D-01-0.120D-01-0.720D-02 0.586D-02
 Coeff:      0.219D-01 0.619D-01 0.415D-01-0.809D+00 0.886D+00 0.813D+00
 Gap=     0.060 Goal=   None    Shift=    0.000
 RMSDP=6.48D-06 MaxDP=4.15D-04 DE=-4.43D-07 OVMax= 1.73D-04

 Cycle  13  Pass 1  IDiag  1:
 E= -118.861282087542     Delta-E=       -0.000000382798 Rises=F Damp=F
 DIIS: error= 6.15D-05 at cycle  13 NSaved=  13.
 NSaved=13 IEnMin=13 EnMin= -118.861282087542     IErMin=13 ErrMin= 6.15D-05
 ErrMax= 6.15D-05  0.00D+00 EMaxC= 1.00D-01 BMatC= 3.91D-07 BMatP= 7.68D-07
 IDIUse=1 WtCom= 1.00D+00 WtEn= 0.00D+00
 Coeff-Com: -0.729D-01 0.833D-01-0.133D-01-0.166D-02 0.310D-02 0.304D-01
 Coeff-Com:  0.487D-01 0.548D-01 0.350D-02-0.734D+00-0.731D-01 0.727D+00
 Coeff-Com:  0.944D+00
 Coeff:     -0.729D-01 0.833D-01-0.133D-01-0.166D-02 0.310D-02 0.304D-01
 Coeff:      0.487D-01 0.548D-01 0.350D-02-0.734D+00-0.731D-01 0.727D+00
 Coeff:      0.944D+00
 Gap=     0.060 Goal=   None    Shift=    0.000
 RMSDP=8.05D-06 MaxDP=4.99D-04 DE=-3.83D-07 OVMax= 1.86D-04

 Cycle  14  Pass 1  IDiag  1:
 E= -118.861282372578     Delta-E=       -0.000000285037 Rises=F Damp=F
 DIIS: error= 3.27D-05 at cycle  14 NSaved=  14.
 NSaved=14 IEnMin=14 EnMin= -118.861282372578     IErMin=14 ErrMin= 3.27D-05
 ErrMax= 3.27D-05  0.00D+00 EMaxC= 1.00D-01 BMatC= 1.09D-07 BMatP= 3.91D-07
 IDIUse=1 WtCom= 1.00D+00 WtEn= 0.00D+00
 Coeff-Com: -0.469D-01 0.536D-01-0.764D-02-0.404D-02-0.284D-02 0.384D-02
 Coeff-Com:  0.154D-01 0.339D-01 0.467D-01 0.339D-01-0.205D+00 0.504D-01
 Coeff-Com: -0.324D+00 0.135D+01
 Coeff:     -0.469D-01 0.536D-01-0.764D-02-0.404D-02-0.284D-02 0.384D-02
 Coeff:      0.154D-01 0.339D-01 0.467D-01 0.339D-01-0.205D+00 0.504D-01
 Coeff:     -0.324D+00 0.135D+01
 Gap=     0.060 Goal=   None    Shift=    0.000
 RMSDP=3.20D-06 MaxDP=1.99D-04 DE=-2.85D-07 OVMax= 7.65D-05

 Cycle  15  Pass 1  IDiag  1:
 E= -118.861282437768     Delta-E=       -0.000000065190 Rises=F Damp=F
 DIIS: error= 2.08D-05 at cycle  15 NSaved=  15.
 NSaved=15 IEnMin=15 EnMin= -118.861282437768     IErMin=15 ErrMin= 2.08D-05
 ErrMax= 2.08D-05  0.00D+00 EMaxC= 1.00D-01 BMatC= 4.49D-08 BMatP= 1.09D-07
 IDIUse=1 WtCom= 1.00D+00 WtEn= 0.00D+00
 Coeff-Com: -0.288D-01 0.329D-01-0.426D-02-0.366D-02-0.364D-02-0.446D-02
 Coeff-Com:  0.528D-04 0.181D-01 0.450D-01 0.139D+00-0.669D-01-0.113D+00
 Coeff-Com: -0.624D+00 0.985D+00 0.628D+00
 Coeff:     -0.288D-01 0.329D-01-0.426D-02-0.366D-02-0.364D-02-0.446D-02
 Coeff:      0.528D-04 0.181D-01 0.450D-01 0.139D+00-0.669D-01-0.113D+00
 Coeff:     -0.624D+00 0.985D+00 0.628D+00
 Gap=     0.060 Goal=   None    Shift=    0.000
 RMSDP=2.23D-06 MaxDP=1.39D-04 DE=-6.52D-08 OVMax= 5.80D-05

 Cycle  16  Pass 1  IDiag  1:
 E= -118.861282465981     Delta-E=       -0.000000028213 Rises=F Damp=F
 DIIS: error= 1.28D-05 at cycle  16 NSaved=  16.
 NSaved=16 IEnMin=16 EnMin= -118.861282465981     IErMin=16 ErrMin= 1.28D-05
 ErrMax= 1.28D-05  0.00D+00 EMaxC= 1.00D-01 BMatC= 1.70D-08 BMatP= 4.49D-08
 IDIUse=1 WtCom= 1.00D+00 WtEn= 0.00D+00
 Coeff-Com: -0.128D-01 0.147D-01-0.153D-02-0.260D-02-0.318D-02-0.765D-02
 Coeff-Com: -0.850D-02 0.567D-02 0.346D-01 0.141D+00 0.424D-01-0.171D+00
 Coeff-Com: -0.653D+00 0.508D+00 0.727D+00 0.386D+00
 Coeff:     -0.128D-01 0.147D-01-0.153D-02-0.260D-02-0.318D-02-0.765D-02
 Coeff:     -0.850D-02 0.567D-02 0.346D-01 0.141D+00 0.424D-01-0.171D+00
 Coeff:     -0.653D+00 0.508D+00 0.727D+00 0.386D+00
 Gap=     0.060 Goal=   None    Shift=    0.000
 RMSDP=1.96D-06 MaxDP=1.23D-04 DE=-2.82D-08 OVMax= 5.26D-05

 Cycle  17  Pass 1  IDiag  1:
 E= -118.861282479830     Delta-E=       -0.000000013849 Rises=F Damp=F
 DIIS: error= 5.74D-06 at cycle  17 NSaved=  17.
 NSaved=17 IEnMin=17 EnMin= -118.861282479830     IErMin=17 ErrMin= 5.74D-06
 ErrMax= 5.74D-06  0.00D+00 EMaxC= 1.00D-01 BMatC= 3.37D-09 BMatP= 1.70D-08
 IDIUse=1 WtCom= 1.00D+00 WtEn= 0.00D+00
 Coeff-Com: -0.467D-02 0.534D-02-0.396D-03-0.135D-02-0.182D-02-0.521D-02
 Coeff-Com: -0.726D-02 0.136D-02 0.206D-01 0.744D-01 0.594D-01-0.118D+00
 Coeff-Com: -0.407D+00 0.180D+00 0.409D+00 0.303D+00 0.492D+00
 Coeff:     -0.467D-02 0.534D-02-0.396D-03-0.135D-02-0.182D-02-0.521D-02
 Coeff:     -0.726D-02 0.136D-02 0.206D-01 0.744D-01 0.594D-01-0.118D+00
 Coeff:     -0.407D+00 0.180D+00 0.409D+00 0.303D+00 0.492D+00
 Gap=     0.060 Goal=   None    Shift=    0.000
 RMSDP=9.95D-07 MaxDP=6.19D-05 DE=-1.38D-08 OVMax= 2.87D-05

 Cycle  18  Pass 1  IDiag  1:
 E= -118.861282482741     Delta-E=       -0.000000002910 Rises=F Damp=F
 DIIS: error= 2.09D-06 at cycle  18 NSaved=  18.
 NSaved=18 IEnMin=18 EnMin= -118.861282482741     IErMin=18 ErrMin= 2.09D-06
 ErrMax= 2.09D-06  0.00D+00 EMaxC= 1.00D-01 BMatC= 4.66D-10 BMatP= 3.37D-09
 IDIUse=1 WtCom= 1.00D+00 WtEn= 0.00D+00
 Coeff-Com:  0.197D-02-0.225D-02 0.365D-03 0.844D-04-0.371D-04-0.750D-03
 Coeff-Com: -0.260D-02-0.107D-02 0.307D-02-0.171D-01 0.455D-01-0.196D-01
 Coeff-Com: -0.267D-01-0.141D+00-0.614D-01 0.755D-01 0.683D+00 0.463D+00
 Coeff:      0.197D-02-0.225D-02 0.365D-03 0.844D-04-0.371D-04-0.750D-03
 Coeff:     -0.260D-02-0.107D-02 0.307D-02-0.171D-01 0.455D-01-0.196D-01
 Coeff:     -0.267D-01-0.141D+00-0.614D-01 0.755D-01 0.683D+00 0.463D+00
 Gap=     0.060 Goal=   None    Shift=    0.000
 RMSDP=8.03D-07 MaxDP=4.96D-05 DE=-2.91D-09 OVMax= 2.12D-05

 Cycle  19  Pass 1  IDiag  1:
 E= -118.861282483154     Delta-E=       -0.000000000414 Rises=F Damp=F
 DIIS: error= 8.88D-07 at cycle  19 NSaved=  19.
 NSaved=19 IEnMin=19 EnMin= -118.861282483154     IErMin=19 ErrMin= 8.88D-07
 ErrMax= 8.88D-07  0.00D+00 EMaxC= 1.00D-01 BMatC= 7.81D-11 BMatP= 4.66D-10
 IDIUse=1 WtCom= 1.00D+00 WtEn= 0.00D+00
 Coeff-Com: -0.200D-02 0.228D-02-0.324D-03-0.135D-03-0.680D-04 0.327D-03
 Coeff-Com:  0.587D-03 0.151D-02 0.206D-02-0.115D-01 0.470D-02 0.115D-01
 Coeff-Com:  0.385D-01-0.248D-01-0.798D-01-0.240D-01 0.179D+00 0.205D+00
 Coeff-Com:  0.697D+00
 Coeff:     -0.200D-02 0.228D-02-0.324D-03-0.135D-03-0.680D-04 0.327D-03
 Coeff:      0.587D-03 0.151D-02 0.206D-02-0.115D-01 0.470D-02 0.115D-01
 Coeff:      0.385D-01-0.248D-01-0.798D-01-0.240D-01 0.179D+00 0.205D+00
 Coeff:      0.697D+00
 Gap=     0.060 Goal=   None    Shift=    0.000
 RMSDP=4.80D-07 MaxDP=2.92D-05 DE=-4.14D-10 OVMax= 1.13D-05

 Cycle  20  Pass 1  IDiag  1:
 E= -118.861282483152     Delta-E=        0.000000000002 Rises=F Damp=F
 DIIS: error= 8.90D-07 at cycle  20 NSaved=  20.
 NSaved=20 IEnMin=19 EnMin= -118.861282483154     IErMin=19 ErrMin= 8.88D-07
 ErrMax= 8.90D-07  0.00D+00 EMaxC= 1.00D-01 BMatC= 8.12D-11 BMatP= 7.81D-11
 IDIUse=1 WtCom= 1.00D+00 WtEn= 0.00D+00
 Coeff-Com: -0.106D-02 0.122D-02-0.165D-03-0.102D-03-0.789D-04 0.180D-04
 Coeff-Com:  0.274D-03 0.465D-03 0.359D-03-0.612D-03 0.485D-03 0.323D-02
 Coeff-Com:  0.863D-02 0.790D-02-0.268D-01-0.219D-01-0.123D-01 0.377D-01
 Coeff-Com:  0.380D+00 0.623D+00
 Coeff:     -0.106D-02 0.122D-02-0.165D-03-0.102D-03-0.789D-04 0.180D-04
 Coeff:      0.274D-03 0.465D-03 0.359D-03-0.612D-03 0.485D-03 0.323D-02
 Coeff:      0.863D-02 0.790D-02-0.268D-01-0.219D-01-0.123D-01 0.377D-01
 Coeff:      0.380D+00 0.623D+00
 Gap=     0.060 Goal=   None    Shift=    0.000
 RMSDP=1.16D-07 MaxDP=7.02D-06 DE= 2.30D-12 OVMax= 2.87D-06

 Cycle  21  Pass 1  IDiag  1:
 E= -118.861282483210     Delta-E=       -0.000000000058 Rises=F Damp=F
 DIIS: error= 4.76D-07 at cycle  21 NSaved=  20.
 NSaved=20 IEnMin=20 EnMin= -118.861282483210     IErMin=20 ErrMin= 4.76D-07
 ErrMax= 4.76D-07  0.00D+00 EMaxC= 1.00D-01 BMatC= 2.32D-11 BMatP= 7.81D-11
 IDIUse=1 WtCom= 1.00D+00 WtEn= 0.00D+00
 Coeff-Com: -0.670D-12 0.767D-05-0.246D-04-0.370D-04-0.133D-03-0.804D-04
 Coeff-Com: -0.338D-03-0.683D-03 0.295D-02 0.583D-03-0.216D-02-0.428D-02
 Coeff-Com:  0.850D-02-0.224D-02-0.132D-01-0.650D-01-0.264D-01 0.146D+00
 Coeff-Com:  0.588D+00 0.368D+00
 Coeff:     -0.670D-12 0.767D-05-0.246D-04-0.370D-04-0.133D-03-0.804D-04
 Coeff:     -0.338D-03-0.683D-03 0.295D-02 0.583D-03-0.216D-02-0.428D-02
 Coeff:      0.850D-02-0.224D-02-0.132D-01-0.650D-01-0.264D-01 0.146D+00
 Coeff:      0.588D+00 0.368D+00
 Gap=     0.060 Goal=   None    Shift=    0.000
 RMSDP=1.30D-07 MaxDP=7.97D-06 DE=-5.82D-11 OVMax= 3.13D-06

 Cycle  22  Pass 1  IDiag  1:
 E= -118.861282483234     Delta-E=       -0.000000000024 Rises=F Damp=F
 DIIS: error= 9.64D-09 at cycle  22 NSaved=  20.
 NSaved=20 IEnMin=20 EnMin= -118.861282483234     IErMin=20 ErrMin= 9.64D-09
 ErrMax= 9.64D-09  0.00D+00 EMaxC= 1.00D-01 BMatC= 1.56D-14 BMatP= 2.32D-11
 IDIUse=1 WtCom= 1.00D+00 WtEn= 0.00D+00
 Coeff-Com:  0.721D-05-0.214D-04-0.356D-04-0.120D-03-0.147D-03-0.143D-03
 Coeff-Com:  0.171D-04 0.237D-02 0.746D-03-0.337D-02-0.842D-02 0.864D-02
 Coeff-Com:  0.135D-01 0.203D-02-0.372D-01-0.331D-01-0.636D-01 0.451D-01
 Coeff-Com:  0.193D+00 0.881D+00
 Coeff:      0.721D-05-0.214D-04-0.356D-04-0.120D-03-0.147D-03-0.143D-03
 Coeff:      0.171D-04 0.237D-02 0.746D-03-0.337D-02-0.842D-02 0.864D-02
 Coeff:      0.135D-01 0.203D-02-0.372D-01-0.331D-01-0.636D-01 0.451D-01
 Coeff:      0.193D+00 0.881D+00
 Gap=     0.060 Goal=   None    Shift=    0.000
 RMSDP=7.16D-09 MaxDP=1.13D-06 DE=-2.36D-11 OVMax= 2.60D-07

 Cycle  23  Pass 1  IDiag  1:
 E= -118.861282483234     Delta-E=       -0.000000000000 Rises=F Damp=F
 DIIS: error= 2.11D-09 at cycle  23 NSaved=  20.
 NSaved=20 IEnMin=20 EnMin= -118.861282483234     IErMin=20 ErrMin= 2.11D-09
 ErrMax= 2.11D-09  0.00D+00 EMaxC= 1.00D-01 BMatC= 1.42D-15 BMatP= 1.56D-14
 IDIUse=1 WtCom= 1.00D+00 WtEn= 0.00D+00
 Large coefficients: NSaved= 20 BigCof=    0.00 CofMax=   10.00 Det=-4.80D-15
 Inversion failed.  Reducing to 19 matrices.
 Large coefficients: NSaved= 19 BigCof=    0.00 CofMax=   10.00 Det=-4.89D-15
 Inversion failed.  Reducing to 18 matrices.
 Large coefficients: NSaved= 18 BigCof=    0.00 CofMax=   10.00 Det=-4.93D-15
 Inversion failed.  Reducing to 17 matrices.
 Large coefficients: NSaved= 17 BigCof=    0.00 CofMax=   10.00 Det=-4.93D-15
 Inversion failed.  Reducing to 16 matrices.
 Large coefficients: NSaved= 16 BigCof=    0.00 CofMax=   10.00 Det=-4.97D-15
 Inversion failed.  Reducing to 15 matrices.
 Coeff-Com:  0.275D-04 0.247D-03-0.107D-03-0.722D-03-0.125D-02 0.228D-02
 Coeff-Com:  0.451D-02 0.149D-02-0.913D-02-0.114D-01-0.454D-01-0.535D-01
 Coeff-Com:  0.217D-01 0.297D+00 0.794D+00
 Coeff:      0.275D-04 0.247D-03-0.107D-03-0.722D-03-0.125D-02 0.228D-02
 Coeff:      0.451D-02 0.149D-02-0.913D-02-0.114D-01-0.454D-01-0.535D-01
 Coeff:      0.217D-01 0.297D+00 0.794D+00
 Gap=     0.060 Goal=   None    Shift=    0.000
 RMSDP=3.56D-09 MaxDP=5.51D-07 DE=-3.98D-13 OVMax= 1.33D-07

 SCF Done:  E(ROHF) =  -118.861282483     A.U. after   23 cycles
            NFock= 23  Conv=0.36D-08     -V/T= 2.6876
 <Sx>= 0.0000 <Sy>= 0.0000 <Sz>= 2.5000 <S**2>= 8.7500 S= 2.5000
 <L.S>=  0.00000000000    
 KE= 7.043290689517D+01 PE=-3.552151789732D+02 EE= 1.262326987758D+02
 Annihilation of the first spin contaminant:
 S**2 before annihilation     8.7500,   after     8.7500
 Leave Link  502 at Fri Mar  9 16:39:04 2018, MaxMem= 10737418240 cpu:            1959.5 elap:             142.1
 (Enter /home1/apps/gaussian/16rA.03/g16/l801.exe)
 Windowed orbitals will be sorted by symmetry type.
 GenMOA:  NOpAll=  4 NOp2=4 NOpUse=  4 JSym2X=1
 FoFJK:  IHMeth= 1 ICntrl=       0 DoSepK=F KAlg= 0 I1Cent=           0 FoldK=F
 IRaf=         0 NMat=       1 IRICut=       1 DoRegI=T DoRafI=F ISym2E= 1 IDoP0=0 IntGTp=1.
 FoFCou: FMM=F IPFlag=           8 FMFlag=      100000 FMFlg1=           0
         NFxFlg=           0 DoJE=F BraDBF=F KetDBF=F FulRan=T
         wScrn=  0.000000 ICntrl=         0 IOpCl=  1 I1Cent=           0 NGrid=           0
         NMat0=    1 NMatS0=      1 NMatT0=    0 NMatD0=    1 NMtDS0=    0 NMtDT0=    0
 Petite list used in FoFCou.
 <Sx>= 0.0000 <Sy>= 0.0000 <Sz>= 2.5000 <S**2>= 8.7500 S= 2.5000
 Range of M.O.s used for correlation:     1   377
 NBasis=   384 NAE=    13 NBE=     8 NFC=     0 NFV=     0
 NROrb=    377 NOA=    13 NOB=     8 NVA=   364 NVB=   369

 **** Warning!!: The largest alpha MO coefficient is  0.29400894D+03


 **** Warning!!: The largest beta MO coefficient is  0.29400880D+03

 Singles contribution to E2=   -0.8016888394D-02
 Leave Link  801 at Fri Mar  9 16:39:40 2018, MaxMem= 10737418240 cpu:             566.5 elap:              35.5
 (Enter /home1/apps/gaussian/16rA.03/g16/l804.exe)
 Open-shell transformation, MDV= 10737418240 ITran=4 ISComp=2.
 Unit  1 TFree=       4469277 TCopy=       3195938.
 Semi-Direct transformation.
 ModeAB=           4 MOrb=            13 LenV=   10733153076
 LASXX=     86562733 LTotXX=    86562733 LenRXX=   174043909
 LTotAB=    87481176 MaxLAS=   602450524 LenRXY=           0
 NonZer=   260606642 LenScr=   392443904 LnRSAI=   602450524
 LnScr1=   907219968 LExtra=    24337619 Total=   2100495924
 MaxDsk= 67108864000 SrtSym=           T ITran=            4
 DoSDTr:  NPSUse= 16
 JobTyp=1 Pass  1:  I=   1 to  13.
 (rs|ai) integrals will be sorted in core.
 Complete sort for first half transformation.
 First half transformation complete.
 Begin second half transformation for I=  10.
 Complete sort for second half transformation.
 Second half transformation complete.
 ModeAB=           4 MOrb=             8 LenV=   10733153076
 LASXX=     53932406 LTotXX=    53932406 LenRXX=   104697494
 LTotAB=    50765088 MaxLAS=   370738784 LenRXY=           0
 NonZer=   158629900 LenScr=   238878720 LnRSAI=   370738784
 LnScr1=   558289920 LExtra=   198381528 Total=   1470986446
 MaxDsk= 67108864000 SrtSym=           T ITran=            4
 DoSDTr:  NPSUse= 16
 JobTyp=2 Pass  1:  I=   1 to   8.
 (rs|ai) integrals will be sorted in core.
 Complete sort for first half transformation.
 First half transformation complete.
 Complete sort for second half transformation.
 Second half transformation complete.
 Spin components of T(2) and E(2):
     alpha-alpha T2 =       0.4222755458D-01 E2=     -0.2033523249D+00
     alpha-beta  T2 =       0.1111549693D+00 E2=     -0.6653644878D+00
     beta-beta   T2 =       0.2183574449D-01 E2=     -0.1014563825D+00
 ANorm=    0.1086343599D+01
 E2 =    -0.9781900836D+00 EUMP2 =    -0.11983947256685D+03
 (S**2,0)=  0.87500D+01           (S**2,1)=  0.87500D+01
 E(PUHF)=      -0.11886128248D+03        E(PMP2)=      -0.11983947257D+03
 Recovering and transforming amplitudes from chk file.
 B after Tr=     0.000000    0.000000    0.000000
         Rot=    1.000000    0.000000    0.000000    0.000000 Ang=   0.00 deg.
 Alpha occ  Sing. vals= 9.999995D-01 9.999995D-01 9.999992D-01 9.999984D-01 9.999962D-01 9.999939D-01 9.999920D-01 9.999920D-01 9.999836D-01 9.999836D-01
 Alpha occ  Sing. vals= 9.999698D-01 9.999551D-01 9.999551D-01
 Alpha occ  NOrbO=    13 NOrbN=    13 NSVal=    13 ThrEig=  0.900000.
 TrMax= 1.000000D+00 PrMax= 1.000000D+00 Trace(Pr)= 1.300000D+01
 B after Tr=     0.000000    0.000000    0.000000
         Rot=    1.000000    0.000000    0.000000    0.000000 Ang=   0.00 deg.
 Alpha virt Sing. vals= 1.000000D+00 1.000000D+00 1.000000D+00 1.000000D+00 1.000000D+00 1.000000D+00 1.000000D+00 1.000000D+00 1.000000D+00 1.000000D+00
 Alpha virt Sing. vals= 1.000000D+00 1.000000D+00 1.000000D+00 1.000000D+00 1.000000D+00 1.000000D+00 1.000000D+00 1.000000D+00 1.000000D+00 1.000000D+00
 Alpha virt Sing. vals= 1.000000D+00 1.000000D+00 1.000000D+00 1.000000D+00 1.000000D+00 9.999999D-01 9.999999D-01 9.999999D-01 9.999999D-01 9.999999D-01
 Alpha virt Sing. vals= 9.999999D-01 9.999999D-01 9.999999D-01 9.999998D-01 9.999998D-01 9.999998D-01 9.999997D-01 9.999996D-01 9.999994D-01 9.999994D-01
 Alpha virt Sing. vals= 9.999994D-01 9.999993D-01 9.999991D-01 9.999991D-01 9.999991D-01 9.999991D-01 9.999986D-01 9.999986D-01 9.999985D-01 9.999985D-01
 Alpha virt Sing. vals= 9.999982D-01 9.999973D-01 9.999965D-01 9.999965D-01 9.999965D-01 9.999958D-01 9.999958D-01 9.999951D-01 9.999943D-01 9.999943D-01
 Alpha virt Sing. vals= 9.999942D-01 9.999942D-01 9.999903D-01 9.999875D-01 9.999848D-01 9.999848D-01 9.999817D-01 9.999793D-01 9.999787D-01 9.999787D-01
 Alpha virt Sing. vals= 9.999780D-01 9.999746D-01 9.999746D-01 9.999741D-01 9.999741D-01 9.999735D-01 9.999696D-01 9.999496D-01 9.999496D-01 9.999434D-01
 Alpha virt Sing. vals= 9.999434D-01 9.999400D-01 9.999239D-01 9.999239D-01 9.999221D-01 9.999193D-01 9.999154D-01 9.999104D-01 9.999097D-01 9.999097D-01
 Alpha virt Sing. vals= 9.998907D-01 9.998426D-01 9.998373D-01 9.998373D-01 9.998181D-01 9.998181D-01 9.998063D-01 9.998063D-01 9.997943D-01 9.997943D-01
 Alpha virt Sing. vals= 9.997933D-01 9.997933D-01 9.997830D-01 9.997826D-01 9.997826D-01 9.997743D-01 9.997512D-01 9.997512D-01 9.997512D-01 9.996607D-01
 Alpha virt Sing. vals= 9.996607D-01 9.996536D-01 9.995959D-01 9.995913D-01 9.995913D-01 9.995888D-01 9.995888D-01 9.995864D-01 9.995840D-01 9.995840D-01
 Alpha virt Sing. vals= 9.995828D-01 9.995828D-01 9.995826D-01 9.995786D-01 9.995212D-01 9.995212D-01 9.995077D-01 9.995077D-01 9.994859D-01 9.994859D-01
 Alpha virt Sing. vals= 9.994515D-01 9.994421D-01 9.994421D-01 9.992407D-01 9.991941D-01 9.991183D-01 9.991183D-01 9.990749D-01 9.990749D-01 9.986742D-01
 Alpha virt Sing. vals= 9.986419D-01 9.986419D-01 9.984265D-01 9.984265D-01 9.981492D-01 9.981492D-01 9.981109D-01 9.981109D-01 9.979376D-01 9.979146D-01
 Alpha virt Sing. vals= 9.979043D-01 9.979043D-01 9.975860D-01 9.971927D-01 9.970247D-01 9.970247D-01 9.968901D-01 9.968901D-01 9.968509D-01 9.968509D-01
 Alpha virt Sing. vals= 9.963250D-01 9.962185D-01 9.962185D-01 9.958915D-01 9.958915D-01 9.958314D-01 9.958314D-01 9.952929D-01 9.951947D-01 9.951947D-01
 Alpha virt Sing. vals= 9.951894D-01 9.948574D-01 9.948574D-01 9.945995D-01 9.945725D-01 9.945725D-01 9.929434D-01 9.919902D-01 9.918564D-01 9.918564D-01
 Alpha virt Sing. vals= 9.916255D-01 9.916255D-01 9.901592D-01 9.888403D-01 9.888403D-01 9.862997D-01 9.862997D-01 9.855243D-01 9.855243D-01 9.843633D-01
 Alpha virt Sing. vals= 9.840138D-01 9.840138D-01 9.827968D-01 9.827968D-01 9.822985D-01 9.822985D-01 9.820160D-01 9.800831D-01 9.795266D-01 9.795266D-01
 Alpha virt Sing. vals= 9.779979D-01 9.692436D-01 9.692436D-01 9.669767D-01 9.669767D-01 9.620861D-01 9.601532D-01 9.588632D-01 9.588632D-01 9.513554D-01
 Alpha virt Sing. vals= 9.472012D-01 9.472012D-01 9.447679D-01 9.447679D-01 9.447386D-01 9.419603D-01 9.374073D-01 9.373877D-01 9.373877D-01 9.301416D-01
 Alpha virt Sing. vals= 9.292728D-01 9.292728D-01 9.255788D-01 9.255788D-01 9.245268D-01 9.245268D-01 9.234829D-01 9.234829D-01 9.210160D-01 9.210160D-01
 Alpha virt Sing. vals= 9.059886D-01 9.059886D-01 8.897424D-01 8.784246D-01 8.472990D-01 8.472990D-01 8.467095D-01 8.467095D-01 8.434527D-01 8.434527D-01
 Alpha virt Sing. vals= 7.657043D-01 7.657043D-01 6.142971D-01 5.184539D-01
 Alpha virt NOrbO=   244 NOrbN=   364 NSVal=   232 ThrEig=  0.900000.
 TrMax= 9.991054D-01 PrMax= 9.998695D-01 Trace(Pr)= 2.320000D+02
 B after Tr=     0.000000    0.000000    0.000000
         Rot=    1.000000    0.000000    0.000000    0.000000 Ang=   0.00 deg.
 Beta  occ  Sing. vals= 9.999992D-01 9.999989D-01 9.999989D-01 9.999981D-01 9.999952D-01 9.999699D-01 9.999570D-01 9.999570D-01
 Beta  occ  NOrbO=     8 NOrbN=     8 NSVal=     8 ThrEig=  0.900000.
 TrMax= 1.000000D+00 PrMax= 1.000000D+00 Trace(Pr)= 8.000000D+00
 B after Tr=     0.000000    0.000000    0.000000
         Rot=    1.000000    0.000000    0.000000    0.000000 Ang=   0.00 deg.
 Beta  virt Sing. vals= 1.000000D+00 1.000000D+00 1.000000D+00 1.000000D+00 1.000000D+00 1.000000D+00 1.000000D+00 1.000000D+00 1.000000D+00 1.000000D+00
 Beta  virt Sing. vals= 1.000000D+00 1.000000D+00 1.000000D+00 1.000000D+00 1.000000D+00 1.000000D+00 1.000000D+00 1.000000D+00 1.000000D+00 1.000000D+00
 Beta  virt Sing. vals= 1.000000D+00 1.000000D+00 1.000000D+00 1.000000D+00 1.000000D+00 1.000000D+00 1.000000D+00 1.000000D+00 1.000000D+00 9.999999D-01
 Beta  virt Sing. vals= 9.999999D-01 9.999999D-01 9.999999D-01 9.999999D-01 9.999999D-01 9.999999D-01 9.999999D-01 9.999999D-01 9.999998D-01 9.999997D-01
 Beta  virt Sing. vals= 9.999997D-01 9.999997D-01 9.999996D-01 9.999994D-01 9.999994D-01 9.999994D-01 9.999993D-01 9.999991D-01 9.999991D-01 9.999991D-01
 Beta  virt Sing. vals= 9.999991D-01 9.999986D-01 9.999986D-01 9.999982D-01 9.999982D-01 9.999982D-01 9.999974D-01 9.999965D-01 9.999965D-01 9.999965D-01
 Beta  virt Sing. vals= 9.999957D-01 9.999957D-01 9.999951D-01 9.999942D-01 9.999942D-01 9.999938D-01 9.999938D-01 9.999902D-01 9.999875D-01 9.999849D-01
 Beta  virt Sing. vals= 9.999849D-01 9.999817D-01 9.999793D-01 9.999787D-01 9.999787D-01 9.999780D-01 9.999745D-01 9.999745D-01 9.999740D-01 9.999740D-01
 Beta  virt Sing. vals= 9.999735D-01 9.999696D-01 9.999495D-01 9.999495D-01 9.999422D-01 9.999422D-01 9.999400D-01 9.999236D-01 9.999236D-01 9.999221D-01
 Beta  virt Sing. vals= 9.999193D-01 9.999154D-01 9.999104D-01 9.999097D-01 9.999097D-01 9.998907D-01 9.998426D-01 9.998373D-01 9.998373D-01 9.998177D-01
 Beta  virt Sing. vals= 9.998177D-01 9.998063D-01 9.998063D-01 9.997942D-01 9.997942D-01 9.997933D-01 9.997933D-01 9.997830D-01 9.997826D-01 9.997826D-01
 Beta  virt Sing. vals= 9.997743D-01 9.997512D-01 9.997512D-01 9.997512D-01 9.996605D-01 9.996605D-01 9.996536D-01 9.995958D-01 9.995913D-01 9.995913D-01
 Beta  virt Sing. vals= 9.995887D-01 9.995887D-01 9.995864D-01 9.995839D-01 9.995839D-01 9.995828D-01 9.995828D-01 9.995826D-01 9.995785D-01 9.995213D-01
 Beta  virt Sing. vals= 9.995213D-01 9.995077D-01 9.995077D-01 9.994859D-01 9.994859D-01 9.994515D-01 9.994421D-01 9.994421D-01 9.992407D-01 9.991942D-01
 Beta  virt Sing. vals= 9.991185D-01 9.991185D-01 9.990742D-01 9.990742D-01 9.986741D-01 9.986417D-01 9.986417D-01 9.984251D-01 9.984251D-01 9.981492D-01
 Beta  virt Sing. vals= 9.981492D-01 9.981109D-01 9.981109D-01 9.979375D-01 9.979147D-01 9.979042D-01 9.979042D-01 9.975861D-01 9.971927D-01 9.970237D-01
 Beta  virt Sing. vals= 9.970237D-01 9.968898D-01 9.968898D-01 9.968509D-01 9.968509D-01 9.963250D-01 9.962185D-01 9.962185D-01 9.958916D-01 9.958916D-01
 Beta  virt Sing. vals= 9.958314D-01 9.958314D-01 9.952929D-01 9.951947D-01 9.951947D-01 9.951894D-01 9.948574D-01 9.948574D-01 9.945992D-01 9.945725D-01
 Beta  virt Sing. vals= 9.945725D-01 9.929434D-01 9.919902D-01 9.918562D-01 9.918562D-01 9.916256D-01 9.916256D-01 9.901590D-01 9.888404D-01 9.888404D-01
 Beta  virt Sing. vals= 9.862998D-01 9.862998D-01 9.855241D-01 9.855241D-01 9.843633D-01 9.840138D-01 9.840138D-01 9.827966D-01 9.827966D-01 9.822985D-01
 Beta  virt Sing. vals= 9.822985D-01 9.820161D-01 9.800831D-01 9.795265D-01 9.795265D-01 9.779976D-01 9.692432D-01 9.692432D-01 9.669775D-01 9.669775D-01
 Beta  virt Sing. vals= 9.620860D-01 9.601532D-01 9.588631D-01 9.588631D-01 9.513550D-01 9.472012D-01 9.472012D-01 9.447678D-01 9.447678D-01 9.447385D-01
 Beta  virt Sing. vals= 9.419603D-01 9.374073D-01 9.373877D-01 9.373877D-01 9.301415D-01 9.292728D-01 9.292728D-01 9.255779D-01 9.255779D-01 9.245268D-01
 Beta  virt Sing. vals= 9.245268D-01 9.234829D-01 9.234829D-01 9.210157D-01 9.210157D-01 9.059888D-01 9.059888D-01 8.897424D-01 8.784246D-01 8.472990D-01
 Beta  virt Sing. vals= 8.472990D-01 8.467094D-01 8.467094D-01 8.434525D-01 8.434525D-01 7.657035D-01 7.657035D-01 6.142967D-01 5.184540D-01
 Beta  virt NOrbO=   249 NOrbN=   369 NSVal=   237 ThrEig=  0.900000.
 TrMax= 9.997029D-01 PrMax= 9.999242D-01 Trace(Pr)= 2.370000D+02
 Leave Link  804 at Fri Mar  9 16:53:38 2018, MaxMem= 10737418240 cpu:           13396.2 elap:             838.2
 (Enter /home1/apps/gaussian/16rA.03/g16/l913.exe)
 CIDS:  MDV= 10737418240.
 IFCWin=0 IBDFC=1 NFBD=     0     0 NFCmp=     0     0 NFFFC=     0     0
 Amplitudes recovered.
 Using DD4UQ or CC4UQ for all iterations.
 Keep R2 and R3 ints in memory in symmetry-blocked form, NReq=3425134911.
 FoFCou: FMM=F IPFlag=           8 FMFlag=           0 FMFlg1=           0
         NFxFlg=           0 DoJE=F BraDBF=F KetDBF=F FulRan=T
         wScrn=  0.000000 ICntrl=       600 IOpCl=  0 I1Cent=           0 NGrid=           0
         NMat0=    1 NMatS0=  73920 NMatT0=    0 NMatD0=    1 NMtDS0=    0 NMtDT0=    0
 Petite list used in FoFCou.
 CIDS: In Core Option IDoMem=           1.
 CCSD(T)
 =======
 Iterations= 150 Convergence= 0.100D-06
 Produce multiple copies of IABC intergrals
 Iteration Nr.   1
 **********************
 DD1Dir will call FoFMem   1 times, MxPair=       314
 NAB=   104 NAA=    78 NBB=    28.
 Maximum subspace dimension=  5
 A-vector RMS=  1.5144088D-04 Max=  2.4148189D-03 conv= 1.00D-05.
 RLE energy=       -0.9381019832
 DE(Corr)= -0.93785669     E(Corr)=     -119.79913917    
 NORM(A)=   0.11065225D+01
 Iteration Nr.   2
 **********************
 DD1Dir will call FoFMem   1 times, MxPair=       314
 NAB=   104 NAA=    78 NBB=    28.
 A-vector RMS=  3.5576937D-05 Max=  4.3408804D-04 conv= 1.00D-05.
 RLE energy=       -0.9380930600
 DE(Corr)= -0.93809604     E(CORR)=     -119.79937852     Delta=-2.39D-04
 NORM(A)=   0.11065576D+01
 Iteration Nr.   3
 **********************
 DD1Dir will call FoFMem   1 times, MxPair=       314
 NAB=   104 NAA=    78 NBB=    28.
 A-vector RMS=  3.0541069D-05 Max=  7.0196362D-04 conv= 1.00D-05.
 RLE energy=       -0.9383056438
 DE(Corr)= -0.93832521     E(CORR)=     -119.79960770     Delta=-2.29D-04
 NORM(A)=   0.11064566D+01
 Iteration Nr.   4
 **********************
 DD1Dir will call FoFMem   1 times, MxPair=       314
 NAB=   104 NAA=    78 NBB=    28.
 A-vector RMS=  1.1031611D-05 Max=  1.4071005D-04 conv= 1.00D-05.
 RLE energy=       -0.9382467754
 DE(Corr)= -0.93822494     E(CORR)=     -119.79950742     Delta= 1.00D-04
 NORM(A)=   0.11064018D+01
 Iteration Nr.   5
 **********************
 DD1Dir will call FoFMem   1 times, MxPair=       314
 NAB=   104 NAA=    78 NBB=    28.
 A-vector RMS=  7.2781740D-06 Max=  1.8977519D-04 conv= 1.00D-05.
 RLE energy=       -0.9382478330
 DE(Corr)= -0.93825881     E(CORR)=     -119.79954130     Delta=-3.39D-05
 NORM(A)=   0.11063202D+01
 Iteration Nr.   6
 **********************
 DD1Dir will call FoFMem   1 times, MxPair=       314
 NAB=   104 NAA=    78 NBB=    28.
 A-vector RMS=  2.3370647D-06 Max=  3.8129484D-05 conv= 1.00D-05.
 RLE energy=       -0.9382464647
 DE(Corr)= -0.93824643     E(CORR)=     -119.79952891     Delta= 1.24D-05
 NORM(A)=   0.11063049D+01
 Iteration Nr.   7
 **********************
 DD1Dir will call FoFMem   1 times, MxPair=       314
 NAB=   104 NAA=    78 NBB=    28.
 A-vector RMS=  1.0245265D-06 Max=  2.3850909D-05 conv= 1.00D-05.
 RLE energy=       -0.9382472094
 DE(Corr)= -0.93824744     E(CORR)=     -119.79952993     Delta=-1.02D-06
 NORM(A)=   0.11062959D+01
 Iteration Nr.   8
 **********************
 DD1Dir will call FoFMem   1 times, MxPair=       314
 NAB=   104 NAA=    78 NBB=    28.
 A-vector RMS=  3.8870480D-07 Max=  6.9569798D-06 conv= 1.00D-05.
 RLE energy=       -0.9382459796
 DE(Corr)= -0.93824616     E(CORR)=     -119.79952864     Delta= 1.28D-06
 NORM(A)=   0.11062913D+01
 Iteration Nr.   9
 **********************
 DD1Dir will call FoFMem   1 times, MxPair=       314
 NAB=   104 NAA=    78 NBB=    28.
 A-vector RMS=  2.2412156D-07 Max=  5.1955455D-06 conv= 1.00D-05.
 RLE energy=       -0.9382455986
 DE(Corr)= -0.93824570     E(CORR)=     -119.79952818     Delta= 4.63D-07
 NORM(A)=   0.11062887D+01
 Iteration Nr.  10
 **********************
 DD1Dir will call FoFMem   1 times, MxPair=       314
 NAB=   104 NAA=    78 NBB=    28.
 A-vector RMS=  1.1663725D-07 Max=  2.5054079D-06 conv= 1.00D-05.
 RLE energy=       -0.9382451052
 DE(Corr)= -0.93824528     E(CORR)=     -119.79952776     Delta= 4.16D-07
 NORM(A)=   0.11062868D+01
 Iteration Nr.  11
 **********************
 DD1Dir will call FoFMem   1 times, MxPair=       314
 NAB=   104 NAA=    78 NBB=    28.
 A-vector RMS=  5.5135894D-08 Max=  1.0155807D-06 conv= 1.00D-05.
 RLE energy=       -0.9382448594
 DE(Corr)= -0.93824497     E(CORR)=     -119.79952745     Delta= 3.11D-07
 NORM(A)=   0.11062859D+01
 Iteration Nr.  12
 **********************
 DD1Dir will call FoFMem   1 times, MxPair=       314
 NAB=   104 NAA=    78 NBB=    28.
 A-vector RMS=  2.4793047D-08 Max=  5.6669352D-07 conv= 1.00D-05.
 RLE energy=       -0.9382447951
 DE(Corr)= -0.93824484     E(CORR)=     -119.79952732     Delta= 1.30D-07
 NORM(A)=   0.11062855D+01
 Iteration Nr.  13
 **********************
 DD1Dir will call FoFMem   1 times, MxPair=       314
 NAB=   104 NAA=    78 NBB=    28.
 A-vector RMS=  1.7320645D-08 Max=  2.7734059D-07 conv= 1.00D-05.
 RLE energy=       -0.9382447840
 DE(Corr)= -0.93824479     E(CORR)=     -119.79952728     Delta= 4.61D-08
 NORM(A)=   0.11062854D+01
 CI/CC converged in   13 iterations to DelEn= 4.61D-08 Conv= 1.00D-07 ErrA1= 1.73D-08 Conv= 1.00D-05
 Wavefunction amplitudes converged. E(Corr)=     -119.79952728    
 Largest amplitude= 8.42D-02
 Time for triples=    57146.50 seconds.
 T4(CCSD)= -0.45018323D-01
 T5(CCSD)=  0.56223747D-02
 CCSD(T)= -0.11983892322D+03
 Discarding MO integrals.
 Leave Link  913 at Fri Mar  9 18:06:49 2018, MaxMem= 10737418240 cpu:           70221.4 elap:            4391.4
 (Enter /home1/apps/gaussian/16rA.03/g16/l601.exe)
 Copying SCF densities to generalized density rwf, IOpCl= 0 IROHF=1.

 **********************************************************************

            Population analysis using the SCF density.

 **********************************************************************

 Orbital symmetries:
       Occupied  (SG) (SG) (PI) (PI) (SG) (PI) (PI) (SG) (DLTA)
                 (DLTA) (SG) (PI) (PI)
       Virtual   (SG) (PI) (PI) (SG) (SG) (DLTA) (DLTA) (PI) (PI)
                 (PI) (PI) (SG) (SG) (SG) (PI) (PI) (DLTA) (DLTA)
                 (SG) (PI) (PI) (SG) (PI) (PI) (SG) (SG) (DLTA)
                 (DLTA) (PHI) (PHI) (PI) (PI) (DLTA) (DLTA) (SG)
                 (PI) (PI) (SG) (DLTA) (DLTA) (SG) (PI) (PI) (PI)
                 (PI) (SG) (SG) (PI) (PI) (SG) (DLTA) (DLTA) (PHI)
                 (PHI) (SG) (DLTA) (DLTA) (PI) (PI) (PI) (PI) (?A)
                 (?A) (SG) (PHI) (PHI) (DLTA) (DLTA) (SG) (PI)
                 (PI) (SG) (DLTA) (DLTA) (PHI) (PHI) (SG) (PI)
                 (PI) (SG) (PI) (PI) (PI) (PI) (DLTA) (DLTA) (SG)
                 (SG) (DLTA) (DLTA) (PI) (PI) (SG) (?A) (?A) (SG)
                 (DLTA) (DLTA) (PHI) (PHI) (PI) (PI) (PI) (PI)
                 (PHI) (PHI) (SG) (DLTA) (DLTA) (PHI) (PHI) (PI)
                 (PI) (SG) (?B) (?B) (?A) (?A) (DLTA) (DLTA) (SG)
                 (PHI) (PHI) (PI) (PI) (?A) (?A) (DLTA) (DLTA)
                 (SG) (PI) (PI) (DLTA) (DLTA) (PI) (PI) (PHI) (PHI)
                 (SG) (SG) (PI) (PI) (DLTA) (DLTA) (SG) (PI) (PI)
                 (SG) (DLTA) (DLTA) (PI) (PI) (SG) (SG) (PHI) (PHI)
                 (SG) (PI) (PI) (DLTA) (DLTA) (?A) (?A) (PHI) (PHI)
                 (DLTA) (DLTA) (PI) (PI) (SG) (PI) (PI) (?A) (?A)
                 (PHI) (PHI) (SG) (DLTA) (DLTA) (PI) (PI) (PHI)
                 (PHI) (?B) (?B) (SG) (?A) (?A) (DLTA) (DLTA) (PHI)
                 (PHI) (SG) (PI) (PI) (DLTA) (DLTA) (DLTA) (DLTA)
                 (PI) (PI) (PI) (PI) (SG) (DLTA) (DLTA) (SG) (PI)
                 (PI) (SG) (SG) (PI) (PI) (SG) (SG) (DLTA) (DLTA)
                 (PI) (PI) (PHI) (PHI) (SG) (DLTA) (DLTA) (PI)
                 (PI) (SG) (?A) (?A) (PHI) (PHI) (DLTA) (DLTA)
                 (PI) (PI) (SG) (PI) (PI) (?B) (?B) (?A) (?A) (PHI)
                 (PHI) (SG) (DLTA) (DLTA) (PI) (PI) (SG) (PI) (PI)
                 (SG) (SG) (SG) (DLTA) (DLTA) (PI) (PI) (SG) (DLTA)
                 (DLTA) (PI) (PI) (SG) (SG) (PI) (PI) (SG) (PI)
                 (PI) (SG) (DLTA) (DLTA) (PI) (PI) (SG) (SG) (PHI)
                 (PHI) (DLTA) (DLTA) (PI) (PI) (SG) (SG) (PI) (PI)
                 (SG) (DLTA) (DLTA) (PI) (PI) (SG) (SG) (PI) (PI)
                 (SG) (DLTA) (DLTA) (PI) (PI) (SG) (SG) (PI) (PI)
                 (SG) (SG) (PI) (PI) (SG) (SG) (DLTA) (DLTA) (PI)
                 (PI) (SG) (SG) (PI) (PI) (SG) (SG) (PI) (PI) (SG)
                 (SG) (PI) (PI) (SG) (SG) (DLTA) (DLTA) (PI) (PI)
                 (SG) (SG) (PI) (PI) (SG) (SG) (SG) (PI) (PI) (SG)
                 (SG) (SG) (PI) (PI) (SG) (SG) (SG) (PI) (PI) (SG)
                 (SG) (PI) (PI) (SG) (SG) (SG) (SG) (SG) (SG) (SG)
 The electronic state is 6-SG.
 Alpha  occ. eigenvalues --   -4.13366  -2.80386  -2.76480  -2.76480  -1.29970
 Alpha  occ. eigenvalues --   -0.78621  -0.78621  -0.66111  -0.59723  -0.59723
 Alpha  occ. eigenvalues --   -0.38283  -0.38283  -0.28876
 Alpha virt. eigenvalues --    0.02209   0.02428   0.02428   0.02742   0.05515
 Alpha virt. eigenvalues --    0.06005   0.06005   0.06020   0.06020   0.08105
 Alpha virt. eigenvalues --    0.08105   0.08965   0.10938   0.15157   0.18373
 Alpha virt. eigenvalues --    0.18373   0.18992   0.18992   0.20525   0.20683
 Alpha virt. eigenvalues --    0.20683   0.23806   0.24365   0.24365   0.30523
 Alpha virt. eigenvalues --    0.40394   0.47918   0.47918   0.48355   0.48355
 Alpha virt. eigenvalues --    0.49212   0.49212   0.51307   0.51307   0.54017
 Alpha virt. eigenvalues --    0.54371   0.54371   0.54828   0.66136   0.66136
 Alpha virt. eigenvalues --    0.66241   0.66241   0.66372   0.68042   0.68042
 Alpha virt. eigenvalues --    0.76381   0.81498   1.07547   1.07547   1.15025
 Alpha virt. eigenvalues --    1.33129   1.33129   1.35646   1.35646   1.38600
 Alpha virt. eigenvalues --    1.38600   1.39856   1.39856   1.39903   1.46084
 Alpha virt. eigenvalues --    1.46084   1.47825   1.47825   1.48501   1.48501
 Alpha virt. eigenvalues --    1.49455   1.50815   1.50815   1.58113   1.68653
 Alpha virt. eigenvalues --    1.68653   1.69584   1.74252   1.74252   1.77562
 Alpha virt. eigenvalues --    1.77562   1.93087   1.93476   1.93476   2.10177
 Alpha virt. eigenvalues --    2.22549   2.22549   2.27727   2.27727   2.42135
 Alpha virt. eigenvalues --    2.42135   2.55547   2.98156   3.26264   3.26264
 Alpha virt. eigenvalues --    3.31175   3.31175   3.56295   3.62103   3.62103
 Alpha virt. eigenvalues --    3.62399   3.62399   3.62531   3.76565   3.76565
 Alpha virt. eigenvalues --    3.80955   3.80955   3.90934   3.90934   4.00702
 Alpha virt. eigenvalues --    4.00702   4.05744   4.14198   4.14198   4.17891
 Alpha virt. eigenvalues --    4.17891   4.21675   4.21675   4.28772   4.29936
 Alpha virt. eigenvalues --    4.29936   4.30101   4.30101   4.35001   4.35001
 Alpha virt. eigenvalues --    4.39209   4.47859   4.47859   4.49194   4.49194
 Alpha virt. eigenvalues --    4.57479   4.57479   4.66297   4.66297   4.82303
 Alpha virt. eigenvalues --    4.85179   4.85179   5.32212   5.32212   5.39159
 Alpha virt. eigenvalues --    5.39159   5.45365   5.45365   5.45816   5.74634
 Alpha virt. eigenvalues --    6.42232   6.42232   6.48070   6.48070   6.57511
 Alpha virt. eigenvalues --    6.82634   6.82634   7.01586   7.07965   7.07965
 Alpha virt. eigenvalues --    7.28333   7.28333   7.37229   8.34179   9.97434
 Alpha virt. eigenvalues --    9.97434  10.04596  10.17090  10.17090  10.26815
 Alpha virt. eigenvalues --   10.26815  10.61870  10.61870  10.61872  10.61872
 Alpha virt. eigenvalues --   10.64288  10.64288  10.67741  10.67741  10.70612
 Alpha virt. eigenvalues --   11.13146  11.13146  11.21319  11.21319  11.30910
 Alpha virt. eigenvalues --   11.30910  11.38517  11.71977  11.71977  11.79533
 Alpha virt. eigenvalues --   11.79533  11.91450  11.91450  11.92660  11.92660
 Alpha virt. eigenvalues --   11.92921  11.97389  11.97389  12.23950  12.23950
 Alpha virt. eigenvalues --   12.33216  12.33216  12.61337  12.63028  12.63028
 Alpha virt. eigenvalues --   12.79906  12.79906  13.34795  13.34795  13.36531
 Alpha virt. eigenvalues --   13.36531  13.48548  13.48548  13.56217  13.64872
 Alpha virt. eigenvalues --   13.64872  13.88318  13.89800  13.89800  14.67585
 Alpha virt. eigenvalues --   15.45129  15.87582  15.87582  16.40838  17.99169
 Alpha virt. eigenvalues --   24.28327  24.28327  24.38559  24.38559  24.74822
 Alpha virt. eigenvalues --   24.74822  24.84353  25.09314  25.09314  26.05749
 Alpha virt. eigenvalues --   26.05749  26.49726  27.25474  27.25474  27.31545
 Alpha virt. eigenvalues --   27.31545  27.58647  27.58647  27.87682  27.87682
 Alpha virt. eigenvalues --   28.20855  28.72649  28.72649  30.70219  30.70219
 Alpha virt. eigenvalues --   30.71379  30.71379  30.80630  30.80630  30.84147
 Alpha virt. eigenvalues --   30.95703  30.95703  31.24340  31.24340  31.49538
 Alpha virt. eigenvalues --   31.64004  31.64004  32.83184  34.29462  35.92422
 Alpha virt. eigenvalues --   41.48209  41.48209  41.58256  41.58256  42.09215
 Alpha virt. eigenvalues --   46.84002  46.84002  47.67988  47.67988  48.69883
 Alpha virt. eigenvalues --   68.22600  68.94859  68.94859  69.75929  70.10125
 Alpha virt. eigenvalues --   70.10125  72.05905  72.52120  72.52120  72.61489
 Alpha virt. eigenvalues --   72.61489  73.06251  78.05805 102.90685 102.90685
 Alpha virt. eigenvalues --  102.93937 102.93937 103.01387 103.01387 103.18761
 Alpha virt. eigenvalues --  121.82453 138.26063 138.26063 138.97063 146.97733
 Alpha virt. eigenvalues --  146.97733 147.05985 147.05985 147.42049 152.04939
 Alpha virt. eigenvalues --  154.80217 154.80217 156.32352 206.75411 206.75411
 Alpha virt. eigenvalues --  207.20131 207.20131 207.77056 210.29202 264.66450
 Alpha virt. eigenvalues --  264.66450 265.31300 267.45592 324.99480 324.99480
 Alpha virt. eigenvalues --  326.35042 358.31437 378.13192 378.13192 378.19844
 Alpha virt. eigenvalues --  378.19844 378.48101 488.17211 507.02442 507.02442
 Alpha virt. eigenvalues --  507.70430 612.44026 691.21696 691.21696 692.49245
 Alpha virt. eigenvalues --  928.03542 997.42328 997.42328 998.062901090.33659
 Alpha virt. eigenvalues -- 1271.833211271.833211271.878441271.878441272.06231
 Alpha virt. eigenvalues -- 1838.860192058.457362058.457362059.047672262.65931
 Alpha virt. eigenvalues -- 3812.790974547.654904547.654904548.185376141.30843
 Alpha virt. eigenvalues -- 8294.37535****************************************
 Alpha virt. eigenvalues -- **************************************************
 Alpha virt. eigenvalues -- **************************************************
 Alpha virt. eigenvalues -- ****************************************
     Molecular Orbital Coefficients:
                           4         5         6         7         8
                           O         O         O         O         O
     Eigenvalues --    -2.76480  -1.29970  -0.78621  -0.78621  -0.66111
   1 1   Mn 1S          0.00000   0.00000   0.00000   0.00000   0.00000
   2        2S          0.00000  -0.00000   0.00000   0.00000  -0.00000
   3        3S          0.00000   0.00000   0.00000   0.00000   0.00000
   4        4S          0.00000  -0.00000   0.00000   0.00000  -0.00000
   5        5S          0.00000   0.00000   0.00000   0.00000   0.00000
   6        6S          0.00000  -0.00000   0.00000   0.00000  -0.00000
   7        7S          0.00000   0.00001   0.00000   0.00000   0.00000
   8        8S          0.00000  -0.00002   0.00000   0.00000  -0.00001
   9        9S          0.00000   0.00006   0.00000   0.00000   0.00004
  10       10S          0.00000  -0.00018   0.00000   0.00000  -0.00012
  11       11S          0.00000   0.00049   0.00000   0.00000   0.00032
  12       12S          0.00000  -0.00135   0.00000   0.00000  -0.00087
  13       13S          0.00000   0.00421   0.00000   0.00000   0.00266
  14       14S          0.00000  -0.01987   0.00000   0.00000  -0.01235
  15       15S          0.00000   0.03186   0.00000   0.00000   0.02068
  16       16S          0.00000   0.05568   0.00000   0.00000   0.02308
  17       17S          0.00000  -0.06936   0.00000   0.00000  -0.03592
  18       18S          0.00000  -0.15508   0.00000   0.00000  -0.03563
  19       19S          0.00000  -0.09285   0.00000   0.00000  -0.10227
  20       20S          0.00000  -0.03132   0.00000   0.00000  -0.00970
  21       21S          0.00000  -0.02476   0.00000   0.00000   0.08098
  22       22S          0.00000  -0.00473   0.00000   0.00000  -0.00303
  23       23S          0.00000   0.01512   0.00000   0.00000   0.01875
  24       24S          0.00000   0.00989   0.00000   0.00000  -0.04855
  25       25S          0.00000   0.00115   0.00000   0.00000   0.00210
  26       26PX         0.00000   0.00000   0.00000   0.00000   0.00000
  27       26PY        -0.00000   0.00000   0.00000   0.00000   0.00000
  28       26PZ         0.00000  -0.00000   0.00000   0.00000  -0.00000
  29       27PX         0.00000   0.00000  -0.00000   0.00000   0.00000
  30       27PY         0.00000   0.00000   0.00000  -0.00000   0.00000
  31       27PZ         0.00000   0.00000   0.00000   0.00000   0.00000
  32       28PX         0.00000   0.00000   0.00000   0.00000   0.00000
  33       28PY        -0.00000   0.00000   0.00000   0.00000   0.00000
  34       28PZ         0.00000  -0.00000   0.00000   0.00000  -0.00000
  35       29PX         0.00000   0.00000  -0.00000   0.00000   0.00000
  36       29PY         0.00000   0.00000   0.00000  -0.00000   0.00000
  37       29PZ         0.00000   0.00000   0.00000   0.00000   0.00000
  38       30PX         0.00000   0.00000   0.00001   0.00000   0.00000
  39       30PY        -0.00002   0.00000   0.00000   0.00001   0.00000
  40       30PZ         0.00000  -0.00001   0.00000   0.00000  -0.00001
  41       31PX         0.00000   0.00000  -0.00002   0.00000   0.00000
  42       31PY         0.00005   0.00000   0.00000  -0.00002   0.00000
  43       31PZ         0.00000   0.00002   0.00000   0.00000   0.00003
  44       32PX         0.00000   0.00000   0.00005   0.00000   0.00000
  45       32PY        -0.00013   0.00000   0.00000   0.00005   0.00000
  46       32PZ         0.00000  -0.00005   0.00000   0.00000  -0.00008
  47       33PX         0.00000   0.00000  -0.00006   0.00000   0.00000
  48       33PY        -0.00019   0.00000   0.00000  -0.00006   0.00000
  49       33PZ         0.00000  -0.00003   0.00000   0.00000   0.00013
  50       34PX         0.00000   0.00000  -0.00191   0.00000   0.00000
  51       34PY         0.01335   0.00000   0.00000  -0.00191   0.00000
  52       34PZ         0.00000   0.00461   0.00000   0.00000   0.00192
  53       35PX         0.00000   0.00000   0.01191   0.00000   0.00000
  54       35PY        -0.07584   0.00000   0.00000   0.01191   0.00000
  55       35PZ         0.00000  -0.02700   0.00000   0.00000  -0.01271
  56       36PX         0.00000   0.00000   0.00153   0.00000   0.00000
  57       36PY        -0.01791   0.00000   0.00000   0.00153   0.00000
  58       36PZ         0.00000  -0.00697   0.00000   0.00000  -0.00174
  59       37PX         0.00000   0.00000  -0.03529   0.00000   0.00000
  60       37PY         0.20137   0.00000   0.00000  -0.03529   0.00000
  61       37PZ         0.00000   0.07444   0.00000   0.00000   0.04107
  62       38PX         0.00000   0.00000  -0.03392   0.00000   0.00000
  63       38PY         0.20450   0.00000   0.00000  -0.03392   0.00000
  64       38PZ         0.00000   0.07755   0.00000   0.00000   0.03796
  65       39PX         0.00000   0.00000  -0.07094   0.00000   0.00000
  66       39PY         0.37839   0.00000   0.00000  -0.07094   0.00000
  67       39PZ         0.00000   0.13884   0.00000   0.00000   0.06765
  68       40PX         0.00000   0.00000  -0.02849   0.00000   0.00000
  69       40PY         0.15050   0.00000   0.00000  -0.02849   0.00000
  70       40PZ         0.00000   0.06480   0.00000   0.00000   0.05030
  71       41PX         0.00000   0.00000  -0.02018   0.00000   0.00000
  72       41PY         0.01223   0.00000   0.00000  -0.02018   0.00000
  73       41PZ         0.00000   0.01818   0.00000   0.00000  -0.01629
  74       42PX         0.00000   0.00000  -0.00847   0.00000   0.00000
  75       42PY         0.00000   0.00000   0.00000  -0.00847   0.00000
  76       42PZ         0.00000   0.01603   0.00000   0.00000  -0.02315
  77       43PX         0.00000   0.00000   0.00069   0.00000   0.00000
  78       43PY         0.00041   0.00000   0.00000   0.00069   0.00000
  79       43PZ         0.00000  -0.00017   0.00000   0.00000  -0.00249
  80       44PX         0.00000   0.00000   0.00608   0.00000   0.00000
  81       44PY        -0.02840   0.00000   0.00000   0.00608   0.00000
  82       44PZ         0.00000  -0.00870   0.00000   0.00000  -0.00716
  83       45PX         0.00000   0.00000  -0.03544   0.00000   0.00000
  84       45PY         0.20521   0.00000   0.00000  -0.03544   0.00000
  85       45PZ         0.00000   0.07669   0.00000   0.00000   0.03886
  86       46PX         0.00000   0.00000  -0.00143   0.00000   0.00000
  87       46PY        -0.00011   0.00000   0.00000  -0.00143   0.00000
  88       46PZ         0.00000   0.00006   0.00000   0.00000   0.00069
  89       47D 0        0.00000   0.00000   0.00000   0.00000   0.00001
  90       47D+1        0.00000   0.00000  -0.00000   0.00000   0.00000
  91       47D-1       -0.00000   0.00000   0.00000  -0.00000   0.00000
  92       47D+2        0.00000   0.00000   0.00000   0.00000   0.00000
  93       47D-2        0.00000   0.00000   0.00000   0.00000   0.00000
  94       48D 0        0.00000   0.00001   0.00000   0.00000   0.00004
  95       48D+1        0.00000   0.00000  -0.00002   0.00000   0.00000
  96       48D-1       -0.00000   0.00000   0.00000  -0.00002   0.00000
  97       48D+2        0.00000  -0.00000   0.00000   0.00000  -0.00000
  98       48D-2        0.00000   0.00000   0.00000   0.00000   0.00000
  99       49D 0        0.00000   0.00306   0.00000   0.00000   0.00743
 100       49D+1        0.00000   0.00000  -0.00394   0.00000   0.00000
 101       49D-1       -0.00024   0.00000   0.00000  -0.00394   0.00000
 102       49D+2        0.00000   0.00000   0.00000   0.00000   0.00000
 103       49D-2        0.00000   0.00000   0.00000   0.00000   0.00000
 104       50D 0        0.00000   0.01227   0.00000   0.00000   0.03017
 105       50D+1        0.00000   0.00000  -0.01585   0.00000   0.00000
 106       50D-1       -0.00089   0.00000   0.00000  -0.01585   0.00000
 107       50D+2        0.00000  -0.00000   0.00000   0.00000  -0.00000
 108       50D-2        0.00000   0.00000   0.00000   0.00000   0.00000
 109       51D 0        0.00000   0.03210   0.00000   0.00000   0.07675
 110       51D+1        0.00000   0.00000  -0.04115   0.00000   0.00000
 111       51D-1       -0.00264   0.00000   0.00000  -0.04115   0.00000
 112       51D+2        0.00000   0.00000   0.00000   0.00000   0.00000
 113       51D-2        0.00000   0.00000   0.00000   0.00000   0.00000
 114       52D 0        0.00000   0.06303   0.00000   0.00000   0.13940
 115       52D+1        0.00000   0.00000  -0.08015   0.00000   0.00000
 116       52D-1       -0.00815   0.00000   0.00000  -0.08015   0.00000
 117       52D+2        0.00000   0.00000   0.00000   0.00000   0.00000
 118       52D-2        0.00000   0.00000   0.00000   0.00000   0.00000
 119       53D 0        0.00000   0.08548   0.00000   0.00000   0.20041
 120       53D+1        0.00000   0.00000  -0.10822   0.00000   0.00000
[...]
 166       62F 0        0.00113   0.00057   0.00056   0.00000
 167       62F+1        0.00041   0.00020   0.00021  -0.00001
 168       62F-1        0.00041   0.00020   0.00021  -0.00001
 169       62F+2        0.00002   0.00002  -0.00000   0.00002
 170       62F-2        0.00002   0.00002  -0.00000   0.00002
 171       62F+3        0.00000   0.00000   0.00000   0.00000
 172       62F-3       -0.00000  -0.00000  -0.00000   0.00000
 173       63F 0        0.00948   0.00476   0.00472   0.00003
 174       63F+1        0.00620   0.00310   0.00310  -0.00001
 175       63F-1        0.00620   0.00310   0.00310  -0.00001
 176       63F+2        0.00004   0.00004   0.00000   0.00004
 177       63F-2        0.00004   0.00004   0.00000   0.00004
 178       63F+3       -0.00000  -0.00000  -0.00000   0.00000
 179       63F-3       -0.00000  -0.00000  -0.00000  -0.00000
 180       64F 0        0.00214   0.00095   0.00118  -0.00023
 181       64F+1        0.01472   0.00903   0.00569   0.00334
 182       64F-1        0.01472   0.00903   0.00569   0.00334
 183       64F+2       -0.00002  -0.00002   0.00000  -0.00002
 184       64F-2       -0.00002  -0.00002   0.00000  -0.00002
 185       64F+3       -0.00000  -0.00000  -0.00000  -0.00000
 186       64F-3        0.00000   0.00000  -0.00000   0.00000
 187       65F 0       -0.00423  -0.00239  -0.00184  -0.00056
 188       65F+1       -0.00308  -0.00110  -0.00197   0.00087
 189       65F-1       -0.00308  -0.00110  -0.00197   0.00087
 190       65F+2       -0.00000  -0.00000   0.00000  -0.00000
 191       65F-2       -0.00000  -0.00000   0.00000  -0.00000
 192       65F+3        0.00000   0.00000   0.00000   0.00000
 193       65F-3       -0.00000  -0.00000  -0.00000  -0.00000
 194       66G 0        0.00000   0.00000   0.00000   0.00000
 195       66G+1        0.00000   0.00000   0.00000   0.00000
 196       66G-1        0.00000   0.00000   0.00000   0.00000
 197       66G+2        0.00000   0.00000  -0.00000   0.00000
 198       66G-2        0.00000   0.00000  -0.00000   0.00000
 199       66G+3        0.00000   0.00000  -0.00000   0.00000
 200       66G-3        0.00000   0.00000   0.00000   0.00000
 201       66G+4       -0.00000  -0.00000  -0.00000  -0.00000
 202       66G-4       -0.00000  -0.00000  -0.00000  -0.00000
 203       67G 0        0.00038   0.00019   0.00019   0.00000
 204       67G+1        0.00022   0.00011   0.00011  -0.00000
 205       67G-1        0.00022   0.00011   0.00011  -0.00000
 206       67G+2        0.00000   0.00000   0.00000   0.00000
 207       67G-2        0.00000   0.00000   0.00000   0.00000
 208       67G+3       -0.00000  -0.00000  -0.00000   0.00000
 209       67G-3       -0.00000   0.00000  -0.00000   0.00000
 210       67G+4       -0.00000  -0.00000  -0.00000   0.00000
 211       67G-4       -0.00000  -0.00000  -0.00000  -0.00000
 212       68G 0        0.00142   0.00072   0.00071   0.00001
 213       68G+1        0.00274   0.00147   0.00127   0.00020
 214       68G-1        0.00274   0.00147   0.00127   0.00020
 215       68G+2        0.00001   0.00001   0.00000   0.00001
 216       68G-2        0.00001   0.00001   0.00000   0.00001
 217       68G+3        0.00000   0.00000   0.00000   0.00000
 218       68G-3       -0.00000  -0.00000  -0.00000   0.00000
 219       68G+4        0.00000   0.00000   0.00000   0.00000
 220       68G-4        0.00000   0.00000   0.00000   0.00000
 221       69G 0       -0.00044  -0.00018  -0.00026   0.00008
 222       69G+1        0.00157   0.00116   0.00041   0.00075
 223       69G-1        0.00157   0.00116   0.00041   0.00075
 224       69G+2       -0.00000  -0.00000   0.00000  -0.00000
 225       69G-2       -0.00000  -0.00000   0.00000  -0.00000
 226       69G+3       -0.00000  -0.00000  -0.00000   0.00000
 227       69G-3       -0.00000  -0.00000   0.00000  -0.00000
 228       69G+4       -0.00000  -0.00000  -0.00000  -0.00000
 229       69G-4        0.00000   0.00000  -0.00000   0.00000
 230       70H 0        0.00000   0.00000   0.00000  -0.00000
 231       70H+1        0.00000   0.00000   0.00000  -0.00000
 232       70H-1        0.00000   0.00000   0.00000  -0.00000
 233       70H+2        0.00000   0.00000  -0.00000   0.00000
 234       70H-2        0.00000   0.00000  -0.00000   0.00000
 235       70H+3        0.00000   0.00000   0.00000   0.00000
 236       70H-3        0.00000   0.00000  -0.00000   0.00000
 237       70H+4       -0.00000  -0.00000   0.00000  -0.00000
 238       70H-4        0.00000   0.00000   0.00000   0.00000
 239       70H+5       -0.00000  -0.00000  -0.00000   0.00000
 240       70H-5        0.00000  -0.00000   0.00000  -0.00000
 241       71H 0        0.00013   0.00006   0.00006  -0.00000
 242       71H+1        0.00011   0.00005   0.00006  -0.00001
 243       71H-1        0.00011   0.00005   0.00006  -0.00001
 244       71H+2        0.00000   0.00000   0.00000   0.00000
 245       71H-2        0.00000   0.00000   0.00000   0.00000
 246       71H+3        0.00000   0.00000   0.00000  -0.00000
 247       71H-3       -0.00000  -0.00000   0.00000  -0.00000
 248       71H+4        0.00000   0.00000   0.00000  -0.00000
 249       71H-4       -0.00000  -0.00000   0.00000  -0.00000
 250       71H+5       -0.00000  -0.00000  -0.00000   0.00000
 251       71H-5       -0.00000  -0.00000  -0.00000  -0.00000
 252       72H 0        0.00012   0.00006   0.00006   0.00000
 253       72H+1        0.00068   0.00033   0.00034  -0.00001
 254       72H-1        0.00068   0.00033   0.00034  -0.00001
 255       72H+2        0.00000   0.00000   0.00000   0.00000
 256       72H-2        0.00000   0.00000   0.00000   0.00000
 257       72H+3       -0.00000  -0.00000  -0.00000   0.00000
 258       72H-3       -0.00000  -0.00000   0.00000  -0.00000
 259       72H+4        0.00000   0.00000   0.00000   0.00000
 260       72H-4        0.00000   0.00000   0.00000   0.00000
 261       72H+5       -0.00000  -0.00000  -0.00000   0.00000
 262       72H-5       -0.00000   0.00000  -0.00000   0.00000
 263 2   O  1S         -0.00000  -0.00000  -0.00000   0.00000
 264        2S          0.00000   0.00000   0.00000  -0.00000
 265        3S         -0.00000  -0.00000  -0.00000   0.00000
 266        4S          0.00000   0.00000   0.00000  -0.00000
 267        5S         -0.00000  -0.00000  -0.00000   0.00000
 268        6S         -0.00005  -0.00003  -0.00003   0.00000
 269        7S         -0.00036  -0.00018  -0.00018   0.00000
 270        8S         -0.09363  -0.04695  -0.04668  -0.00027
 271        9S         -0.08104  -0.04066  -0.04038  -0.00028
 272       10S          0.44088   0.22118   0.21971   0.00147
 273       11S          1.07367   0.53722   0.53645   0.00077
 274       12S          0.60774   0.29923   0.30851  -0.00929
 275       13S          0.05613   0.02814   0.02799   0.00015
 276       14S          0.00023   0.00011   0.00011  -0.00000
 277       15S          0.00002   0.00001   0.00001  -0.00000
 278       16S          0.06716   0.01769   0.04947  -0.03178
 279       17PX        -0.00019  -0.00010  -0.00009  -0.00001
 280       17PY        -0.00019  -0.00010  -0.00009  -0.00001
 281       17PZ        -0.00018  -0.00009  -0.00009  -0.00000
 282       18PX        -0.13710  -0.07237  -0.06473  -0.00764
 283       18PY        -0.13710  -0.07237  -0.06473  -0.00764
 284       18PZ        -0.12916  -0.06570  -0.06346  -0.00224
 285       19PX         0.14574   0.07763   0.06811   0.00952
 286       19PY         0.14574   0.07763   0.06811   0.00952
 287       19PZ         0.12591   0.06398   0.06193   0.00205
 288       20PX         0.50269   0.26499   0.23770   0.02729
 289       20PY         0.50269   0.26499   0.23770   0.02729
 290       20PZ         0.44581   0.22634   0.21947   0.00688
 291       21PX         0.71329   0.37488   0.33841   0.03647
 292       21PY         0.71329   0.37488   0.33841   0.03647
 293       21PZ         0.43674   0.22588   0.21086   0.01502
 294       22PX         0.40454   0.22914   0.17540   0.05375
 295       22PY         0.40454   0.22914   0.17540   0.05375
 296       22PZ         0.12610   0.07773   0.04837   0.02936
 297       23PX         0.15618   0.08253   0.07365   0.00888
 298       23PY         0.15618   0.08253   0.07365   0.00888
 299       23PZ         0.14596   0.07424   0.07172   0.00252
 300       24PX         0.00072   0.00038   0.00034   0.00004
 301       24PY         0.00072   0.00038   0.00034   0.00004
 302       24PZ         0.00066   0.00034   0.00033   0.00001
 303       25PX         0.00001   0.00001   0.00000   0.00000
 304       25PY         0.00001   0.00001   0.00000   0.00000
 305       25PZ         0.00001   0.00001   0.00000   0.00000
 306       26PX         0.03383   0.02337   0.01046   0.01291
 307       26PY         0.03383   0.02337   0.01046   0.01291
 308       26PZ         0.00850   0.00778   0.00072   0.00705
 309       27D 0        0.00101   0.00052   0.00049   0.00003
 310       27D+1        0.00046   0.00031   0.00016   0.00015
 311       27D-1        0.00046   0.00031   0.00016   0.00015
 312       27D+2        0.00002   0.00002   0.00000   0.00002
 313       27D-2        0.00002   0.00002   0.00000   0.00002
 314       28D 0        0.01181   0.00612   0.00569   0.00043
 315       28D+1        0.00783   0.00507   0.00276   0.00232
 316       28D-1        0.00783   0.00507   0.00276   0.00232
 317       28D+2        0.00053   0.00053  -0.00000   0.00053
 318       28D-2        0.00053   0.00053  -0.00000   0.00053
 319       29D 0        0.00441   0.00273   0.00168   0.00104
 320       29D+1        0.01266   0.00750   0.00517   0.00233
 321       29D-1        0.01266   0.00750   0.00517   0.00233
 322       29D+2        0.00170   0.00170  -0.00000   0.00170
 323       29D-2        0.00170   0.00170  -0.00000   0.00170
 324       30D 0        0.00001   0.00001   0.00001   0.00000
 325       30D+1        0.00001   0.00001   0.00000   0.00000
 326       30D-1        0.00001   0.00001   0.00000   0.00000
 327       30D+2        0.00000   0.00000  -0.00000   0.00000
 328       30D-2        0.00000   0.00000  -0.00000   0.00000
 329       31D 0        0.00000   0.00000   0.00000  -0.00000
 330       31D+1       -0.00000  -0.00000  -0.00000  -0.00000
 331       31D-1       -0.00000  -0.00000  -0.00000  -0.00000
 332       31D+2       -0.00000  -0.00000   0.00000  -0.00000
 333       31D-2       -0.00000  -0.00000   0.00000  -0.00000
 334       32D 0        0.00057   0.00020   0.00037  -0.00017
 335       32D+1        0.00121   0.00077   0.00044   0.00033
 336       32D-1        0.00121   0.00077   0.00044   0.00033
 337       32D+2        0.00026   0.00026   0.00000   0.00026
 338       32D-2        0.00026   0.00026   0.00000   0.00026
 339       33F 0        0.00071   0.00037   0.00035   0.00002
 340       33F+1        0.00039   0.00027   0.00012   0.00015
 341       33F-1        0.00039   0.00027   0.00012   0.00015
 342       33F+2        0.00003   0.00003   0.00000   0.00003
 343       33F-2        0.00003   0.00003   0.00000   0.00003
 344       33F+3       -0.00000   0.00000  -0.00000   0.00000
 345       33F-3        0.00000   0.00000  -0.00000   0.00000
 346       34F 0        0.00338   0.00183   0.00155   0.00028
 347       34F+1        0.00322   0.00213   0.00109   0.00104
 348       34F-1        0.00322   0.00213   0.00109   0.00104
 349       34F+2        0.00063   0.00063  -0.00000   0.00063
 350       34F-2        0.00063   0.00063   0.00000   0.00063
 351       34F+3        0.00000   0.00000   0.00000  -0.00000
 352       34F-3        0.00000  -0.00000   0.00000  -0.00000
 353       35F 0        0.00000   0.00000   0.00000   0.00000
 354       35F+1        0.00000   0.00000   0.00000   0.00000
 355       35F-1        0.00000   0.00000   0.00000   0.00000
 356       35F+2        0.00000   0.00000   0.00000   0.00000
 357       35F-2        0.00000   0.00000   0.00000   0.00000
 358       35F+3       -0.00000  -0.00000  -0.00000  -0.00000
 359       35F-3       -0.00000  -0.00000  -0.00000  -0.00000
 360       36F 0        0.00070   0.00049   0.00022   0.00027
 361       36F+1       -0.00069  -0.00032  -0.00037   0.00004
 362       36F-1       -0.00069  -0.00032  -0.00037   0.00004
 363       36F+2        0.00004   0.00004   0.00000   0.00004
 364       36F-2        0.00004   0.00004   0.00000   0.00004
 365       36F+3        0.00000   0.00000   0.00000  -0.00000
 366       36F-3       -0.00000  -0.00000  -0.00000  -0.00000
 367       37G 0        0.00049   0.00025   0.00024   0.00002
 368       37G+1        0.00037   0.00027   0.00010   0.00016
 369       37G-1        0.00037   0.00027   0.00010   0.00016
 370       37G+2        0.00006   0.00006   0.00000   0.00006
 371       37G-2        0.00006   0.00006   0.00000   0.00006
 372       37G+3       -0.00000  -0.00000  -0.00000   0.00000
 373       37G-3        0.00000   0.00000  -0.00000   0.00000
 374       37G+4        0.00000   0.00000   0.00000  -0.00000
 375       37G-4        0.00000   0.00000   0.00000   0.00000
 376       38G 0        0.00024   0.00015   0.00009   0.00006
 377       38G+1        0.00023   0.00017   0.00006   0.00011
 378       38G-1        0.00023   0.00017   0.00006   0.00011
 379       38G+2        0.00008   0.00008   0.00000   0.00008
 380       38G-2        0.00008   0.00008   0.00000   0.00008
 381       38G+3       -0.00000  -0.00000  -0.00000  -0.00000
 382       38G-3       -0.00000  -0.00000  -0.00000   0.00000
 383       38G+4       -0.00000   0.00000  -0.00000   0.00000
 384       38G-4       -0.00000  -0.00000  -0.00000  -0.00000
          Condensed to atoms (all electrons):
               1          2
     1  Mn  14.260393  -0.212370
     2  O   -0.212370   7.164347
          Atomic-Atomic Spin Densities.
               1          2
     1  Mn   4.790237  -0.116093
     2  O   -0.116093   0.441948
 Mulliken charges and spin densities:
               1          2
     1  Mn   0.951977   4.674144
     2  O   -0.951977   0.325856
 Sum of Mulliken charges =  -0.00000   5.00000
 Mulliken charges and spin densities with hydrogens summed into heavy atoms:
               1          2
     1  Mn   0.951977   4.674144
     2  O   -0.951977   0.325856
 Electronic spatial extent (au):  <R**2>=             68.8790
 Charge=             -0.0000 electrons
 Dipole moment (field-independent basis, Debye):
    X=              0.0000    Y=              0.0000    Z=              1.2741  Tot=              1.2741
 Quadrupole moment (field-independent basis, Debye-Ang):
   XX=            -20.2037   YY=            -20.2037   ZZ=            -22.3223
   XY=              0.0000   XZ=              0.0000   YZ=              0.0000
 Traceless Quadrupole moment (field-independent basis, Debye-Ang):
   XX=              0.7062   YY=              0.7062   ZZ=             -1.4124
   XY=              0.0000   XZ=              0.0000   YZ=              0.0000
 Octapole moment (field-independent basis, Debye-Ang**2):
  XXX=              0.0000  YYY=              0.0000  ZZZ=             -1.0342  XYY=              0.0000
  XXY=              0.0000  XXZ=             -1.0338  XZZ=              0.0000  YZZ=              0.0000
  YYZ=             -1.0338  XYZ=              0.0000
 Hexadecapole moment (field-independent basis, Debye-Ang**3):
 XXXX=            -31.1012 YYYY=            -31.1012 ZZZZ=            -68.2877 XXXY=              0.0000
 XXXZ=              0.0000 YYYX=              0.0000 YYYZ=              0.0000 ZZZX=              0.0000
 ZZZY=              0.0000 XXYY=            -10.3671 XXZZ=            -17.3673 YYZZ=            -17.3673
 XXYZ=              0.0000 YYXZ=              0.0000 ZZXY=              0.0000
 N-N= 3.968829081900D+01 E-N=-3.552151793211D+02  KE= 7.043290689517D+01
 Symmetry A1   KE= 2.883806571424D+01
 Symmetry A2   KE= 6.099371350253D+00
 Symmetry B1   KE= 1.774773491628D+01
 Symmetry B2   KE= 1.774773491426D+01
 Symmetry A1   SP= 2.000000000000D+00
 Symmetry A2   SP= 1.000000000000D+00
 Symmetry B1   SP= 1.000000000000D+00
 Symmetry B2   SP= 1.000000000000D+00
 Orbital energies and kinetic energies (alpha):
                                 1                 2
   4         O                -2.764800          3.478499
   5         O                -1.299695          1.803117
   6         O                -0.786212          2.657871
   7         O                -0.786212          2.657871
   8         O                -0.661111          4.005891
   9         O                -0.597225          6.099371
  10         O                -0.597225          6.099371
  11         O                -0.382830          0.640673
  12         O                -0.382830          5.474995
  13         O                -0.288758          5.474995
  14         V                 0.022089          0.054782
  15         V                 0.024283          0.066660
  16         V                 0.024283          0.066660
  17         V                 0.027421          0.035817
  18         V                 0.055146          0.071747
 Total kinetic energy from orbitals= 9.422231155232D+01
                          Isotropic Fermi Contact Couplings
        Atom                 a.u.       MegaHertz       Gauss      10(-4) cm-1
     1  Mn(55)             0.00007       0.01535       0.00548       0.00512
     2  O(17)              0.00008      -0.00994      -0.00355      -0.00332
 --------------------------------------------------------
       Center         ----  Spin Dipole Couplings  ----
                      3XX-RR        3YY-RR        3ZZ-RR
 --------------------------------------------------------
     1   Atom        1.107611      1.107611     -2.215221
     2   Atom       -0.079546     -0.079546      0.159092
 --------------------------------------------------------
                        XY            XZ            YZ
 --------------------------------------------------------
     1   Atom        0.000000      0.000000      0.000000
     2   Atom        0.000000      0.000000      0.000000
 --------------------------------------------------------


 ---------------------------------------------------------------------------------
              Anisotropic Spin Dipole Couplings in Principal Axis System
 ---------------------------------------------------------------------------------

       Atom             a.u.   MegaHertz   Gauss  10(-4) cm-1        Axes

              Baa    -2.2152  -292.280  -104.293   -97.494  0.0000  0.0000  1.0000
     1 Mn(55) Bbb     1.1076   146.140    52.146    48.747 -0.0000  1.0000  0.0000
              Bcc     1.1076   146.140    52.146    48.747  1.0000  0.0000  0.0000
 
              Baa    -0.0795     5.756     2.054     1.920 -0.0000  1.0000  0.0000
     2 O(17)  Bbb    -0.0795     5.756     2.054     1.920  1.0000  0.0000  0.0000
              Bcc     0.1591   -11.512    -4.108    -3.840  0.0000  0.0000  1.0000
 

 ---------------------------------------------------------------------------------

 No NMR shielding tensors so no spin-rotation constants.
 Leave Link  601 at Fri Mar  9 18:06:58 2018, MaxMem= 10737418240 cpu:             113.2 elap:               7.4
 (Enter /home1/apps/gaussian/16rA.03/g16/l9999.exe)
 1\1\GINC-C469-114\SP\ROCCSD(T)-Full\Gen\Mn1O1(6)\AANNABE\09-Mar-2018\0
 \\#P ROCCSD(T)=(maxcyc=150, Full, SaveAmplitudes, ReadAmplitudes)/Gen 
 5d 7f SCF=(maxcycles=300) Integral(NoXCTest) MaxDisk=500GB Pop=Regular
  Pseudo=Read Guess=Read\\MnO\\0,6\Mn,0,0.,0.,0.\O,0,0.,0.,1.2\\Version
 =ES64L-G16RevA.03\State=6-SG\HF=-118.8612825\MP2=-119.8394726\PUHF=-11
 8.8612825\PMP2-0=-119.8394726\CCSD=-119.7995273\CCSD(T)=-119.8389232\R
 MSD=3.564e-09\PG=C*V [C*(O1Mn1)]\\@


 NEVER LOSE YOUR IGNORANCE, IT CAN'T BE REPLACED.
   -- ANDY CAPP
 Job cpu time:       0 days 23 hours 58 minutes 48.3 seconds.
 Elapsed time:       0 days  1 hours 30 minutes 19.3 seconds.
 File lengths (MBytes):  RWF=  16030 Int=      0 D2E=      0 Chk=     79 Scr=      1
 Normal termination of Gaussian 16 at Fri Mar  9 18:06:59 2018.
