 Entering Gaussian System, Link 0=g16
 Initial command:
 /home1/apps/gaussian/16rA.03/g16/l1.exe "/tmp/Gau-39963.inp" -scrdir="/tmp/"
 Entering Link 1 = /home1/apps/gaussian/16rA.03/g16/l1.exe PID=     39964.
  
 Copyright (c) 1988,1990,1992,1993,1995,1998,2003,2009,2016,
            Gaussian, Inc.  All Rights Reserved.
  
 This is part of the Gaussian(R) 16 program.  It is based on
 the Gaussian(R) 09 system (copyright 2009, Gaussian, Inc.),
 the Gaussian(R) 03 system (copyright 2003, Gaussian, Inc.),
 the Gaussian(R) 98 system (copyright 1998, Gaussian, Inc.),
 the Gaussian(R) 94 system (copyright 1995, Gaussian, Inc.),
 the Gaussian 92(TM) system (copyright 1992, Gaussian, Inc.),
 the Gaussian 90(TM) system (copyright 1990, Gaussian, Inc.),
 the Gaussian 88(TM) system (copyright 1988, Gaussian, Inc.),
 the Gaussian 86(TM) system (copyright 1986, Carnegie Mellon
 University), and the Gaussian 82(TM) system (copyright 1983,
 Carnegie Mellon University). Gaussian is a federally registered
 trademark of Gaussian, Inc.
  
 This software contains proprietary and confidential information,
 including trade secrets, belonging to Gaussian, Inc.
  
 This software is provided under written license and may be
 used, copied, transmitted, or stored only in accord with that
 written license.
  
 The following legend is applicable only to US Government
 contracts under FAR:
  
                    RESTRICTED RIGHTS LEGEND
  
 Use, reproduction and disclosure by the US Government is
 subject to restrictions as set forth in subparagraphs (a)
 and (c) of the Commercial Computer Software - Restricted
 Rights clause in FAR 52.227-19.
  
 Gaussian, Inc.
 340 Quinnipiac St., Bldg. 40, Wallingford CT 06492
  
  
 ---------------------------------------------------------------
 Warning -- This program may not be used in any manner that
 competes with the business of Gaussian, Inc. or will provide
 assistance to any competitor of Gaussian, Inc.  The licensee
 of this program is prohibited from giving any competitor of
 Gaussian, Inc. access to this program.  By using this program,
 the user acknowledges that Gaussian, Inc. is engaged in the
 business of creating and licensing software in the field of
 computational chemistry and represents and warrants to the
 licensee that it is not a competitor of Gaussian, Inc. and that
 it will not use this program in any manner prohibited above.
 ---------------------------------------------------------------
  

 Cite this work as:
 Gaussian 16, Revision A.03,
 M. J. Frisch, G. W. Trucks, H. B. Schlegel, G. E. Scuseria, 
 M. A. Robb, J. R. Cheeseman, G. Scalmani, V. Barone, 
 G. A. Petersson, H. Nakatsuji, X. Li, M. Caricato, A. V. Marenich, 
 J. Bloino, B. G. Janesko, R. Gomperts, B. Mennucci, H. P. Hratchian, 
 J. V. Ortiz, A. F. Izmaylov, J. L. Sonnenberg, D. Williams-Young, 
 F. Ding, F. Lipparini, F. Egidi, J. Goings, B. Peng, A. Petrone, 
 T. Henderson, D. Ranasinghe, V. G. Zakrzewski, J. Gao, N. Rega, 
 G. Zheng, W. Liang, M. Hada, M. Ehara, K. Toyota, R. Fukuda, 
 J. Hasegawa, M. Ishida, T. Nakajima, Y. Honda, O. Kitao, H. Nakai, 
 T. Vreven, K. Throssell, J. A. Montgomery, Jr., J. E. Peralta, 
 F. Ogliaro, M. J. Bearpark, J. J. Heyd, E. N. Brothers, K. N. Kudin, 
 V. N. Staroverov, T. A. Keith, R. Kobayashi, J. Normand, 
 K. Raghavachari, A. P. Rendell, J. C. Burant, S. S. Iyengar, 
 J. Tomasi, M. Cossi, J. M. Millam, M. Klene, C. Adamo, R. Cammi, 
 J. W. Ochterski, R. L. Martin, K. Morokuma, O. Farkas, 
 J. B. Foresman, and D. J. Fox, Gaussian, Inc., Wallingford CT, 2016.
 
 ******************************************
 Gaussian 16:  ES64L-G16RevA.03 25-Dec-2016
                12-Mar-2018 
 ******************************************
 %MEM=80GB
 %CPU=0-15
 SetSPE:  set environment variable "MP_BIND" = "yes"
 SetSPE:  set environment variable "MP_BLIST" = "0,1,2,3,4,5,6,7,8,9,10,11,12,13,14,15"
 Will use up to   16 processors via shared memory.
 %RWF=/scratch/04843/aannabe/gaussian/
 %Int=/scratch/04843/aannabe/gaussian/
 %D2E=/scratch/04843/aannabe/gaussian/
 %NoSave
 %CHK=Mn
 ----------------------------------------------------------------------
 #P ROCCSD(T)=(maxcyc=150, Full)/Gen 5d 7f SCF=(maxcycles=300, NoVarAcc
 , VShift=200) MaxDisk=100GB Pop=Regular Pseudo=Read Guess=Read
 ----------------------------------------------------------------------
 1/38=1,172=1/1;
 2/12=2,17=6,18=5,40=1/2;
 3/5=7,8=11,11=2,16=1,17=8,25=1,30=1,116=101/1,2,3;
 4/5=1/1;
 5/5=2,7=300,10=200,38=6/2;
 8/5=-1,6=4,9=120000,10=90/1,4;
 9/5=7,6=150,14=2/13;
 6//1;
 99/5=1,9=1/99;
 Leave Link    1 at Mon Mar 12 14:08:35 2018, MaxMem= 10737418240 cpu:               3.7 elap:               0.2
 (Enter /home1/apps/gaussian/16rA.03/g16/l101.exe)
 --
 Mn
 --
 Symbolic Z-matrix:
 Charge =  0 Multiplicity = 6
 Mn                    0.        0.        0. 
 
 ITRead=  0
 MicOpt= -1
 NAtoms=      1 NQM=        1 NQMF=       0 NMMI=      0 NMMIF=      0
                NMic=       0 NMicF=      0.
                    Isotopes and Nuclear Properties:
 (Nuclear quadrupole moments (NQMom) in fm**2, nuclear magnetic moments (NMagM)
  in nuclear magnetons)

  Atom         1
 IAtWgt=          55
 AtmWgt=  54.9380463
 NucSpn=           5
 AtZEff=  -0.0000000
 NQMom=   33.0000000
 NMagM=    3.4532000
 AtZNuc=  25.0000000
 Leave Link  101 at Mon Mar 12 14:08:35 2018, MaxMem= 10737418240 cpu:               1.5 elap:               0.1
 (Enter /home1/apps/gaussian/16rA.03/g16/l202.exe)
                          Input orientation:                          
 ---------------------------------------------------------------------
 Center     Atomic      Atomic             Coordinates (Angstroms)
 Number     Number       Type             X           Y           Z
 ---------------------------------------------------------------------
      1         25           0        0.000000    0.000000    0.000000
 ---------------------------------------------------------------------
 Stoichiometry    Mn(6)
 Framework group  OH[O(Mn)]
 Deg. of freedom     0
 Full point group                 OH      NOp  48
 Largest Abelian subgroup         D2H     NOp   8
 Largest concise Abelian subgroup C1      NOp   1
                         Standard orientation:                         
 ---------------------------------------------------------------------
 Center     Atomic      Atomic             Coordinates (Angstroms)
 Number     Number       Type             X           Y           Z
 ---------------------------------------------------------------------
      1         25           0        0.000000    0.000000    0.000000
 ---------------------------------------------------------------------
 Leave Link  202 at Mon Mar 12 14:08:35 2018, MaxMem= 10737418240 cpu:               0.6 elap:               0.1
 (Enter /home1/apps/gaussian/16rA.03/g16/l301.exe)
 General basis read from cards:  (5D, 7F)
 Centers:       1
 S 1 1.00
     Exponent=  1.3776600000D+08 Coefficients=  1.0000000000D+00
 S 1 1.00
     Exponent=  2.4564000000D+07 Coefficients=  1.0000000000D+00
 S 1 1.00
     Exponent=  5.4799900000D+06 Coefficients=  1.0000000000D+00
 S 1 1.00
     Exponent=  1.4666400000D+06 Coefficients=  1.0000000000D+00
 S 1 1.00
     Exponent=  4.5442100000D+05 Coefficients=  1.0000000000D+00
 S 1 1.00
     Exponent=  1.5821600000D+05 Coefficients=  1.0000000000D+00
 S 1 1.00
     Exponent=  6.0404300000D+04 Coefficients=  1.0000000000D+00
 S 1 1.00
     Exponent=  2.4793600000D+04 Coefficients=  1.0000000000D+00
 S 1 1.00
     Exponent=  1.0772300000D+04 Coefficients=  1.0000000000D+00
 S 1 1.00
     Exponent=  4.8955400000D+03 Coefficients=  1.0000000000D+00
 S 1 1.00
     Exponent=  2.3065600000D+03 Coefficients=  1.0000000000D+00
 S 1 1.00
     Exponent=  1.1195600000D+03 Coefficients=  1.0000000000D+00
 S 1 1.00
     Exponent=  5.5738100000D+02 Coefficients=  1.0000000000D+00
 S 1 1.00
     Exponent=  2.8377800000D+02 Coefficients=  1.0000000000D+00
 S 1 1.00
     Exponent=  1.4743600000D+02 Coefficients=  1.0000000000D+00
 S 1 1.00
     Exponent=  7.8022700000D+01 Coefficients=  1.0000000000D+00
 S 1 1.00
     Exponent=  4.1967900000D+01 Coefficients=  1.0000000000D+00
 S 1 1.00
     Exponent=  2.2877800000D+01 Coefficients=  1.0000000000D+00
 S 1 1.00
     Exponent=  1.2584500000D+01 Coefficients=  1.0000000000D+00
 S 1 1.00
     Exponent=  6.9417000000D+00 Coefficients=  1.0000000000D+00
 S 1 1.00
     Exponent=  3.8062900000D+00 Coefficients=  1.0000000000D+00
 S 1 1.00
     Exponent=  2.0503100000D+00 Coefficients=  1.0000000000D+00
 S 1 1.00
     Exponent=  1.0683800000D+00 Coefficients=  1.0000000000D+00
 S 1 1.00
     Exponent=  5.3660600000D-01 Coefficients=  1.0000000000D+00
 S 1 1.00
     Exponent=  1.8326000000D-01 Coefficients=  1.0000000000D+00
 S 1 1.00
     Exponent=  1.0529700000D-01 Coefficients=  1.0000000000D+00
 S 1 1.00
     Exponent=  5.1464000000D-02 Coefficients=  1.0000000000D+00
 S 1 1.00
     Exponent=  2.4678000000D-02 Coefficients=  1.0000000000D+00
 S 1 1.00
     Exponent=  5.8340000000D+00 Coefficients=  1.0000000000D+00
 S 1 1.00
     Exponent=  1.9879000000D+00 Coefficients=  1.0000000000D+00
 S 1 1.00
     Exponent=  1.1830000000D-02 Coefficients=  1.0000000000D+00
 P 1 1.00
     Exponent=  7.9296800000D+04 Coefficients=  1.0000000000D+00
 P 1 1.00
     Exponent=  1.9317100000D+04 Coefficients=  1.0000000000D+00
 P 1 1.00
     Exponent=  6.1141000000D+03 Coefficients=  1.0000000000D+00
 P 1 1.00
     Exponent=  2.3162600000D+03 Coefficients=  1.0000000000D+00
 P 1 1.00
     Exponent=  9.8969000000D+02 Coefficients=  1.0000000000D+00
 P 1 1.00
     Exponent=  4.5794200000D+02 Coefficients=  1.0000000000D+00
 P 1 1.00
     Exponent=  2.2364200000D+02 Coefficients=  1.0000000000D+00
 P 1 1.00
     Exponent=  1.1359400000D+02 Coefficients=  1.0000000000D+00
 P 1 1.00
     Exponent=  5.9562100000D+01 Coefficients=  1.0000000000D+00
 P 1 1.00
     Exponent=  3.2107200000D+01 Coefficients=  1.0000000000D+00
 P 1 1.00
     Exponent=  1.7710300000D+01 Coefficients=  1.0000000000D+00
 P 1 1.00
     Exponent=  9.9062100000D+00 Coefficients=  1.0000000000D+00
 P 1 1.00
     Exponent=  5.5224300000D+00 Coefficients=  1.0000000000D+00
 P 1 1.00
     Exponent=  3.0083200000D+00 Coefficients=  1.0000000000D+00
 P 1 1.00
     Exponent=  1.5987300000D+00 Coefficients=  1.0000000000D+00
 P 1 1.00
     Exponent=  8.3086800000D-01 Coefficients=  1.0000000000D+00
 P 1 1.00
     Exponent=  4.1353800000D-01 Coefficients=  1.0000000000D+00
 P 1 1.00
     Exponent=  1.7121400000D-01 Coefficients=  1.0000000000D+00
 P 1 1.00
     Exponent=  7.2122000000D-02 Coefficients=  1.0000000000D+00
 P 1 1.00
     Exponent=  3.0110000000D-02 Coefficients=  1.0000000000D+00
 P 1 1.00
     Exponent=  8.8318000000D+00 Coefficients=  1.0000000000D+00
 P 1 1.00
     Exponent=  2.6917000000D+00 Coefficients=  1.0000000000D+00
 P 1 1.00
     Exponent=  1.2570000000D-02 Coefficients=  1.0000000000D+00
 D 1 1.00
     Exponent=  4.4978500000D+02 Coefficients=  1.0000000000D+00
 D 1 1.00
     Exponent=  1.3275100000D+02 Coefficients=  1.0000000000D+00
 D 1 1.00
     Exponent=  5.0952800000D+01 Coefficients=  1.0000000000D+00
 D 1 1.00
     Exponent=  2.2159400000D+01 Coefficients=  1.0000000000D+00
 D 1 1.00
     Exponent=  1.0261200000D+01 Coefficients=  1.0000000000D+00
 D 1 1.00
     Exponent=  4.9780300000D+00 Coefficients=  1.0000000000D+00
 D 1 1.00
     Exponent=  2.4573000000D+00 Coefficients=  1.0000000000D+00
 D 1 1.00
     Exponent=  1.2010100000D+00 Coefficients=  1.0000000000D+00
 D 1 1.00
     Exponent=  5.7251600000D-01 Coefficients=  1.0000000000D+00
 D 1 1.00
     Exponent=  2.6259600000D-01 Coefficients=  1.0000000000D+00
 D 1 1.00
     Exponent=  1.1414000000D-01 Coefficients=  1.0000000000D+00
 D 1 1.00
     Exponent=  4.5642000000D-02 Coefficients=  1.0000000000D+00
 D 1 1.00
     Exponent=  5.9718000000D+00 Coefficients=  1.0000000000D+00
 D 1 1.00
     Exponent=  3.5428000000D+00 Coefficients=  1.0000000000D+00
 D 1 1.00
     Exponent=  1.8250000000D-02 Coefficients=  1.0000000000D+00
 F 1 1.00
     Exponent=  9.4747000000D+00 Coefficients=  1.0000000000D+00
 F 1 1.00
     Exponent=  4.1404000000D+00 Coefficients=  1.0000000000D+00
 F 1 1.00
     Exponent=  1.8093000000D+00 Coefficients=  1.0000000000D+00
 F 1 1.00
     Exponent=  7.9060000000D-01 Coefficients=  1.0000000000D+00
 F 1 1.00
     Exponent=  2.6140000000D-01 Coefficients=  1.0000000000D+00
 F 1 1.00
     Exponent=  8.6430000000D-02 Coefficients=  1.0000000000D+00
 G 1 1.00
     Exponent=  6.4908000000D+00 Coefficients=  1.0000000000D+00
 G 1 1.00
     Exponent=  3.1225000000D+00 Coefficients=  1.0000000000D+00
 G 1 1.00
     Exponent=  1.5022000000D+00 Coefficients=  1.0000000000D+00
 G 1 1.00
     Exponent=  5.3270000000D-01 Coefficients=  1.0000000000D+00
 G 1 1.00
     Exponent=  1.8890000000D-01 Coefficients=  1.0000000000D+00
 H 1 1.00
     Exponent=  6.0071000000D+00 Coefficients=  1.0000000000D+00
 H 1 1.00
     Exponent=  2.7692000000D+00 Coefficients=  1.0000000000D+00
 H 1 1.00
     Exponent=  1.0636000000D+00 Coefficients=  1.0000000000D+00
 H 1 1.00
     Exponent=  4.0851000000D-01 Coefficients=  1.0000000000D+00
 I 1 1.00
     Exponent=  6.0846000000D+00 Coefficients=  1.0000000000D+00
 I 1 1.00
     Exponent=  2.5736000000D+00 Coefficients=  1.0000000000D+00
 I 1 1.00
     Exponent=  1.0885500000D+00 Coefficients=  1.0000000000D+00
 ****
 ======================================================================================================
                                       Pseudopotential Parameters
 ======================================================================================================
  Center     Atomic      Valence      Angular      Power
  Number     Number     Electrons     Momentum     of R      Exponent        Coefficient   SO-Coeffient
 ======================================================================================================
    1         25           15
                                      F and up 
                                                     1       18.4343224       15.00000000    0.00000000
                                                     2       12.7417521    31301.56494509    0.00000000
                                                     2       11.6741091    -4576.35463180    0.00000000
                                                     2       12.9037616    **************    0.00000000
                                                     2        4.9717187       -4.09339906    0.00000000
                                                     3        8.7926482      276.51483655    0.00000000
                                      S - F
                                                     2       13.5618787     2771.78238977    0.00000000
                                                     2        9.4481253    12553.69429672    0.00000000
                                                     2       10.7650385     1886.79316638    0.00000000
                                                     2       11.6534559    -9260.55332402    0.00000000
                                                     2        8.4807300    -8943.95003535    0.00000000
                                                     2        6.9670703     1041.73211249    0.00000000
                                      P - F
                                                     2       12.7134292    **************    0.00000000
                                                     2       18.0317451    **************    0.00000000
                                                     2       16.6827906    **************    0.00000000
                                                     2       13.1886712    16025.79106608    0.00000000
                                                     2       18.4286113    **************    0.00000000
                                                     2       12.9092897    14270.47832347    0.00000000
                                      D - F
                                                     2        8.1338423     -382.83904013    0.00000000
                                                     2       14.2869922     5676.99013005    0.00000000
                                                     2       11.1440663    35338.03440844    0.00000000
                                                     2       11.3767498    **************    0.00000000
                                                     2       18.2581823     3550.66026420    0.00000000
                                                     2       17.7314631    -5317.47975296    0.00000000
 ======================================================================================================
 Ernie: Thresh=  0.10000D-02 Tol=  0.10000D-05 Strict=F.
 There are   136 symmetry adapted cartesian basis functions of AG  symmetry.
 There are    48 symmetry adapted cartesian basis functions of B1G symmetry.
 There are    48 symmetry adapted cartesian basis functions of B2G symmetry.
 There are    48 symmetry adapted cartesian basis functions of B3G symmetry.
 There are    18 symmetry adapted cartesian basis functions of AU  symmetry.
 There are    65 symmetry adapted cartesian basis functions of B1U symmetry.
 There are    65 symmetry adapted cartesian basis functions of B2U symmetry.
 There are    65 symmetry adapted cartesian basis functions of B3U symmetry.
 There are    88 symmetry adapted basis functions of AG  symmetry.
 There are    34 symmetry adapted basis functions of B1G symmetry.
 There are    34 symmetry adapted basis functions of B2G symmetry.
 There are    34 symmetry adapted basis functions of B3G symmetry.
 There are    14 symmetry adapted basis functions of AU  symmetry.
 There are    47 symmetry adapted basis functions of B1U symmetry.
 There are    47 symmetry adapted basis functions of B2U symmetry.
 There are    47 symmetry adapted basis functions of B3U symmetry.
   345 basis functions,   493 primitive gaussians,   493 cartesian basis functions
    10 alpha electrons        5 beta electrons
       nuclear repulsion energy         0.0000000000 Hartrees.
 IExCor=    0 DFT=F Ex=HF Corr=None ExCW=0 ScaHFX=  1.000000
 ScaDFX=  1.000000  1.000000  1.000000  1.000000 ScalE2=  1.000000  1.000000
 IRadAn=      5 IRanWt=     -1 IRanGd=            0 ICorTp=0 IEmpDi=  4
 NAtoms=    1 NActive=    1 NUniq=    1 SFac= 1.00D+00 NAtFMM=   60 NAOKFM=F Big=F
 Integral buffers will be    131072 words long.
 Raffenetti 2 integral format.
 Two-electron integral symmetry is turned on.
 Leave Link  301 at Mon Mar 12 14:08:35 2018, MaxMem= 10737418240 cpu:               4.4 elap:               0.3
 (Enter /home1/apps/gaussian/16rA.03/g16/l302.exe)
 NPDir=0 NMtPBC=     1 NCelOv=     1 NCel=       1 NClECP=     1 NCelD=      1
         NCelK=      1 NCelE2=     1 NClLst=     1 CellRange=     0.0.
 One-electron integrals computed using PRISM.
 One-electron integral symmetry used in STVInt
  48 Symmetry operations used in ECPInt.
 ECPInt:  NShTT=    3828 NPrTT=    3828 LenC2=    3829 LenP2D=    3828.
 LDataN:  DoStor=T MaxTD1=12 Len= 1566
 NBasis=   345 RedAO= T EigKep=  3.50D-06  NBF=    88    34    34    34    14    47    47    47
 NBsUse=   340 1.00D-06 EigRej=  5.65D-07 NBFU=    86    34    34    34    14    46    46    46
 Leave Link  302 at Mon Mar 12 14:09:08 2018, MaxMem= 10737418240 cpu:             525.7 elap:              32.9
 (Enter /home1/apps/gaussian/16rA.03/g16/l303.exe)
 DipDrv:  MaxL=1.
 Leave Link  303 at Mon Mar 12 14:09:09 2018, MaxMem= 10737418240 cpu:               2.0 elap:               0.2
 (Enter /home1/apps/gaussian/16rA.03/g16/l401.exe)
 Initial guess from the checkpoint file:  "Mn.chk"
 B after Tr=     0.000000    0.000000    0.000000
         Rot=    1.000000    0.000000    0.000000    0.000000 Ang=   0.00 deg.
 Guess basis will be translated and rotated to current coordinates.
 JPrj=2 DoOrth=T DoCkMO=T.
 Initial guess orbital symmetries:
       Occupied  (A1G) (T1U) (T1U) (T1U) (A1G) (EG) (T2G) (T2G)
                 (EG) (T2G)
       Virtual   (T1U) (T1U) (T1U) (A1G) (T1U) (T1U) (T1U) (T2G)
                 (EG) (T2G) (EG) (T2G) (A1G) (T1U) (T1U) (T1U)
                 (T2G) (T2G) (EG) (EG) (T2G) (A1G) (?A) (?A) (?A)
                 (A2U) (?A) (?A) (?A) (T1U) (T1U) (T1U) (T2G) (EG)
                 (T2G) (T2G) (EG) (A1G) (?A) (?A) (?A) (A2U) (?A)
                 (?A) (?A) (T1U) (T1U) (T1U) (?B) (T2G) (?B) (?B)
                 (T2G) (?B) (?B) (T2G) (?B) (T2G) (EG) (T2G) (T2G)
                 (EG) (A1G) (?A) (?A) (A2U) (?A) (?A) (?A) (?A)
                 (T2G) (EG) (EG) (T2G) (T2G) (T1U) (T1U) (T1U)
                 (?B) (T2G) (T2G) (?B) (?B) (?B) (?B) (T2G) (?B)
                 (A1G) (EG) (T2G) (EG) (T2G) (T2G) (?A) (?A) (?A)
                 (A2U) (?A) (?A) (?A) (T1U) (T1U) (T1U) (?B) (T2G)
                 (?B) (?B) (T2G) (?B) (?B) (T2G) (?B) (EG) (EG)
                 (T2G) (T2G) (T2G) (A1G) (T1U) (T1U) (T1U) (EG)
                 (T2G) (EG) (T2G) (T2G) (A1G) (T1U) (T1U) (T1U)
                 (EG) (T2G) (T2G) (EG) (T2G) (A1G) (T1U) (T1U)
                 (T1U) (A1G) (T1U) (T1U) (T1U) (A1G) (EG) (T2G)
                 (EG) (T2G) (T2G) (T1U) (T1U) (T1U) (A1G) (T1U)
                 (T1U) (T1U) (A1G) (T1U) (T1U) (T1U) (A1G) (T1U)
                 (T1U) (T1U) (A1G) (T1U) (T1U) (T1U) (A1G) (A1G)
                 (T1U) (T1U) (T1U) (A1G) (A1G) (A1G) (A1G) (A1G)
                 (EG) (EG) (A1G) (T2G) (T2G) (T2G) (EG) (EG) (A1G)
                 (?C) (?C) (?C) (?C) (T2G) (T2G) (T2G) (EG) (EG)
                 (A1G) (?C) (?C) (?C) (?C) (EG) (EG) (A1G) (?C)
                 (?C) (?C) (?C) (A1G) (T2G) (?B) (?B) (T2G) (?D)
                 (?D) (?D) (?B) (?B) (T2G) (?E) (?E) (?E) (T2G)
                 (?F) (?F) (?F) (T2G) (?B) (?B) (T2G) (?D) (?D)
                 (?D) (?B) (?B) (T2G) (?E) (?E) (?E) (T2G) (?F)
                 (?F) (?F) (T2G) (?B) (?B) (T2G) (?D) (?D) (?D)
                 (?B) (?B) (T2G) (?E) (?E) (?E) (T2G) (?F) (?F)
                 (?F) (A2U) (EU) (EU) (A2U) (EU) (EU) (EU) (EU)
                 (EU) (EU) (T1U) (?A) (?A) (?F) (?F) (?F) (?A)
                 (?A) (T1U) (?F) (?F) (?F) (?F) (?F) (?F) (T1U)
                 (?F) (?F) (?F) (T1U) (T1U) (?A) (?A) (?F) (?F)
                 (?F) (?A) (?A) (T1U) (?F) (?F) (?F) (?F) (?F)
                 (?F) (T1U) (?F) (?F) (?F) (T1U) (T1U) (?A) (?A)
                 (?F) (?F) (?F) (?A) (?A) (T1U) (?F) (?F) (?F)
                 (?F) (?F) (?F) (T1U) (?F) (?F) (?F) (T1U)
 The electronic state of the initial guess is 6-A1G.
 Leave Link  401 at Mon Mar 12 14:09:10 2018, MaxMem= 10737418240 cpu:              18.6 elap:               1.4
 (Enter /home1/apps/gaussian/16rA.03/g16/l502.exe)
 Keep R1 and R2 ints in memory in symmetry-blocked form, NReq=2007023064.
 FoFCou: FMM=F IPFlag=           0 FMFlag=           0 FMFlg1=           0
         NFxFlg=           0 DoJE=F BraDBF=F KetDBF=F FulRan=T
         wScrn=  0.000000 ICntrl=       600 IOpCl=  0 I1Cent=           0 NGrid=           0
         NMat0=    1 NMatS0=  59685 NMatT0=    0 NMatD0=    1 NMtDS0=    0 NMtDT0=    0
 Petite list used in FoFCou.
 Restricted open shell SCF:
 Using DIIS extrapolation, IDIIS=  1040.
 NGot= 10737418240 LenX= 10285402051 LenY= 10285158509
 Requested convergence on RMS density matrix=1.00D-08 within 300 cycles.
 Requested convergence on MAX density matrix=1.00D-06.
 Requested convergence on             energy=1.00D-06.
 Virtual orbitals will be shifted by   0.200 hartree.
 No special actions if energy rises.

 Cycle   1  Pass 1  IDiag  1:
 Density matrix breaks symmetry, PCut= 1.00D-07
 Density has only Abelian symmetry.
 E= -103.018766712687    
 DIIS: error= 5.76D+00 at cycle   1 NSaved=   1.
 NSaved= 1 IEnMin= 1 EnMin= -103.018766712687     IErMin= 1 ErrMin= 5.76D+00
 ErrMax= 5.76D+00  0.00D+00 EMaxC= 1.00D-01 BMatC= 3.38D+03 BMatP= 3.38D+03
 IDIUse=3 WtCom= 0.00D+00 WtEn= 1.00D+00
 Coeff-Com:  0.100D+01
 Coeff-En:   0.100D+01
 Coeff:      0.100D+01
 Gap=     0.085 Goal=   None    Shift=    0.200
 GapD=    0.085 DampG=0.500 DampE=0.125 DampFc=0.1250 IDamp=-1.
 Damping current iteration by 1.25D-01
 RMSDP=4.46D-03 MaxDP=3.57D-01              OVMax= 3.45D-02

 Cycle   2  Pass 1  IDiag  1:
 Density matrix breaks symmetry, PCut= 1.00D-07
 Density has only Abelian symmetry.
 E= -103.080046634896     Delta-E=       -0.061279922210 Rises=F Damp=T
 DIIS: error= 5.04D+00 at cycle   2 NSaved=   2.
 NSaved= 2 IEnMin= 2 EnMin= -103.080046634896     IErMin= 2 ErrMin= 5.04D+00
 ErrMax= 5.04D+00  0.00D+00 EMaxC= 1.00D-01 BMatC= 2.58D+03 BMatP= 3.38D+03
 IDIUse=3 WtCom= 0.00D+00 WtEn= 1.00D+00
 Coeff-Com: -0.700D+01 0.800D+01
 Coeff-En:   0.000D+00 0.100D+01
 Coeff:      0.000D+00 0.100D+01
 Gap=     0.105 Goal=   None    Shift=    0.200
 RMSDP=3.91D-03 MaxDP=3.14D-01 DE=-6.13D-02 OVMax= 1.71D-03

 Cycle   3  Pass 1  IDiag  1:
 Density matrix breaks symmetry, PCut= 1.00D-07
 Density has only Abelian symmetry.
 E= -103.516815208848     Delta-E=       -0.436768573951 Rises=F Damp=F
 DIIS: error= 6.59D-03 at cycle   3 NSaved=   3.
 NSaved= 3 IEnMin= 3 EnMin= -103.516815208848     IErMin= 3 ErrMin= 6.59D-03
 ErrMax= 6.59D-03  0.00D+00 EMaxC= 1.00D-01 BMatC= 5.44D-03 BMatP= 2.58D+03
 IDIUse=3 WtCom= 9.34D-01 WtEn= 6.59D-02
 Coeff-Com: -0.187D+01 0.214D+01 0.733D+00
 Coeff-En:   0.000D+00 0.000D+00 0.100D+01
 Coeff:     -0.175D+01 0.200D+01 0.750D+00
 Gap=     0.092 Goal=   None    Shift=    0.200
 RMSDP=9.73D-05 MaxDP=5.49D-03 DE=-4.37D-01 OVMax= 6.42D-03

 Cycle   4  Pass 1  IDiag  1:
 Density matrix breaks symmetry, PCut= 1.00D-07
 Density has only Abelian symmetry.
 E= -103.516850464825     Delta-E=       -0.000035255977 Rises=F Damp=F
 DIIS: error= 4.25D-03 at cycle   4 NSaved=   4.
 NSaved= 4 IEnMin= 4 EnMin= -103.516850464825     IErMin= 4 ErrMin= 4.25D-03
 ErrMax= 4.25D-03  0.00D+00 EMaxC= 1.00D-01 BMatC= 1.64D-03 BMatP= 5.44D-03
 IDIUse=3 WtCom= 9.58D-01 WtEn= 4.25D-02
 Coeff-Com: -0.171D+01 0.196D+01-0.213D+00 0.968D+00
 Coeff-En:   0.000D+00 0.000D+00 0.444D+00 0.556D+00
 Coeff:     -0.164D+01 0.187D+01-0.185D+00 0.951D+00
 Gap=     0.086 Goal=   None    Shift=    0.200
 RMSDP=2.48D-05 MaxDP=1.62D-03 DE=-3.53D-05 OVMax= 4.00D-03

 Cycle   5  Pass 1  IDiag  1:
 Density matrix breaks symmetry, PCut= 1.00D-07
 Density has only Abelian symmetry.
 E= -103.516990598819     Delta-E=       -0.000140133994 Rises=F Damp=F
 DIIS: error= 3.13D-03 at cycle   5 NSaved=   5.
 NSaved= 5 IEnMin= 5 EnMin= -103.516990598819     IErMin= 5 ErrMin= 3.13D-03
 ErrMax= 3.13D-03  0.00D+00 EMaxC= 1.00D-01 BMatC= 1.23D-03 BMatP= 1.64D-03
 IDIUse=3 WtCom= 9.69D-01 WtEn= 3.13D-02
 Coeff-Com: -0.156D+01 0.179D+01-0.303D+00 0.379D+00 0.701D+00
 Coeff-En:   0.000D+00 0.000D+00 0.000D+00 0.504D-01 0.950D+00
 Coeff:     -0.151D+01 0.173D+01-0.294D+00 0.369D+00 0.709D+00
 Gap=     0.090 Goal=   None    Shift=    0.200
 RMSDP=1.35D-05 MaxDP=1.21D-03 DE=-1.40D-04 OVMax= 8.88D-04

 Cycle   6  Pass 1  IDiag  1:
 Density matrix breaks symmetry, PCut= 1.00D-07
 Density has only Abelian symmetry.
 E= -103.516997572036     Delta-E=       -0.000006973217 Rises=F Damp=F
 DIIS: error= 2.90D-03 at cycle   6 NSaved=   6.
 NSaved= 6 IEnMin= 6 EnMin= -103.516997572036     IErMin= 6 ErrMin= 2.90D-03
 ErrMax= 2.90D-03  0.00D+00 EMaxC= 1.00D-01 BMatC= 1.00D-03 BMatP= 1.23D-03
 IDIUse=3 WtCom= 9.71D-01 WtEn= 2.90D-02
 Coeff-Com: -0.146D+01 0.166D+01-0.276D+00 0.151D+00 0.229D+00 0.688D+00
 Coeff-En:   0.000D+00 0.000D+00 0.000D+00 0.000D+00 0.197D+00 0.803D+00
 Coeff:     -0.141D+01 0.162D+01-0.268D+00 0.146D+00 0.228D+00 0.692D+00
 Gap=     0.091 Goal=   None    Shift=    0.200
 RMSDP=5.22D-06 MaxDP=4.38D-04 DE=-6.97D-06 OVMax= 4.59D-04

 Cycle   7  Pass 1  IDiag  1:
 Density matrix breaks symmetry, PCut= 1.00D-07
 Density has only Abelian symmetry.
 E= -103.516994438436     Delta-E=        0.000003133600 Rises=F Damp=F
 DIIS: error= 2.64D-03 at cycle   7 NSaved=   7.
 NSaved= 7 IEnMin= 6 EnMin= -103.516997572036     IErMin= 7 ErrMin= 2.64D-03
 ErrMax= 2.64D-03  0.00D+00 EMaxC= 1.00D-01 BMatC= 8.81D-04 BMatP= 1.00D-03
 IDIUse=3 WtCom= 9.74D-01 WtEn= 2.64D-02
 Rare condition: small coef for last iteration:  0.000D+00
 Coeff-Com: -0.133D+01 0.152D+01-0.247D+00 0.520D-02 0.299D-01 0.197D+00
 Coeff-Com:  0.825D+00
 Coeff-En:   0.000D+00 0.000D+00 0.000D+00 0.000D+00 0.383D+00 0.000D+00
 Coeff-En:   0.617D+00
 Coeff:     -0.133D+01 0.152D+01-0.247D+00 0.520D-02 0.299D-01 0.197D+00
 Coeff:      0.825D+00
 Gap=     0.092 Goal=   None    Shift=    0.000
 RMSDP=4.37D-06 MaxDP=3.91D-04 DE= 3.13D-06 OVMax= 5.54D-05

 Cycle   8  Pass 1  IDiag  1:
 Density matrix breaks symmetry, PCut= 1.00D-07
 Density has only Abelian symmetry.
 E= -103.516996735575     Delta-E=       -0.000002297139 Rises=F Damp=F
 DIIS: error= 2.47D-03 at cycle   8 NSaved=   8.
 NSaved= 8 IEnMin= 6 EnMin= -103.516997572036     IErMin= 8 ErrMin= 2.47D-03
 ErrMax= 2.47D-03  0.00D+00 EMaxC= 1.00D-01 BMatC= 7.78D-04 BMatP= 8.81D-04
 IDIUse=3 WtCom= 9.75D-01 WtEn= 2.47D-02
 EnCoef did     7 forward-backward iterations
 Coeff-Com: -0.127D+01 0.145D+01-0.236D+00 0.667D-02 0.268D-01 0.368D+00
 Coeff-Com: -0.284D+00 0.937D+00
 Coeff-En:   0.000D+00 0.000D+00 0.000D+00 0.000D+00 0.310D+00 0.127D-02
 Coeff-En:   0.000D+00 0.688D+00
 Coeff:     -0.124D+01 0.141D+01-0.230D+00 0.651D-02 0.338D-01 0.359D+00
 Coeff:     -0.277D+00 0.931D+00
 Gap=     0.093 Goal=   None    Shift=    0.200
 RMSDP=5.33D-06 MaxDP=4.70D-04 DE=-2.30D-06 OVMax= 1.30D-04

 Cycle   9  Pass 1  IDiag  1:
 Density matrix breaks symmetry, PCut= 1.00D-07
 Density has only Abelian symmetry.
 E= -103.517000628009     Delta-E=       -0.000003892434 Rises=F Damp=F
 DIIS: error= 2.30D-03 at cycle   9 NSaved=   9.
 NSaved= 9 IEnMin= 9 EnMin= -103.517000628009     IErMin= 9 ErrMin= 2.30D-03
 ErrMax= 2.30D-03  0.00D+00 EMaxC= 1.00D-01 BMatC= 6.77D-04 BMatP= 7.78D-04
 IDIUse=3 WtCom= 9.77D-01 WtEn= 2.30D-02
 Coeff-Com: -0.563D+00 0.643D+00-0.108D+00 0.114D+00 0.913D-01 0.131D+01
 Coeff-Com: -0.351D+01-0.510D+01 0.812D+01
 Coeff-En:   0.000D+00 0.000D+00 0.000D+00 0.000D+00 0.160D+00 0.000D+00
 Coeff-En:   0.000D+00 0.000D+00 0.840D+00
 Coeff:     -0.550D+00 0.628D+00-0.106D+00 0.111D+00 0.929D-01 0.128D+01
 Coeff:     -0.343D+01-0.499D+01 0.795D+01
 Gap=     0.101 Goal=   None    Shift=    0.200
 RMSDP=3.71D-05 MaxDP=3.30D-03 DE=-3.89D-06 OVMax= 8.15D-04

 Cycle  10  Pass 1  IDiag  1:
 Density matrix breaks symmetry, PCut= 1.00D-07
 Density has only Abelian symmetry.
 E= -103.517020264027     Delta-E=       -0.000019636018 Rises=F Damp=F
 DIIS: error= 9.67D-04 at cycle  10 NSaved=  10.
 NSaved=10 IEnMin=10 EnMin= -103.517020264027     IErMin=10 ErrMin= 9.67D-04
 ErrMax= 9.67D-04  0.00D+00 EMaxC= 1.00D-01 BMatC= 1.37D-04 BMatP= 6.77D-04
 IDIUse=3 WtCom= 9.90D-01 WtEn= 9.67D-03
 Coeff-Com: -0.272D+00 0.311D+00-0.481D-01-0.772D-01-0.170D+00 0.940D+00
 Coeff-Com:  0.106D+01-0.190D+01-0.461D+00 0.162D+01
 Coeff-En:   0.000D+00 0.000D+00 0.000D+00 0.000D+00 0.000D+00 0.000D+00
 Coeff-En:   0.000D+00 0.000D+00 0.000D+00 0.100D+01
 Coeff:     -0.270D+00 0.308D+00-0.477D-01-0.764D-01-0.168D+00 0.931D+00
 Coeff:      0.105D+01-0.188D+01-0.457D+00 0.161D+01
 Gap=     0.104 Goal=   None    Shift=    0.200
 RMSDP=1.77D-05 MaxDP=1.55D-03 DE=-1.96D-05 OVMax= 5.53D-04

 Cycle  11  Pass 1  IDiag  1:
 Density matrix breaks symmetry, PCut= 1.00D-07
 Density has only Abelian symmetry.
 E= -103.517026421925     Delta-E=       -0.000006157898 Rises=F Damp=F
 DIIS: error= 4.56D-04 at cycle  11 NSaved=  11.
 NSaved=11 IEnMin=11 EnMin= -103.517026421925     IErMin=11 ErrMin= 4.56D-04
 ErrMax= 4.56D-04  0.00D+00 EMaxC= 1.00D-01 BMatC= 3.35D-05 BMatP= 1.37D-04
 IDIUse=3 WtCom= 9.95D-01 WtEn= 4.56D-03
 Coeff-Com: -0.130D+00 0.149D+00-0.220D-01-0.652D-01-0.106D+00 0.371D+00
 Coeff-Com:  0.539D+00 0.277D+01-0.384D+01-0.629D+00 0.196D+01
 Coeff-En:   0.000D+00 0.000D+00 0.000D+00 0.000D+00 0.000D+00 0.000D+00
 Coeff-En:   0.000D+00 0.000D+00 0.000D+00 0.000D+00 0.100D+01
 Coeff:     -0.130D+00 0.148D+00-0.219D-01-0.649D-01-0.106D+00 0.370D+00
 Coeff:      0.537D+00 0.275D+01-0.382D+01-0.626D+00 0.196D+01
 Gap=     0.106 Goal=   None    Shift=    0.200
 RMSDP=9.37D-06 MaxDP=7.94D-04 DE=-6.16D-06 OVMax= 3.49D-04

 Cycle  12  Pass 1  IDiag  1:
 Density matrix breaks symmetry, PCut= 1.00D-07
 Density has only Abelian symmetry.
 E= -103.517028439937     Delta-E=       -0.000002018011 Rises=F Damp=F
 DIIS: error= 2.27D-04 at cycle  12 NSaved=  12.
 NSaved=12 IEnMin=12 EnMin= -103.517028439937     IErMin=12 ErrMin= 2.27D-04
 ErrMax= 2.27D-04  0.00D+00 EMaxC= 1.00D-01 BMatC= 7.92D-06 BMatP= 3.35D-05
 IDIUse=3 WtCom= 9.98D-01 WtEn= 2.27D-03
 Coeff-Com: -0.899D-01 0.103D+00-0.166D-01-0.146D-02-0.116D-01 0.333D+00
 Coeff-Com: -0.797D+00 0.131D+01-0.755D+00-0.310D+00-0.301D+00 0.154D+01
 Coeff-En:   0.000D+00 0.000D+00 0.000D+00 0.000D+00 0.000D+00 0.000D+00
 Coeff-En:   0.000D+00 0.000D+00 0.000D+00 0.000D+00 0.000D+00 0.100D+01
 Coeff:     -0.897D-01 0.102D+00-0.166D-01-0.146D-02-0.115D-01 0.332D+00
 Coeff:     -0.795D+00 0.130D+01-0.753D+00-0.310D+00-0.300D+00 0.154D+01
 Gap=     0.106 Goal=   None    Shift=    0.200
 RMSDP=3.30D-06 MaxDP=2.49D-04 DE=-2.02D-06 OVMax= 1.92D-04

 Cycle  13  Pass 1  IDiag  1:
 Density matrix breaks symmetry, PCut= 1.00D-07
 Density has only Abelian symmetry.
 E= -103.517028978517     Delta-E=       -0.000000538580 Rises=F Damp=F
 DIIS: error= 1.50D-04 at cycle  13 NSaved=  13.
 NSaved=13 IEnMin=13 EnMin= -103.517028978517     IErMin=13 ErrMin= 1.50D-04
 ErrMax= 1.50D-04  0.00D+00 EMaxC= 1.00D-01 BMatC= 3.70D-06 BMatP= 7.92D-06
 IDIUse=3 WtCom= 9.98D-01 WtEn= 1.50D-03
 Coeff-Com: -0.324D-01 0.370D-01-0.632D-02 0.889D-02 0.791D-02 0.167D+00
 Coeff-Com: -0.653D+00 0.320D+00 0.163D+00 0.353D+00-0.121D+01 0.501D+00
 Coeff-Com:  0.135D+01
 Coeff-En:   0.000D+00 0.000D+00 0.000D+00 0.000D+00 0.000D+00 0.000D+00
 Coeff-En:   0.000D+00 0.000D+00 0.000D+00 0.000D+00 0.000D+00 0.000D+00
 Coeff-En:   0.100D+01
 Coeff:     -0.323D-01 0.370D-01-0.631D-02 0.887D-02 0.790D-02 0.167D+00
 Coeff:     -0.652D+00 0.320D+00 0.162D+00 0.352D+00-0.121D+01 0.501D+00
 Coeff:      0.135D+01
 Gap=     0.107 Goal=   None    Shift=    0.200
 RMSDP=3.50D-06 MaxDP=2.92D-04 DE=-5.39D-07 OVMax= 1.39D-04

 Cycle  14  Pass 1  IDiag  1:
 Density matrix breaks symmetry, PCut= 1.00D-07
 Density has only Abelian symmetry.
 E= -103.517029229660     Delta-E=       -0.000000251144 Rises=F Damp=F
 DIIS: error= 6.26D-05 at cycle  14 NSaved=  14.
 NSaved=14 IEnMin=14 EnMin= -103.517029229660     IErMin=14 ErrMin= 6.26D-05
 ErrMax= 6.26D-05  0.00D+00 EMaxC= 1.00D-01 BMatC= 5.21D-07 BMatP= 3.70D-06
 IDIUse=1 WtCom= 1.00D+00 WtEn= 0.00D+00
 Coeff-Com:  0.597D-03-0.682D-03 0.145D-03-0.124D-02-0.418D-02 0.439D-01
 Coeff-Com: -0.179D+00 0.109D+00-0.234D-01 0.534D+00-0.114D+01-0.372D-01
 Coeff-Com:  0.722D+00 0.974D+00
 Coeff:      0.597D-03-0.682D-03 0.145D-03-0.124D-02-0.418D-02 0.439D-01
 Coeff:     -0.179D+00 0.109D+00-0.234D-01 0.534D+00-0.114D+01-0.372D-01
 Coeff:      0.722D+00 0.974D+00
 Gap=     0.107 Goal=   None    Shift=    0.200
 RMSDP=2.18D-06 MaxDP=1.85D-04 DE=-2.51D-07 OVMax= 8.54D-05

 Cycle  15  Pass 1  IDiag  1:
 Density matrix breaks symmetry, PCut= 1.00D-07
 Density has only Abelian symmetry.
 E= -103.517029304353     Delta-E=       -0.000000074693 Rises=F Damp=F
 DIIS: error= 1.33D-05 at cycle  15 NSaved=  15.
 NSaved=15 IEnMin=15 EnMin= -103.517029304353     IErMin=15 ErrMin= 1.33D-05
 ErrMax= 1.33D-05  0.00D+00 EMaxC= 1.00D-01 BMatC= 1.40D-08 BMatP= 5.21D-07
 IDIUse=1 WtCom= 1.00D+00 WtEn= 0.00D+00
 Coeff-Com:  0.579D-02-0.662D-02 0.103D-02 0.149D-02 0.132D-03-0.311D-02
 Coeff-Com:  0.815D-02 0.700D-02 0.399D-01 0.120D-01 0.225D+00-0.335D+00
 Coeff-Com: -0.206D+00-0.241D+01 0.366D+01
 Coeff:      0.579D-02-0.662D-02 0.103D-02 0.149D-02 0.132D-03-0.311D-02
 Coeff:      0.815D-02 0.700D-02 0.399D-01 0.120D-01 0.225D+00-0.335D+00
 Coeff:     -0.206D+00-0.241D+01 0.366D+01
 Gap=     0.107 Goal=   None    Shift=    0.200
 RMSDP=5.86D-07 MaxDP=4.10D-05 DE=-7.47D-08 OVMax= 4.39D-05

 Cycle  16  Pass 1  IDiag  1:
 Density matrix breaks symmetry, PCut= 1.00D-07
 Density has only Abelian symmetry.
 E= -103.517029319769     Delta-E=       -0.000000015416 Rises=F Damp=F
 DIIS: error= 1.54D-05 at cycle  16 NSaved=  16.
 NSaved=16 IEnMin=16 EnMin= -103.517029319769     IErMin=15 ErrMin= 1.33D-05
 ErrMax= 1.54D-05  0.00D+00 EMaxC= 1.00D-01 BMatC= 1.77D-08 BMatP= 1.40D-08
 IDIUse=1 WtCom= 1.00D+00 WtEn= 0.00D+00
 Coeff-Com:  0.201D-02-0.230D-02 0.314D-03 0.196D-02 0.215D-02 0.111D-02
 Coeff-Com: -0.443D-01 0.804D-01-0.343D-01 0.400D-01 0.114D+00-0.182D+00
 Coeff-Com: -0.680D-01-0.740D+00-0.174D+00 0.200D+01
 Coeff:      0.201D-02-0.230D-02 0.314D-03 0.196D-02 0.215D-02 0.111D-02
 Coeff:     -0.443D-01 0.804D-01-0.343D-01 0.400D-01 0.114D+00-0.182D+00
 Coeff:     -0.680D-01-0.740D+00-0.174D+00 0.200D+01
 Gap=     0.107 Goal=   None    Shift=    0.200
 RMSDP=2.12D-07 MaxDP=1.33D-05 DE=-1.54D-08 OVMax= 2.19D-05

 Cycle  17  Pass 1  IDiag  1:
 Density matrix breaks symmetry, PCut= 1.00D-07
 Density has only Abelian symmetry.
 E= -103.517029323871     Delta-E=       -0.000000004102 Rises=F Damp=F
 DIIS: error= 6.16D-06 at cycle  17 NSaved=  17.
 NSaved=17 IEnMin=17 EnMin= -103.517029323871     IErMin=17 ErrMin= 6.16D-06
 ErrMax= 6.16D-06  0.00D+00 EMaxC= 1.00D-01 BMatC= 2.78D-09 BMatP= 1.40D-08
 IDIUse=1 WtCom= 1.00D+00 WtEn= 0.00D+00
 Coeff-Com: -0.670D-03 0.766D-03-0.160D-03 0.118D-02 0.185D-02 0.621D-02
 Coeff-Com: -0.645D-01 0.107D+00-0.813D-01 0.735D-01-0.455D-01-0.356D-01
 Coeff-Com:  0.720D-01 0.403D+00-0.167D+01 0.105D+01 0.118D+01
 Coeff:     -0.670D-03 0.766D-03-0.160D-03 0.118D-02 0.185D-02 0.621D-02
 Coeff:     -0.645D-01 0.107D+00-0.813D-01 0.735D-01-0.455D-01-0.356D-01
 Coeff:      0.720D-01 0.403D+00-0.167D+01 0.105D+01 0.118D+01
 Gap=     0.107 Goal=   None    Shift=    0.200
 RMSDP=1.68D-07 MaxDP=1.24D-05 DE=-4.10D-09 OVMax= 1.18D-05

 Cycle  18  Pass 1  IDiag  1:
 Density matrix breaks symmetry, PCut= 1.00D-07
 Density has only Abelian symmetry.
 E= -103.517029325048     Delta-E=       -0.000000001177 Rises=F Damp=F
 DIIS: error= 2.37D-06 at cycle  18 NSaved=  18.
 NSaved=18 IEnMin=18 EnMin= -103.517029325048     IErMin=18 ErrMin= 2.37D-06
 ErrMax= 2.37D-06  0.00D+00 EMaxC= 1.00D-01 BMatC= 5.25D-10 BMatP= 2.78D-09
 IDIUse=1 WtCom= 1.00D+00 WtEn= 0.00D+00
 Coeff-Com: -0.706D-04 0.807D-04-0.191D-04 0.213D-03 0.156D-03 0.342D-02
 Coeff-Com: -0.167D-01 0.253D-01-0.183D-01 0.132D-01-0.661D-02-0.392D-02
 Coeff-Com:  0.179D-01-0.138D+00 0.328D+00-0.452D+00-0.623D+00 0.187D+01
 Coeff:     -0.706D-04 0.807D-04-0.191D-04 0.213D-03 0.156D-03 0.342D-02
 Coeff:     -0.167D-01 0.253D-01-0.183D-01 0.132D-01-0.661D-02-0.392D-02
 Coeff:      0.179D-01-0.138D+00 0.328D+00-0.452D+00-0.623D+00 0.187D+01
 Gap=     0.107 Goal=   None    Shift=    0.200
 RMSDP=7.91D-08 MaxDP=6.22D-06 DE=-1.18D-09 OVMax= 6.57D-06

 Cycle  19  Pass 1  IDiag  1:
 Density matrix breaks symmetry, PCut= 1.00D-07
 Density has only Abelian symmetry.
 E= -103.517029325433     Delta-E=       -0.000000000385 Rises=F Damp=F
 DIIS: error= 1.06D-06 at cycle  19 NSaved=  19.
 NSaved=19 IEnMin=19 EnMin= -103.517029325433     IErMin=19 ErrMin= 1.06D-06
 ErrMax= 1.06D-06  0.00D+00 EMaxC= 1.00D-01 BMatC= 1.16D-10 BMatP= 5.25D-10
 IDIUse=1 WtCom= 1.00D+00 WtEn= 0.00D+00
 Coeff-Com:  0.105D-03-0.120D-03 0.180D-04 0.520D-04-0.109D-03 0.200D-02
 Coeff-Com: -0.432D-02 0.120D-02 0.324D-02-0.492D-02 0.564D-02 0.473D-02
 Coeff-Com:  0.330D-02-0.230D+00 0.613D+00-0.567D+00-0.714D+00 0.113D+01
 Coeff-Com:  0.757D+00
 Coeff:      0.105D-03-0.120D-03 0.180D-04 0.520D-04-0.109D-03 0.200D-02
 Coeff:     -0.432D-02 0.120D-02 0.324D-02-0.492D-02 0.564D-02 0.473D-02
 Coeff:      0.330D-02-0.230D+00 0.613D+00-0.567D+00-0.714D+00 0.113D+01
 Coeff:      0.757D+00
 Gap=     0.107 Goal=   None    Shift=    0.200
 RMSDP=3.00D-08 MaxDP=2.41D-06 DE=-3.85D-10 OVMax= 3.57D-06

 Cycle  20  Pass 1  IDiag  1:
 Density matrix breaks symmetry, PCut= 1.00D-07
 Density has only Abelian symmetry.
 E= -103.517029325564     Delta-E=       -0.000000000130 Rises=F Damp=F
 DIIS: error= 6.73D-07 at cycle  20 NSaved=  20.
 NSaved=20 IEnMin=20 EnMin= -103.517029325564     IErMin=20 ErrMin= 6.73D-07
 ErrMax= 6.73D-07  0.00D+00 EMaxC= 1.00D-01 BMatC= 4.20D-11 BMatP= 1.16D-10
 IDIUse=1 WtCom= 1.00D+00 WtEn= 0.00D+00
 Coeff-Com:  0.760D-04-0.868D-04 0.132D-04 0.334D-04-0.456D-04 0.865D-03
 Coeff-Com: -0.170D-02 0.718D-03 0.126D-02-0.212D-02 0.408D-02 0.771D-03
 Coeff-Com:  0.386D-02-0.134D+00 0.323D+00-0.292D+00-0.351D+00 0.551D+00
 Coeff-Com: -0.157D+00 0.105D+01
 Coeff:      0.760D-04-0.868D-04 0.132D-04 0.334D-04-0.456D-04 0.865D-03
 Coeff:     -0.170D-02 0.718D-03 0.126D-02-0.212D-02 0.408D-02 0.771D-03
 Coeff:      0.386D-02-0.134D+00 0.323D+00-0.292D+00-0.351D+00 0.551D+00
 Coeff:     -0.157D+00 0.105D+01
 Gap=     0.107 Goal=   None    Shift=    0.200
 RMSDP=1.54D-08 MaxDP=1.59D-06 DE=-1.30D-10 OVMax= 2.31D-06

 Cycle  21  Pass 1  IDiag  1:
 Density matrix breaks symmetry, PCut= 1.00D-07
 Density has only Abelian symmetry.
 E= -103.517029325606     Delta-E=       -0.000000000043 Rises=F Damp=F
 DIIS: error= 4.19D-07 at cycle  21 NSaved=  20.
 NSaved=20 IEnMin=20 EnMin= -103.517029325606     IErMin=20 ErrMin= 4.19D-07
 ErrMax= 4.19D-07  0.00D+00 EMaxC= 1.00D-01 BMatC= 1.48D-11 BMatP= 4.20D-11
 IDIUse=1 WtCom= 1.00D+00 WtEn= 0.00D+00
 Coeff-Com: -0.440D-10-0.634D-06 0.210D-04 0.336D-04-0.800D-04-0.247D-03
 Coeff-Com:  0.162D-02-0.171D-02 0.156D-02 0.621D-03-0.271D-02 0.487D-02
 Coeff-Com: -0.171D-01 0.121D-02-0.349D-03 0.234D-01-0.283D-01-0.408D+00
 Coeff-Com:  0.108D+00 0.132D+01
 Coeff:     -0.440D-10-0.634D-06 0.210D-04 0.336D-04-0.800D-04-0.247D-03
 Coeff:      0.162D-02-0.171D-02 0.156D-02 0.621D-03-0.271D-02 0.487D-02
 Coeff:     -0.171D-01 0.121D-02-0.349D-03 0.234D-01-0.283D-01-0.408D+00
 Coeff:      0.108D+00 0.132D+01
 Gap=     0.107 Goal=   None    Shift=    0.200
 RMSDP=9.66D-09 MaxDP=1.15D-06 DE=-4.29D-11 OVMax= 1.20D-06

 Cycle  22  Pass 1  IDiag  1:
 Density matrix breaks symmetry, PCut= 1.00D-07
 Density has only Abelian symmetry.
 E= -103.517029325620     Delta-E=       -0.000000000014 Rises=F Damp=F
 DIIS: error= 1.86D-07 at cycle  22 NSaved=  20.
 NSaved=20 IEnMin=20 EnMin= -103.517029325620     IErMin=20 ErrMin= 1.86D-07
 ErrMax= 1.86D-07  0.00D+00 EMaxC= 1.00D-01 BMatC= 4.12D-12 BMatP= 1.48D-11
 IDIUse=1 WtCom= 1.00D+00 WtEn= 0.00D+00
 Large coefficients: NSaved= 20 BigCof=    0.00 CofMax=   10.00 Det=-6.19D-15
 Inversion failed.  Reducing to 19 matrices.
 Large coefficients: NSaved= 19 BigCof=    0.00 CofMax=   10.00 Det=-6.20D-15
 Inversion failed.  Reducing to 18 matrices.
 Large coefficients: NSaved= 18 BigCof=    0.00 CofMax=   10.00 Det=-6.20D-15
 Inversion failed.  Reducing to 17 matrices.
 Large coefficients: NSaved= 17 BigCof=    0.00 CofMax=   10.00 Det=-6.37D-15
 Inversion failed.  Reducing to 16 matrices.
 Large coefficients: NSaved= 16 BigCof=    0.00 CofMax=   10.00 Det=-6.38D-15
 Inversion failed.  Reducing to 15 matrices.
 Coeff-Com: -0.180D-04-0.362D-03 0.167D-02-0.122D-02-0.171D-02 0.432D-02
 Coeff-Com: -0.410D-02-0.778D-02 0.709D-02 0.268D-01-0.454D-01-0.206D+00
 Coeff-Com: -0.961D-01 0.289D+00 0.103D+01
 Coeff:     -0.180D-04-0.362D-03 0.167D-02-0.122D-02-0.171D-02 0.432D-02
 Coeff:     -0.410D-02-0.778D-02 0.709D-02 0.268D-01-0.454D-01-0.206D+00
 Coeff:     -0.961D-01 0.289D+00 0.103D+01
 Gap=     0.107 Goal=   None    Shift=    0.200
 RMSDP=5.58D-09 MaxDP=5.40D-07 DE=-1.40D-11 OVMax= 7.15D-07

 Density matrix breaks symmetry, PCut= 1.00D-07
 Density has only Abelian symmetry.
 SCF Done:  E(ROHF) =  -103.517029326     A.U. after   22 cycles
            NFock= 22  Conv=0.56D-08     -V/T= 2.8393
 <Sx>= 0.0000 <Sy>= 0.0000 <Sz>= 2.5000 <S**2>= 8.7500 S= 2.5000
 <L.S>=  0.00000000000    
 KE= 5.627945006811D+01 PE=-2.365146155187D+02 EE= 7.671813612495D+01
 Annihilation of the first spin contaminant:
 S**2 before annihilation     8.7500,   after     8.7500
 Leave Link  502 at Mon Mar 12 14:17:17 2018, MaxMem= 10737418240 cpu:            7709.9 elap:             485.1
 (Enter /home1/apps/gaussian/16rA.03/g16/l801.exe)
 Windowed orbitals will be sorted by symmetry type.
 Density matrix breaks symmetry, PCut= 1.00D-07
 Density has only Abelian symmetry.
 GenMOA:  NOpAll= 48 NOp2=8 NOpUse=  8 JSym2X=1
 FoFJK:  IHMeth= 1 ICntrl=       0 DoSepK=F KAlg= 0 I1Cent=           0 FoldK=F
 IRaf=         0 NMat=       1 IRICut=       1 DoRegI=T DoRafI=F ISym2E= 1 IDoP0=0 IntGTp=1.
 FoFCou: FMM=F IPFlag=           0 FMFlag=      100000 FMFlg1=           0
         NFxFlg=           0 DoJE=F BraDBF=F KetDBF=F FulRan=T
         wScrn=  0.000000 ICntrl=         0 IOpCl=  1 I1Cent=           0 NGrid=           0
         NMat0=    1 NMatS0=      1 NMatT0=    0 NMatD0=    1 NMtDS0=    0 NMtDT0=    0
 Petite list used in FoFCou.
 <Sx>= 0.0000 <Sy>= 0.0000 <Sz>= 2.5000 <S**2>= 8.7500 S= 2.5000
 Range of M.O.s used for correlation:     1   340
 NBasis=   345 NAE=    10 NBE=     5 NFC=     0 NFV=     0
 NROrb=    340 NOA=    10 NOB=     5 NVA=   330 NVB=   335

 **** Warning!!: The largest alpha MO coefficient is  0.17169310D+03


 **** Warning!!: The largest beta MO coefficient is  0.17162735D+03

 Singles contribution to E2=   -0.2646520721D-02
 Leave Link  801 at Mon Mar 12 14:18:18 2018, MaxMem= 10737418240 cpu:             982.5 elap:              61.4
 (Enter /home1/apps/gaussian/16rA.03/g16/l804.exe)
 Open-shell transformation, MDV= 10737418240 ITran=4 ISComp=2.
 Unit  1 TFree=       3532900 TCopy=       2721533.
 Semi-Direct transformation.
 ModeAB=           2 MOrb=            10 LenV=   10733722625
 LASXX=     24492442 LTotXX=    24492442 LenRXX=    24492442
 LTotAB=    24793340 MaxLAS=   414021400 LenRXY=   414021400
 NonZer=   424435600 LenScr=   639151104 LnRSAI=           0
 LnScr1=           0 LExtra=    11262184 Total=   1088927130
 MaxDsk= 13421772800 SrtSym=           F ITran=            4
 DoSDTr:  NPSUse= 16
 JobTyp=1 Pass  1:  I=   1 to  10.
 (rs|ai) integrals will be sorted in core.
 Complete sort for first half transformation.
 First half transformation complete.
 Begin second half transformation for I=  10.
 Begin second half transformation for I=  10.
 Complete sort for second half transformation.
 Second half transformation complete.
 ModeAB=           2 MOrb=             5 LenV=   10733722625
 LASXX=     12442422 LTotXX=    12442422 LenRXX=   207010700
 LTotAB=    11852708 MaxLAS=   207010700 LenRXY=    11852708
 NonZer=   212217800 LenScr=   319576064 LnRSAI=           0
 LnScr1=           0 LExtra=   449776026 Total=    988215498
 MaxDsk= 13421772800 SrtSym=           F ITran=            4
 DoSDTr:  NPSUse= 16
 JobTyp=2 Pass  1:  I=   1 to   5.
 (rs|ai) integrals will be sorted in core.
 Complete sort for first half transformation.
 First half transformation complete.
 Complete sort for second half transformation.
 Second half transformation complete.
 Spin components of T(2) and E(2):
     alpha-alpha T2 =       0.2248801032D-01 E2=     -0.1521381967D+00
     alpha-beta  T2 =       0.6962808626D-01 E2=     -0.4063476560D+00
     beta-beta   T2 =       0.7162516311D-02 E2=     -0.4432703501D-01
 ANorm=    0.1049652509D+01
 E2 =    -0.6054594085D+00 EUMP2 =    -0.10412248873407D+03
 (S**2,0)=  0.87500D+01           (S**2,1)=  0.87500D+01
 E(PUHF)=      -0.10351702933D+03        E(PMP2)=      -0.10412248873D+03
 Leave Link  804 at Mon Mar 12 14:33:47 2018, MaxMem= 10737418240 cpu:           14850.2 elap:             928.6
 (Enter /home1/apps/gaussian/16rA.03/g16/l913.exe)
 CIDS:  MDV= 10737418240.
 IFCWin=0 IBDFC=1 NFBD=     0     0 NFCmp=     0     0 NFFFC=     0     0
 Using original routines for 1st iteration.
 Using DD4UQ or CC4UQ for 2nd and later iterations.
 Keep R2 and R3 ints in memory in symmetry-blocked form, NReq=2007041065.
 FoFCou: FMM=F IPFlag=           0 FMFlag=           0 FMFlg1=           0
         NFxFlg=           0 DoJE=F BraDBF=F KetDBF=F FulRan=T
         wScrn=  0.000000 ICntrl=       600 IOpCl=  0 I1Cent=           0 NGrid=           0
         NMat0=    1 NMatS0=  59685 NMatT0=    0 NMatD0=    1 NMtDS0=    0 NMtDT0=    0
 Petite list used in FoFCou.
 CIDS: In Core Option IDoMem=           1.
 CCSD(T)
 =======
 Iterations= 150 Convergence= 0.100D-06
 Produce multiple copies of IABC intergrals
 Iteration Nr.   1
 **********************
 DD1Dir will call FoFMem   1 times, MxPair=       156
 NAB=    50 NAA=    45 NBB=    10.
 DD1Dir will call FoFMem   1 times, MxPair=       156
 NAB=    50 NAA=    45 NBB=    10.
 MP4(R+Q)=  0.69884983D-02
 Maximum subspace dimension=  5
 A-vector RMS=  1.9286166D-04 Max=  4.6818913D-03 conv= 1.00D-05.
 RLE energy=       -0.5956064535
 E3=        0.29240990D-02        EROMP3=      -0.10411956464D+03
 E4(SDQ)=  -0.21103360D-02        ROMP4(SDQ)=  -0.10412167497D+03
 VARIATIONAL ENERGIES WITH THE FIRST-ORDER WAVEFUNCTION:
 DE(Corr)= -0.59544169     E(Corr)=     -104.11247101    
 NORM(A)=   0.10453805D+01
 Iteration Nr.   2
 **********************
 DD1Dir will call FoFMem   1 times, MxPair=       156
 NAB=    50 NAA=    45 NBB=    10.
 A-vector RMS=  1.9654928D-03 Max=  3.6251750D-02 conv= 1.00D-05.
 RLE energy=       -0.5947214336
 DE(Corr)= -0.59251410     E(CORR)=     -104.10954342     Delta= 2.93D-03
 NORM(A)=   0.10468751D+01
 Iteration Nr.   3
 **********************
 DD1Dir will call FoFMem   1 times, MxPair=       156
 NAB=    50 NAA=    45 NBB=    10.
 A-vector RMS=  1.5107556D-03 Max=  2.9044108D-02 conv= 1.00D-05.
 RLE energy=       -0.5999415223
 DE(Corr)= -0.59546660     E(CORR)=     -104.11249593     Delta=-2.95D-03
 NORM(A)=   0.10522468D+01
 Iteration Nr.   4
 **********************
 DD1Dir will call FoFMem   1 times, MxPair=       156
 NAB=    50 NAA=    45 NBB=    10.
 A-vector RMS=  1.0487574D-03 Max=  1.9425327D-02 conv= 1.00D-05.
 RLE energy=       -0.6066479126
 DE(Corr)= -0.59864389     E(CORR)=     -104.11567321     Delta=-3.18D-03
 NORM(A)=   0.10706351D+01
 Iteration Nr.   5
 **********************
 DD1Dir will call FoFMem   1 times, MxPair=       156
 NAB=    50 NAA=    45 NBB=    10.
 A-vector RMS=  3.6800065D-04 Max=  7.0036525D-03 conv= 1.00D-05.
 RLE energy=       -0.6051089973
 DE(Corr)= -0.60712827     E(CORR)=     -104.12415759     Delta=-8.48D-03
 NORM(A)=   0.10661311D+01
 Iteration Nr.   6
 **********************
 DD1Dir will call FoFMem   1 times, MxPair=       156
 NAB=    50 NAA=    45 NBB=    10.
 A-vector RMS=  4.6641059D-05 Max=  1.0082528D-03 conv= 1.00D-05.
 RLE energy=       -0.6048915069
 DE(Corr)= -0.60520812     E(CORR)=     -104.12223744     Delta= 1.92D-03
 NORM(A)=   0.10654029D+01
 Iteration Nr.   7
 **********************
 DD1Dir will call FoFMem   1 times, MxPair=       156
 NAB=    50 NAA=    45 NBB=    10.
 A-vector RMS=  5.4731217D-06 Max=  1.0680901D-04 conv= 1.00D-05.
 RLE energy=       -0.6048868034
 DE(Corr)= -0.60488550     E(CORR)=     -104.12191483     Delta= 3.23D-04
 NORM(A)=   0.10654281D+01
 Iteration Nr.   8
 **********************
 DD1Dir will call FoFMem   1 times, MxPair=       156
 NAB=    50 NAA=    45 NBB=    10.
 A-vector RMS=  3.8261668D-06 Max=  8.4978976D-05 conv= 1.00D-05.
 RLE energy=       -0.6048924879
 DE(Corr)= -0.60489792     E(CORR)=     -104.12192725     Delta=-1.24D-05
 NORM(A)=   0.10653943D+01
 Iteration Nr.   9
 **********************
 DD1Dir will call FoFMem   1 times, MxPair=       156
 NAB=    50 NAA=    45 NBB=    10.
 A-vector RMS=  1.9205472D-06 Max=  2.5924276D-05 conv= 1.00D-05.
 RLE energy=       -0.6048929108
 DE(Corr)= -0.60488947     E(CORR)=     -104.12191880     Delta= 8.45D-06
 NORM(A)=   0.10653972D+01
 Iteration Nr.  10
 **********************
 DD1Dir will call FoFMem   1 times, MxPair=       156
 NAB=    50 NAA=    45 NBB=    10.
 A-vector RMS=  1.1798741D-06 Max=  1.7394610D-05 conv= 1.00D-05.
 RLE energy=       -0.6048925550
 DE(Corr)= -0.60489286     E(CORR)=     -104.12192219     Delta=-3.39D-06
 NORM(A)=   0.10653945D+01
 Iteration Nr.  11
 **********************
 DD1Dir will call FoFMem   1 times, MxPair=       156
 NAB=    50 NAA=    45 NBB=    10.
 A-vector RMS=  4.3352014D-07 Max=  4.4679018D-06 conv= 1.00D-05.
 RLE energy=       -0.6048914498
 DE(Corr)= -0.60489144     E(CORR)=     -104.12192077     Delta= 1.42D-06
 NORM(A)=   0.10653942D+01
 Iteration Nr.  12
 **********************
 DD1Dir will call FoFMem   1 times, MxPair=       156
 NAB=    50 NAA=    45 NBB=    10.
 A-vector RMS=  9.3608471D-08 Max=  2.2088883D-06 conv= 1.00D-05.
 RLE energy=       -0.6048915276
 DE(Corr)= -0.60489158     E(CORR)=     -104.12192091     Delta=-1.36D-07
 NORM(A)=   0.10653946D+01
 Iteration Nr.  13
 **********************
 DD1Dir will call FoFMem   1 times, MxPair=       156
 NAB=    50 NAA=    45 NBB=    10.
 A-vector RMS=  7.8174415D-08 Max=  1.2597067D-06 conv= 1.00D-05.
 RLE energy=       -0.6048916036
 DE(Corr)= -0.60489154     E(CORR)=     -104.12192087     Delta= 3.98D-08
 NORM(A)=   0.10653950D+01
 CI/CC converged in   13 iterations to DelEn= 3.98D-08 Conv= 1.00D-07 ErrA1= 7.82D-08 Conv= 1.00D-05
 Wavefunction amplitudes converged. E(Corr)=     -104.12192087    
 Largest amplitude= 7.54D-02
 Time for triples=    23922.68 seconds.
 T4(CCSD)= -0.19206328D-01
 T5(CCSD)=  0.51651348D-03
 CCSD(T)= -0.10414061068D+03
 Discarding MO integrals.
 Leave Link  913 at Mon Mar 12 15:03:30 2018, MaxMem= 10737418240 cpu:           28452.1 elap:            1782.3
 (Enter /home1/apps/gaussian/16rA.03/g16/l601.exe)
 Copying SCF densities to generalized density rwf, IOpCl= 0 IROHF=1.
 SCF density gives NOpUse=  8 NOpAll= 48.
 Marking SCF density as not fully symmetric.

 **********************************************************************

            Population analysis using the SCF density.

 **********************************************************************

 Orbital symmetries:
       Occupied  (A1G) (T1U) (T1U) (T1U) (A1G) (T2G) (EG) (T2G)
                 (T2G) (EG)
       Virtual   (T1U) (T1U) (T1U) (A1G) (T2G) (EG) (T2G) (EG)
                 (T2G) (T1U) (T1U) (T1U) (A1G) (EG) (T2G) (T2G)
                 (T2G) (EG) (T1U) (T1U) (T1U) (A1G) (?A) (?A) (A2U)
                 (?A) (?A) (?A) (?A) (EG) (T2G) (T2G) (T2G) (EG)
                 (T1U) (T1U) (T1U) (A1G) (?B) (T2G) (?B) (?B) (?B)
                 (T2G) (?B) (T2G) (?B) (?A) (?A) (?A) (A2U) (?A)
                 (?A) (?A) (EG) (T2G) (T2G) (T2G) (EG) (T1U) (T1U)
                 (T1U) (?C) (?C) (?C) (EU) (?C) (?C) (?C) (EU)
                 (?C) (?C) (?C) (A1G) (T2G) (EG) (T2G) (T2G) (EG)
                 (?B) (T2G) (?B) (?B) (T2G) (?B) (T2G) (?B) (?B)
                 (?A) (?A) (?A) (A2U) (?A) (?A) (?A) (T1U) (T1U)
                 (T1U) (T2G) (EG) (T2G) (T2G) (EG) (?D) (?D) (?D)
                 (EU) (?D) (?D) (?D) (EU) (?D) (?D) (?D) (A1G)
                 (?A) (?A) (?A) (A2U) (?A) (?A) (?A) (?B) (T2G)
                 (?B) (?B) (T2G) (?B) (?B) (T2G) (?B) (?E) (?F)
                 (?E) (?E) (?F) (?E) (?E) (?E) (?F) (?E) (?E) (?F)
                 (?E) (T1U) (T1U) (T1U) (EG) (T2G) (EG) (T2G) (T2G)
                 (?A) (?A) (?A) (A2U) (?A) (?A) (?A) (A1G) (?B)
                 (T2G) (?B) (?B) (T2G) (?B) (?B) (T2G) (?B) (?F)
                 (?F) (EU) (?F) (?F) (?F) (?F) (?F) (EU) (?F) (?F)
                 (?F) (?F) (?F) (?F) (?F) (?F) (?F) (?F) (?F) (?F)
                 (?F) (?F) (?F) (T1U) (T1U) (T1U) (T2G) (EG) (T2G)
                 (EG) (T2G) (A1G) (T1U) (T1U) (T1U) (?B) (?B) (?B)
                 (T2G) (?B) (?B) (T2G) (?B) (T2G) (?F) (?F) (EU)
                 (?F) (?F) (?F) (?F) (?F) (EU) (?F) (?F) (T2G)
                 (T2G) (EG) (T2G) (EG) (?A) (?A) (?A) (A2U) (?A)
                 (?A) (?A) (?F) (?F) (?F) (?F) (?F) (?F) (?F) (?F)
                 (?F) (?F) (?F) (?F) (?F) (T1U) (T1U) (T1U) (A1G)
                 (T2G) (T2G) (T2G) (EG) (EG) (T1U) (T1U) (T1U)
                 (A1G) (T2G) (T2G) (T2G) (EG) (EG) (T1U) (T1U)
                 (T1U) (A1G) (T2G) (T2G) (T2G) (EG) (EG) (T1U)
                 (T1U) (T1U) (A1G) (T1U) (T1U) (T1U) (T2G) (T2G)
                 (T2G) (EG) (EG) (A1G) (T1U) (T1U) (T1U) (A1G)
                 (T2G) (T2G) (T2G) (EG) (EG) (T1U) (T1U) (T1U)
                 (A1G) (T1U) (T1U) (T1U) (A1G) (A1G) (T1U) (T1U)
                 (T1U) (A1G) (T1U) (T1U) (T1U) (A1G) (T1U) (T1U)
                 (T1U) (A1G) (A1G) (T1U) (T1U) (T1U) (A1G) (A1G)
                 (A1G) (A1G) (A1G) (A1G)
 The electronic state is 6-A1G.
 Alpha  occ. eigenvalues --   -4.23125  -2.78546  -2.78546  -2.78546  -0.62968
 Alpha  occ. eigenvalues --   -0.62968  -0.62968  -0.62968  -0.62968  -0.26790
 Alpha virt. eigenvalues --    0.01710   0.01710   0.01710   0.02125   0.05597
 Alpha virt. eigenvalues --    0.05597   0.05597   0.05597   0.05597   0.05616
 Alpha virt. eigenvalues --    0.05616   0.05616   0.10441   0.17433   0.17433
 Alpha virt. eigenvalues --    0.17433   0.17433   0.17433   0.18605   0.18605
 Alpha virt. eigenvalues --    0.18605   0.32265   0.34855   0.34855   0.34855
 Alpha virt. eigenvalues --    0.34855   0.34855   0.34855   0.34855   0.45347
 Alpha virt. eigenvalues --    0.45347   0.45347   0.45347   0.45347   0.55119
 Alpha virt. eigenvalues --    0.55119   0.55119   0.86435   0.93685   0.93685
 Alpha virt. eigenvalues --    0.93685   0.93685   0.93685   0.93685   0.93685
 Alpha virt. eigenvalues --    0.93685   0.93685   1.06457   1.06457   1.06457
 Alpha virt. eigenvalues --    1.06457   1.06457   1.06457   1.06457   1.13511
 Alpha virt. eigenvalues --    1.13511   1.13511   1.13511   1.13511   1.55934
 Alpha virt. eigenvalues --    1.55934   1.55934   2.38894   2.38894   2.38894
 Alpha virt. eigenvalues --    2.38894   2.38894   2.38894   2.38894   2.38894
 Alpha virt. eigenvalues --    2.38894   2.38894   2.38894   2.41073   2.68971
 Alpha virt. eigenvalues --    2.68971   2.68971   2.68971   2.68971   2.74401
 Alpha virt. eigenvalues --    2.74401   2.74401   2.74401   2.74401   2.74401
 Alpha virt. eigenvalues --    2.74401   2.74401   2.74401   2.82092   2.82092
 Alpha virt. eigenvalues --    2.82092   2.82092   2.82092   2.82092   2.82092
 Alpha virt. eigenvalues --    4.04199   4.04199   4.04199   5.89838   5.89838
 Alpha virt. eigenvalues --    5.89838   5.89838   5.89838   6.58715   6.58715
 Alpha virt. eigenvalues --    6.58715   6.58715   6.58715   6.58715   6.58715
 Alpha virt. eigenvalues --    6.58715   6.58715   6.58715   6.58715   6.67932
 Alpha virt. eigenvalues --    6.75104   6.75104   6.75104   6.75104   6.75104
 Alpha virt. eigenvalues --    6.75104   6.75104   7.16880   7.16880   7.16880
 Alpha virt. eigenvalues --    7.16880   7.16880   7.16880   7.16880   7.16880
 Alpha virt. eigenvalues --    7.16880   7.26831   7.26831   7.26831   7.26831
 Alpha virt. eigenvalues --    7.26831   7.26831   7.26831   7.26831   7.26831
 Alpha virt. eigenvalues --    7.26831   7.26831   7.26831   7.26831   9.24042
 Alpha virt. eigenvalues --    9.24042   9.24042  11.96177  11.96177  11.96177
 Alpha virt. eigenvalues --   11.96177  11.96177  15.79251  15.79251  15.79251
 Alpha virt. eigenvalues --   15.79251  15.79251  15.79251  15.79251  16.22056
 Alpha virt. eigenvalues --   16.30273  16.30273  16.30273  16.30273  16.30273
 Alpha virt. eigenvalues --   16.30273  16.30273  16.30273  16.30273  16.59510
 Alpha virt. eigenvalues --   16.59510  16.59510  16.59510  16.59510  16.59510
 Alpha virt. eigenvalues --   16.59510  16.59510  16.59510  16.59510  16.59510
 Alpha virt. eigenvalues --   18.58105  18.58105  18.58105  18.58105  18.58105
 Alpha virt. eigenvalues --   18.58105  18.58105  18.58105  18.58105  18.58105
 Alpha virt. eigenvalues --   18.58105  18.58105  18.58105  18.68946  18.68946
 Alpha virt. eigenvalues --   18.68946  22.40103  22.40103  22.40103  22.40103
 Alpha virt. eigenvalues --   22.40103  32.73629  33.95545  33.95545  33.95545
 Alpha virt. eigenvalues --   35.38860  35.38860  35.38860  35.38860  35.38860
 Alpha virt. eigenvalues --   35.38860  35.38860  35.38860  35.38860  38.17547
 Alpha virt. eigenvalues --   38.17547  38.17547  38.17547  38.17547  38.17547
 Alpha virt. eigenvalues --   38.17547  38.17547  38.17547  38.17547  38.17547
 Alpha virt. eigenvalues --   39.62911  39.62911  39.62911  39.62911  39.62911
 Alpha virt. eigenvalues --   40.27521  40.27521  40.27521  40.27521  40.27521
 Alpha virt. eigenvalues --   40.27521  40.27521  44.47309  44.47309  44.47309
 Alpha virt. eigenvalues --   44.47309  44.47309  44.47309  44.47309  44.47309
 Alpha virt. eigenvalues --   44.47309  44.47309  44.47309  44.47309  44.47309
 Alpha virt. eigenvalues --   58.81733  58.81733  58.81733  59.21926  66.92400
 Alpha virt. eigenvalues --   66.92400  66.92400  66.92400  66.92400 101.96898
 Alpha virt. eigenvalues --  101.96898 101.96898 108.76206 119.30672 119.30672
 Alpha virt. eigenvalues --  119.30672 119.30672 119.30672 179.49288 179.49288
 Alpha virt. eigenvalues --  179.49288 198.47284 251.53928 251.53928 251.53928
 Alpha virt. eigenvalues --  251.53928 251.53928 322.48507 322.48507 322.48507
 Alpha virt. eigenvalues --  361.62393 594.39958 594.39958 594.39958 627.26933
 Alpha virt. eigenvalues --  627.26933 627.26933 627.26933 627.26933 665.67109
 Alpha virt. eigenvalues -- 1130.354681130.354681130.354681246.774981952.88886
 Alpha virt. eigenvalues -- 1952.888861952.888861952.888861952.888862232.47921
 Alpha virt. eigenvalues -- 2232.479212232.479212383.283104626.299484626.29948
 Alpha virt. eigenvalues -- 4626.299484658.224279329.84271********************
 Alpha virt. eigenvalues -- **************************************************
 Alpha virt. eigenvalues -- **************************************************
 Alpha virt. eigenvalues -- **************************************************
 Alpha virt. eigenvalues -- **************************************************
     Molecular Orbital Coefficients:
                           1         2         3         4         5
                       (A1G)--O  (T1U)--O  (T1U)--O  (T1U)--O  (A1G)--O
     Eigenvalues --    -4.23125  -2.78546  -2.78546  -2.78546  -0.62968
   1 1   Mn 1S         -0.00000   0.00000   0.00000   0.00000   0.00000
   2        2S          0.00000   0.00000   0.00000   0.00000  -0.00000
   3        3S         -0.00000   0.00000   0.00000   0.00000   0.00000
   4        4S          0.00000   0.00000   0.00000   0.00000  -0.00000
   5        5S         -0.00000   0.00000   0.00000   0.00000   0.00000
   6        6S          0.00000   0.00000   0.00000   0.00000  -0.00000
   7        7S         -0.00000   0.00000   0.00000   0.00000   0.00000
   8        8S          0.00001   0.00000   0.00000   0.00000  -0.00000
   9        9S         -0.00003   0.00000   0.00000   0.00000   0.00001
  10       10S          0.00009   0.00000   0.00000   0.00000  -0.00002
  11       11S         -0.00023   0.00000   0.00000   0.00000   0.00007
  12       12S          0.00061   0.00000   0.00000   0.00000  -0.00017
  13       13S         -0.00151   0.00000   0.00000   0.00000   0.00043
  14       14S          0.00359   0.00000   0.00000   0.00000  -0.00102
  15       15S         -0.00809   0.00000   0.00000   0.00000   0.00235
  16       16S          0.01655   0.00000   0.00000   0.00000  -0.00504
  17       17S         -0.02513   0.00000   0.00000   0.00000   0.00897
  18       18S         -0.01823   0.00000   0.00000   0.00000  -0.00390
  19       19S          0.32580   0.00000   0.00000   0.00000  -0.06037
  20       20S         -0.59494   0.00000   0.00000   0.00000   0.13321
  21       21S          0.49902   0.00000   0.00000   0.00000  -0.10691
  22       22S          0.11917   0.00000   0.00000   0.00000  -0.03281
  23       23S          0.72567   0.00000   0.00000   0.00000  -0.25807
  24       24S          0.15163   0.00000   0.00000   0.00000  -0.16875
  25       25S          0.05804   0.00000   0.00000   0.00000   0.09431
  26       26S         -0.04872   0.00000   0.00000   0.00000   0.44474
  27       27S          0.02546   0.00000   0.00000   0.00000   0.48892
  28       28S         -0.01093   0.00000   0.00000   0.00000   0.14086
  29       29S         -0.43247   0.00000   0.00000   0.00000   0.09271
  30       30S          0.08573   0.00000   0.00000   0.00000  -0.02860
  31       31S          0.00283   0.00000   0.00000   0.00000  -0.00139
  32       32PX         0.00000   0.00000   0.00000   0.00000   0.00000
  33       32PY         0.00000   0.00000   0.00000   0.00000   0.00000
  34       32PZ         0.00000   0.00000   0.00000   0.00000   0.00000
  35       33PX         0.00000   0.00000  -0.00000   0.00000   0.00000
  36       33PY         0.00000   0.00000   0.00000  -0.00000   0.00000
  37       33PZ         0.00000  -0.00000   0.00000   0.00000   0.00000
  38       34PX         0.00000   0.00000   0.00000   0.00000   0.00000
  39       34PY         0.00000   0.00000   0.00000   0.00000   0.00000
  40       34PZ         0.00000   0.00000   0.00000   0.00000   0.00000
  41       35PX         0.00000   0.00000  -0.00001   0.00000   0.00000
  42       35PY         0.00000   0.00000   0.00000  -0.00001   0.00000
  43       35PZ         0.00000  -0.00001   0.00000   0.00000   0.00000
  44       36PX         0.00000   0.00000   0.00004   0.00000   0.00000
  45       36PY         0.00000   0.00000   0.00000   0.00004   0.00000
  46       36PZ         0.00000   0.00004   0.00000   0.00000   0.00000
  47       37PX         0.00000   0.00000  -0.00012   0.00000   0.00000
  48       37PY         0.00000   0.00000   0.00000  -0.00012   0.00000
  49       37PZ         0.00000  -0.00012   0.00000   0.00000   0.00000
  50       38PX         0.00000   0.00000   0.00039   0.00000   0.00000
  51       38PY         0.00000   0.00000   0.00000   0.00039   0.00000
  52       38PZ         0.00000   0.00039   0.00000   0.00000   0.00000
  53       39PX         0.00000   0.00000  -0.00119   0.00000   0.00000
  54       39PY         0.00000   0.00000   0.00000  -0.00119   0.00000
  55       39PZ         0.00000  -0.00119   0.00000   0.00000   0.00000
  56       40PX         0.00000   0.00000   0.00385   0.00000   0.00000
  57       40PY         0.00000   0.00000   0.00000   0.00385   0.00000
  58       40PZ         0.00000   0.00385   0.00000   0.00000   0.00000
  59       41PX         0.00000   0.00000  -0.01372   0.00000   0.00000
  60       41PY         0.00000   0.00000   0.00000  -0.01372   0.00000
  61       41PZ         0.00000  -0.01372   0.00000   0.00000   0.00000
  62       42PX         0.00000   0.00000   0.04821   0.00000   0.00000
  63       42PY         0.00000   0.00000   0.00000   0.04821   0.00000
  64       42PZ         0.00000   0.04821   0.00000   0.00000   0.00000
  65       43PX         0.00000   0.00000  -0.04327   0.00000   0.00000
  66       43PY         0.00000   0.00000   0.00000  -0.04327   0.00000
  67       43PZ         0.00000  -0.04327   0.00000   0.00000   0.00000
  68       44PX         0.00000   0.00000   0.08358   0.00000   0.00000
  69       44PY         0.00000   0.00000   0.00000   0.08358   0.00000
  70       44PZ         0.00000   0.08358   0.00000   0.00000   0.00000
  71       45PX         0.00000   0.00000   0.17303   0.00000   0.00000
  72       45PY         0.00000   0.00000   0.00000   0.17303   0.00000
  73       45PZ         0.00000   0.17303   0.00000   0.00000   0.00000
  74       46PX         0.00000   0.00000   0.40093   0.00000   0.00000
  75       46PY         0.00000   0.00000   0.00000   0.40093   0.00000
  76       46PZ         0.00000   0.40093   0.00000   0.00000   0.00000
  77       47PX         0.00000   0.00000   0.32485   0.00000   0.00000
  78       47PY         0.00000   0.00000   0.00000   0.32485   0.00000
  79       47PZ         0.00000   0.32485   0.00000   0.00000   0.00000
  80       48PX         0.00000   0.00000   0.10652   0.00000   0.00000
  81       48PY         0.00000   0.00000   0.00000   0.10652   0.00000
  82       48PZ         0.00000   0.10652   0.00000   0.00000   0.00000
  83       49PX         0.00000   0.00000   0.00841   0.00000   0.00000
  84       49PY         0.00000   0.00000   0.00000   0.00841   0.00000
  85       49PZ         0.00000   0.00841   0.00000   0.00000   0.00000
  86       50PX         0.00000   0.00000   0.00013   0.00000   0.00000
  87       50PY         0.00000   0.00000   0.00000   0.00013   0.00000
  88       50PZ         0.00000   0.00013   0.00000   0.00000   0.00000
  89       51PX         0.00000   0.00000   0.00019   0.00000   0.00000
  90       51PY         0.00000   0.00000   0.00000   0.00019   0.00000
  91       51PZ         0.00000   0.00019   0.00000   0.00000   0.00000
  92       52PX         0.00000   0.00000  -0.11300   0.00000   0.00000
  93       52PY         0.00000   0.00000   0.00000  -0.11300   0.00000
  94       52PZ         0.00000  -0.11300   0.00000   0.00000   0.00000
  95       53PX         0.00000   0.00000   0.09022   0.00000   0.00000
  96       53PY         0.00000   0.00000   0.00000   0.09022   0.00000
  97       53PZ         0.00000   0.09022   0.00000   0.00000   0.00000
  98       54PX         0.00000   0.00000  -0.00004   0.00000   0.00000
  99       54PY         0.00000   0.00000   0.00000  -0.00004   0.00000
 100       54PZ         0.00000  -0.00004   0.00000   0.00000   0.00000
 101       55D 0        0.00000   0.00000   0.00000   0.00000  -0.00000
 102       55D+1        0.00000   0.00000   0.00000   0.00000   0.00000
 103       55D-1        0.00000   0.00000   0.00000   0.00000   0.00000
 104       55D+2       -0.00000   0.00000   0.00000   0.00000  -0.00000
 105       55D-2        0.00000   0.00000   0.00000   0.00000   0.00000
 106       56D 0       -0.00000   0.00000   0.00000   0.00000   0.00000
 107       56D+1        0.00000   0.00000   0.00000   0.00000   0.00000
 108       56D-1        0.00000   0.00000   0.00000   0.00000   0.00000
 109       56D+2        0.00000   0.00000   0.00000   0.00000   0.00000
 110       56D-2        0.00000   0.00000   0.00000   0.00000   0.00000
 111       57D 0        0.00000   0.00000   0.00000   0.00000  -0.00000
 112       57D+1        0.00000   0.00000   0.00000   0.00000   0.00000
 113       57D-1        0.00000   0.00000   0.00000   0.00000   0.00000
 114       57D+2       -0.00000   0.00000   0.00000   0.00000  -0.00000
 115       57D-2        0.00000   0.00000   0.00000   0.00000   0.00000
 116       58D 0       -0.00000   0.00000   0.00000   0.00000   0.00000
 117       58D+1        0.00000   0.00000   0.00000   0.00000   0.00000
 118       58D-1        0.00000   0.00000   0.00000   0.00000   0.00000
 119       58D+2       -0.00000   0.00000   0.00000   0.00000  -0.00000
 120       58D-2        0.00000   0.00000   0.00000   0.00000   0.00000
 121       59D 0        0.00000   0.00000   0.00000   0.00000  -0.00000
 122       59D+1        0.00000   0.00000   0.00000   0.00000   0.00000
 123       59D-1        0.00000   0.00000   0.00000   0.00000   0.00000
 124       59D+2        0.00000   0.00000   0.00000   0.00000   0.00000
 125       59D-2        0.00000   0.00000   0.00000   0.00000   0.00000
 126       60D 0        0.00000   0.00000   0.00000   0.00000  -0.00000
 127       60D+1        0.00000   0.00000   0.00000   0.00000   0.00000
 128       60D-1        0.00000   0.00000   0.00000   0.00000   0.00000
 129       60D+2        0.00000   0.00000   0.00000   0.00000   0.00000
 130       60D-2        0.00000   0.00000   0.00000   0.00000   0.00000
 131       61D 0        0.00000   0.00000   0.00000   0.00000  -0.00000
 132       61D+1        0.00000   0.00000   0.00000   0.00000   0.00000
 133       61D-1        0.00000   0.00000   0.00000   0.00000   0.00000
 134       61D+2        0.00000   0.00000   0.00000   0.00000   0.00000
 135       61D-2        0.00000   0.00000   0.00000   0.00000   0.00000
 136       62D 0        0.00000   0.00000   0.00000   0.00000   0.00000
 137       62D+1        0.00000   0.00000   0.00000   0.00000   0.00000
 138       62D-1        0.00000   0.00000   0.00000   0.00000   0.00000
 139       62D+2        0.00000   0.00000   0.00000   0.00000   0.00000
 140       62D-2        0.00000   0.00000   0.00000   0.00000   0.00000
 141       63D 0        0.00000   0.00000   0.00000   0.00000  -0.00000
 142       63D+1        0.00000   0.00000   0.00000   0.00000   0.00000
 143       63D-1        0.00000   0.00000   0.00000   0.00000   0.00000
 144       63D+2        0.00000   0.00000   0.00000   0.00000   0.00000
 145       63D-2        0.00000   0.00000   0.00000   0.00000   0.00000
 146       64D 0        0.00000   0.00000   0.00000   0.00000  -0.00000
 147       64D+1        0.00000   0.00000   0.00000   0.00000   0.00000
 148       64D-1        0.00000   0.00000   0.00000   0.00000   0.00000
 149       64D+2        0.00000   0.00000   0.00000   0.00000   0.00000
 150       64D-2        0.00000   0.00000   0.00000   0.00000   0.00000
 151       65D 0        0.00000   0.00000   0.00000   0.00000  -0.00000
 152       65D+1        0.00000   0.00000   0.00000   0.00000   0.00000
 153       65D-1        0.00000   0.00000   0.00000   0.00000   0.00000
 154       65D+2        0.00000   0.00000   0.00000   0.00000   0.00000
 155       65D-2        0.00000   0.00000   0.00000   0.00000   0.00000
 156       66D 0       -0.00000   0.00000   0.00000   0.00000  -0.00000
 157       66D+1        0.00000   0.00000   0.00000   0.00000   0.00000
 158       66D-1        0.00000   0.00000   0.00000   0.00000   0.00000
 159       66D+2       -0.00000   0.00000   0.00000   0.00000   0.00000
 160       66D-2        0.00000   0.00000   0.00000   0.00000   0.00000
 161       67D 0       -0.00000   0.00000   0.00000   0.00000   0.00000
 162       67D+1        0.00000   0.00000   0.00000   0.00000   0.00000
 163       67D-1        0.00000   0.00000   0.00000   0.00000   0.00000
 164       67D+2       -0.00000   0.00000   0.00000   0.00000  -0.00000
 165       67D-2        0.00000   0.00000   0.00000   0.00000   0.00000
 166       68D 0       -0.00000   0.00000   0.00000   0.00000   0.00000
 167       68D+1        0.00000   0.00000   0.00000   0.00000   0.00000
 168       68D-1        0.00000   0.00000   0.00000   0.00000   0.00000
 169       68D+2       -0.00000   0.00000   0.00000   0.00000  -0.00000
 170       68D-2        0.00000   0.00000   0.00000   0.00000   0.00000
 171       69D 0        0.00000   0.00000   0.00000   0.00000   0.00000
 172       69D+1        0.00000   0.00000   0.00000   0.00000   0.00000
 173       69D-1        0.00000   0.00000   0.00000   0.00000   0.00000
 174       69D+2       -0.00000   0.00000   0.00000   0.00000  -0.00000
 175       69D-2        0.00000   0.00000   0.00000   0.00000   0.00000
 176       70F 0        0.00000   0.00000   0.00000   0.00000   0.00000
 177       70F+1        0.00000   0.00000   0.00000   0.00000   0.00000
 178       70F-1        0.00000   0.00000   0.00000   0.00000   0.00000
 179       70F+2        0.00000   0.00000   0.00000   0.00000   0.00000
 180       70F-2        0.00000   0.00000   0.00000   0.00000   0.00000
 181       70F+3        0.00000   0.00000   0.00000   0.00000   0.00000
 182       70F-3        0.00000   0.00000   0.00000   0.00000   0.00000
 183       71F 0        0.00000   0.00000   0.00000   0.00000   0.00000
 184       71F+1        0.00000   0.00000   0.00000   0.00000   0.00000
 185       71F-1        0.00000   0.00000   0.00000   0.00000   0.00000
 186       71F+2        0.00000   0.00000   0.00000   0.00000   0.00000
 187       71F-2        0.00000   0.00000   0.00000   0.00000   0.00000
 188       71F+3        0.00000   0.00000   0.00000   0.00000   0.00000
 189       71F-3        0.00000   0.00000   0.00000   0.00000   0.00000
 190       72F 0        0.00000   0.00000   0.00000   0.00000   0.00000
 191       72F+1        0.00000   0.00000   0.00000   0.00000   0.00000
 192       72F-1        0.00000   0.00000   0.00000   0.00000   0.00000
 193       72F+2        0.00000   0.00000   0.00000   0.00000   0.00000
 194       72F-2        0.00000   0.00000   0.00000   0.00000   0.00000
 195       72F+3        0.00000   0.00000   0.00000   0.00000   0.00000
 196       72F-3        0.00000   0.00000   0.00000   0.00000   0.00000
 197       73F 0        0.00000   0.00000   0.00000   0.00000   0.00000
 198       73F+1        0.00000   0.00000   0.00000   0.00000   0.00000
 199       73F-1        0.00000   0.00000   0.00000   0.00000   0.00000
 200       73F+2        0.00000   0.00000   0.00000   0.00000   0.00000
 201       73F-2        0.00000   0.00000   0.00000   0.00000   0.00000
 202       73F+3        0.00000   0.00000   0.00000   0.00000   0.00000
 203       73F-3        0.00000   0.00000   0.00000   0.00000   0.00000
 204       74F 0        0.00000  -0.00000   0.00000   0.00000   0.00000
 205       74F+1        0.00000   0.00000  -0.00000   0.00000   0.00000
 206       74F-1        0.00000   0.00000   0.00000  -0.00000   0.00000
 207       74F+2        0.00000   0.00000   0.00000   0.00000   0.00000
 208       74F-2        0.00000   0.00000   0.00000   0.00000   0.00000
 209       74F+3        0.00000   0.00000   0.00000   0.00000   0.00000
 210       74F-3        0.00000   0.00000   0.00000  -0.00000   0.00000
 211       75F 0        0.00000   0.00000   0.00000   0.00000   0.00000
 212       75F+1        0.00000   0.00000   0.00000   0.00000   0.00000
 213       75F-1        0.00000   0.00000   0.00000  -0.00000   0.00000
 214       75F+2        0.00000  -0.00000   0.00000   0.00000   0.00000
 215       75F-2        0.00000   0.00000   0.00000   0.00000   0.00000
 216       75F+3        0.00000   0.00000  -0.00000   0.00000   0.00000
 217       75F-3        0.00000   0.00000   0.00000   0.00000   0.00000
 218       76G 0        0.00000   0.00000   0.00000   0.00000  -0.00000
 219       76G+1        0.00000   0.00000   0.00000   0.00000   0.00000
 220       76G-1        0.00000   0.00000   0.00000   0.00000   0.00000
 221       76G+2        0.00000   0.00000   0.00000   0.00000  -0.00000
 222       76G-2        0.00000   0.00000   0.00000   0.00000   0.00000
 223       76G+3        0.00000   0.00000   0.00000   0.00000   0.00000
 224       76G-3        0.00000   0.00000   0.00000   0.00000   0.00000
 225       76G+4       -0.00000   0.00000   0.00000   0.00000  -0.00000
 226       76G-4        0.00000   0.00000   0.00000   0.00000   0.00000
 227       77G 0       -0.00000   0.00000   0.00000   0.00000   0.00000
 228       77G+1        0.00000   0.00000   0.00000   0.00000   0.00000
 229       77G-1        0.00000   0.00000   0.00000   0.00000   0.00000
 230       77G+2       -0.00000   0.00000   0.00000   0.00000  -0.00000
 231       77G-2        0.00000   0.00000   0.00000   0.00000   0.00000
 232       77G+3        0.00000   0.00000   0.00000   0.00000   0.00000
 233       77G-3        0.00000   0.00000   0.00000   0.00000   0.00000
 234       77G+4       -0.00000   0.00000   0.00000   0.00000   0.00000
 235       77G-4        0.00000   0.00000   0.00000   0.00000   0.00000
 236       78G 0        0.00000   0.00000   0.00000   0.00000  -0.00000
 237       78G+1        0.00000   0.00000   0.00000   0.00000   0.00000
 238       78G-1        0.00000   0.00000   0.00000   0.00000   0.00000
 239       78G+2        0.00000   0.00000   0.00000   0.00000   0.00000
 240       78G-2        0.00000   0.00000   0.00000   0.00000   0.00000
 241       78G+3        0.00000   0.00000   0.00000   0.00000   0.00000
 242       78G-3        0.00000   0.00000   0.00000   0.00000   0.00000
 243       78G+4       -0.00000   0.00000   0.00000   0.00000  -0.00000
 244       78G-4        0.00000   0.00000   0.00000   0.00000   0.00000
 245       79G 0       -0.00000   0.00000   0.00000   0.00000  -0.00000
 246       79G+1        0.00000   0.00000   0.00000   0.00000   0.00000
 247       79G-1        0.00000   0.00000   0.00000   0.00000   0.00000
 248       79G+2       -0.00000   0.00000   0.00000   0.00000   0.00000
[...]
 123       59D-1        0.07222   0.07222   0.00000   0.07222
 124       59D+2        0.07222   0.07222   0.00000   0.07222
 125       59D-2        0.07222   0.07222   0.00000   0.07222
 126       60D 0        0.29990   0.29990   0.00000   0.29990
 127       60D+1        0.29990   0.29990   0.00000   0.29990
 128       60D-1        0.29990   0.29990   0.00000   0.29990
 129       60D+2        0.29990   0.29990   0.00000   0.29990
 130       60D-2        0.29990   0.29990   0.00000   0.29990
 131       61D 0        0.26636   0.26636   0.00000   0.26636
 132       61D+1        0.26636   0.26636   0.00000   0.26636
 133       61D-1        0.26636   0.26636   0.00000   0.26636
 134       61D+2        0.26636   0.26636   0.00000   0.26636
 135       61D-2        0.26636   0.26636   0.00000   0.26636
 136       62D 0        0.27912   0.27912  -0.00000   0.27912
 137       62D+1        0.27912   0.27912   0.00000   0.27912
 138       62D-1        0.27912   0.27912   0.00000   0.27912
 139       62D+2        0.27912   0.27912   0.00000   0.27912
 140       62D-2        0.27912   0.27912   0.00000   0.27912
 141       63D 0        0.21997   0.21997   0.00000   0.21997
 142       63D+1        0.21997   0.21997   0.00000   0.21997
 143       63D-1        0.21997   0.21997   0.00000   0.21997
 144       63D+2        0.21997   0.21997   0.00000   0.21997
 145       63D-2        0.21997   0.21997   0.00000   0.21997
 146       64D 0        0.08374   0.08374   0.00000   0.08374
 147       64D+1        0.08374   0.08374   0.00000   0.08374
 148       64D-1        0.08374   0.08374   0.00000   0.08374
 149       64D+2        0.08374   0.08374   0.00000   0.08374
 150       64D-2        0.08374   0.08374   0.00000   0.08374
 151       65D 0        0.01115   0.01115   0.00000   0.01115
 152       65D+1        0.01115   0.01115   0.00000   0.01115
 153       65D-1        0.01115   0.01115   0.00000   0.01115
 154       65D+2        0.01115   0.01115   0.00000   0.01115
 155       65D-2        0.01115   0.01115   0.00000   0.01115
 156       66D 0        0.00003   0.00003   0.00000   0.00003
 157       66D+1        0.00003   0.00003   0.00000   0.00003
 158       66D-1        0.00003   0.00003  -0.00000   0.00003
 159       66D+2        0.00003   0.00003   0.00000   0.00003
 160       66D-2        0.00003   0.00003   0.00000   0.00003
 161       67D 0       -0.14218  -0.14218  -0.00000  -0.14218
 162       67D+1       -0.14218  -0.14218  -0.00000  -0.14218
 163       67D-1       -0.14218  -0.14218  -0.00000  -0.14218
 164       67D+2       -0.14218  -0.14218  -0.00000  -0.14218
 165       67D-2       -0.14218  -0.14218  -0.00000  -0.14218
 166       68D 0       -0.08906  -0.08906  -0.00000  -0.08906
 167       68D+1       -0.08906  -0.08906  -0.00000  -0.08906
 168       68D-1       -0.08906  -0.08906  -0.00000  -0.08906
 169       68D+2       -0.08906  -0.08906  -0.00000  -0.08906
 170       68D-2       -0.08906  -0.08906  -0.00000  -0.08906
 171       69D 0        0.00001   0.00001  -0.00000   0.00001
 172       69D+1        0.00001   0.00001  -0.00000   0.00001
 173       69D-1        0.00001   0.00001   0.00000   0.00001
 174       69D+2        0.00001   0.00001   0.00000   0.00001
 175       69D-2        0.00001   0.00001   0.00000   0.00001
 176       70F 0        0.00000   0.00000   0.00000  -0.00000
 177       70F+1        0.00000   0.00000   0.00000  -0.00000
 178       70F-1        0.00000   0.00000   0.00000  -0.00000
 179       70F+2        0.00000   0.00000   0.00000  -0.00000
 180       70F-2        0.00000   0.00000   0.00000  -0.00000
 181       70F+3        0.00000   0.00000   0.00000  -0.00000
 182       70F-3        0.00000   0.00000   0.00000  -0.00000
 183       71F 0        0.00000   0.00000   0.00000  -0.00000
 184       71F+1        0.00000   0.00000   0.00000  -0.00000
 185       71F-1        0.00000   0.00000   0.00000  -0.00000
 186       71F+2        0.00000   0.00000   0.00000  -0.00000
 187       71F-2        0.00000   0.00000   0.00000  -0.00000
 188       71F+3        0.00000   0.00000   0.00000  -0.00000
 189       71F-3        0.00000   0.00000   0.00000  -0.00000
 190       72F 0        0.00000   0.00000   0.00000  -0.00000
 191       72F+1        0.00000   0.00000   0.00000  -0.00000
 192       72F-1        0.00000   0.00000   0.00000  -0.00000
 193       72F+2        0.00000   0.00000   0.00000  -0.00000
 194       72F-2        0.00000   0.00000   0.00000  -0.00000
 195       72F+3        0.00000   0.00000   0.00000  -0.00000
 196       72F-3        0.00000   0.00000   0.00000  -0.00000
 197       73F 0        0.00000   0.00000   0.00000  -0.00000
 198       73F+1        0.00000   0.00000   0.00000  -0.00000
 199       73F-1        0.00000   0.00000   0.00000  -0.00000
 200       73F+2        0.00000   0.00000   0.00000  -0.00000
 201       73F-2        0.00000   0.00000   0.00000  -0.00000
 202       73F+3        0.00000   0.00000   0.00000  -0.00000
 203       73F-3        0.00000   0.00000   0.00000  -0.00000
 204       74F 0       -0.00000  -0.00000  -0.00000   0.00000
 205       74F+1       -0.00000  -0.00000  -0.00000   0.00000
 206       74F-1       -0.00000  -0.00000  -0.00000   0.00000
 207       74F+2        0.00000   0.00000   0.00000  -0.00000
 208       74F-2        0.00000   0.00000   0.00000  -0.00000
 209       74F+3        0.00000   0.00000   0.00000  -0.00000
 210       74F-3       -0.00000  -0.00000  -0.00000   0.00000
 211       75F 0        0.00000   0.00000   0.00000  -0.00000
 212       75F+1        0.00000   0.00000   0.00000  -0.00000
 213       75F-1        0.00000   0.00000   0.00000  -0.00000
 214       75F+2        0.00000   0.00000   0.00000  -0.00000
 215       75F-2        0.00000   0.00000   0.00000  -0.00000
 216       75F+3        0.00000   0.00000   0.00000  -0.00000
 217       75F-3        0.00000   0.00000   0.00000  -0.00000
 218       76G 0        0.00000   0.00000   0.00000  -0.00000
 219       76G+1       -0.00000  -0.00000   0.00000  -0.00000
 220       76G-1       -0.00000  -0.00000   0.00000  -0.00000
 221       76G+2        0.00000   0.00000   0.00000  -0.00000
 222       76G-2       -0.00000  -0.00000   0.00000  -0.00000
 223       76G+3        0.00000   0.00000   0.00000   0.00000
 224       76G-3       -0.00000  -0.00000   0.00000  -0.00000
 225       76G+4        0.00000   0.00000   0.00000   0.00000
 226       76G-4        0.00000   0.00000   0.00000   0.00000
 227       77G 0       -0.00000  -0.00000   0.00000  -0.00000
 228       77G+1       -0.00000  -0.00000   0.00000  -0.00000
 229       77G-1       -0.00000  -0.00000  -0.00000  -0.00000
 230       77G+2       -0.00000  -0.00000  -0.00000  -0.00000
 231       77G-2       -0.00000  -0.00000  -0.00000  -0.00000
 232       77G+3       -0.00000  -0.00000  -0.00000  -0.00000
 233       77G-3       -0.00000  -0.00000  -0.00000  -0.00000
 234       77G+4       -0.00000  -0.00000   0.00000  -0.00000
 235       77G-4       -0.00000  -0.00000   0.00000  -0.00000
 236       78G 0        0.00000   0.00000  -0.00000   0.00000
 237       78G+1        0.00000   0.00000  -0.00000   0.00000
 238       78G-1        0.00000   0.00000  -0.00000   0.00000
 239       78G+2        0.00000   0.00000  -0.00000   0.00000
 240       78G-2        0.00000   0.00000  -0.00000   0.00000
 241       78G+3        0.00000   0.00000  -0.00000   0.00000
 242       78G-3        0.00000   0.00000  -0.00000   0.00000
 243       78G+4        0.00000   0.00000  -0.00000   0.00000
 244       78G-4        0.00000   0.00000  -0.00000   0.00000
 245       79G 0        0.00000   0.00000  -0.00000   0.00000
 246       79G+1        0.00000   0.00000  -0.00000   0.00000
 247       79G-1        0.00000   0.00000  -0.00000   0.00000
 248       79G+2        0.00000   0.00000  -0.00000   0.00000
 249       79G-2        0.00000   0.00000  -0.00000   0.00000
 250       79G+3        0.00000   0.00000  -0.00000   0.00000
 251       79G-3        0.00000   0.00000   0.00000   0.00000
 252       79G+4        0.00000   0.00000  -0.00000   0.00000
 253       79G-4        0.00000   0.00000  -0.00000   0.00000
 254       80G 0        0.00000   0.00000   0.00000   0.00000
 255       80G+1        0.00000   0.00000   0.00000   0.00000
 256       80G-1        0.00000   0.00000   0.00000   0.00000
 257       80G+2       -0.00000  -0.00000   0.00000  -0.00000
 258       80G-2        0.00000   0.00000   0.00000   0.00000
 259       80G+3        0.00000   0.00000   0.00000   0.00000
 260       80G-3        0.00000   0.00000   0.00000   0.00000
 261       80G+4        0.00000   0.00000   0.00000   0.00000
 262       80G-4        0.00000   0.00000   0.00000   0.00000
 263       81H 0       -0.00000  -0.00000  -0.00000   0.00000
 264       81H+1       -0.00000  -0.00000  -0.00000   0.00000
 265       81H-1       -0.00000  -0.00000  -0.00000   0.00000
 266       81H+2       -0.00000  -0.00000  -0.00000   0.00000
 267       81H-2       -0.00000  -0.00000  -0.00000   0.00000
 268       81H+3       -0.00000  -0.00000  -0.00000   0.00000
 269       81H-3       -0.00000  -0.00000  -0.00000   0.00000
 270       81H+4        0.00000   0.00000   0.00000  -0.00000
 271       81H-4        0.00000   0.00000   0.00000  -0.00000
 272       81H+5        0.00000   0.00000   0.00000  -0.00000
 273       81H-5        0.00000   0.00000   0.00000  -0.00000
 274       82H 0        0.00000   0.00000   0.00000  -0.00000
 275       82H+1        0.00000   0.00000   0.00000  -0.00000
 276       82H-1       -0.00000  -0.00000  -0.00000   0.00000
 277       82H+2        0.00000   0.00000   0.00000  -0.00000
 278       82H-2        0.00000   0.00000   0.00000  -0.00000
 279       82H+3        0.00000   0.00000   0.00000  -0.00000
 280       82H-3       -0.00000  -0.00000  -0.00000   0.00000
 281       82H+4       -0.00000  -0.00000  -0.00000   0.00000
 282       82H-4       -0.00000  -0.00000  -0.00000   0.00000
 283       82H+5        0.00000   0.00000   0.00000  -0.00000
 284       82H-5       -0.00000  -0.00000  -0.00000   0.00000
 285       83H 0        0.00000   0.00000   0.00000  -0.00000
 286       83H+1       -0.00000  -0.00000  -0.00000   0.00000
 287       83H-1        0.00000   0.00000   0.00000  -0.00000
 288       83H+2        0.00000   0.00000   0.00000  -0.00000
 289       83H-2        0.00000   0.00000   0.00000  -0.00000
 290       83H+3        0.00000   0.00000   0.00000  -0.00000
 291       83H-3        0.00000   0.00000   0.00000  -0.00000
 292       83H+4       -0.00000  -0.00000  -0.00000   0.00000
 293       83H-4        0.00000   0.00000   0.00000  -0.00000
 294       83H+5       -0.00000  -0.00000  -0.00000   0.00000
 295       83H-5        0.00000   0.00000   0.00000  -0.00000
 296       84H 0       -0.00000  -0.00000  -0.00000   0.00000
 297       84H+1        0.00000   0.00000   0.00000  -0.00000
 298       84H-1        0.00000   0.00000   0.00000  -0.00000
 299       84H+2        0.00000   0.00000   0.00000  -0.00000
 300       84H-2        0.00000   0.00000   0.00000  -0.00000
 301       84H+3        0.00000   0.00000   0.00000  -0.00000
 302       84H-3        0.00000   0.00000   0.00000  -0.00000
 303       84H+4        0.00000   0.00000   0.00000  -0.00000
 304       84H-4        0.00000   0.00000   0.00000  -0.00000
 305       84H+5        0.00000   0.00000   0.00000  -0.00000
 306       84H-5       -0.00000  -0.00000  -0.00000   0.00000
 307       85I 0        0.00000   0.00000   0.00000   0.00000
 308       85I+1       -0.00000  -0.00000   0.00000  -0.00000
 309       85I-1       -0.00000  -0.00000   0.00000  -0.00000
 310       85I+2        0.00000   0.00000   0.00000  -0.00000
 311       85I-2        0.00000   0.00000   0.00000   0.00000
 312       85I+3       -0.00000  -0.00000   0.00000  -0.00000
 313       85I-3        0.00000   0.00000   0.00000   0.00000
 314       85I+4        0.00000   0.00000   0.00000  -0.00000
 315       85I-4       -0.00000  -0.00000   0.00000  -0.00000
 316       85I+5       -0.00000  -0.00000   0.00000  -0.00000
 317       85I-5       -0.00000  -0.00000   0.00000  -0.00000
 318       85I+6        0.00000   0.00000   0.00000   0.00000
 319       85I-6       -0.00000  -0.00000   0.00000  -0.00000
 320       86I 0       -0.00000  -0.00000  -0.00000  -0.00000
 321       86I+1        0.00000   0.00000  -0.00000   0.00000
 322       86I-1        0.00000   0.00000   0.00000   0.00000
 323       86I+2       -0.00000  -0.00000  -0.00000   0.00000
 324       86I-2        0.00000   0.00000  -0.00000   0.00000
 325       86I+3        0.00000   0.00000  -0.00000   0.00000
 326       86I-3       -0.00000  -0.00000  -0.00000  -0.00000
 327       86I+4       -0.00000  -0.00000  -0.00000  -0.00000
 328       86I-4       -0.00000  -0.00000  -0.00000  -0.00000
 329       86I+5        0.00000   0.00000  -0.00000   0.00000
 330       86I-5        0.00000   0.00000  -0.00000   0.00000
 331       86I+6       -0.00000  -0.00000  -0.00000   0.00000
 332       86I-6        0.00000   0.00000  -0.00000   0.00000
 333       87I 0        0.00000   0.00000   0.00000   0.00000
 334       87I+1        0.00000   0.00000   0.00000   0.00000
 335       87I-1        0.00000   0.00000   0.00000   0.00000
 336       87I+2        0.00000   0.00000   0.00000   0.00000
 337       87I-2        0.00000   0.00000   0.00000   0.00000
 338       87I+3        0.00000   0.00000   0.00000   0.00000
 339       87I-3        0.00000   0.00000   0.00000   0.00000
 340       87I+4        0.00000   0.00000   0.00000   0.00000
 341       87I-4        0.00000   0.00000   0.00000   0.00000
 342       87I+5        0.00000   0.00000   0.00000   0.00000
 343       87I-5        0.00000   0.00000   0.00000   0.00000
 344       87I+6        0.00000   0.00000   0.00000   0.00000
 345       87I-6        0.00000   0.00000   0.00000   0.00000
          Condensed to atoms (all electrons):
               1
     1  Mn  15.000000
          Atomic-Atomic Spin Densities.
               1
     1  Mn   5.000000
 Mulliken charges and spin densities:
               1          2
     1  Mn  -0.000000   5.000000
 Sum of Mulliken charges =  -0.00000   5.00000
 Mulliken charges and spin densities with hydrogens summed into heavy atoms:
               1          2
     1  Mn  -0.000000   5.000000
 Electronic spatial extent (au):  <R**2>=             42.0805
 Charge=              0.0000 electrons
 Dipole moment (field-independent basis, Debye):
    X=              0.0000    Y=              0.0000    Z=              0.0000  Tot=              0.0000
 Quadrupole moment (field-independent basis, Debye-Ang):
   XX=            -18.8666   YY=            -18.8666   ZZ=            -18.8666
   XY=             -0.0000   XZ=              0.0000   YZ=             -0.0000
 Traceless Quadrupole moment (field-independent basis, Debye-Ang):
   XX=             -0.0000   YY=              0.0000   ZZ=              0.0000
   XY=             -0.0000   XZ=              0.0000   YZ=             -0.0000
 Octapole moment (field-independent basis, Debye-Ang**2):
  XXX=              0.0000  YYY=              0.0000  ZZZ=              0.0000  XYY=              0.0000
  XXY=              0.0000  XXZ=              0.0000  XZZ=              0.0000  YZZ=              0.0000
  YYZ=              0.0000  XYZ=              0.0000
 Hexadecapole moment (field-independent basis, Debye-Ang**3):
 XXXX=            -48.3359 YYYY=            -48.3359 ZZZZ=            -48.3359 XXXY=              0.0000
 XXXZ=              0.0000 YYYX=              0.0000 YYYZ=             -0.0000 ZZZX=             -0.0000
 ZZZY=             -0.0000 XXYY=            -16.1120 XXZZ=            -16.1120 YYZZ=            -16.1120
 XXYZ=             -0.0000 YYXZ=              0.0000 ZZXY=              0.0000
 N-N= 0.000000000000D+00 E-N=-2.365146145990D+02  KE= 5.627945006811D+01
 Symmetry AG   KE= 1.706836053383D+01
 Symmetry B1G  KE= 6.240316323599D+00
 Symmetry B2G  KE= 6.240316299626D+00
 Symmetry B3G  KE= 6.240316322031D+00
 Symmetry AU   KE= 5.844698789472D-52
 Symmetry B1U  KE= 6.830046862773D+00
 Symmetry B2U  KE= 6.830046861798D+00
 Symmetry B3U  KE= 6.830046863165D+00
 Symmetry AG   SP= 2.000000000000D+00
 Symmetry B1G  SP= 1.000000000000D+00
 Symmetry B2G  SP= 1.000000000000D+00
 Symmetry B3G  SP= 1.000000000000D+00
 Symmetry AU   SP=-5.830806134517D-68
 Symmetry B1U  SP=-8.571558305569D-16
 Symmetry B2U  SP=-8.059480066055D-16
 Symmetry B3U  SP=-8.118968497170D-16
 Orbital energies and kinetic energies (alpha):
                                 1                 2
   1         (A1G)--O         -4.231251          1.983432
   2         (T1U)--O         -2.785463          3.415023
   3         (T1U)--O         -2.785463          3.415023
   4         (T1U)--O         -2.785463          3.415023
   5         (A1G)--O         -0.629683          0.310432
   6         (T2G)--O         -0.629683          6.240316
   7         (EG)--O          -0.629683          6.240316
   8         (T2G)--O         -0.629683          6.240316
   9         (T2G)--O         -0.629683          6.240316
  10         (EG)--O          -0.267901          6.240316
  11         (T1U)--V          0.017095          0.056748
  12         (T1U)--V          0.017095          0.056748
  13         (T1U)--V          0.017095          0.056748
  14         (A1G)--V          0.021252          0.034129
  15         (T2G)--V          0.055971          0.059569
 Total kinetic energy from orbitals= 8.748103164003D+01
                          Isotropic Fermi Contact Couplings
        Atom                 a.u.       MegaHertz       Gauss      10(-4) cm-1
     1  Mn(55)             0.00000       0.00000       0.00000       0.00000
 --------------------------------------------------------
       Center         ----  Spin Dipole Couplings  ----
                      3XX-RR        3YY-RR        3ZZ-RR
 --------------------------------------------------------
     1   Atom        0.000001     -0.000001     -0.000000
 --------------------------------------------------------
                        XY            XZ            YZ
 --------------------------------------------------------
     1   Atom        0.000000      0.000000      0.000000
 --------------------------------------------------------


 ---------------------------------------------------------------------------------
              Anisotropic Spin Dipole Couplings in Principal Axis System
 ---------------------------------------------------------------------------------

       Atom             a.u.   MegaHertz   Gauss  10(-4) cm-1        Axes

              Baa    -0.0000    -0.000    -0.000    -0.000 -0.0000  1.0000  0.0000
     1 Mn(55) Bbb    -0.0000    -0.000    -0.000    -0.000  0.0000  0.0000  1.0000
              Bcc     0.0000     0.000     0.000     0.000  1.0000  0.0000  0.0000
 

 ---------------------------------------------------------------------------------

 No NMR shielding tensors so no spin-rotation constants.
 Leave Link  601 at Mon Mar 12 15:03:47 2018, MaxMem= 10737418240 cpu:             272.8 elap:              17.4
 (Enter /home1/apps/gaussian/16rA.03/g16/l9999.exe)
 1\1\GINC-C442-122\SP\ROCCSD(T)-Full\Gen\Mn1(6)\AANNABE\12-Mar-2018\0\\
 #P ROCCSD(T)=(maxcyc=150, Full)/Gen 5d 7f SCF=(maxcycles=300, NoVarAcc
 , VShift=200) MaxDisk=100GB Pop=Regular Pseudo=Read Guess=Read\\Mn\\0,
 6\Mn,0,0.,0.,0.\\Version=ES64L-G16RevA.03\State=6-A1G\HF=-103.5170293\
 MP2=-104.1224887\MP3=-104.1195646\PUHF=-103.5170293\PMP2-0=-104.122488
 7\MP4SDQ=-104.121675\CCSD=-104.1219209\CCSD(T)=-104.1406107\RMSD=5.584
 e-09\PG=OH [O(Mn1)]\\@


 I HAVE NOT FAILED, I HAVE ONLY DISCOVERED 10,000
 WAYS THAT DIDN'T WORK.  -- THOMAS A. EDISON
 Job cpu time:       0 days 14 hours 40 minutes 26.4 seconds.
 Elapsed time:       0 days  0 hours 55 minutes 10.3 seconds.
 File lengths (MBytes):  RWF=   8313 Int=      0 D2E=      0 Chk=     13 Scr=      1
 Normal termination of Gaussian 16 at Mon Mar 12 15:03:48 2018.
