 Entering Gaussian System, Link 0=g16
 Initial command:
 /home1/apps/gaussian/16rA.03/g16/l1.exe "/tmp/Gau-241447.inp" -scrdir="/tmp/"
 Entering Link 1 = /home1/apps/gaussian/16rA.03/g16/l1.exe PID=    241448.
  
 Copyright (c) 1988,1990,1992,1993,1995,1998,2003,2009,2016,
            Gaussian, Inc.  All Rights Reserved.
  
 This is part of the Gaussian(R) 16 program.  It is based on
 the Gaussian(R) 09 system (copyright 2009, Gaussian, Inc.),
 the Gaussian(R) 03 system (copyright 2003, Gaussian, Inc.),
 the Gaussian(R) 98 system (copyright 1998, Gaussian, Inc.),
 the Gaussian(R) 94 system (copyright 1995, Gaussian, Inc.),
 the Gaussian 92(TM) system (copyright 1992, Gaussian, Inc.),
 the Gaussian 90(TM) system (copyright 1990, Gaussian, Inc.),
 the Gaussian 88(TM) system (copyright 1988, Gaussian, Inc.),
 the Gaussian 86(TM) system (copyright 1986, Carnegie Mellon
 University), and the Gaussian 82(TM) system (copyright 1983,
 Carnegie Mellon University). Gaussian is a federally registered
 trademark of Gaussian, Inc.
  
 This software contains proprietary and confidential information,
 including trade secrets, belonging to Gaussian, Inc.
  
 This software is provided under written license and may be
 used, copied, transmitted, or stored only in accord with that
 written license.
  
 The following legend is applicable only to US Government
 contracts under FAR:
  
                    RESTRICTED RIGHTS LEGEND
  
 Use, reproduction and disclosure by the US Government is
 subject to restrictions as set forth in subparagraphs (a)
 and (c) of the Commercial Computer Software - Restricted
 Rights clause in FAR 52.227-19.
  
 Gaussian, Inc.
 340 Quinnipiac St., Bldg. 40, Wallingford CT 06492
  
  
 ---------------------------------------------------------------
 Warning -- This program may not be used in any manner that
 competes with the business of Gaussian, Inc. or will provide
 assistance to any competitor of Gaussian, Inc.  The licensee
 of this program is prohibited from giving any competitor of
 Gaussian, Inc. access to this program.  By using this program,
 the user acknowledges that Gaussian, Inc. is engaged in the
 business of creating and licensing software in the field of
 computational chemistry and represents and warrants to the
 licensee that it is not a competitor of Gaussian, Inc. and that
 it will not use this program in any manner prohibited above.
 ---------------------------------------------------------------
  

 Cite this work as:
 Gaussian 16, Revision A.03,
 M. J. Frisch, G. W. Trucks, H. B. Schlegel, G. E. Scuseria, 
 M. A. Robb, J. R. Cheeseman, G. Scalmani, V. Barone, 
 G. A. Petersson, H. Nakatsuji, X. Li, M. Caricato, A. V. Marenich, 
 J. Bloino, B. G. Janesko, R. Gomperts, B. Mennucci, H. P. Hratchian, 
 J. V. Ortiz, A. F. Izmaylov, J. L. Sonnenberg, D. Williams-Young, 
 F. Ding, F. Lipparini, F. Egidi, J. Goings, B. Peng, A. Petrone, 
 T. Henderson, D. Ranasinghe, V. G. Zakrzewski, J. Gao, N. Rega, 
 G. Zheng, W. Liang, M. Hada, M. Ehara, K. Toyota, R. Fukuda, 
 J. Hasegawa, M. Ishida, T. Nakajima, Y. Honda, O. Kitao, H. Nakai, 
 T. Vreven, K. Throssell, J. A. Montgomery, Jr., J. E. Peralta, 
 F. Ogliaro, M. J. Bearpark, J. J. Heyd, E. N. Brothers, K. N. Kudin, 
 V. N. Staroverov, T. A. Keith, R. Kobayashi, J. Normand, 
 K. Raghavachari, A. P. Rendell, J. C. Burant, S. S. Iyengar, 
 J. Tomasi, M. Cossi, J. M. Millam, M. Klene, C. Adamo, R. Cammi, 
 J. W. Ochterski, R. L. Martin, K. Morokuma, O. Farkas, 
 J. B. Foresman, and D. J. Fox, Gaussian, Inc., Wallingford CT, 2016.
 
 ******************************************
 Gaussian 16:  ES64L-G16RevA.03 25-Dec-2016
                13-Mar-2018 
 ******************************************
 %MEM=80GB
 %CPU=0-15
 SetSPE:  set environment variable "MP_BIND" = "yes"
 SetSPE:  set environment variable "MP_BLIST" = "0,1,2,3,4,5,6,7,8,9,10,11,12,13,14,15"
 Will use up to   16 processors via shared memory.
 %RWF=/scratch/04843/aannabe/gaussian/
 %Int=/scratch/04843/aannabe/gaussian/
 %D2E=/scratch/04843/aannabe/gaussian/
 %NoSave
 %CHK=ScO
 ----------------------------------------------------------------------
 #P ROCCSD(T)=(maxcyc=150, Full, SaveAmplitudes, ReadAmplitudes)/Gen 5d
  7f SCF=(maxcycles=300) Integral(NoXCTest) MaxDisk=500GB Pop=Regular P
 seudo=Read Guess=Read IOp(5/15=2)
 ----------------------------------------------------------------------
 1/38=1,172=1/1;
 2/12=2,17=6,18=5,40=1/2;
 3/5=7,8=11,11=2,16=1,17=8,25=1,30=1,47=8,116=101/1,2,3;
 4/5=1/1;
 5/5=2,7=300,15=2,38=6/2;
 8/5=-1,6=4,9=120000,10=90,24=1/1,4;
 9/5=7,6=150,14=2,77=1/13;
 6//1;
 99/5=1,9=1/99;
 Leave Link    1 at Tue Mar 13 21:39:31 2018, MaxMem= 10737418240 cpu:               5.3 elap:               0.3
 (Enter /home1/apps/gaussian/16rA.03/g16/l101.exe)
 ---
 ScO
 ---
 Symbolic Z-matrix:
 Charge =  0 Multiplicity = 2
 Sc                    0.        0.        0. 
 O                     0.        0.        1.6 
 
 ITRead=  0  0
 MicOpt= -1 -1
 NAtoms=      2 NQM=        2 NQMF=       0 NMMI=      0 NMMIF=      0
                NMic=       0 NMicF=      0.
                    Isotopes and Nuclear Properties:
 (Nuclear quadrupole moments (NQMom) in fm**2, nuclear magnetic moments (NMagM)
  in nuclear magnetons)

  Atom         1           2
 IAtWgt=          45          16
 AtmWgt=  44.9559136  15.9949146
 NucSpn=           7           0
 AtZEff=  -0.0000000  -0.0000000
 NQMom=  -22.0000000   0.0000000
 NMagM=    4.7564830   0.0000000
 AtZNuc=  21.0000000   8.0000000
 Leave Link  101 at Tue Mar 13 21:39:31 2018, MaxMem= 10737418240 cpu:               1.5 elap:               0.1
 (Enter /home1/apps/gaussian/16rA.03/g16/l202.exe)
                          Input orientation:                          
 ---------------------------------------------------------------------
 Center     Atomic      Atomic             Coordinates (Angstroms)
 Number     Number       Type             X           Y           Z
 ---------------------------------------------------------------------
      1         21           0        0.000000    0.000000    0.000000
      2          8           0        0.000000    0.000000    1.600000
 ---------------------------------------------------------------------
 Stoichiometry    OSc(2)
 Framework group  C*V[C*(OSc)]
 Deg. of freedom     1
 Full point group                 C*V     NOp   4
 Largest Abelian subgroup         C2V     NOp   4
 Largest concise Abelian subgroup C1      NOp   1
                         Standard orientation:                         
 ---------------------------------------------------------------------
 Center     Atomic      Atomic             Coordinates (Angstroms)
 Number     Number       Type             X           Y           Z
 ---------------------------------------------------------------------
      1         21           0        0.000000    0.000000    0.441379
      2          8           0        0.000000    0.000000   -1.158621
 ---------------------------------------------------------------------
 Rotational constants (GHZ):           0.0000000          16.7335502          16.7335502
 Leave Link  202 at Tue Mar 13 21:39:32 2018, MaxMem= 10737418240 cpu:               0.4 elap:               0.1
 (Enter /home1/apps/gaussian/16rA.03/g16/l301.exe)
 General basis read from cards:  (5D, 7F)
 Centers:       1
 S 1 1.00
     Exponent=  2.7152780000D+06 Coefficients=  1.0000000000D+00
 S 1 1.00
     Exponent=  4.0659840000D+05 Coefficients=  1.0000000000D+00
 S 1 1.00
     Exponent=  9.2530040000D+04 Coefficients=  1.0000000000D+00
 S 1 1.00
     Exponent=  2.6207920000D+04 Coefficients=  1.0000000000D+00
 S 1 1.00
     Exponent=  8.5494290000D+03 Coefficients=  1.0000000000D+00
 S 1 1.00
     Exponent=  3.0859750000D+03 Coefficients=  1.0000000000D+00
 S 1 1.00
     Exponent=  1.2031720000D+03 Coefficients=  1.0000000000D+00
 S 1 1.00
     Exponent=  4.9848690000D+02 Coefficients=  1.0000000000D+00
 S 1 1.00
     Exponent=  2.1673600000D+02 Coefficients=  1.0000000000D+00
 S 1 1.00
     Exponent=  9.7874760000D+01 Coefficients=  1.0000000000D+00
 S 1 1.00
     Exponent=  4.5204330000D+01 Coefficients=  1.0000000000D+00
 S 1 1.00
     Exponent=  2.0211870000D+01 Coefficients=  1.0000000000D+00
 S 1 1.00
     Exponent=  9.5747510000D+00 Coefficients=  1.0000000000D+00
 S 1 1.00
     Exponent=  4.5403460000D+00 Coefficients=  1.0000000000D+00
 S 1 1.00
     Exponent=  1.9956870000D+00 Coefficients=  1.0000000000D+00
 S 1 1.00
     Exponent=  9.4221500000D-01 Coefficients=  1.0000000000D+00
 S 1 1.00
     Exponent=  4.1784500000D-01 Coefficients=  1.0000000000D+00
 S 1 1.00
     Exponent=  9.5761000000D-02 Coefficients=  1.0000000000D+00
 S 1 1.00
     Exponent=  5.1351000000D-02 Coefficients=  1.0000000000D+00
 S 1 1.00
     Exponent=  2.3878000000D-02 Coefficients=  1.0000000000D+00
 S 1 1.00
     Exponent=  2.6472000000D+00 Coefficients=  1.0000000000D+00
 S 1 1.00
     Exponent=  6.2170000000D-01 Coefficients=  1.0000000000D+00
 S 1 1.00
     Exponent=  1.1100000000D-02 Coefficients=  1.0000000000D+00
 P 1 1.00
     Exponent=  1.0592190000D+04 Coefficients=  1.0000000000D+00
 P 1 1.00
     Exponent=  2.5075330000D+03 Coefficients=  1.0000000000D+00
 P 1 1.00
     Exponent=  8.1445710000D+02 Coefficients=  1.0000000000D+00
 P 1 1.00
     Exponent=  3.1151950000D+02 Coefficients=  1.0000000000D+00
 P 1 1.00
     Exponent=  1.3196170000D+02 Coefficients=  1.0000000000D+00
 P 1 1.00
     Exponent=  5.9987180000D+01 Coefficients=  1.0000000000D+00
 P 1 1.00
     Exponent=  2.8662500000D+01 Coefficients=  1.0000000000D+00
 P 1 1.00
     Exponent=  1.4108510000D+01 Coefficients=  1.0000000000D+00
 P 1 1.00
     Exponent=  7.1037060000D+00 Coefficients=  1.0000000000D+00
 P 1 1.00
     Exponent=  3.6092000000D+00 Coefficients=  1.0000000000D+00
 P 1 1.00
     Exponent=  1.7760700000D+00 Coefficients=  1.0000000000D+00
 P 1 1.00
     Exponent=  8.5476000000D-01 Coefficients=  1.0000000000D+00
 P 1 1.00
     Exponent=  4.0223900000D-01 Coefficients=  1.0000000000D+00
 P 1 1.00
     Exponent=  1.5468000000D-01 Coefficients=  1.0000000000D+00
 P 1 1.00
     Exponent=  6.4888000000D-02 Coefficients=  1.0000000000D+00
 P 1 1.00
     Exponent=  2.6301000000D-02 Coefficients=  1.0000000000D+00
 P 1 1.00
     Exponent=  3.4418000000D+00 Coefficients=  1.0000000000D+00
 P 1 1.00
     Exponent=  8.0840000000D-01 Coefficients=  1.0000000000D+00
 P 1 1.00
     Exponent=  1.0660000000D-02 Coefficients=  1.0000000000D+00
 D 1 1.00
     Exponent=  5.0654200000D+01 Coefficients=  1.0000000000D+00
 D 1 1.00
     Exponent=  1.4732500000D+01 Coefficients=  1.0000000000D+00
 D 1 1.00
     Exponent=  5.1804600000D+00 Coefficients=  1.0000000000D+00
 D 1 1.00
     Exponent=  2.0195900000D+00 Coefficients=  1.0000000000D+00
 D 1 1.00
     Exponent=  7.9921900000D-01 Coefficients=  1.0000000000D+00
 D 1 1.00
     Exponent=  3.0531600000D-01 Coefficients=  1.0000000000D+00
 D 1 1.00
     Exponent=  1.1044400000D-01 Coefficients=  1.0000000000D+00
 D 1 1.00
     Exponent=  3.7065000000D-02 Coefficients=  1.0000000000D+00
 D 1 1.00
     Exponent=  1.8520000000D+00 Coefficients=  1.0000000000D+00
 D 1 1.00
     Exponent=  7.8750000000D-01 Coefficients=  1.0000000000D+00
 D 1 1.00
     Exponent=  1.2440000000D-02 Coefficients=  1.0000000000D+00
 F 1 1.00
     Exponent=  2.1048000000D+00 Coefficients=  1.0000000000D+00
 F 1 1.00
     Exponent=  6.5870000000D-01 Coefficients=  1.0000000000D+00
 F 1 1.00
     Exponent=  1.6360000000D-01 Coefficients=  1.0000000000D+00
 F 1 1.00
     Exponent=  4.0630000000D-02 Coefficients=  1.0000000000D+00
 G 1 1.00
     Exponent=  1.7850000000D+00 Coefficients=  1.0000000000D+00
 G 1 1.00
     Exponent=  4.1120000000D-01 Coefficients=  1.0000000000D+00
 G 1 1.00
     Exponent=  9.4730000000D-02 Coefficients=  1.0000000000D+00
 ****
 Centers:       2
 S 1 1.00
     Exponent=  1.5330000000D+04 Coefficients=  1.0000000000D+00
 S 1 1.00
     Exponent=  2.2990000000D+03 Coefficients=  1.0000000000D+00
 S 1 1.00
     Exponent=  5.2240000000D+02 Coefficients=  1.0000000000D+00
 S 1 1.00
     Exponent=  1.4730000000D+02 Coefficients=  1.0000000000D+00
 S 1 1.00
     Exponent=  4.7550000000D+01 Coefficients=  1.0000000000D+00
 S 1 1.00
     Exponent=  1.6760000000D+01 Coefficients=  1.0000000000D+00
 S 1 1.00
     Exponent=  6.2070000000D+00 Coefficients=  1.0000000000D+00
 S 1 1.00
     Exponent=  6.8820000000D-01 Coefficients=  1.0000000000D+00
 S 1 1.00
     Exponent=  1.7520000000D+00 Coefficients=  1.0000000000D+00
 S 1 1.00
     Exponent=  2.3840000000D-01 Coefficients=  1.0000000000D+00
 S 1 1.00
     Exponent=  7.8450000000D+00 Coefficients=  1.0000000000D+00
 S 1 1.00
     Exponent=  2.1032000000D+01 Coefficients=  1.0000000000D+00
 S 1 1.00
     Exponent=  7.3760000000D-02 Coefficients=  1.0000000000D+00
 P 1 1.00
     Exponent=  3.4460000000D+01 Coefficients=  1.0000000000D+00
 P 1 1.00
     Exponent=  7.7490000000D+00 Coefficients=  1.0000000000D+00
 P 1 1.00
     Exponent=  2.2800000000D+00 Coefficients=  1.0000000000D+00
 P 1 1.00
     Exponent=  7.1560000000D-01 Coefficients=  1.0000000000D+00
 P 1 1.00
     Exponent=  2.1400000000D-01 Coefficients=  1.0000000000D+00
 P 1 1.00
     Exponent=  1.5159000000D+01 Coefficients=  1.0000000000D+00
 P 1 1.00
     Exponent=  5.7437000000D+01 Coefficients=  1.0000000000D+00
 P 1 1.00
     Exponent=  5.9740000000D-02 Coefficients=  1.0000000000D+00
 D 1 1.00
     Exponent=  2.3140000000D+00 Coefficients=  1.0000000000D+00
 D 1 1.00
     Exponent=  6.4500000000D-01 Coefficients=  1.0000000000D+00
 D 1 1.00
     Exponent=  1.5858000000D+01 Coefficients=  1.0000000000D+00
 D 1 1.00
     Exponent=  2.1400000000D-01 Coefficients=  1.0000000000D+00
 F 1 1.00
     Exponent=  1.4280000000D+00 Coefficients=  1.0000000000D+00
 F 1 1.00
     Exponent=  5.0000000000D-01 Coefficients=  1.0000000000D+00
 ****
 ======================================================================================================
                                       Pseudopotential Parameters
 ======================================================================================================
  Center     Atomic      Valence      Angular      Power
  Number     Number     Electrons     Momentum     of R      Exponent        Coefficient   SO-Coeffient
 ======================================================================================================
    1         21           11
                                      D and up 
                                                     1       15.8725639       11.00000000    0.00000000
                                                     3       13.9714030      174.59820238    0.00000000
                                                     2       11.8167025      -83.71806372    0.00000000
                                                     2        3.9172569        0.53764844    0.00000000
                                      S - D
                                                     2       11.5419711      153.95651661    0.00000000
                                                     2        5.0177895       14.97838045    0.00000000
                                      P - D
                                                     2       11.7066014       97.24729765    0.00000000
                                                     2        4.6090177       10.91687812    0.00000000
    2          8            6
                                      P and up 
                                                     1       12.3099700        6.00000000    0.00000000
                                                     3       14.7696200       73.85984000    0.00000000
                                                     2       13.7141900      -47.87600000    0.00000000
                                      S - P
                                                     2       13.6551200       85.86406000    0.00000000
 ======================================================================================================
 Ernie: Thresh=  0.10000D-02 Tol=  0.10000D-05 Strict=F.
 There are   144 symmetry adapted cartesian basis functions of A1  symmetry.
 There are    30 symmetry adapted cartesian basis functions of A2  symmetry.
 There are    69 symmetry adapted cartesian basis functions of B1  symmetry.
 There are    69 symmetry adapted cartesian basis functions of B2  symmetry.
 There are   114 symmetry adapted basis functions of A1  symmetry.
 There are    27 symmetry adapted basis functions of A2  symmetry.
 There are    60 symmetry adapted basis functions of B1  symmetry.
 There are    60 symmetry adapted basis functions of B2  symmetry.
   261 basis functions,   312 primitive gaussians,   312 cartesian basis functions
     9 alpha electrons        8 beta electrons
       nuclear repulsion energy        21.8285599504 Hartrees.
 IExCor=    0 DFT=F Ex=HF Corr=None ExCW=0 ScaHFX=  1.000000
 ScaDFX=  1.000000  1.000000  1.000000  1.000000 ScalE2=  1.000000  1.000000
 IRadAn=      5 IRanWt=     -1 IRanGd=            0 ICorTp=0 IEmpDi=  4
 NAtoms=    2 NActive=    2 NUniq=    2 SFac= 1.00D+00 NAtFMM=   60 NAOKFM=F Big=F
 Integral buffers will be    131072 words long.
 Raffenetti 2 integral format.
 Two-electron integral symmetry is turned on.
 Leave Link  301 at Tue Mar 13 21:39:33 2018, MaxMem= 10737418240 cpu:               4.0 elap:               0.3
 (Enter /home1/apps/gaussian/16rA.03/g16/l302.exe)
 NPDir=0 NMtPBC=     1 NCelOv=     1 NCel=       1 NClECP=     1 NCelD=      1
         NCelK=      1 NCelE2=     1 NClLst=     1 CellRange=     0.0.
 One-electron integrals computed using PRISM.
 One-electron integral symmetry used in STVInt
   4 Symmetry operations used in ECPInt.
 ECPInt:  NShTT=    3828 NPrTT=    3828 LenC2=    3560 LenP2D=    3559.
 LDataN:  DoStor=T MaxTD1= 8 Len=  415
 NBasis=   261 RedAO= T EigKep=  1.06D-06  NBF=   114    27    60    60
 NBsUse=   258 1.00D-06 EigRej=  6.56D-07 NBFU=   113    27    59    59
 Leave Link  302 at Tue Mar 13 21:39:35 2018, MaxMem= 10737418240 cpu:              15.3 elap:               1.1
 (Enter /home1/apps/gaussian/16rA.03/g16/l303.exe)
 DipDrv:  MaxL=1.
 Leave Link  303 at Tue Mar 13 21:39:35 2018, MaxMem= 10737418240 cpu:               1.2 elap:               0.2
 (Enter /home1/apps/gaussian/16rA.03/g16/l401.exe)
 Initial guess from the checkpoint file:  "ScO.chk"
 B after Tr=     0.000000    0.000000    0.000000
         Rot=    1.000000    0.000000    0.000000    0.000000 Ang=   0.00 deg.
 Guess basis will be translated and rotated to current coordinates.
 JPrj=2 DoOrth=T DoCkMO=T.
 Initial guess orbital symmetries:
       Occupied  (SG) (SG) (PI) (PI) (SG) (SG) (PI) (PI) (SG)
       Virtual   (PI) (PI) (SG) (SG) (DLTA) (DLTA) (PI) (PI) (PI)
                 (PI) (SG) (SG) (DLTA) (DLTA) (SG) (PI) (PI) (SG)
                 (PI) (PI) (SG) (PI) (PI) (PHI) (PHI) (DLTA) (DLTA)
                 (SG) (DLTA) (DLTA) (PI) (PI) (SG) (PI) (PI) (SG)
                 (SG) (SG) (DLTA) (DLTA) (PI) (PI) (DLTA) (DLTA)
                 (?A) (?A) (PHI) (PHI) (SG) (PI) (PI) (PI) (PI)
                 (SG) (PHI) (PHI) (DLTA) (DLTA) (SG) (PI) (PI)
                 (SG) (PI) (PI) (DLTA) (DLTA) (SG) (SG) (DLTA)
                 (DLTA) (PI) (PI) (SG) (SG) (PI) (PI) (PI) (PI)
                 (SG) (DLTA) (DLTA) (PHI) (PHI) (?A) (?A) (SG)
                 (PI) (PI) (SG) (DLTA) (DLTA) (PHI) (PHI) (PI)
                 (PI) (PHI) (PHI) (DLTA) (DLTA) (SG) (PI) (PI)
                 (DLTA) (DLTA) (SG) (DLTA) (DLTA) (PI) (PI) (SG)
                 (PI) (PI) (SG) (SG) (PI) (PI) (SG) (PI) (PI) (SG)
                 (SG) (DLTA) (DLTA) (PI) (PI) (SG) (PHI) (PHI)
                 (PHI) (PHI) (DLTA) (DLTA) (DLTA) (DLTA) (PI) (PI)
                 (PI) (PI) (SG) (DLTA) (DLTA) (SG) (PI) (PI) (SG)
                 (?A) (?A) (PHI) (PHI) (DLTA) (DLTA) (PI) (PI)
                 (SG) (SG) (PI) (PI) (SG) (DLTA) (DLTA) (PI) (PI)
                 (SG) (PI) (PI) (SG) (SG) (SG) (PI) (PI) (SG) (DLTA)
                 (DLTA) (PI) (PI) (SG) (SG) (PI) (PI) (SG) (SG)
                 (DLTA) (DLTA) (PI) (PI) (SG) (PI) (PI) (SG) (DLTA)
                 (DLTA) (PI) (PI) (SG) (SG) (SG) (PI) (PI) (SG)
                 (PI) (PI) (SG) (SG) (SG) (PI) (PI) (SG) (DLTA)
                 (DLTA) (PI) (PI) (SG) (SG) (SG) (PI) (PI) (SG)
                 (PI) (PI) (SG) (SG) (SG) (PI) (PI) (SG) (SG) (PI)
                 (PI) (SG) (SG) (SG) (PI) (PI) (SG) (SG) (SG) (PI)
                 (PI) (SG) (SG) (SG) (SG) (PI) (PI) (SG) (SG) (SG)
                 (SG) (SG)
 The electronic state of the initial guess is 2-SG.
 Leave Link  401 at Tue Mar 13 21:39:36 2018, MaxMem= 10737418240 cpu:               6.8 elap:               0.5
 (Enter /home1/apps/gaussian/16rA.03/g16/l502.exe)
 Keep R1 and R2 ints in memory in symmetry-blocked form, NReq=734602573.
 FoFCou: FMM=F IPFlag=           8 FMFlag=           0 FMFlg1=           0
         NFxFlg=           0 DoJE=F BraDBF=F KetDBF=F FulRan=T
         wScrn=  0.000000 ICntrl=       600 IOpCl=  0 I1Cent=           0 NGrid=           0
         NMat0=    1 NMatS0=  34191 NMatT0=    0 NMatD0=    1 NMtDS0=    0 NMtDT0=    0
 Petite list used in FoFCou.
 Restricted open shell SCF:
 Using DIIS extrapolation, IDIIS=  1040.
 NGot= 10737418240 LenX= 10437151885 LenY= 10437054100
 Requested convergence on RMS density matrix=1.00D-08 within 300 cycles.
 Requested convergence on MAX density matrix=1.00D-06.
 Requested convergence on             energy=1.00D-06.
 No special actions if energy rises.

 Cycle   1  Pass 1  IDiag  1:
 E= -61.9477742669418    
 DIIS: error= 2.13D-02 at cycle   1 NSaved=   1.
 NSaved= 1 IEnMin= 1 EnMin= -61.9477742669418     IErMin= 1 ErrMin= 2.13D-02
 ErrMax= 2.13D-02  0.00D+00 EMaxC= 1.00D-01 BMatC= 5.32D-02 BMatP= 5.32D-02
 IDIUse=3 WtCom= 7.87D-01 WtEn= 2.13D-01
 Coeff-Com:  0.100D+01
 Coeff-En:   0.100D+01
 Coeff:      0.100D+01
 Gap=     0.096 Goal=   None    Shift=    0.000
 GapD=    0.096 DampG=0.500 DampE=0.250 DampFc=0.1250 IDamp=-1.
 Damping current iteration by 1.25D-01
 RMSDP=3.18D-03 MaxDP=3.35D-01              OVMax= 2.04D-02

 Cycle   2  Pass 1  IDiag  1:
 E= -61.9484865913608     Delta-E=       -0.000712324419 Rises=F Damp=T
 DIIS: error= 1.87D-02 at cycle   2 NSaved=   2.
 NSaved= 2 IEnMin= 2 EnMin= -61.9484865913608     IErMin= 2 ErrMin= 1.87D-02
 ErrMax= 1.87D-02  0.00D+00 EMaxC= 1.00D-01 BMatC= 4.09D-02 BMatP= 5.32D-02
 IDIUse=3 WtCom= 8.13D-01 WtEn= 1.87D-01
 Coeff-Com: -0.705D+01 0.805D+01
 Coeff-En:   0.000D+00 0.100D+01
 Coeff:     -0.573D+01 0.673D+01
 Gap=     0.089 Goal=   None    Shift=    0.000
 RMSDP=2.85D-03 MaxDP=2.79D-01 DE=-7.12D-04 OVMax= 9.80D-02

 Cycle   3  Pass 1  IDiag  1:
 E= -61.9525091479687     Delta-E=       -0.004022556608 Rises=F Damp=F
 DIIS: error= 2.08D-03 at cycle   3 NSaved=   3.
 NSaved= 3 IEnMin= 3 EnMin= -61.9525091479687     IErMin= 3 ErrMin= 2.08D-03
 ErrMax= 2.08D-03  0.00D+00 EMaxC= 1.00D-01 BMatC= 4.63D-04 BMatP= 4.09D-02
 IDIUse=3 WtCom= 9.79D-01 WtEn= 2.08D-02
 Coeff-Com: -0.321D+01 0.366D+01 0.553D+00
 Coeff-En:   0.000D+00 0.000D+00 0.100D+01
 Coeff:     -0.315D+01 0.358D+01 0.563D+00
 Gap=     0.086 Goal=   None    Shift=    0.000
 RMSDP=5.85D-04 MaxDP=6.87D-02 DE=-4.02D-03 OVMax= 7.35D-02

 Cycle   4  Pass 1  IDiag  1:
 E= -61.9542937620339     Delta-E=       -0.001784614065 Rises=F Damp=F
 DIIS: error= 9.41D-04 at cycle   4 NSaved=   4.
 NSaved= 4 IEnMin= 4 EnMin= -61.9542937620339     IErMin= 4 ErrMin= 9.41D-04
 ErrMax= 9.41D-04  0.00D+00 EMaxC= 1.00D-01 BMatC= 8.23D-05 BMatP= 4.63D-04
 IDIUse=3 WtCom= 9.91D-01 WtEn= 9.41D-03
 Coeff-Com: -0.144D+01 0.164D+01 0.828D-01 0.718D+00
 Coeff-En:   0.000D+00 0.000D+00 0.000D+00 0.100D+01
 Coeff:     -0.143D+01 0.162D+01 0.820D-01 0.721D+00
 Gap=     0.086 Goal=   None    Shift=    0.000
 RMSDP=4.09D-04 MaxDP=7.38D-02 DE=-1.78D-03 OVMax= 1.96D-02

 Cycle   5  Pass 1  IDiag  1:
 E= -61.9546044724806     Delta-E=       -0.000310710447 Rises=F Damp=F
 DIIS: error= 5.05D-04 at cycle   5 NSaved=   5.
 NSaved= 5 IEnMin= 5 EnMin= -61.9546044724806     IErMin= 5 ErrMin= 5.05D-04
 ErrMax= 5.05D-04  0.00D+00 EMaxC= 1.00D-01 BMatC= 4.04D-05 BMatP= 8.23D-05
 IDIUse=3 WtCom= 9.95D-01 WtEn= 5.05D-03
 Coeff-Com: -0.327D+00 0.372D+00-0.201D+00 0.516D-01 0.110D+01
 Coeff-En:   0.000D+00 0.000D+00 0.000D+00 0.000D+00 0.100D+01
 Coeff:     -0.325D+00 0.370D+00-0.200D+00 0.513D-01 0.110D+01
 Gap=     0.085 Goal=   None    Shift=    0.000
 RMSDP=1.36D-04 MaxDP=1.43D-02 DE=-3.11D-04 OVMax= 1.62D-02

 Cycle   6  Pass 1  IDiag  1:
 E= -61.9547797308284     Delta-E=       -0.000175258348 Rises=F Damp=F
 DIIS: error= 3.47D-04 at cycle   6 NSaved=   6.
 NSaved= 6 IEnMin= 6 EnMin= -61.9547797308284     IErMin= 6 ErrMin= 3.47D-04
 ErrMax= 3.47D-04  0.00D+00 EMaxC= 1.00D-01 BMatC= 8.82D-06 BMatP= 4.04D-05
 IDIUse=3 WtCom= 9.97D-01 WtEn= 3.47D-03
 Coeff-Com:  0.333D+00-0.379D+00-0.711D-01-0.175D+00-0.126D+00 0.142D+01
 Coeff-En:   0.000D+00 0.000D+00 0.000D+00 0.000D+00 0.000D+00 0.100D+01
 Coeff:      0.332D+00-0.378D+00-0.708D-01-0.174D+00-0.126D+00 0.142D+01
 Gap=     0.085 Goal=   None    Shift=    0.000
 RMSDP=1.50D-04 MaxDP=1.40D-02 DE=-1.75D-04 OVMax= 1.86D-02

 Cycle   7  Pass 1  IDiag  1:
 E= -61.9548317059380     Delta-E=       -0.000051975110 Rises=F Damp=F
 DIIS: error= 1.62D-04 at cycle   7 NSaved=   7.
 NSaved= 7 IEnMin= 7 EnMin= -61.9548317059380     IErMin= 7 ErrMin= 1.62D-04
 ErrMax= 1.62D-04  0.00D+00 EMaxC= 1.00D-01 BMatC= 2.49D-06 BMatP= 8.82D-06
 IDIUse=3 WtCom= 9.98D-01 WtEn= 1.62D-03
 Coeff-Com:  0.156D+00-0.178D+00 0.363D-01 0.281D-01-0.301D+00 0.378D+00
 Coeff-Com:  0.880D+00
 Coeff-En:   0.000D+00 0.000D+00 0.000D+00 0.000D+00 0.000D+00 0.000D+00
 Coeff-En:   0.100D+01
 Coeff:      0.156D+00-0.178D+00 0.362D-01 0.281D-01-0.300D+00 0.377D+00
 Coeff:      0.881D+00
 Gap=     0.086 Goal=   None    Shift=    0.000
 RMSDP=1.26D-04 MaxDP=2.12D-02 DE=-5.20D-05 OVMax= 5.44D-03

 Cycle   8  Pass 1  IDiag  1:
 E= -61.9548414542846     Delta-E=       -0.000009748347 Rises=F Damp=F
 DIIS: error= 8.37D-05 at cycle   8 NSaved=   8.
 NSaved= 8 IEnMin= 8 EnMin= -61.9548414542846     IErMin= 8 ErrMin= 8.37D-05
 ErrMax= 8.37D-05  0.00D+00 EMaxC= 1.00D-01 BMatC= 6.08D-07 BMatP= 2.49D-06
 IDIUse=1 WtCom= 1.00D+00 WtEn= 0.00D+00
 Coeff-Com:  0.201D-01-0.229D-01 0.142D-01 0.480D-01 0.633D-01-0.306D+00
 Coeff-Com: -0.514D-01 0.124D+01
 Coeff:      0.201D-01-0.229D-01 0.142D-01 0.480D-01 0.633D-01-0.306D+00
 Coeff:     -0.514D-01 0.124D+01
 Gap=     0.086 Goal=   None    Shift=    0.000
 RMSDP=7.29D-05 MaxDP=1.39D-02 DE=-9.75D-06 OVMax= 1.93D-03

 Cycle   9  Pass 1  IDiag  1:
 E= -61.9548442600950     Delta-E=       -0.000002805810 Rises=F Damp=F
 DIIS: error= 3.79D-05 at cycle   9 NSaved=   9.
 NSaved= 9 IEnMin= 9 EnMin= -61.9548442600950     IErMin= 9 ErrMin= 3.79D-05
 ErrMax= 3.79D-05  0.00D+00 EMaxC= 1.00D-01 BMatC= 1.11D-07 BMatP= 6.08D-07
 IDIUse=1 WtCom= 1.00D+00 WtEn= 0.00D+00
 Coeff-Com: -0.133D-02 0.162D-02-0.141D-01-0.307D-01 0.100D+00-0.534D-01
 Coeff-Com: -0.253D+00-0.197D+00 0.145D+01
 Coeff:     -0.133D-02 0.162D-02-0.141D-01-0.307D-01 0.100D+00-0.534D-01
 Coeff:     -0.253D+00-0.197D+00 0.145D+01
 Gap=     0.086 Goal=   None    Shift=    0.000
 RMSDP=2.76D-05 MaxDP=4.82D-03 DE=-2.81D-06 OVMax= 9.85D-04

 Cycle  10  Pass 1  IDiag  1:
 E= -61.9548448540538     Delta-E=       -0.000000593959 Rises=F Damp=F
 DIIS: error= 5.39D-06 at cycle  10 NSaved=  10.
 NSaved=10 IEnMin=10 EnMin= -61.9548448540538     IErMin=10 ErrMin= 5.39D-06
 ErrMax= 5.39D-06  0.00D+00 EMaxC= 1.00D-01 BMatC= 4.72D-09 BMatP= 1.11D-07
 IDIUse=1 WtCom= 1.00D+00 WtEn= 0.00D+00
 Coeff-Com: -0.487D-03 0.576D-03-0.303D-02-0.615D-02 0.401D-02 0.171D-01
 Coeff-Com: -0.141D-01-0.106D+00 0.134D+00 0.974D+00
 Coeff:     -0.487D-03 0.576D-03-0.303D-02-0.615D-02 0.401D-02 0.171D-01
 Coeff:     -0.141D-01-0.106D+00 0.134D+00 0.974D+00
 Gap=     0.086 Goal=   None    Shift=    0.000
 RMSDP=7.55D-06 MaxDP=8.83D-04 DE=-5.94D-07 OVMax= 3.77D-04

 Cycle  11  Pass 1  IDiag  1:
 E= -61.9548448738143     Delta-E=       -0.000000019760 Rises=F Damp=F
 DIIS: error= 2.87D-06 at cycle  11 NSaved=  11.
 NSaved=11 IEnMin=11 EnMin= -61.9548448738143     IErMin=11 ErrMin= 2.87D-06
 ErrMax= 2.87D-06  0.00D+00 EMaxC= 1.00D-01 BMatC= 9.82D-10 BMatP= 4.72D-09
 IDIUse=1 WtCom= 1.00D+00 WtEn= 0.00D+00
 Coeff-Com: -0.105D-03 0.116D-03 0.360D-03 0.172D-02-0.938D-02 0.101D-01
 Coeff-Com:  0.227D-01-0.730D-02-0.123D+00 0.324D+00 0.781D+00
 Coeff:     -0.105D-03 0.116D-03 0.360D-03 0.172D-02-0.938D-02 0.101D-01
 Coeff:      0.227D-01-0.730D-02-0.123D+00 0.324D+00 0.781D+00
 Gap=     0.086 Goal=   None    Shift=    0.000
 RMSDP=2.17D-06 MaxDP=2.17D-04 DE=-1.98D-08 OVMax= 1.72D-04

 Cycle  12  Pass 1  IDiag  1:
 E= -61.9548448788511     Delta-E=       -0.000000005037 Rises=F Damp=F
 DIIS: error= 5.45D-07 at cycle  12 NSaved=  12.
 NSaved=12 IEnMin=12 EnMin= -61.9548448788511     IErMin=12 ErrMin= 5.45D-07
 ErrMax= 5.45D-07  0.00D+00 EMaxC= 1.00D-01 BMatC= 4.89D-11 BMatP= 9.82D-10
 IDIUse=1 WtCom= 1.00D+00 WtEn= 0.00D+00
 Coeff-Com:  0.515D-03-0.588D-03 0.138D-03 0.660D-03-0.434D-03-0.951D-03
 Coeff-Com:  0.148D-02 0.115D-01-0.226D-01-0.736D-01 0.610D-01 0.102D+01
 Coeff:      0.515D-03-0.588D-03 0.138D-03 0.660D-03-0.434D-03-0.951D-03
 Coeff:      0.148D-02 0.115D-01-0.226D-01-0.736D-01 0.610D-01 0.102D+01
 Gap=     0.086 Goal=   None    Shift=    0.000
 RMSDP=3.18D-07 MaxDP=3.37D-05 DE=-5.04D-09 OVMax= 2.79D-05

 Cycle  13  Pass 1  IDiag  1:
 E= -61.9548448790997     Delta-E=       -0.000000000249 Rises=F Damp=F
 DIIS: error= 2.46D-07 at cycle  13 NSaved=  13.
 NSaved=13 IEnMin=13 EnMin= -61.9548448790997     IErMin=13 ErrMin= 2.46D-07
 ErrMax= 2.46D-07  0.00D+00 EMaxC= 1.00D-01 BMatC= 5.57D-12 BMatP= 4.89D-11
 IDIUse=1 WtCom= 1.00D+00 WtEn= 0.00D+00
 Coeff-Com:  0.376D-03-0.428D-03-0.198D-04 0.296D-04 0.438D-03-0.380D-03
 Coeff-Com: -0.114D-02 0.125D-02 0.376D-02-0.214D-01-0.351D-01 0.614D-01
 Coeff-Com:  0.991D+00
 Coeff:      0.376D-03-0.428D-03-0.198D-04 0.296D-04 0.438D-03-0.380D-03
 Coeff:     -0.114D-02 0.125D-02 0.376D-02-0.214D-01-0.351D-01 0.614D-01
 Coeff:      0.991D+00
 Gap=     0.086 Goal=   None    Shift=    0.000
 RMSDP=1.32D-07 MaxDP=1.20D-05 DE=-2.49D-10 OVMax= 1.03D-05

 Cycle  14  Pass 1  IDiag  1:
 E= -61.9548448791253     Delta-E=       -0.000000000026 Rises=F Damp=F
 DIIS: error= 1.17D-07 at cycle  14 NSaved=  14.
 NSaved=14 IEnMin=14 EnMin= -61.9548448791253     IErMin=14 ErrMin= 1.17D-07
 ErrMax= 1.17D-07  0.00D+00 EMaxC= 1.00D-01 BMatC= 1.63D-12 BMatP= 5.57D-12
 IDIUse=1 WtCom= 1.00D+00 WtEn= 0.00D+00
 Coeff-Com:  0.159D-03-0.182D-03-0.237D-04-0.158D-04 0.127D-03 0.143D-03
 Coeff-Com: -0.544D-03-0.101D-02 0.288D-02 0.287D-02-0.139D-01-0.857D-01
 Coeff-Com:  0.255D+00 0.840D+00
 Coeff:      0.159D-03-0.182D-03-0.237D-04-0.158D-04 0.127D-03 0.143D-03
 Coeff:     -0.544D-03-0.101D-02 0.288D-02 0.287D-02-0.139D-01-0.857D-01
 Coeff:      0.255D+00 0.840D+00
 Gap=     0.086 Goal=   None    Shift=    0.000
 RMSDP=6.53D-08 MaxDP=6.09D-06 DE=-2.56D-11 OVMax= 5.57D-06

 Cycle  15  Pass 1  IDiag  1:
 E= -61.9548448791335     Delta-E=       -0.000000000008 Rises=F Damp=F
 DIIS: error= 4.30D-08 at cycle  15 NSaved=  15.
 NSaved=15 IEnMin=15 EnMin= -61.9548448791335     IErMin=15 ErrMin= 4.30D-08
 ErrMax= 4.30D-08  0.00D+00 EMaxC= 1.00D-01 BMatC= 2.61D-13 BMatP= 1.63D-12
 IDIUse=1 WtCom= 1.00D+00 WtEn= 0.00D+00
 Coeff-Com:  0.207D-04-0.237D-04-0.613D-05 0.151D-04-0.679D-04 0.149D-03
 Coeff-Com:  0.233D-04-0.294D-03-0.420D-03 0.306D-02 0.437D-02-0.856D-02
 Coeff-Com: -0.140D+00-0.360D-01 0.118D+01
 Coeff:      0.207D-04-0.237D-04-0.613D-05 0.151D-04-0.679D-04 0.149D-03
 Coeff:      0.233D-04-0.294D-03-0.420D-03 0.306D-02 0.437D-02-0.856D-02
 Coeff:     -0.140D+00-0.360D-01 0.118D+01
 Gap=     0.086 Goal=   None    Shift=    0.000
 RMSDP=2.81D-08 MaxDP=5.34D-06 DE=-8.17D-12 OVMax= 2.77D-06

 Cycle  16  Pass 1  IDiag  1:
 E= -61.9548448791351     Delta-E=       -0.000000000002 Rises=F Damp=F
 DIIS: error= 7.27D-09 at cycle  16 NSaved=  16.
 NSaved=16 IEnMin=16 EnMin= -61.9548448791351     IErMin=16 ErrMin= 7.27D-09
 ErrMax= 7.27D-09  0.00D+00 EMaxC= 1.00D-01 BMatC= 9.88D-15 BMatP= 2.61D-13
 IDIUse=1 WtCom= 1.00D+00 WtEn= 0.00D+00
 Coeff-Com:  0.106D-04-0.121D-04-0.141D-05 0.451D-05-0.137D-04 0.992D-05
 Coeff-Com:  0.155D-04 0.803D-04-0.187D-03-0.407D-03 0.104D-02 0.876D-02
 Coeff-Com: -0.178D-01-0.753D-01 0.240D-01 0.106D+01
 Coeff:      0.106D-04-0.121D-04-0.141D-05 0.451D-05-0.137D-04 0.992D-05
 Coeff:      0.155D-04 0.803D-04-0.187D-03-0.407D-03 0.104D-02 0.876D-02
 Coeff:     -0.178D-01-0.753D-01 0.240D-01 0.106D+01
 Gap=     0.086 Goal=   None    Shift=    0.000
 RMSDP=6.64D-09 MaxDP=1.19D-06 DE=-1.58D-12 OVMax= 2.28D-07

 Cycle  17  Pass 1  IDiag  1:
 E= -61.9548448791352     Delta-E=       -0.000000000000 Rises=F Damp=F
 DIIS: error= 2.86D-09 at cycle  17 NSaved=  17.
 NSaved=17 IEnMin=17 EnMin= -61.9548448791352     IErMin=17 ErrMin= 2.86D-09
 ErrMax= 2.86D-09  0.00D+00 EMaxC= 1.00D-01 BMatC= 1.02D-15 BMatP= 9.88D-15
 IDIUse=1 WtCom= 1.00D+00 WtEn= 0.00D+00
 Large coefficients: NSaved= 17 BigCof=    0.00 CofMax=   10.00 Det=-1.43D-15
 Inversion failed.  Reducing to 16 matrices.
 Large coefficients: NSaved= 16 BigCof=    0.00 CofMax=   10.00 Det=-1.72D-15
 Inversion failed.  Reducing to 15 matrices.
 Coeff-Com:  0.507D-06-0.838D-06 0.766D-05-0.982D-05-0.873D-05 0.744D-05
 Coeff-Com:  0.570D-04-0.294D-03-0.455D-03 0.105D-02 0.124D-01 0.371D-02
 Coeff-Com: -0.964D-01-0.635D-01 0.114D+01
 Coeff:      0.507D-06-0.838D-06 0.766D-05-0.982D-05-0.873D-05 0.744D-05
 Coeff:      0.570D-04-0.294D-03-0.455D-03 0.105D-02 0.124D-01 0.371D-02
 Coeff:     -0.964D-01-0.635D-01 0.114D+01
 Gap=     0.086 Goal=   None    Shift=    0.000
 RMSDP=1.40D-09 MaxDP=2.14D-07 DE=-1.14D-13 OVMax= 1.70D-07

 SCF Done:  E(ROHF) =  -61.9548448791     A.U. after   17 cycles
            NFock= 17  Conv=0.14D-08     -V/T= 3.0157
 <Sx>= 0.0000 <Sy>= 0.0000 <Sz>= 0.5000 <S**2>= 0.7500 S= 0.5000
 <L.S>=  0.00000000000    
 KE= 3.073676492105D+01 PE=-1.781759934667D+02 EE= 6.365582371606D+01
 Annihilation of the first spin contaminant:
 S**2 before annihilation     0.7500,   after     0.7500
 Leave Link  502 at Tue Mar 13 21:40:05 2018, MaxMem= 10737418240 cpu:             394.3 elap:              28.0
 (Enter /home1/apps/gaussian/16rA.03/g16/l801.exe)
 Windowed orbitals will be sorted by symmetry type.
 GenMOA:  NOpAll=  4 NOp2=4 NOpUse=  4 JSym2X=1
 FoFJK:  IHMeth= 1 ICntrl=       0 DoSepK=F KAlg= 0 I1Cent=           0 FoldK=F
 IRaf=         0 NMat=       1 IRICut=       1 DoRegI=T DoRafI=F ISym2E= 1 IDoP0=0 IntGTp=1.
 FoFCou: FMM=F IPFlag=           8 FMFlag=      100000 FMFlg1=           0
         NFxFlg=           0 DoJE=F BraDBF=F KetDBF=F FulRan=T
         wScrn=  0.000000 ICntrl=         0 IOpCl=  1 I1Cent=           0 NGrid=           0
         NMat0=    1 NMatS0=      1 NMatT0=    0 NMatD0=    1 NMtDS0=    0 NMtDT0=    0
 Petite list used in FoFCou.
 <Sx>= 0.0000 <Sy>= 0.0000 <Sz>= 0.5000 <S**2>= 0.7500 S= 0.5000
 Range of M.O.s used for correlation:     1   258
 NBasis=   261 NAE=     9 NBE=     8 NFC=     0 NFV=     0
 NROrb=    258 NOA=     9 NOB=     8 NVA=   249 NVB=   250

 **** Warning!!: The largest alpha MO coefficient is  0.34853504D+03


 **** Warning!!: The largest beta MO coefficient is  0.34858181D+03

 Singles contribution to E2=   -0.1883252299D-03
 Leave Link  801 at Tue Mar 13 21:40:12 2018, MaxMem= 10737418240 cpu:             101.5 elap:               6.4
 (Enter /home1/apps/gaussian/16rA.03/g16/l804.exe)
 Open-shell transformation, MDV= 10737418240 ITran=4 ISComp=2.
 Unit  1 TFree=       2053648 TCopy=        917704.
 Semi-Direct transformation.
 ModeAB=           4 MOrb=             9 LenV=   10735344802
 LASXX=     19587894 LTotXX=    19587894 LenRXX=    39492189
 LTotAB=    19904295 MaxLAS=   112417308 LenRXY=           0
 NonZer=    59080083 LenScr=    89384960 LnRSAI=   112417308
 LnScr1=   169388544 LExtra=     8126851 Total=    418809852
 MaxDsk= 67108864000 SrtSym=           T ITran=            4
 DoSDTr:  NPSUse= 16
 JobTyp=1 Pass  1:  I=   1 to   9.
 (rs|ai) integrals will be sorted in core.
 Complete sort for first half transformation.
 First half transformation complete.
 Complete sort for second half transformation.
 Second half transformation complete.
 ModeAB=           4 MOrb=             8 LenV=   10735344802
 LASXX=     17386166 LTotXX=    17386166 LenRXX=    33807986
 LTotAB=    16421820 MaxLAS=    99926496 LenRXY=           0
 NonZer=    51194152 LenScr=    77552640 LnRSAI=    99926496
 LnScr1=   150658560 LExtra=    47619040 Total=    409564722
 MaxDsk= 67108864000 SrtSym=           T ITran=            4
 DoSDTr:  NPSUse= 16
 JobTyp=2 Pass  1:  I=   1 to   8.
 (rs|ai) integrals will be sorted in core.
 Complete sort for first half transformation.
 First half transformation complete.
 Complete sort for second half transformation.
 Second half transformation complete.
 Spin components of T(2) and E(2):
     alpha-alpha T2 =       0.2972078155D-01 E2=     -0.9698503898D-01
     alpha-beta  T2 =       0.1252669700D+00 E2=     -0.4951824858D+00
     beta-beta   T2 =       0.2556654132D-01 E2=     -0.8828070113D-01
 ANorm=    0.1086612883D+01
 E2 =    -0.6806365512D+00 EUMP2 =    -0.62635481430297D+02
 (S**2,0)=  0.75000D+00           (S**2,1)=  0.75000D+00
 E(PUHF)=      -0.61954844879D+02        E(PMP2)=      -0.62635481430D+02
 Leave Link  804 at Tue Mar 13 21:42:13 2018, MaxMem= 10737418240 cpu:            1923.8 elap:             120.4
 (Enter /home1/apps/gaussian/16rA.03/g16/l913.exe)
 CIDS:  MDV= 10737418240.
 IFCWin=0 IBDFC=1 NFBD=     0     0 NFCmp=     0     0 NFFFC=     0     0
 Using original routines for 1st iteration.
 Using DD4UQ or CC4UQ for 2nd and later iterations.
 Keep R2 and R3 ints in memory in symmetry-blocked form, NReq=734615681.
 FoFCou: FMM=F IPFlag=           8 FMFlag=           0 FMFlg1=           0
         NFxFlg=           0 DoJE=F BraDBF=F KetDBF=F FulRan=T
         wScrn=  0.000000 ICntrl=       600 IOpCl=  0 I1Cent=           0 NGrid=           0
         NMat0=    1 NMatS0=  34191 NMatT0=    0 NMatD0=    1 NMtDS0=    0 NMtDT0=    0
 Petite list used in FoFCou.
 CIDS: In Core Option IDoMem=           1.
 CCSD(T)
 =======
 Iterations= 150 Convergence= 0.100D-06
 Produce multiple copies of IABC intergrals
 Iteration Nr.   1
 **********************
 DD1Dir will call FoFMem   1 times, MxPair=       208
 NAB=    72 NAA=    36 NBB=    28.
 DD1Dir will call FoFMem   1 times, MxPair=       208
 NAB=    72 NAA=    36 NBB=    28.
 MP4(R+Q)= -0.42104175D-02
 Maximum subspace dimension=  5
 A-vector RMS=  1.0146771D-04 Max=  3.1380867D-03 conv= 1.00D-05.
 RLE energy=       -0.6629774586
 E3=        0.22323409D-01        EROMP3=      -0.62613158022D+02
 E4(SDQ)=  -0.29463727D-01        ROMP4(SDQ)=  -0.62642621748D+02
 VARIATIONAL ENERGIES WITH THE FIRST-ORDER WAVEFUNCTION:
 DE(Corr)= -0.66250690     E(Corr)=     -62.617351778    
 NORM(A)=   0.10806847D+01
 Iteration Nr.   2
 **********************
 DD1Dir will call FoFMem   1 times, MxPair=       208
 NAB=    72 NAA=    36 NBB=    28.
 A-vector RMS=  5.0709234D-03 Max=  5.2549119D-02 conv= 1.00D-05.
 RLE energy=       -0.6441747218
 DE(Corr)= -0.63866140     E(CORR)=     -62.593506278     Delta= 2.38D-02
 NORM(A)=   0.10786160D+01
 Iteration Nr.   3
 **********************
 DD1Dir will call FoFMem   1 times, MxPair=       208
 NAB=    72 NAA=    36 NBB=    28.
 A-vector RMS=  1.4135985D-03 Max=  1.6466828D-02 conv= 1.00D-05.
 RLE energy=       -0.6657885394
 DE(Corr)= -0.67310108     E(CORR)=     -62.627945955     Delta=-3.44D-02
 NORM(A)=   0.10807246D+01
 Iteration Nr.   4
 **********************
 DD1Dir will call FoFMem   1 times, MxPair=       208
 NAB=    72 NAA=    36 NBB=    28.
 A-vector RMS=  3.5678384D-03 Max=  3.7075962D-02 conv= 1.00D-05.
 RLE energy=       -0.6708219110
 DE(Corr)= -0.64975493     E(CORR)=     -62.604599806     Delta= 2.33D-02
 NORM(A)=   0.10940702D+01
 Iteration Nr.   5
 **********************
 DD1Dir will call FoFMem   1 times, MxPair=       208
 NAB=    72 NAA=    36 NBB=    28.
 A-vector RMS=  6.2700362D-04 Max=  6.8736590D-03 conv= 1.00D-05.
 RLE energy=       -0.6714317608
 DE(Corr)= -0.67421604     E(CORR)=     -62.629060915     Delta=-2.45D-02
 NORM(A)=   0.10957113D+01
 Iteration Nr.   6
 **********************
 DD1Dir will call FoFMem   1 times, MxPair=       208
 NAB=    72 NAA=    36 NBB=    28.
 A-vector RMS=  1.9604503D-04 Max=  3.6693410D-03 conv= 1.00D-05.
 RLE energy=       -0.6714402553
 DE(Corr)= -0.67185460     E(CORR)=     -62.626699475     Delta= 2.36D-03
 NORM(A)=   0.10970021D+01
 Iteration Nr.   7
 **********************
 DD1Dir will call FoFMem   1 times, MxPair=       208
 NAB=    72 NAA=    36 NBB=    28.
 A-vector RMS=  8.2373329D-05 Max=  1.7567253D-03 conv= 1.00D-05.
 RLE energy=       -0.6713401661
 DE(Corr)= -0.67125791     E(CORR)=     -62.626102786     Delta= 5.97D-04
 NORM(A)=   0.10976197D+01
 Iteration Nr.   8
 **********************
 DD1Dir will call FoFMem   1 times, MxPair=       208
 NAB=    72 NAA=    36 NBB=    28.
 A-vector RMS=  4.9098242D-05 Max=  7.3332520D-04 conv= 1.00D-05.
 RLE energy=       -0.6713581550
 DE(Corr)= -0.67137785     E(CORR)=     -62.626222734     Delta=-1.20D-04
 NORM(A)=   0.10978346D+01
 Iteration Nr.   9
 **********************
 DD1Dir will call FoFMem   1 times, MxPair=       208
 NAB=    72 NAA=    36 NBB=    28.
 A-vector RMS=  2.1014621D-05 Max=  2.3486882D-04 conv= 1.00D-05.
 RLE energy=       -0.6714227782
 DE(Corr)= -0.67135576     E(CORR)=     -62.626200636     Delta= 2.21D-05
 NORM(A)=   0.10979610D+01
 Iteration Nr.  10
 **********************
 DD1Dir will call FoFMem   1 times, MxPair=       208
 NAB=    72 NAA=    36 NBB=    28.
 A-vector RMS=  8.9095975D-06 Max=  8.5285604D-05 conv= 1.00D-05.
 RLE energy=       -0.6713904603
 DE(Corr)= -0.67137325     E(CORR)=     -62.626218128     Delta=-1.75D-05
 NORM(A)=   0.10979323D+01
 Iteration Nr.  11
 **********************
 DD1Dir will call FoFMem   1 times, MxPair=       208
 NAB=    72 NAA=    36 NBB=    28.
 A-vector RMS=  4.4745730D-06 Max=  5.0492002D-05 conv= 1.00D-05.
 RLE energy=       -0.6713888183
 DE(Corr)= -0.67138674     E(CORR)=     -62.626231616     Delta=-1.35D-05
 NORM(A)=   0.10979264D+01
 Iteration Nr.  12
 **********************
 DD1Dir will call FoFMem   1 times, MxPair=       208
 NAB=    72 NAA=    36 NBB=    28.
 A-vector RMS=  2.3261505D-06 Max=  2.2304461D-05 conv= 1.00D-05.
 RLE energy=       -0.6713857464
 DE(Corr)= -0.67138424     E(CORR)=     -62.626229120     Delta= 2.50D-06
 NORM(A)=   0.10979295D+01
 Iteration Nr.  13
 **********************
 DD1Dir will call FoFMem   1 times, MxPair=       208
 NAB=    72 NAA=    36 NBB=    28.
 A-vector RMS=  1.4704865D-06 Max=  2.2370573D-05 conv= 1.00D-05.
 RLE energy=       -0.6713889700
 DE(Corr)= -0.67138905     E(CORR)=     -62.626233930     Delta=-4.81D-06
 NORM(A)=   0.10979319D+01
 Iteration Nr.  14
 **********************
 DD1Dir will call FoFMem   1 times, MxPair=       208
 NAB=    72 NAA=    36 NBB=    28.
 A-vector RMS=  9.3116086D-07 Max=  8.7932368D-06 conv= 1.00D-05.
 RLE energy=       -0.6713869735
 DE(Corr)= -0.67138637     E(CORR)=     -62.626231252     Delta= 2.68D-06
 NORM(A)=   0.10979358D+01
 Iteration Nr.  15
 **********************
 DD1Dir will call FoFMem   1 times, MxPair=       208
 NAB=    72 NAA=    36 NBB=    28.
 A-vector RMS=  4.4670254D-07 Max=  6.2062400D-06 conv= 1.00D-05.
 RLE energy=       -0.6713892840
 DE(Corr)= -0.67138944     E(CORR)=     -62.626234315     Delta=-3.06D-06
 NORM(A)=   0.10979381D+01
 Iteration Nr.  16
 **********************
 DD1Dir will call FoFMem   1 times, MxPair=       208
 NAB=    72 NAA=    36 NBB=    28.
 A-vector RMS=  2.9307495D-07 Max=  3.6377331D-06 conv= 1.00D-05.
 RLE energy=       -0.6713884852
 DE(Corr)= -0.67138827     E(CORR)=     -62.626233147     Delta= 1.17D-06
 NORM(A)=   0.10979395D+01
 Iteration Nr.  17
 **********************
 DD1Dir will call FoFMem   1 times, MxPair=       208
 NAB=    72 NAA=    36 NBB=    28.
 A-vector RMS=  1.5171591D-07 Max=  1.8028552D-06 conv= 1.00D-05.
 RLE energy=       -0.6713889138
 DE(Corr)= -0.67138904     E(CORR)=     -62.626233917     Delta=-7.70D-07
 NORM(A)=   0.10979402D+01
 Iteration Nr.  18
 **********************
 DD1Dir will call FoFMem   1 times, MxPair=       208
 NAB=    72 NAA=    36 NBB=    28.
 A-vector RMS=  9.4136236D-08 Max=  8.3201444D-07 conv= 1.00D-05.
 RLE energy=       -0.6713888662
 DE(Corr)= -0.67138882     E(CORR)=     -62.626233694     Delta= 2.23D-07
 NORM(A)=   0.10979404D+01
 Iteration Nr.  19
 **********************
 DD1Dir will call FoFMem   1 times, MxPair=       208
 NAB=    72 NAA=    36 NBB=    28.
 A-vector RMS=  4.9094783D-08 Max=  5.8091786D-07 conv= 1.00D-05.
 RLE energy=       -0.6713888280
 DE(Corr)= -0.67138886     E(CORR)=     -62.626233735     Delta=-4.05D-08
 NORM(A)=   0.10979404D+01
 CI/CC converged in   19 iterations to DelEn=-4.05D-08 Conv= 1.00D-07 ErrA1= 4.91D-08 Conv= 1.00D-05
 Wavefunction amplitudes converged. E(Corr)=     -62.626233735    
 Largest amplitude= 7.68D-02
 Time for triples=    11508.25 seconds.
 T4(CCSD)= -0.44782257D-01
 T5(CCSD)=  0.68851062D-02
 CCSD(T)= -0.62664130886D+02
 Discarding MO integrals.
 Leave Link  913 at Tue Mar 13 21:59:21 2018, MaxMem= 10737418240 cpu:           16421.5 elap:            1027.2
 (Enter /home1/apps/gaussian/16rA.03/g16/l601.exe)
 Copying SCF densities to generalized density rwf, IOpCl= 0 IROHF=1.

 **********************************************************************

            Population analysis using the SCF density.

 **********************************************************************

 Orbital symmetries:
       Occupied  (SG) (SG) (PI) (PI) (SG) (PI) (PI) (SG) (SG)
       Virtual   (PI) (PI) (SG) (SG) (DLTA) (DLTA) (PI) (PI) (SG)
                 (PI) (PI) (SG) (DLTA) (DLTA) (SG) (PI) (PI) (SG)
                 (PI) (PI) (SG) (PHI) (PHI) (PI) (PI) (DLTA) (DLTA)
                 (DLTA) (DLTA) (SG) (PI) (PI) (SG) (PI) (PI) (SG)
                 (SG) (SG) (DLTA) (DLTA) (PI) (PI) (DLTA) (DLTA)
                 (?A) (?A) (PHI) (PHI) (SG) (PI) (PI) (PI) (PI)
                 (SG) (PHI) (PHI) (DLTA) (DLTA) (SG) (PI) (PI)
                 (SG) (PI) (PI) (DLTA) (DLTA) (SG) (SG) (DLTA)
                 (DLTA) (PI) (PI) (SG) (SG) (PI) (PI) (PI) (PI)
                 (SG) (PHI) (PHI) (DLTA) (DLTA) (?A) (?A) (PI)
                 (PI) (SG) (DLTA) (DLTA) (SG) (PI) (PI) (PHI) (PHI)
                 (PHI) (PHI) (DLTA) (DLTA) (SG) (PI) (PI) (DLTA)
                 (DLTA) (DLTA) (DLTA) (SG) (SG) (PI) (PI) (SG)
                 (PI) (PI) (SG) (PI) (PI) (SG) (PI) (PI) (SG) (SG)
                 (DLTA) (DLTA) (SG) (PI) (PI) (PHI) (PHI) (PHI)
                 (PHI) (DLTA) (DLTA) (PI) (PI) (DLTA) (DLTA) (PI)
                 (PI) (SG) (DLTA) (DLTA) (SG) (PI) (PI) (?A) (?A)
                 (PHI) (PHI) (DLTA) (DLTA) (SG) (PI) (PI) (SG)
                 (SG) (PI) (PI) (SG) (DLTA) (DLTA) (PI) (PI) (SG)
                 (PI) (PI) (SG) (SG) (SG) (PI) (PI) (SG) (DLTA)
                 (DLTA) (PI) (PI) (SG) (SG) (PI) (PI) (SG) (SG)
                 (DLTA) (DLTA) (PI) (PI) (SG) (PI) (PI) (SG) (DLTA)
                 (DLTA) (PI) (PI) (SG) (SG) (SG) (PI) (PI) (SG)
                 (PI) (PI) (SG) (SG) (SG) (PI) (PI) (SG) (DLTA)
                 (DLTA) (PI) (PI) (SG) (SG) (SG) (PI) (PI) (SG)
                 (PI) (PI) (SG) (SG) (SG) (PI) (PI) (SG) (SG) (PI)
                 (PI) (SG) (SG) (SG) (PI) (PI) (SG) (SG) (SG) (PI)
                 (PI) (SG) (SG) (SG) (SG) (PI) (PI) (SG) (SG) (SG)
                 (SG) (SG)
 The electronic state is 2-SG.
 Alpha  occ. eigenvalues --   -2.63587  -1.66570  -1.60576  -1.60576  -1.12586
 Alpha  occ. eigenvalues --   -0.44190  -0.44190  -0.43895  -0.23982
 Alpha virt. eigenvalues --    0.00312   0.00312   0.01696   0.02290   0.03649
 Alpha virt. eigenvalues --    0.03649   0.03751   0.03751   0.04198   0.04198
 Alpha virt. eigenvalues --    0.04258   0.06025   0.09003   0.09003   0.10734
 Alpha virt. eigenvalues --    0.12496   0.12496   0.13059   0.15432   0.15432
 Alpha virt. eigenvalues --    0.15534   0.16213   0.16213   0.16297   0.16297
 Alpha virt. eigenvalues --    0.16808   0.16808   0.18101   0.18196   0.18196
 Alpha virt. eigenvalues --    0.25261   0.25261   0.26288   0.33159   0.33159
 Alpha virt. eigenvalues --    0.34947   0.39579   0.43336   0.46689   0.46689
 Alpha virt. eigenvalues --    0.46866   0.46866   0.46893   0.46893   0.47207
 Alpha virt. eigenvalues --    0.47207   0.48275   0.48275   0.49819   0.49964
 Alpha virt. eigenvalues --    0.49964   0.55965   0.55965   0.57343   0.61828
 Alpha virt. eigenvalues --    0.61828   0.62048   0.62048   0.68784   0.82250
 Alpha virt. eigenvalues --    0.82250   0.90311   0.97723   0.97723   1.02377
 Alpha virt. eigenvalues --    1.02377   1.03045   1.22513   1.27250   1.27250
 Alpha virt. eigenvalues --    1.31702   1.31702   1.34854   1.53475   1.59838
 Alpha virt. eigenvalues --    1.59838   1.60198   1.60198   1.77223   1.91466
 Alpha virt. eigenvalues --    1.91466   1.92697   1.92697   1.94561   1.94561
 Alpha virt. eigenvalues --    1.97095   1.97095   1.97473   2.10734   2.10734
 Alpha virt. eigenvalues --    2.11838   2.15772   2.15772   2.15927   2.15927
 Alpha virt. eigenvalues --    2.31395   2.31395   2.49382   2.49382   2.59936
 Alpha virt. eigenvalues --    2.72591   2.72591   2.85669   2.85669   2.94546
 Alpha virt. eigenvalues --    2.94546   3.03432   3.05807   3.06827   3.06827
 Alpha virt. eigenvalues --    3.39678   3.53595   3.53595   3.60326   4.04415
 Alpha virt. eigenvalues --    4.04415   4.28348   4.36248   4.36248   5.11791
 Alpha virt. eigenvalues --    5.72792   5.93114   5.93114   6.01321   6.05133
 Alpha virt. eigenvalues --    6.05133   6.62129   6.62129   6.70321   6.70321
 Alpha virt. eigenvalues --    6.70502   6.70502   6.79979   6.79979   6.80438
 Alpha virt. eigenvalues --    6.80438   7.04702   7.04702   7.17513   7.24268
 Alpha virt. eigenvalues --    7.24268   7.30594   7.61714   7.61714   7.75483
 Alpha virt. eigenvalues --    7.75483   7.77671   7.77671   7.82630   7.82630
 Alpha virt. eigenvalues --    7.86731   8.05175   8.05175   8.16348   8.76572
 Alpha virt. eigenvalues --    8.80003   8.80003   9.58086  11.18745  11.18745
 Alpha virt. eigenvalues --   11.29562  11.29562  11.57190  15.02888  15.02888
 Alpha virt. eigenvalues --   15.78145  16.68735  16.83358  17.91572  17.91572
 Alpha virt. eigenvalues --   18.49351  20.76128  20.76128  20.85550  20.85550
 Alpha virt. eigenvalues --   21.09108  34.63389  37.17301  37.17301  37.75873
 Alpha virt. eigenvalues --   38.46965  43.77011  43.77011  43.86672  43.86672
 Alpha virt. eigenvalues --   44.01086  45.66673  45.66673  46.50086  47.78774
 Alpha virt. eigenvalues --   47.78774  47.86038  47.86038  48.03139  70.58181
 Alpha virt. eigenvalues --   74.65430  76.19436  76.19436  76.75058 119.04113
 Alpha virt. eigenvalues --  119.04113 119.70992 127.84307 136.87093 151.35004
 Alpha virt. eigenvalues --  151.35004 151.88002 173.73129 173.73129 173.77500
 Alpha virt. eigenvalues --  173.77500 173.87320 229.32566 257.63843 286.32731
 Alpha virt. eigenvalues --  286.32731 286.92527 302.14049 302.14049 302.65722
 Alpha virt. eigenvalues --  436.35063 555.12384 625.58850 625.58850 626.07689
 Alpha virt. eigenvalues --  878.880021381.127431381.127431381.572381529.64766
 Alpha virt. eigenvalues -- 1876.872443351.961393351.961393352.350474257.28760
 Alpha virt. eigenvalues -- 5659.803149408.268029408.268029408.58860**********
 Alpha virt. eigenvalues -- **************************************************
 Alpha virt. eigenvalues -- ****************************************
     Molecular Orbital Coefficients:
                           4         5         6         7         8
                           O         O         O         O         O
     Eigenvalues --    -1.60576  -1.12586  -0.44190  -0.44190  -0.43895
   1 1   Sc 1S          0.00000   0.00000   0.00000   0.00000   0.00000
   2        2S          0.00000  -0.00000   0.00000   0.00000  -0.00000
   3        3S          0.00000   0.00000   0.00000   0.00000   0.00000
   4        4S          0.00000  -0.00000   0.00000   0.00000  -0.00000
   5        5S          0.00000   0.00000   0.00000   0.00000   0.00000
   6        6S          0.00000  -0.00001   0.00000   0.00000  -0.00001
   7        7S          0.00000   0.00002   0.00000   0.00000   0.00002
   8        8S          0.00000  -0.00006   0.00000   0.00000  -0.00006
   9        9S          0.00000   0.00018   0.00000   0.00000   0.00017
  10       10S          0.00000  -0.00053   0.00000   0.00000  -0.00051
  11       11S          0.00000   0.00156   0.00000   0.00000   0.00153
  12       12S          0.00000  -0.00521   0.00000   0.00000  -0.00519
  13       13S          0.00000  -0.00179   0.00000   0.00000  -0.00266
  14       14S          0.00000   0.06548   0.00000   0.00000   0.07505
  15       15S          0.00000   0.01083   0.00000   0.00000   0.04949
  16       16S          0.00000  -0.12870   0.00000   0.00000  -0.20130
  17       17S          0.00000  -0.05499   0.00000   0.00000  -0.14460
  18       18S          0.00000  -0.02752   0.00000   0.00000  -0.00124
  19       19S          0.00000  -0.01803   0.00000   0.00000  -0.02056
  20       20S          0.00000   0.00130   0.00000   0.00000   0.01554
  21       21S          0.00000  -0.02612   0.00000   0.00000  -0.05694
  22       22S          0.00000  -0.00354   0.00000   0.00000   0.08596
  23       23S          0.00000   0.00046   0.00000   0.00000  -0.00075
  24       24PX         0.00000   0.00000   0.00000   0.00000   0.00000
  25       24PY         0.00000   0.00000   0.00000   0.00000   0.00000
  26       24PZ         0.00000   0.00000   0.00000   0.00000   0.00000
  27       25PX         0.00000   0.00000   0.00000  -0.00000   0.00000
  28       25PY        -0.00000   0.00000  -0.00000   0.00000   0.00000
  29       25PZ         0.00000  -0.00000   0.00000   0.00000  -0.00000
  30       26PX         0.00000   0.00000   0.00000   0.00000   0.00000
  31       26PY         0.00002   0.00000   0.00000   0.00000   0.00000
  32       26PZ         0.00000   0.00000   0.00000   0.00000   0.00000
  33       27PX         0.00000   0.00000   0.00000  -0.00001   0.00000
  34       27PY        -0.00007   0.00000  -0.00001   0.00000   0.00000
  35       27PZ         0.00000  -0.00002   0.00000   0.00000  -0.00000
  36       28PX         0.00000   0.00000   0.00000   0.00003   0.00000
  37       28PY         0.00026   0.00000   0.00003   0.00000   0.00000
  38       28PZ         0.00000   0.00008   0.00000   0.00000   0.00001
  39       29PX         0.00000   0.00000   0.00000  -0.00010   0.00000
  40       29PY        -0.00096   0.00000  -0.00010   0.00000   0.00000
  41       29PZ         0.00000  -0.00032   0.00000   0.00000  -0.00005
  42       30PX         0.00000   0.00000   0.00000   0.00041   0.00000
  43       30PY         0.00380   0.00000   0.00041   0.00000   0.00000
  44       30PZ         0.00000   0.00135   0.00000   0.00000   0.00035
  45       31PX         0.00000   0.00000   0.00000  -0.00039   0.00000
  46       31PY        -0.00420   0.00000  -0.00039   0.00000   0.00000
  47       31PZ         0.00000  -0.00116   0.00000   0.00000   0.00037
  48       32PX         0.00000   0.00000   0.00000  -0.01047   0.00000
  49       32PY        -0.07914   0.00000  -0.01047   0.00000   0.00000
  50       32PZ         0.00000  -0.03475   0.00000   0.00000  -0.02132
  51       33PX         0.00000   0.00000   0.00000   0.02488   0.00000
  52       33PY         0.12350   0.00000   0.02488   0.00000   0.00000
  53       33PZ         0.00000   0.10453   0.00000   0.00000   0.13403
  54       34PX         0.00000   0.00000   0.00000   0.04187   0.00000
  55       34PY         0.31912   0.00000   0.04187   0.00000   0.00000
  56       34PZ         0.00000   0.14207   0.00000   0.00000   0.08158
  57       35PX         0.00000   0.00000   0.00000   0.08703   0.00000
  58       35PY         0.47511   0.00000   0.08703   0.00000   0.00000
  59       35PZ         0.00000   0.19097   0.00000   0.00000   0.20166
  60       36PX         0.00000   0.00000   0.00000   0.04063   0.00000
  61       36PY         0.29212   0.00000   0.04063   0.00000   0.00000
  62       36PZ         0.00000   0.11737   0.00000   0.00000   0.08037
  63       37PX         0.00000   0.00000   0.00000   0.00361   0.00000
  64       37PY         0.03750   0.00000   0.00361   0.00000   0.00000
  65       37PZ         0.00000   0.04127   0.00000   0.00000   0.04429
  66       38PX         0.00000   0.00000   0.00000  -0.00435   0.00000
  67       38PY        -0.00661   0.00000  -0.00435   0.00000   0.00000
  68       38PZ         0.00000   0.00795   0.00000   0.00000   0.00212
  69       39PX         0.00000   0.00000   0.00000   0.01820   0.00000
  70       39PY         0.00157   0.00000   0.01820   0.00000   0.00000
  71       39PZ         0.00000  -0.00011   0.00000   0.00000  -0.01095
  72       40PX         0.00000   0.00000   0.00000  -0.02153   0.00000
  73       40PY        -0.10350   0.00000  -0.02153   0.00000   0.00000
  74       40PZ         0.00000  -0.09729   0.00000   0.00000  -0.13152
  75       41PX         0.00000   0.00000   0.00000  -0.02227   0.00000
  76       41PY        -0.00606   0.00000  -0.02227   0.00000   0.00000
  77       41PZ         0.00000   0.00290   0.00000   0.00000  -0.11210
  78       42PX         0.00000   0.00000   0.00000  -0.00397   0.00000
  79       42PY        -0.00051   0.00000  -0.00397   0.00000   0.00000
  80       42PZ         0.00000  -0.00054   0.00000   0.00000   0.00038
  81       43D 0        0.00000   0.00003   0.00000   0.00000   0.00007
  82       43D+1        0.00000   0.00000   0.00000   0.00005   0.00000
  83       43D-1       -0.00000   0.00000   0.00005   0.00000   0.00000
  84       43D+2        0.00000  -0.00000   0.00000   0.00000  -0.00000
  85       43D-2        0.00000   0.00000   0.00000   0.00000   0.00000
  86       44D 0        0.00000   0.00344   0.00000   0.00000   0.01142
  87       44D+1        0.00000   0.00000   0.00000   0.00664   0.00000
  88       44D-1       -0.00014   0.00000   0.00664   0.00000   0.00000
  89       44D+2        0.00000   0.00000   0.00000   0.00000  -0.00000
  90       44D-2        0.00000   0.00000   0.00000   0.00000   0.00000
  91       45D 0        0.00000   0.01576   0.00000   0.00000   0.05001
  92       45D+1        0.00000   0.00000   0.00000   0.02981   0.00000
  93       45D-1       -0.00058   0.00000   0.02981   0.00000   0.00000
  94       45D+2        0.00000   0.00000   0.00000   0.00000  -0.00000
  95       45D-2        0.00000   0.00000   0.00000   0.00000   0.00000
  96       46D 0        0.00000  -0.00266   0.00000   0.00000   0.06708
  97       46D+1        0.00000   0.00000   0.00000   0.01748   0.00000
  98       46D-1       -0.00542   0.00000   0.01748   0.00000   0.00000
  99       46D+2        0.00000   0.00000   0.00000   0.00000   0.00000
 100       46D-2        0.00000   0.00000   0.00000   0.00000   0.00000
 101       47D 0        0.00000  -0.47303   0.00000   0.00000  -0.31159
 102       47D+1        0.00000   0.00000   0.00000  -0.52952   0.00000
 103       47D-1       -0.06856   0.00000  -0.52952   0.00000   0.00000
 104       47D+2        0.00000   0.00000   0.00000   0.00000   0.00000
 105       47D-2        0.00000   0.00000   0.00000   0.00000   0.00000
 106       48D 0        0.00000   0.03099   0.00000   0.00000   0.14101
 107       48D+1        0.00000   0.00000   0.00000   0.08794   0.00000
 108       48D-1        0.00551   0.00000   0.08794   0.00000   0.00000
 109       48D+2        0.00000   0.00000   0.00000   0.00000   0.00000
 110       48D-2        0.00000   0.00000   0.00000   0.00000   0.00000
 111       49D 0        0.00000  -0.00216   0.00000   0.00000   0.05220
 112       49D+1        0.00000   0.00000   0.00000   0.02570   0.00000
 113       49D-1        0.00261   0.00000   0.02570   0.00000   0.00000
 114       49D+2        0.00000  -0.00000   0.00000   0.00000  -0.00000
 115       49D-2        0.00000   0.00000   0.00000   0.00000   0.00000
 116       50D 0        0.00000   0.00259   0.00000   0.00000   0.01513
 117       50D+1        0.00000   0.00000   0.00000  -0.01187   0.00000
 118       50D-1        0.00108   0.00000  -0.01187   0.00000   0.00000
 119       50D+2        0.00000   0.00000   0.00000   0.00000   0.00000
 120       50D-2        0.00000   0.00000   0.00000   0.00000   0.00000
 121       51D 0        0.00000   0.03958   0.00000   0.00000   0.04125
 122       51D+1        0.00000   0.00000   0.00000   0.05032   0.00000
 123       51D-1        0.00327   0.00000   0.05032   0.00000   0.00000
 124       51D+2        0.00000  -0.00000   0.00000   0.00000  -0.00000
 125       51D-2        0.00000   0.00000   0.00000   0.00000   0.00000
 126       52D 0        0.00000   0.52826   0.00000   0.00000   0.47963
 127       52D+1        0.00000   0.00000   0.00000   0.62784   0.00000
 128       52D-1        0.06986   0.00000   0.62784   0.00000   0.00000
 129       52D+2        0.00000  -0.00000   0.00000   0.00000  -0.00000
 130       52D-2        0.00000   0.00000   0.00000   0.00000   0.00000
 131       53D 0        0.00000  -0.00017   0.00000   0.00000  -0.00000
 132       53D+1        0.00000   0.00000   0.00000   0.00002   0.00000
 133       53D-1       -0.00013   0.00000   0.00002   0.00000   0.00000
 134       53D+2        0.00000   0.00000   0.00000   0.00000   0.00000
 135       53D-2        0.00000   0.00000   0.00000   0.00000   0.00000
 136       54F 0        0.00000  -0.00304   0.00000   0.00000  -0.00556
 137       54F+1        0.00000   0.00000   0.00000  -0.00354   0.00000
 138       54F-1       -0.00148   0.00000  -0.00354   0.00000   0.00000
 139       54F+2        0.00000  -0.00000   0.00000   0.00000  -0.00000
 140       54F-2        0.00000   0.00000   0.00000   0.00000   0.00000
 141       54F+3        0.00000   0.00000   0.00000  -0.00000   0.00000
 142       54F-3       -0.00000   0.00000  -0.00000   0.00000   0.00000
 143       55F 0        0.00000  -0.01170   0.00000   0.00000  -0.01820
 144       55F+1        0.00000   0.00000   0.00000  -0.01850   0.00000
 145       55F-1       -0.00427   0.00000  -0.01850   0.00000   0.00000
 146       55F+2        0.00000  -0.00000   0.00000   0.00000  -0.00000
 147       55F-2        0.00000   0.00000   0.00000   0.00000   0.00000
 148       55F+3        0.00000   0.00000   0.00000   0.00000   0.00000
 149       55F-3        0.00000   0.00000   0.00000   0.00000   0.00000
 150       56F 0        0.00000  -0.00125   0.00000   0.00000  -0.01502
 151       56F+1        0.00000   0.00000   0.00000   0.00301   0.00000
 152       56F-1       -0.00193   0.00000   0.00301   0.00000   0.00000
 153       56F+2        0.00000  -0.00000   0.00000   0.00000  -0.00000
 154       56F-2        0.00000   0.00000   0.00000   0.00000   0.00000
 155       56F+3        0.00000   0.00000   0.00000  -0.00000   0.00000
 156       56F-3       -0.00000   0.00000  -0.00000   0.00000   0.00000
 157       57F 0        0.00000  -0.00129   0.00000   0.00000  -0.00787
 158       57F+1        0.00000   0.00000   0.00000   0.00786   0.00000
 159       57F-1       -0.00050   0.00000   0.00786   0.00000   0.00000
 160       57F+2        0.00000  -0.00000   0.00000   0.00000  -0.00000
 161       57F-2        0.00000   0.00000   0.00000   0.00000   0.00000
 162       57F+3        0.00000   0.00000   0.00000  -0.00000   0.00000
 163       57F-3        0.00000   0.00000  -0.00000   0.00000   0.00000
 164       58G 0        0.00000   0.00077   0.00000   0.00000   0.00099
 165       58G+1        0.00000   0.00000   0.00000   0.00145   0.00000
 166       58G-1       -0.00023   0.00000   0.00145   0.00000   0.00000
 167       58G+2        0.00000  -0.00000   0.00000   0.00000  -0.00000
 168       58G-2        0.00000   0.00000   0.00000   0.00000   0.00000
 169       58G+3        0.00000   0.00000   0.00000  -0.00000   0.00000
 170       58G-3        0.00000   0.00000  -0.00000   0.00000   0.00000
 171       58G+4        0.00000  -0.00000   0.00000   0.00000  -0.00000
 172       58G-4        0.00000   0.00000   0.00000   0.00000   0.00000
 173       59G 0        0.00000   0.00107   0.00000   0.00000   0.00043
 174       59G+1        0.00000   0.00000   0.00000   0.00201   0.00000
 175       59G-1       -0.00005   0.00000   0.00201   0.00000   0.00000
 176       59G+2        0.00000   0.00000   0.00000   0.00000   0.00000
 177       59G-2        0.00000   0.00000   0.00000   0.00000   0.00000
 178       59G+3        0.00000   0.00000   0.00000   0.00000   0.00000
 179       59G-3        0.00000   0.00000   0.00000   0.00000   0.00000
 180       59G+4        0.00000   0.00000   0.00000   0.00000   0.00000
 181       59G-4        0.00000   0.00000   0.00000   0.00000   0.00000
 182       60G 0        0.00000   0.00070   0.00000   0.00000   0.00616
 183       60G+1        0.00000   0.00000   0.00000  -0.00632   0.00000
 184       60G-1        0.00054   0.00000  -0.00632   0.00000   0.00000
 185       60G+2        0.00000   0.00000   0.00000   0.00000   0.00000
 186       60G-2        0.00000   0.00000   0.00000   0.00000   0.00000
 187       60G+3        0.00000   0.00000   0.00000   0.00000   0.00000
 188       60G-3        0.00000   0.00000   0.00000   0.00000   0.00000
 189       60G+4        0.00000  -0.00000   0.00000   0.00000  -0.00000
 190       60G-4        0.00000   0.00000   0.00000   0.00000   0.00000
 191 2   O  1S          0.00000  -0.00000   0.00000   0.00000   0.00000
 192        2S          0.00000   0.00001   0.00000   0.00000  -0.00000
 193        3S          0.00000  -0.00005   0.00000   0.00000   0.00001
 194        4S          0.00000   0.00031   0.00000   0.00000  -0.00005
 195        5S          0.00000  -0.00320   0.00000   0.00000   0.00051
 196        6S          0.00000  -0.04797   0.00000   0.00000   0.00911
 197        7S          0.00000  -0.15752   0.00000   0.00000   0.02395
 198        8S          0.00000   0.52727   0.00000   0.00000  -0.05575
 199        9S          0.00000   0.15016   0.00000   0.00000  -0.02227
 200       10S          0.00000   0.41031   0.00000   0.00000  -0.09121
 201       11S          0.00000  -0.00227   0.00000   0.00000  -0.00743
 202       12S          0.00000   0.04627   0.00000   0.00000  -0.00752
 203       13S          0.00000   0.06808   0.00000   0.00000  -0.02630
 204       14PX         0.00000   0.00000   0.00000  -0.00746   0.00000
 205       14PY         0.00028   0.00000  -0.00746   0.00000   0.00000
 206       14PZ         0.00000   0.00024   0.00000   0.00000   0.00772
 207       15PX         0.00000   0.00000   0.00000  -0.07741   0.00000
 208       15PY         0.00285   0.00000  -0.07741   0.00000   0.00000
 209       15PZ         0.00000   0.00149   0.00000   0.00000   0.08038
 210       16PX         0.00000   0.00000   0.00000  -0.24842   0.00000
 211       16PY         0.00893   0.00000  -0.24842   0.00000   0.00000
 212       16PZ         0.00000   0.00127   0.00000   0.00000   0.25848
 213       17PX         0.00000   0.00000   0.00000  -0.39755   0.00000
 214       17PY         0.01498   0.00000  -0.39755   0.00000   0.00000
 215       17PZ         0.00000   0.01362   0.00000   0.00000   0.41365
 216       18PX         0.00000   0.00000   0.00000  -0.37441   0.00000
 217       18PY         0.00891   0.00000  -0.37441   0.00000   0.00000
 218       18PZ         0.00000   0.04488   0.00000   0.00000   0.33575
 219       19PX         0.00000   0.00000   0.00000  -0.00432   0.00000
 220       19PY         0.00016   0.00000  -0.00432   0.00000   0.00000
 221       19PZ         0.00000  -0.00024   0.00000   0.00000   0.00455
 222       20PX         0.00000   0.00000   0.00000   0.00197   0.00000
 223       20PY        -0.00007   0.00000   0.00197   0.00000   0.00000
 224       20PZ         0.00000  -0.00008   0.00000   0.00000  -0.00203
 225       21PX         0.00000   0.00000   0.00000  -0.09057   0.00000
 226       21PY         0.00263   0.00000  -0.09057   0.00000   0.00000
 227       21PZ         0.00000   0.01611   0.00000   0.00000   0.07900
 228       22D 0        0.00000   0.00005   0.00000   0.00000   0.00529
 229       22D+1        0.00000   0.00000   0.00000  -0.00473   0.00000
 230       22D-1        0.00127   0.00000  -0.00473   0.00000   0.00000
 231       22D+2        0.00000  -0.00000   0.00000   0.00000  -0.00000
 232       22D-2        0.00000   0.00000   0.00000   0.00000   0.00000
 233       23D 0        0.00000   0.00567   0.00000   0.00000   0.02324
 234       23D+1        0.00000   0.00000   0.00000  -0.02668   0.00000
 235       23D-1        0.00414   0.00000  -0.02668   0.00000   0.00000
 236       23D+2        0.00000   0.00000   0.00000   0.00000   0.00000
 237       23D-2        0.00000   0.00000   0.00000   0.00000   0.00000
 238       24D 0        0.00000   0.00003   0.00000   0.00000   0.00025
 239       24D+1        0.00000   0.00000   0.00000  -0.00028   0.00000
 240       24D-1        0.00006   0.00000  -0.00028   0.00000   0.00000
 241       24D+2        0.00000   0.00000   0.00000   0.00000   0.00000
 242       24D-2        0.00000   0.00000   0.00000   0.00000   0.00000
 243       25D 0        0.00000   0.00913   0.00000   0.00000   0.02388
 244       25D+1        0.00000   0.00000   0.00000  -0.04639   0.00000
 245       25D-1        0.00122   0.00000  -0.04639   0.00000   0.00000
 246       25D+2        0.00000  -0.00000   0.00000   0.00000  -0.00000
 247       25D-2        0.00000   0.00000   0.00000   0.00000   0.00000
 248       26F 0        0.00000   0.00017   0.00000   0.00000   0.00273
 249       26F+1        0.00000   0.00000   0.00000  -0.00219   0.00000
 250       26F-1        0.00108   0.00000  -0.00219   0.00000   0.00000
 251       26F+2        0.00000  -0.00000   0.00000   0.00000  -0.00000
 252       26F-2        0.00000   0.00000   0.00000   0.00000   0.00000
 253       26F+3        0.00000   0.00000   0.00000  -0.00000   0.00000
 254       26F-3       -0.00000   0.00000  -0.00000   0.00000   0.00000
 255       27F 0        0.00000   0.00046   0.00000   0.00000   0.00546
 256       27F+1        0.00000   0.00000   0.00000  -0.01029   0.00000
 257       27F-1        0.00073   0.00000  -0.01029   0.00000   0.00000
 258       27F+2        0.00000   0.00000   0.00000   0.00000   0.00000
 259       27F-2        0.00000   0.00000   0.00000   0.00000   0.00000
 260       27F+3        0.00000   0.00000   0.00000  -0.00000   0.00000
 261       27F-3        0.00000   0.00000  -0.00000   0.00000   0.00000
                           9        10        11        12        13
                           O         V         V         V         V
     Eigenvalues --    -0.23982   0.00312   0.00312   0.01696   0.02290
   1 1   Sc 1S          0.00000   0.00000   0.00000  -0.00000  -0.00000
   2        2S         -0.00000   0.00000   0.00000   0.00000   0.00000
   3        3S          0.00000   0.00000   0.00000  -0.00000  -0.00000
   4        4S         -0.00000   0.00000   0.00000   0.00000   0.00000
   5        5S          0.00000   0.00000   0.00000  -0.00000  -0.00000
   6        6S         -0.00001   0.00000   0.00000   0.00000   0.00000
   7        7S          0.00003   0.00000   0.00000  -0.00000  -0.00001
   8        8S         -0.00010   0.00000   0.00000   0.00001   0.00002
   9        9S          0.00030   0.00000   0.00000  -0.00003  -0.00006
  10       10S         -0.00088   0.00000   0.00000   0.00008   0.00017
  11       11S          0.00264   0.00000   0.00000  -0.00008  -0.00043
  12       12S         -0.00888   0.00000   0.00000  -0.00008   0.00125
  13       13S         -0.00351   0.00000   0.00000  -0.00829  -0.00414
  14       14S          0.11884   0.00000   0.00000   0.06678   0.02010
  15       15S          0.04410   0.00000   0.00000   0.20790   0.11269
  16       16S         -0.26634   0.00000   0.00000  -0.33495  -0.15835
  17       17S         -0.31948   0.00000   0.00000  -0.32788  -0.15867
  18       18S          0.27055   0.00000   0.00000   0.60852   0.34579
  19       19S          0.51708   0.00000   0.00000  -1.01362  -2.47729
  20       20S          0.22932   0.00000   0.00000   2.16568   2.68230
  21       21S         -0.06593   0.00000   0.00000  -0.17238  -0.08827
  22       22S          0.08930   0.00000   0.00000   0.41077   0.24261
  23       23S         -0.00554   0.00000   0.00000  -1.89726  -1.96338
  24       24PX         0.00000  -0.00000   0.00000   0.00000   0.00000
  25       24PY         0.00000   0.00000  -0.00000   0.00000   0.00000
  26       24PZ        -0.00000   0.00000   0.00000   0.00000  -0.00000
  27       25PX         0.00000   0.00000   0.00000   0.00000   0.00000
  28       25PY         0.00000   0.00000   0.00000   0.00000   0.00000
  29       25PZ         0.00000   0.00000   0.00000  -0.00000   0.00000
  30       26PX         0.00000  -0.00000   0.00000   0.00000   0.00000
  31       26PY         0.00000   0.00000  -0.00000   0.00000   0.00000
  32       26PZ        -0.00000   0.00000   0.00000   0.00001  -0.00000
  33       27PX         0.00000   0.00002   0.00000   0.00000   0.00000
  34       27PY         0.00000   0.00000   0.00002   0.00000   0.00000
  35       27PZ         0.00001   0.00000   0.00000  -0.00002   0.00000
  36       28PX         0.00000  -0.00007   0.00000   0.00000   0.00000
  37       28PY         0.00000   0.00000  -0.00007   0.00000   0.00000
  38       28PZ        -0.00002   0.00000   0.00000   0.00009  -0.00001
  39       29PX         0.00000   0.00023   0.00000   0.00000   0.00000
  40       29PY         0.00000   0.00000   0.00023   0.00000   0.00000
  41       29PZ         0.00009   0.00000   0.00000  -0.00028   0.00005
  42       30PX         0.00000  -0.00077   0.00000   0.00000   0.00000
  43       30PY         0.00000   0.00000  -0.00077   0.00000   0.00000
  44       30PZ        -0.00039   0.00000   0.00000   0.00084  -0.00019
  45       31PX         0.00000   0.00169   0.00000   0.00000   0.00000
  46       31PY         0.00000   0.00000   0.00169   0.00000   0.00000
  47       31PZ         0.00033   0.00000   0.00000  -0.00243   0.00026
  48       32PX         0.00000   0.00246   0.00000   0.00000   0.00000
  49       32PY         0.00000   0.00000   0.00246   0.00000   0.00000
  50       32PZ         0.01104   0.00000   0.00000   0.00765   0.00323
  51       33PX         0.00000   0.07246   0.00000   0.00000   0.00000
  52       33PY         0.00000   0.00000   0.07246   0.00000   0.00000
  53       33PZ        -0.03436   0.00000   0.00000  -0.16322  -0.01446
  54       34PX         0.00000  -0.02574   0.00000   0.00000   0.00000
  55       34PY         0.00000   0.00000  -0.02574   0.00000   0.00000
  56       34PZ        -0.04369   0.00000   0.00000  -0.00723  -0.01956
  57       35PX         0.00000   0.10953   0.00000   0.00000   0.00000
  58       35PY         0.00000   0.00000   0.10953   0.00000   0.00000
  59       35PZ        -0.10917   0.00000   0.00000  -0.25752   0.10725
  60       36PX         0.00000  -0.00313   0.00000   0.00000   0.00000
  61       36PY         0.00000   0.00000  -0.00313   0.00000   0.00000
  62       36PZ        -0.07380   0.00000   0.00000  -0.07161   0.00108
  63       37PX         0.00000  -0.02416   0.00000   0.00000   0.00000
  64       37PY         0.00000   0.00000  -0.02416   0.00000   0.00000
  65       37PZ         0.09456   0.00000   0.00000   0.04467  -0.05016
  66       38PX         0.00000   0.22889   0.00000   0.00000   0.00000
  67       38PY         0.00000   0.00000   0.22889   0.00000   0.00000
  68       38PZ         0.32256   0.00000   0.00000  -0.13016   0.80238
  69       39PX         0.00000  -0.08881   0.00000   0.00000   0.00000
  70       39PY         0.00000   0.00000  -0.08881   0.00000   0.00000
  71       39PZ         0.08304   0.00000   0.00000   0.46539  -0.61936
  72       40PX         0.00000  -0.07563   0.00000   0.00000   0.00000
  73       40PY         0.00000   0.00000  -0.07563   0.00000   0.00000
  74       40PZ         0.03099   0.00000   0.00000   0.16600   0.01493
  75       41PX         0.00000  -0.16952   0.00000   0.00000   0.00000
  76       41PY         0.00000   0.00000  -0.16952   0.00000   0.00000
  77       41PZ         0.04735   0.00000   0.00000   0.29343  -0.13666
  78       42PX         0.00000   0.87943   0.00000   0.00000   0.00000
  79       42PY         0.00000   0.00000   0.87943   0.00000   0.00000
  80       42PZ        -0.00213   0.00000   0.00000  -0.96457   0.78462
  81       43D 0       -0.00002   0.00000   0.00000  -0.00001  -0.00001
  82       43D+1        0.00000   0.00002   0.00000   0.00000   0.00000
  83       43D-1        0.00000   0.00000   0.00002   0.00000   0.00000
  84       43D+2       -0.00000   0.00000   0.00000   0.00000   0.00000
  85       43D-2        0.00000   0.00000   0.00000   0.00000   0.00000
  86       44D 0       -0.00346   0.00000   0.00000  -0.00138   0.00037
  87       44D+1        0.00000   0.00227   0.00000   0.00000   0.00000
  88       44D-1        0.00000   0.00000   0.00227   0.00000   0.00000
  89       44D+2       -0.00000   0.00000   0.00000   0.00000   0.00000
  90       44D-2        0.00000   0.00000   0.00000   0.00000   0.00000
  91       45D 0       -0.01515   0.00000   0.00000  -0.00636   0.00019
  92       45D+1        0.00000   0.01024   0.00000   0.00000   0.00000
  93       45D-1        0.00000   0.00000   0.01024   0.00000   0.00000
  94       45D+2       -0.00000   0.00000   0.00000   0.00000   0.00000
  95       45D-2        0.00000   0.00000   0.00000   0.00000   0.00000
  96       46D 0       -0.02509   0.00000   0.00000  -0.00020   0.04976
  97       46D+1        0.00000   0.00728   0.00000   0.00000   0.00000
  98       46D-1        0.00000   0.00000   0.00728   0.00000   0.00000
  99       46D+2        0.00000   0.00000   0.00000  -0.00000  -0.00000
 100       46D-2        0.00000   0.00000   0.00000   0.00000   0.00000
 101       47D 0       -0.06587   0.00000   0.00000   0.15042   0.92736
 102       47D+1        0.00000  -0.08429   0.00000   0.00000   0.00000
 103       47D-1        0.00000   0.00000  -0.08429   0.00000   0.00000
 104       47D+2        0.00000   0.00000   0.00000  -0.00000  -0.00000
 105       47D-2        0.00000   0.00000   0.00000   0.00000   0.00000
 106       48D 0       -0.06046   0.00000   0.00000  -0.00467   0.03793
 107       48D+1        0.00000   0.03849   0.00000   0.00000   0.00000
 108       48D-1        0.00000   0.00000   0.03849   0.00000   0.00000
 109       48D+2        0.00000   0.00000   0.00000  -0.00000  -0.00000
 110       48D-2        0.00000   0.00000   0.00000   0.00000   0.00000
 111       49D 0       -0.04212   0.00000   0.00000  -0.04227  -0.07046
 112       49D+1        0.00000   0.09776   0.00000   0.00000   0.00000
 113       49D-1        0.00000   0.00000   0.09776   0.00000   0.00000
 114       49D+2       -0.00000   0.00000   0.00000   0.00000   0.00000
 115       49D-2        0.00000   0.00000   0.00000   0.00000   0.00000
 116       50D 0        0.00423   0.00000   0.00000  -0.04202   0.12018
 117       50D+1        0.00000   0.11843   0.00000   0.00000   0.00000
 118       50D-1        0.00000   0.00000   0.11843   0.00000   0.00000
 119       50D+2        0.00000   0.00000   0.00000  -0.00000  -0.00000
 120       50D-2        0.00000   0.00000   0.00000   0.00000   0.00000
 121       51D 0       -0.00630   0.00000   0.00000  -0.01480  -0.05786
 122       51D+1        0.00000   0.01573   0.00000   0.00000   0.00000
 123       51D-1        0.00000   0.00000   0.01573   0.00000   0.00000
[...]
  42       30PX         0.00038   0.00019   0.00019   0.00000
  43       30PY         0.00038   0.00019   0.00019   0.00000
  44       30PZ         0.00038   0.00019   0.00019   0.00000
  45       31PX        -0.00112  -0.00056  -0.00056  -0.00000
  46       31PY        -0.00112  -0.00056  -0.00056  -0.00000
  47       31PZ        -0.00106  -0.00053  -0.00053  -0.00001
  48       32PX        -0.04889  -0.02445  -0.02445  -0.00000
  49       32PY        -0.04889  -0.02445  -0.02445  -0.00000
  50       32PZ        -0.05120  -0.02580  -0.02540  -0.00040
  51       33PX         0.14320   0.07160   0.07160   0.00000
  52       33PY         0.14320   0.07160   0.07160   0.00000
  53       33PZ         0.18196   0.09207   0.08989   0.00218
  54       34PX         0.54963   0.27482   0.27482   0.00000
  55       34PY         0.54963   0.27482   0.27482   0.00000
  56       34PZ         0.56898   0.28621   0.28277   0.00345
  57       35PX         0.94802   0.47401   0.47401   0.00000
  58       35PY         0.94802   0.47401   0.47401   0.00000
  59       35PZ         0.82711   0.41583   0.41129   0.00454
  60       36PX         0.50962   0.25481   0.25481   0.00000
  61       36PY         0.50962   0.25481   0.25481   0.00000
  62       36PZ         0.44800   0.22087   0.22713  -0.00626
  63       37PX         0.03862   0.01931   0.01931   0.00000
  64       37PY         0.03862   0.01931   0.01931   0.00000
  65       37PZ         0.04129   0.03549   0.00580   0.02969
  66       38PX        -0.00123  -0.00061  -0.00061   0.00000
  67       38PY        -0.00123  -0.00061  -0.00061  -0.00000
  68       38PZ         0.12106   0.12899  -0.00793   0.13693
  69       39PX        -0.00568  -0.00284  -0.00284  -0.00000
  70       39PY        -0.00568  -0.00284  -0.00284  -0.00000
  71       39PZ         0.02615   0.02778  -0.00163   0.02941
  72       40PX        -0.12438  -0.06219  -0.06219  -0.00000
  73       40PY        -0.12438  -0.06219  -0.06219  -0.00000
  74       40PZ        -0.16406  -0.08304  -0.08102  -0.00202
  75       41PX        -0.01402  -0.00701  -0.00701  -0.00000
  76       41PY        -0.01402  -0.00701  -0.00701   0.00000
  77       41PZ         0.11651   0.05741   0.05909  -0.00168
  78       42PX         0.00057   0.00028   0.00028   0.00000
  79       42PY         0.00057   0.00028   0.00028   0.00000
  80       42PZ        -0.00031  -0.00037   0.00006  -0.00043
  81       43D 0        0.00000   0.00000   0.00000   0.00000
  82       43D+1        0.00000   0.00000   0.00000   0.00000
  83       43D-1        0.00000   0.00000   0.00000   0.00000
  84       43D+2        0.00000  -0.00000   0.00000  -0.00000
  85       43D-2        0.00000  -0.00000   0.00000  -0.00000
  86       44D 0        0.00204   0.00106   0.00098   0.00008
  87       44D+1        0.00061   0.00031   0.00031   0.00000
  88       44D-1        0.00061   0.00031   0.00031   0.00000
  89       44D+2        0.00000   0.00000   0.00000   0.00000
  90       44D-2       -0.00000  -0.00000   0.00000  -0.00000
  91       45D 0        0.02157   0.01121   0.01036   0.00085
  92       45D+1        0.00668   0.00334   0.00334   0.00000
  93       45D-1        0.00668   0.00334   0.00334   0.00000
  94       45D+2       -0.00000  -0.00000   0.00000  -0.00000
  95       45D-2       -0.00000  -0.00000  -0.00000   0.00000
  96       46D 0        0.04689   0.02465   0.02224   0.00242
  97       46D+1        0.00711   0.00355   0.00355  -0.00000
  98       46D-1        0.00711   0.00355   0.00355  -0.00000
  99       46D+2       -0.00000   0.00000  -0.00000   0.00000
 100       46D-2       -0.00000   0.00000  -0.00000   0.00000
 101       47D 0       -0.49861  -0.24481  -0.25379   0.00898
 102       47D+1       -0.35391  -0.17696  -0.17696   0.00000
 103       47D-1       -0.35391  -0.17696  -0.17696   0.00000
 104       47D+2        0.00000   0.00000   0.00000  -0.00000
 105       47D-2        0.00000   0.00000   0.00000  -0.00000
 106       48D 0        0.16287   0.08618   0.07670   0.00948
 107       48D+1        0.09215   0.04608   0.04608   0.00000
 108       48D-1        0.09215   0.04608   0.04608   0.00000
 109       48D+2        0.00000   0.00000  -0.00000   0.00000
 110       48D-2       -0.00000  -0.00000  -0.00000   0.00000
 111       49D 0        0.00180   0.00332  -0.00152   0.00484
 112       49D+1        0.02616   0.01308   0.01308   0.00000
 113       49D-1        0.02616   0.01308   0.01308   0.00000
 114       49D+2        0.00000   0.00000  -0.00000   0.00000
 115       49D-2        0.00000   0.00000  -0.00000   0.00000
 116       50D 0       -0.00274  -0.00146  -0.00128  -0.00018
 117       50D+1       -0.00557  -0.00279  -0.00279  -0.00000
 118       50D-1       -0.00557  -0.00279  -0.00279  -0.00000
 119       50D+2       -0.00000  -0.00000   0.00000  -0.00000
 120       50D-2       -0.00000  -0.00000   0.00000  -0.00000
 121       51D 0        0.03852   0.01958   0.01895   0.00063
 122       51D+1        0.02140   0.01070   0.01070   0.00000
 123       51D-1        0.02140   0.01070   0.01070   0.00000
 124       51D+2        0.00000   0.00000   0.00000  -0.00000
 125       51D-2       -0.00000   0.00000  -0.00000   0.00000
 126       52D 0        0.70344   0.35043   0.35301  -0.00259
 127       52D+1        0.42299   0.21149   0.21149   0.00000
 128       52D-1        0.42299   0.21149   0.21149   0.00000
 129       52D+2       -0.00000  -0.00000  -0.00000  -0.00000
 130       52D-2       -0.00000  -0.00000  -0.00000  -0.00000
 131       53D 0       -0.00002  -0.00001  -0.00000  -0.00001
 132       53D+1        0.00000   0.00000   0.00000   0.00000
 133       53D-1        0.00000   0.00000   0.00000   0.00000
 134       53D+2        0.00000   0.00000   0.00000   0.00000
 135       53D-2        0.00000   0.00000   0.00000   0.00000
 136       54F 0        0.00058   0.00029   0.00029   0.00000
 137       54F+1        0.00022   0.00011   0.00011   0.00000
 138       54F-1        0.00022   0.00011   0.00011  -0.00000
 139       54F+2       -0.00000   0.00000  -0.00000   0.00000
 140       54F-2       -0.00000   0.00000  -0.00000   0.00000
 141       54F+3        0.00000   0.00000   0.00000   0.00000
 142       54F-3       -0.00000  -0.00000  -0.00000  -0.00000
 143       55F 0        0.00939   0.00470   0.00469   0.00001
 144       55F+1        0.00650   0.00325   0.00325   0.00000
 145       55F-1        0.00650   0.00325   0.00325   0.00000
 146       55F+2        0.00000   0.00000   0.00000  -0.00000
 147       55F-2        0.00000   0.00000   0.00000  -0.00000
 148       55F+3       -0.00000  -0.00000  -0.00000  -0.00000
 149       55F-3       -0.00000   0.00000  -0.00000   0.00000
 150       56F 0       -0.00414  -0.00213  -0.00201  -0.00012
 151       56F+1       -0.00242  -0.00121  -0.00121  -0.00000
 152       56F-1       -0.00242  -0.00121  -0.00121  -0.00000
 153       56F+2       -0.00000  -0.00000   0.00000  -0.00000
 154       56F-2       -0.00000  -0.00000   0.00000  -0.00000
 155       56F+3       -0.00000  -0.00000  -0.00000   0.00000
 156       56F-3        0.00000   0.00000  -0.00000   0.00000
 157       57F 0       -0.00177  -0.00088  -0.00089   0.00001
 158       57F+1       -0.00197  -0.00098  -0.00098  -0.00000
 159       57F-1       -0.00197  -0.00098  -0.00098  -0.00000
 160       57F+2       -0.00000  -0.00000  -0.00000   0.00000
 161       57F-2       -0.00000   0.00000  -0.00000   0.00000
 162       57F+3       -0.00000  -0.00000  -0.00000   0.00000
 163       57F-3       -0.00000  -0.00000  -0.00000  -0.00000
 164       58G 0        0.00009   0.00005   0.00005  -0.00000
 165       58G+1        0.00006   0.00003   0.00003   0.00000
 166       58G-1        0.00006   0.00003   0.00003   0.00000
 167       58G+2       -0.00000  -0.00000  -0.00000   0.00000
 168       58G-2       -0.00000  -0.00000  -0.00000   0.00000
 169       58G+3       -0.00000  -0.00000  -0.00000  -0.00000
 170       58G-3        0.00000   0.00000   0.00000  -0.00000
 171       58G+4        0.00000   0.00000   0.00000   0.00000
 172       58G-4        0.00000   0.00000   0.00000   0.00000
 173       59G 0        0.00063   0.00031   0.00032  -0.00001
 174       59G+1        0.00112   0.00056   0.00056   0.00000
 175       59G-1        0.00112   0.00056   0.00056   0.00000
 176       59G+2        0.00000   0.00000   0.00000  -0.00000
 177       59G-2        0.00000   0.00000   0.00000  -0.00000
 178       59G+3       -0.00000  -0.00000  -0.00000   0.00000
 179       59G-3        0.00000   0.00000   0.00000   0.00000
 180       59G+4        0.00000   0.00000  -0.00000   0.00000
 181       59G-4        0.00000   0.00000   0.00000   0.00000
 182       60G 0       -0.00202  -0.00101  -0.00101   0.00000
 183       60G+1       -0.00247  -0.00123  -0.00123   0.00000
 184       60G-1       -0.00247  -0.00123  -0.00123  -0.00000
 185       60G+2        0.00000   0.00000   0.00000   0.00000
 186       60G-2        0.00000   0.00000   0.00000   0.00000
 187       60G+3        0.00000   0.00000  -0.00000   0.00000
 188       60G-3       -0.00000  -0.00000  -0.00000   0.00000
 189       60G+4       -0.00000  -0.00000   0.00000  -0.00000
 190       60G-4       -0.00000  -0.00000   0.00000  -0.00000
 191 2   O  1S         -0.00000  -0.00000  -0.00000  -0.00000
 192        2S          0.00000   0.00000   0.00000   0.00000
 193        3S         -0.00000  -0.00000  -0.00000  -0.00000
 194        4S          0.00001   0.00000   0.00000   0.00000
 195        5S         -0.00024  -0.00012  -0.00012  -0.00000
 196        6S         -0.01104  -0.00553  -0.00551  -0.00002
 197        7S         -0.10041  -0.05030  -0.05012  -0.00018
 198        8S          1.05927   0.53025   0.52902   0.00123
 199        9S          0.22909   0.11474   0.11435   0.00038
 200       10S          0.77412   0.38616   0.38796  -0.00180
 201       11S         -0.00103  -0.00051  -0.00052   0.00000
 202       12S          0.00827   0.00414   0.00413   0.00002
 203       13S          0.12157   0.06926   0.05231   0.01695
 204       14PX         0.00166   0.00083   0.00083   0.00000
 205       14PY         0.00166   0.00083   0.00083   0.00000
 206       14PZ         0.00182   0.00091   0.00091   0.00000
 207       15PX         0.05608   0.02804   0.02804   0.00000
 208       15PY         0.05608   0.02804   0.02804   0.00000
 209       15PZ         0.06175   0.03088   0.03087   0.00001
 210       16PX         0.33386   0.16693   0.16693   0.00000
 211       16PY         0.33386   0.16693   0.16693   0.00000
 212       16PZ         0.36659   0.18333   0.18326   0.00007
 213       17PX         0.70126   0.35063   0.35063   0.00000
 214       17PY         0.70126   0.35063   0.35063   0.00000
 215       17PZ         0.73826   0.36914   0.36912   0.00002
 216       18PX         0.59793   0.29896   0.29896   0.00000
 217       18PY         0.59793   0.29896   0.29896   0.00000
 218       18PZ         0.39639   0.19771   0.19867  -0.00096
 219       19PX         0.00195   0.00097   0.00097   0.00000
 220       19PY         0.00195   0.00097   0.00097   0.00000
 221       19PZ         0.00218   0.00109   0.00109   0.00000
 222       20PX        -0.00027  -0.00013  -0.00013  -0.00000
 223       20PY        -0.00027  -0.00013  -0.00013  -0.00000
 224       20PZ        -0.00029  -0.00015  -0.00015  -0.00000
 225       21PX         0.07601   0.03801   0.03801   0.00000
 226       21PY         0.07601   0.03801   0.03801   0.00000
 227       21PZ         0.04894   0.02897   0.01997   0.00900
 228       22D 0        0.00072   0.00036   0.00035   0.00001
 229       22D+1        0.00037   0.00018   0.00018   0.00000
 230       22D-1        0.00037   0.00018   0.00018   0.00000
 231       22D+2        0.00000   0.00000  -0.00000   0.00000
 232       22D-2       -0.00000  -0.00000  -0.00000   0.00000
 233       23D 0        0.00827   0.00421   0.00406   0.00015
 234       23D+1        0.00670   0.00335   0.00335   0.00000
 235       23D-1        0.00670   0.00335   0.00335   0.00000
 236       23D+2       -0.00000  -0.00000  -0.00000  -0.00000
 237       23D-2       -0.00000   0.00000  -0.00000   0.00000
 238       24D 0        0.00000   0.00000   0.00000   0.00000
 239       24D+1        0.00000   0.00000   0.00000   0.00000
 240       24D-1        0.00000   0.00000   0.00000   0.00000
 241       24D+2        0.00000   0.00000   0.00000  -0.00000
 242       24D-2       -0.00000  -0.00000   0.00000  -0.00000
 243       25D 0       -0.00358  -0.00178  -0.00180   0.00002
 244       25D+1        0.00957   0.00478   0.00478   0.00000
 245       25D-1        0.00957   0.00478   0.00478   0.00000
 246       25D+2        0.00000   0.00000   0.00000   0.00000
 247       25D-2        0.00000   0.00000  -0.00000   0.00000
 248       26F 0        0.00051   0.00026   0.00025   0.00001
 249       26F+1        0.00019   0.00009   0.00009   0.00000
 250       26F-1        0.00019   0.00009   0.00009   0.00000
 251       26F+2        0.00000   0.00000   0.00000   0.00000
 252       26F-2       -0.00000   0.00000  -0.00000   0.00000
 253       26F+3        0.00000   0.00000   0.00000   0.00000
 254       26F-3       -0.00000  -0.00000  -0.00000  -0.00000
 255       27F 0        0.00125   0.00068   0.00057   0.00011
 256       27F+1        0.00136   0.00068   0.00068   0.00000
 257       27F-1        0.00136   0.00068   0.00068   0.00000
 258       27F+2       -0.00000  -0.00000  -0.00000   0.00000
 259       27F-2        0.00000   0.00000   0.00000  -0.00000
 260       27F+3        0.00000   0.00000   0.00000   0.00000
 261       27F-3        0.00000   0.00000   0.00000  -0.00000
          Condensed to atoms (all electrons):
               1          2
     1  Sc   9.767319  -0.043073
     2  O   -0.043073   7.318827
          Atomic-Atomic Spin Densities.
               1          2
     1  Sc   0.953573   0.021412
     2  O    0.021412   0.003603
 Mulliken charges and spin densities:
               1          2
     1  Sc   1.275754   0.974985
     2  O   -1.275754   0.025015
 Sum of Mulliken charges =  -0.00000   1.00000
 Mulliken charges and spin densities with hydrogens summed into heavy atoms:
               1          2
     1  Sc   1.275754   0.974985
     2  O   -1.275754   0.025015
 Electronic spatial extent (au):  <R**2>=             92.5702
 Charge=             -0.0000 electrons
 Dipole moment (field-independent basis, Debye):
    X=              0.0000    Y=              0.0000    Z=              3.8594  Tot=              3.8594
 Quadrupole moment (field-independent basis, Debye-Ang):
   XX=            -21.8752   YY=            -21.8752   ZZ=            -31.7795
   XY=              0.0000   XZ=              0.0000   YZ=              0.0000
 Traceless Quadrupole moment (field-independent basis, Debye-Ang):
   XX=              3.3014   YY=              3.3014   ZZ=             -6.6029
   XY=              0.0000   XZ=              0.0000   YZ=              0.0000
 Octapole moment (field-independent basis, Debye-Ang**2):
  XXX=              0.0000  YYY=              0.0000  ZZZ=            -11.0742  XYY=              0.0000
  XXY=              0.0000  XXZ=             -3.6074  XZZ=              0.0000  YZZ=              0.0000
  YYZ=             -3.6074  XYZ=              0.0000
 Hexadecapole moment (field-independent basis, Debye-Ang**3):
 XXXX=            -47.7559 YYYY=            -47.7559 ZZZZ=           -171.0216 XXXY=              0.0000
 XXXZ=              0.0000 YYYX=              0.0000 YYYZ=              0.0000 ZZZX=              0.0000
 ZZZY=              0.0000 XXYY=            -15.9186 XXZZ=            -35.6398 YYZZ=            -35.6398
 XXYZ=              0.0000 YYXZ=              0.0000 ZZXY=              0.0000
 N-N= 2.182855995045D+01 E-N=-1.781759935650D+02  KE= 3.073676492105D+01
 Symmetry A1   KE= 1.422832146927D+01
 Symmetry A2   KE=-1.608700822975D-48
 Symmetry B1   KE= 8.254221726016D+00
 Symmetry B2   KE= 8.254221725874D+00
 Symmetry A1   SP= 1.000000000000D+00
 Symmetry A2   SP=-2.760096961107D-49
 Symmetry B1   SP= 7.007772116528D-16
 Symmetry B2   SP= 3.616277098440D-16
 Orbital energies and kinetic energies (alpha):
                                 1                 2
   4         O                -1.605760          2.115657
   5         O                -1.125864          1.246676
   6         O                -0.441901          2.011454
   7         O                -0.441901          2.011454
   8         O                -0.438955          2.572415
   9         O                -0.239819          0.310077
  10         V                 0.003124          0.083692
  11         V                 0.003124          0.083692
  12         V                 0.016958          0.049490
  13         V                 0.022896          0.037493
  14         V                 0.036494          0.052847
 Total kinetic energy from orbitals= 3.104684163088D+01
                          Isotropic Fermi Contact Couplings
        Atom                 a.u.       MegaHertz       Gauss      10(-4) cm-1
     1  Sc(45)             0.00003       0.03286       0.01173       0.01096
     2  O(17)              0.00004      -0.02642      -0.00943      -0.00881
 --------------------------------------------------------
       Center         ----  Spin Dipole Couplings  ----
                      3XX-RR        3YY-RR        3ZZ-RR
 --------------------------------------------------------
     1   Atom       -0.041172     -0.041172      0.082344
     2   Atom       -0.004626     -0.004626      0.009253
 --------------------------------------------------------
                        XY            XZ            YZ
 --------------------------------------------------------
     1   Atom        0.000000      0.000000      0.000000
     2   Atom        0.000000      0.000000      0.000000
 --------------------------------------------------------


 ---------------------------------------------------------------------------------
              Anisotropic Spin Dipole Couplings in Principal Axis System
 ---------------------------------------------------------------------------------

       Atom             a.u.   MegaHertz   Gauss  10(-4) cm-1        Axes

              Baa    -0.0412    -5.345    -1.907    -1.783 -0.0000  1.0000  0.0000
     1 Sc(45) Bbb    -0.0412    -5.345    -1.907    -1.783  1.0000  0.0000  0.0000
              Bcc     0.0823    10.689     3.814     3.566  0.0000  0.0000  1.0000
 
              Baa    -0.0046     0.335     0.119     0.112  1.0000  0.0000  0.0000
     2 O(17)  Bbb    -0.0046     0.335     0.119     0.112 -0.0000  1.0000  0.0000
              Bcc     0.0093    -0.670    -0.239    -0.223  0.0000  0.0000  1.0000
 

 ---------------------------------------------------------------------------------

 No NMR shielding tensors so no spin-rotation constants.
 Leave Link  601 at Tue Mar 13 21:59:24 2018, MaxMem= 10737418240 cpu:              53.6 elap:               3.5
 (Enter /home1/apps/gaussian/16rA.03/g16/l9999.exe)

 Test job not archived.
 1\1\GINC-C414-051\SP\ROCCSD(T)-Full\Gen\O1Sc1(2)\AANNABE\13-Mar-2018\0
 \\#P ROCCSD(T)=(maxcyc=150, Full, SaveAmplitudes, ReadAmplitudes)/Gen 
 5d 7f SCF=(maxcycles=300) Integral(NoXCTest) MaxDisk=500GB Pop=Regular
  Pseudo=Read Guess=Read IOp(5/15=2)\\ScO\\0,2\Sc,0,0.,0.,0.\O,0,0.,0.,
 1.6\\Version=ES64L-G16RevA.03\State=2-SG\HF=-61.9548449\MP2=-62.635481
 4\MP3=-62.613158\PUHF=-61.9548449\PMP2-0=-62.6354814\MP4SDQ=-62.642621
 7\CCSD=-62.6262337\CCSD(T)=-62.6641309\RMSD=1.397e-09\PG=C*V [C*(O1Sc1
 )]\\@


 LENDING MONEY TO FRIENDS CAUSES THEM TO LOSE THEIR MEMORIES.

    --  PETER'S THEORY OF RECIPROCAL INHIBITION OF FISCAL RECALL
 Job cpu time:       0 days  5 hours 15 minutes 33.3 seconds.
 Elapsed time:       0 days  0 hours 19 minutes 48.3 seconds.
 File lengths (MBytes):  RWF=   3530 Int=      0 D2E=      0 Chk=     21 Scr=      1
 Normal termination of Gaussian 16 at Tue Mar 13 21:59:25 2018.
