 Entering Gaussian System, Link 0=g16
 Initial command:
 /home1/apps/gaussian/16rA.03/g16/l1.exe "/tmp/Gau-37050.inp" -scrdir="/tmp/"
 Entering Link 1 = /home1/apps/gaussian/16rA.03/g16/l1.exe PID=     37051.
  
 Copyright (c) 1988,1990,1992,1993,1995,1998,2003,2009,2016,
            Gaussian, Inc.  All Rights Reserved.
  
 This is part of the Gaussian(R) 16 program.  It is based on
 the Gaussian(R) 09 system (copyright 2009, Gaussian, Inc.),
 the Gaussian(R) 03 system (copyright 2003, Gaussian, Inc.),
 the Gaussian(R) 98 system (copyright 1998, Gaussian, Inc.),
 the Gaussian(R) 94 system (copyright 1995, Gaussian, Inc.),
 the Gaussian 92(TM) system (copyright 1992, Gaussian, Inc.),
 the Gaussian 90(TM) system (copyright 1990, Gaussian, Inc.),
 the Gaussian 88(TM) system (copyright 1988, Gaussian, Inc.),
 the Gaussian 86(TM) system (copyright 1986, Carnegie Mellon
 University), and the Gaussian 82(TM) system (copyright 1983,
 Carnegie Mellon University). Gaussian is a federally registered
 trademark of Gaussian, Inc.
  
 This software contains proprietary and confidential information,
 including trade secrets, belonging to Gaussian, Inc.
  
 This software is provided under written license and may be
 used, copied, transmitted, or stored only in accord with that
 written license.
  
 The following legend is applicable only to US Government
 contracts under FAR:
  
                    RESTRICTED RIGHTS LEGEND
  
 Use, reproduction and disclosure by the US Government is
 subject to restrictions as set forth in subparagraphs (a)
 and (c) of the Commercial Computer Software - Restricted
 Rights clause in FAR 52.227-19.
  
 Gaussian, Inc.
 340 Quinnipiac St., Bldg. 40, Wallingford CT 06492
  
  
 ---------------------------------------------------------------
 Warning -- This program may not be used in any manner that
 competes with the business of Gaussian, Inc. or will provide
 assistance to any competitor of Gaussian, Inc.  The licensee
 of this program is prohibited from giving any competitor of
 Gaussian, Inc. access to this program.  By using this program,
 the user acknowledges that Gaussian, Inc. is engaged in the
 business of creating and licensing software in the field of
 computational chemistry and represents and warrants to the
 licensee that it is not a competitor of Gaussian, Inc. and that
 it will not use this program in any manner prohibited above.
 ---------------------------------------------------------------
  

 Cite this work as:
 Gaussian 16, Revision A.03,
 M. J. Frisch, G. W. Trucks, H. B. Schlegel, G. E. Scuseria, 
 M. A. Robb, J. R. Cheeseman, G. Scalmani, V. Barone, 
 G. A. Petersson, H. Nakatsuji, X. Li, M. Caricato, A. V. Marenich, 
 J. Bloino, B. G. Janesko, R. Gomperts, B. Mennucci, H. P. Hratchian, 
 J. V. Ortiz, A. F. Izmaylov, J. L. Sonnenberg, D. Williams-Young, 
 F. Ding, F. Lipparini, F. Egidi, J. Goings, B. Peng, A. Petrone, 
 T. Henderson, D. Ranasinghe, V. G. Zakrzewski, J. Gao, N. Rega, 
 G. Zheng, W. Liang, M. Hada, M. Ehara, K. Toyota, R. Fukuda, 
 J. Hasegawa, M. Ishida, T. Nakajima, Y. Honda, O. Kitao, H. Nakai, 
 T. Vreven, K. Throssell, J. A. Montgomery, Jr., J. E. Peralta, 
 F. Ogliaro, M. J. Bearpark, J. J. Heyd, E. N. Brothers, K. N. Kudin, 
 V. N. Staroverov, T. A. Keith, R. Kobayashi, J. Normand, 
 K. Raghavachari, A. P. Rendell, J. C. Burant, S. S. Iyengar, 
 J. Tomasi, M. Cossi, J. M. Millam, M. Klene, C. Adamo, R. Cammi, 
 J. W. Ochterski, R. L. Martin, K. Morokuma, O. Farkas, 
 J. B. Foresman, and D. J. Fox, Gaussian, Inc., Wallingford CT, 2016.
 
 ******************************************
 Gaussian 16:  ES64L-G16RevA.03 25-Dec-2016
                27-Mar-2018 
 ******************************************
 %mem=80GB
 %cpu=0-31
 SetSPE:  set environment variable "MP_BIND" = "yes"
 SetSPE:  set environment variable "MP_BLIST" = "0,1,2,3,4,5,6,7,8,9,10,11,12,13,14,15,16,17,18,19,20,21,22,23,24,25,26,27,28,29,30,31"
 Will use up to   32 processors via shared memory.
 %chk=tz.chk
 %rwf=/scratch/04843/gwang18/zno/
 ----------------------------------------------------------------------
 #P ROCCSD(T)=(MaxCyc=150, Full)/Gen SCF=(maxcycle=400) Pseudo=Read Int
 egral(NoXCTest) Pop=Regular MaxDisk=500GB Guess=Read IOp(5/15=2)
 ----------------------------------------------------------------------
 1/38=1,172=1/1;
 2/12=2,17=6,18=5,40=1/2;
 3/5=7,11=2,16=1,17=8,25=1,30=1,47=8,116=101/1,2,3;
 4/5=1/1;
 5/5=2,7=400,15=2,38=6/2;
 8/5=-1,6=4,9=120000,10=90/1,4;
 9/5=7,6=150,14=2/13;
 6//1;
 99/5=1,9=1/99;
 Leave Link    1 at Tue Mar 27 23:27:28 2018, MaxMem= 10737418240 cpu:               9.3 elap:               0.3
 (Enter /home1/apps/gaussian/16rA.03/g16/l101.exe)
 ---
 ZnO
 ---
 Symbolic Z-matrix:
 Charge =  0 Multiplicity = 1
 Zn                    0.        0.        0. 
 O                     0.        0.        1.3 
 
 ITRead=  0  0
 MicOpt= -1 -1
 NAtoms=      2 NQM=        2 NQMF=       0 NMMI=      0 NMMIF=      0
                NMic=       0 NMicF=      0.
                    Isotopes and Nuclear Properties:
 (Nuclear quadrupole moments (NQMom) in fm**2, nuclear magnetic moments (NMagM)
  in nuclear magnetons)

  Atom         1           2
 IAtWgt=          64          16
 AtmWgt=  63.9291454  15.9949146
 NucSpn=           0           0
 AtZEff=  -0.0000000  -0.0000000
 NQMom=    0.0000000   0.0000000
 NMagM=    0.0000000   0.0000000
 AtZNuc=  30.0000000   8.0000000
 Leave Link  101 at Tue Mar 27 23:27:29 2018, MaxMem= 10737418240 cpu:               3.2 elap:               0.1
 (Enter /home1/apps/gaussian/16rA.03/g16/l202.exe)
                          Input orientation:                          
 ---------------------------------------------------------------------
 Center     Atomic      Atomic             Coordinates (Angstroms)
 Number     Number       Type             X           Y           Z
 ---------------------------------------------------------------------
      1         30           0        0.000000    0.000000    0.000000
      2          8           0        0.000000    0.000000    1.300000
 ---------------------------------------------------------------------
 Stoichiometry    OZn
 Framework group  C*V[C*(OZn)]
 Deg. of freedom     1
 Full point group                 C*V     NOp   4
 Largest Abelian subgroup         C2V     NOp   4
 Largest concise Abelian subgroup C1      NOp   1
                         Standard orientation:                         
 ---------------------------------------------------------------------
 Center     Atomic      Atomic             Coordinates (Angstroms)
 Number     Number       Type             X           Y           Z
 ---------------------------------------------------------------------
      1         30           0        0.000000    0.000000    0.273684
      2          8           0        0.000000    0.000000   -1.026316
 ---------------------------------------------------------------------
 Rotational constants (GHZ):           0.0000000          23.3736861          23.3736861
 Leave Link  202 at Tue Mar 27 23:27:29 2018, MaxMem= 10737418240 cpu:               0.8 elap:               0.1
 (Enter /home1/apps/gaussian/16rA.03/g16/l301.exe)
 General basis read from cards:  (5D, 7F)
 Centers:       1
 S 1 1.00
     Exponent=  5.8200210000D+06 Coefficients=  1.0000000000D+00
 S 1 1.00
     Exponent=  8.7152340000D+05 Coefficients=  1.0000000000D+00
 S 1 1.00
     Exponent=  1.9833500000D+05 Coefficients=  1.0000000000D+00
 S 1 1.00
     Exponent=  5.6176310000D+04 Coefficients=  1.0000000000D+00
 S 1 1.00
     Exponent=  1.8325820000D+04 Coefficients=  1.0000000000D+00
 S 1 1.00
     Exponent=  6.6149550000D+03 Coefficients=  1.0000000000D+00
 S 1 1.00
     Exponent=  2.5791990000D+03 Coefficients=  1.0000000000D+00
 S 1 1.00
     Exponent=  1.0688490000D+03 Coefficients=  1.0000000000D+00
 S 1 1.00
     Exponent=  4.6510450000D+02 Coefficients=  1.0000000000D+00
 S 1 1.00
     Exponent=  2.1041300000D+02 Coefficients=  1.0000000000D+00
 S 1 1.00
     Exponent=  9.7616290000D+01 Coefficients=  1.0000000000D+00
 S 1 1.00
     Exponent=  4.4380200000D+01 Coefficients=  1.0000000000D+00
 S 1 1.00
     Exponent=  2.1423080000D+01 Coefficients=  1.0000000000D+00
 S 1 1.00
     Exponent=  1.0308910000D+01 Coefficients=  1.0000000000D+00
 S 1 1.00
     Exponent=  4.5536450000D+00 Coefficients=  1.0000000000D+00
 S 1 1.00
     Exponent=  2.1328210000D+00 Coefficients=  1.0000000000D+00
 S 1 1.00
     Exponent=  9.2969700000D-01 Coefficients=  1.0000000000D+00
 S 1 1.00
     Exponent=  1.9214700000D-01 Coefficients=  1.0000000000D+00
 S 1 1.00
     Exponent=  8.7595000000D-02 Coefficients=  1.0000000000D+00
 S 1 1.00
     Exponent=  3.7702000000D-02 Coefficients=  1.0000000000D+00
 S 1 1.00
     Exponent=  7.0381000000D+00 Coefficients=  1.0000000000D+00
 S 1 1.00
     Exponent=  1.8099000000D+00 Coefficients=  1.0000000000D+00
 S 1 1.00
     Exponent=  1.6230000000D-02 Coefficients=  1.0000000000D+00
 P 1 1.00
     Exponent=  2.4411980000D+04 Coefficients=  1.0000000000D+00
 P 1 1.00
     Exponent=  5.7785180000D+03 Coefficients=  1.0000000000D+00
 P 1 1.00
     Exponent=  1.8768620000D+03 Coefficients=  1.0000000000D+00
 P 1 1.00
     Exponent=  7.1823610000D+02 Coefficients=  1.0000000000D+00
 P 1 1.00
     Exponent=  3.0483270000D+02 Coefficients=  1.0000000000D+00
 P 1 1.00
     Exponent=  1.3904530000D+02 Coefficients=  1.0000000000D+00
 P 1 1.00
     Exponent=  6.6804170000D+01 Coefficients=  1.0000000000D+00
 P 1 1.00
     Exponent=  3.3206990000D+01 Coefficients=  1.0000000000D+00
 P 1 1.00
     Exponent=  1.6928160000D+01 Coefficients=  1.0000000000D+00
 P 1 1.00
     Exponent=  8.6962290000D+00 Coefficients=  1.0000000000D+00
 P 1 1.00
     Exponent=  4.3505100000D+00 Coefficients=  1.0000000000D+00
 P 1 1.00
     Exponent=  2.1165230000D+00 Coefficients=  1.0000000000D+00
 P 1 1.00
     Exponent=  9.9538700000D-01 Coefficients=  1.0000000000D+00
 P 1 1.00
     Exponent=  3.7811200000D-01 Coefficients=  1.0000000000D+00
 P 1 1.00
     Exponent=  1.3457900000D-01 Coefficients=  1.0000000000D+00
 P 1 1.00
     Exponent=  4.6282000000D-02 Coefficients=  1.0000000000D+00
 P 1 1.00
     Exponent=  1.0150100000D+01 Coefficients=  1.0000000000D+00
 P 1 1.00
     Exponent=  2.3451000000D+00 Coefficients=  1.0000000000D+00
 P 1 1.00
     Exponent=  1.5920000000D-02 Coefficients=  1.0000000000D+00
 D 1 1.00
     Exponent=  2.0561770000D+02 Coefficients=  1.0000000000D+00
 D 1 1.00
     Exponent=  6.1449810000D+01 Coefficients=  1.0000000000D+00
 D 1 1.00
     Exponent=  2.3056890000D+01 Coefficients=  1.0000000000D+00
 D 1 1.00
     Exponent=  9.5777390000D+00 Coefficients=  1.0000000000D+00
 D 1 1.00
     Exponent=  4.1337340000D+00 Coefficients=  1.0000000000D+00
 D 1 1.00
     Exponent=  1.7475180000D+00 Coefficients=  1.0000000000D+00
 D 1 1.00
     Exponent=  6.9956000000D-01 Coefficients=  1.0000000000D+00
 D 1 1.00
     Exponent=  2.5160800000D-01 Coefficients=  1.0000000000D+00
 D 1 1.00
     Exponent=  7.7440000000D+00 Coefficients=  1.0000000000D+00
 D 1 1.00
     Exponent=  3.9663000000D+00 Coefficients=  1.0000000000D+00
 D 1 1.00
     Exponent=  9.0490000000D-02 Coefficients=  1.0000000000D+00
 F 1 1.00
     Exponent=  1.0327000000D+01 Coefficients=  1.0000000000D+00
 F 1 1.00
     Exponent=  4.0202000000D+00 Coefficients=  1.0000000000D+00
 F 1 1.00
     Exponent=  1.4851000000D+00 Coefficients=  1.0000000000D+00
 F 1 1.00
     Exponent=  5.4861000000D-01 Coefficients=  1.0000000000D+00
 G 1 1.00
     Exponent=  9.2538000000D+00 Coefficients=  1.0000000000D+00
 G 1 1.00
     Exponent=  4.1144000000D+00 Coefficients=  1.0000000000D+00
 G 1 1.00
     Exponent=  1.8293300000D+00 Coefficients=  1.0000000000D+00
 ****
 Centers:       2
 S 1 1.00
     Exponent=  1.5330000000D+04 Coefficients=  1.0000000000D+00
 S 1 1.00
     Exponent=  2.2990000000D+03 Coefficients=  1.0000000000D+00
 S 1 1.00
     Exponent=  5.2240000000D+02 Coefficients=  1.0000000000D+00
 S 1 1.00
     Exponent=  1.4730000000D+02 Coefficients=  1.0000000000D+00
 S 1 1.00
     Exponent=  4.7550000000D+01 Coefficients=  1.0000000000D+00
 S 1 1.00
     Exponent=  1.6760000000D+01 Coefficients=  1.0000000000D+00
 S 1 1.00
     Exponent=  6.2070000000D+00 Coefficients=  1.0000000000D+00
 S 1 1.00
     Exponent=  6.8820000000D-01 Coefficients=  1.0000000000D+00
 S 1 1.00
     Exponent=  1.7520000000D+00 Coefficients=  1.0000000000D+00
 S 1 1.00
     Exponent=  2.3840000000D-01 Coefficients=  1.0000000000D+00
 S 1 1.00
     Exponent=  7.8450000000D+00 Coefficients=  1.0000000000D+00
 S 1 1.00
     Exponent=  2.1032000000D+01 Coefficients=  1.0000000000D+00
 S 1 1.00
     Exponent=  7.3760000000D-02 Coefficients=  1.0000000000D+00
 P 1 1.00
     Exponent=  3.4460000000D+01 Coefficients=  1.0000000000D+00
 P 1 1.00
     Exponent=  7.7490000000D+00 Coefficients=  1.0000000000D+00
 P 1 1.00
     Exponent=  2.2800000000D+00 Coefficients=  1.0000000000D+00
 P 1 1.00
     Exponent=  7.1560000000D-01 Coefficients=  1.0000000000D+00
 P 1 1.00
     Exponent=  2.1400000000D-01 Coefficients=  1.0000000000D+00
 P 1 1.00
     Exponent=  1.5159000000D+01 Coefficients=  1.0000000000D+00
 P 1 1.00
     Exponent=  5.7437000000D+01 Coefficients=  1.0000000000D+00
 P 1 1.00
     Exponent=  5.9740000000D-02 Coefficients=  1.0000000000D+00
 D 1 1.00
     Exponent=  2.3140000000D+00 Coefficients=  1.0000000000D+00
 D 1 1.00
     Exponent=  6.4500000000D-01 Coefficients=  1.0000000000D+00
 D 1 1.00
     Exponent=  1.5858000000D+01 Coefficients=  1.0000000000D+00
 D 1 1.00
     Exponent=  2.1400000000D-01 Coefficients=  1.0000000000D+00
 F 1 1.00
     Exponent=  1.4280000000D+00 Coefficients=  1.0000000000D+00
 F 1 1.00
     Exponent=  5.0000000000D-01 Coefficients=  1.0000000000D+00
 ****
 ======================================================================================================
                                       Pseudopotential Parameters
 ======================================================================================================
  Center     Atomic      Valence      Angular      Power
  Number     Number     Electrons     Momentum     of R      Exponent        Coefficient   SO-Coeffient
 ======================================================================================================
    1         30           20
                                      G and up 
                                                     2        1.0000000        0.00000000    0.00000000
                                      S - G
                                                     2       34.1740010      399.98639900    0.00000000
                                                     2       14.4563710       85.48975000    0.00000000
                                      P - G
                                                     2       39.8886830       92.38107700    0.00000000
                                                     2       39.6550170      184.77117600    0.00000000
                                                     2       15.2905460       23.00254100    0.00000000
                                                     2       14.9035240       46.05742700    0.00000000
                                      D - G
                                                     2       43.7082960      -13.69073400    0.00000000
                                                     2       43.6985360      -20.54398000    0.00000000
                                                     2       15.1507180       -1.31615400    0.00000000
                                                     2       15.2824410       -1.83871500    0.00000000
                                      F - G
                                                     2        8.1600140       -0.37036000    0.00000000
                                                     2       12.2284220       -1.06294300    0.00000000
    2          8            6
                                      F and up 
                                                     2        1.0000000        0.00000000    0.00000000
                                      S - F
                                                     2       12.9686000       73.60860000    0.00000000
                                      P - F
                                                     2       15.2430000       -3.91720000    0.00000000
                                      D - F
                                                     2        9.6172000       -0.65590000    0.00000000
 ======================================================================================================
 Ernie: Thresh=  0.10000D-02 Tol=  0.10000D-05 Strict=F.
 There are   144 symmetry adapted cartesian basis functions of A1  symmetry.
 There are    30 symmetry adapted cartesian basis functions of A2  symmetry.
 There are    69 symmetry adapted cartesian basis functions of B1  symmetry.
 There are    69 symmetry adapted cartesian basis functions of B2  symmetry.
 There are   114 symmetry adapted basis functions of A1  symmetry.
 There are    27 symmetry adapted basis functions of A2  symmetry.
 There are    60 symmetry adapted basis functions of B1  symmetry.
 There are    60 symmetry adapted basis functions of B2  symmetry.
   261 basis functions,   312 primitive gaussians,   312 cartesian basis functions
    13 alpha electrons       13 beta electrons
       nuclear repulsion energy        48.8471271618 Hartrees.
 IExCor=    0 DFT=F Ex=HF Corr=None ExCW=0 ScaHFX=  1.000000
 ScaDFX=  1.000000  1.000000  1.000000  1.000000 ScalE2=  1.000000  1.000000
 IRadAn=      5 IRanWt=     -1 IRanGd=            0 ICorTp=0 IEmpDi=  4
 NAtoms=    2 NActive=    2 NUniq=    2 SFac= 1.00D+00 NAtFMM=   60 NAOKFM=F Big=F
 Integral buffers will be    131072 words long.
 Raffenetti 2 integral format.
 Two-electron integral symmetry is turned on.
 Leave Link  301 at Tue Mar 27 23:27:30 2018, MaxMem= 10737418240 cpu:               8.7 elap:               0.3
 (Enter /home1/apps/gaussian/16rA.03/g16/l302.exe)
 NPDir=0 NMtPBC=     1 NCelOv=     1 NCel=       1 NClECP=     1 NCelD=      1
         NCelK=      1 NCelE2=     1 NClLst=     1 CellRange=     0.0.
 One-electron integrals computed using PRISM.
 One-electron integral symmetry used in STVInt
   4 Symmetry operations used in ECPInt.
 ECPInt:  NShTT=    3828 NPrTT=    3828 LenC2=    3573 LenP2D=    3572.
 LDataN:  DoStor=T MaxTD1= 8 Len=  415
 NBasis=   261 RedAO= T EigKep=  2.96D-06  NBF=   114    27    60    60
 NBsUse=   261 1.00D-06 EigRej= -1.00D+00 NBFU=   114    27    60    60
 Leave Link  302 at Tue Mar 27 23:27:32 2018, MaxMem= 10737418240 cpu:              50.1 elap:               1.7
 (Enter /home1/apps/gaussian/16rA.03/g16/l303.exe)
 DipDrv:  MaxL=1.
 Leave Link  303 at Tue Mar 27 23:27:32 2018, MaxMem= 10737418240 cpu:               2.4 elap:               0.1
 (Enter /home1/apps/gaussian/16rA.03/g16/l401.exe)
 Initial guess from the checkpoint file:  "tz.chk"
 B after Tr=     0.000000    0.000000    0.000000
         Rot=    1.000000    0.000000    0.000000    0.000000 Ang=   0.00 deg.
 Guess basis will be translated and rotated to current coordinates.
 JPrj=2 DoOrth=T DoCkMO=T.
 Initial guess orbital symmetries:
       Occupied  (SG) (SG) (PI) (PI) (SG) (PI) (PI) (DLTA) (DLTA)
                 (SG) (PI) (PI) (SG)
       Virtual   (SG) (PI) (PI) (SG) (SG) (PI) (PI) (SG) (SG) (SG)
                 (PI) (PI) (DLTA) (DLTA) (PI) (PI) (SG) (PI) (PI)
                 (SG) (SG) (SG) (DLTA) (DLTA) (PI) (PI) (SG) (DLTA)
                 (DLTA) (PI) (PI) (SG) (PI) (PI) (SG) (PI) (PI)
                 (SG) (PHI) (PHI) (DLTA) (DLTA) (SG) (PI) (PI)
                 (PHI) (PHI) (SG) (DLTA) (DLTA) (SG) (SG) (PI)
                 (PI) (DLTA) (DLTA) (PI) (PI) (DLTA) (DLTA) (SG)
                 (PI) (PI) (SG) (PI) (PI) (SG) (PI) (PI) (SG) (PI)
                 (PI) (PHI) (PHI) (DLTA) (DLTA) (SG) (SG) (PHI)
                 (PHI) (DLTA) (DLTA) (PI) (PI) (SG) (SG) (DLTA)
                 (DLTA) (DLTA) (DLTA) (PI) (PI) (PI) (PI) (?A)
                 (?A) (PHI) (PHI) (DLTA) (DLTA) (SG) (SG) (PI)
                 (PI) (PI) (PI) (SG) (SG) (PHI) (PHI) (DLTA) (DLTA)
                 (PI) (PI) (SG) (PI) (PI) (SG) (DLTA) (DLTA) (PI)
                 (PI) (SG) (SG) (PI) (PI) (SG) (SG) (?A) (?A) (PHI)
                 (PHI) (DLTA) (DLTA) (PI) (PI) (SG) (DLTA) (DLTA)
                 (PI) (PI) (SG) (SG) (PHI) (PHI) (PI) (PI) (DLTA)
                 (DLTA) (PI) (PI) (SG) (SG) (SG) (PI) (PI) (DLTA)
                 (DLTA) (PI) (PI) (SG) (SG) (?A) (?A) (PHI) (PHI)
                 (DLTA) (DLTA) (PI) (PI) (SG) (DLTA) (DLTA) (PI)
                 (PI) (SG) (SG) (PI) (PI) (SG) (SG) (DLTA) (DLTA)
                 (PI) (PI) (SG) (PI) (PI) (SG) (PI) (PI) (SG) (SG)
                 (SG) (PI) (PI) (SG) (DLTA) (DLTA) (PI) (PI) (SG)
                 (SG) (SG) (PI) (PI) (SG) (PI) (PI) (SG) (SG) (SG)
                 (DLTA) (DLTA) (PI) (PI) (SG) (PI) (PI) (SG) (SG)
                 (SG) (PI) (PI) (SG) (SG) (PI) (PI) (SG) (SG) (SG)
                 (PI) (PI) (SG) (SG) (SG) (PI) (PI) (SG) (SG) (SG)
                 (PI) (PI) (SG) (SG) (SG) (SG) (SG)
 The electronic state of the initial guess is 1-SG.
 Leave Link  401 at Tue Mar 27 23:27:33 2018, MaxMem= 10737418240 cpu:              14.6 elap:               0.5
 (Enter /home1/apps/gaussian/16rA.03/g16/l502.exe)
 Keep R1 and R2 ints in memory in symmetry-blocked form, NReq=734602573.
 FoFCou: FMM=F IPFlag=           8 FMFlag=           0 FMFlg1=           0
         NFxFlg=           0 DoJE=F BraDBF=F KetDBF=F FulRan=T
         wScrn=  0.000000 ICntrl=       600 IOpCl=  0 I1Cent=           0 NGrid=           0
         NMat0=    1 NMatS0=  34191 NMatT0=    0 NMatD0=    1 NMtDS0=    0 NMtDT0=    0
 Petite list used in FoFCou.
 Restricted open shell SCF:
 Using DIIS extrapolation, IDIIS=  1040.
 NGot= 10737418240 LenX= 10437146893 LenY= 10437049108
 Requested convergence on RMS density matrix=1.00D-08 within 400 cycles.
 Requested convergence on MAX density matrix=1.00D-06.
 Requested convergence on             energy=1.00D-06.
 No special actions if energy rises.

 Cycle   1  Pass 1  IDiag  1:
 E= -241.464490842548    
 DIIS: error= 3.26D-08 at cycle   1 NSaved=   1.
 NSaved= 1 IEnMin= 1 EnMin= -241.464490842548     IErMin= 1 ErrMin= 3.26D-08
 ErrMax= 3.26D-08  0.00D+00 EMaxC= 1.00D-01 BMatC= 4.29D-14 BMatP= 4.29D-14
 IDIUse=1 WtCom= 1.00D+00 WtEn= 0.00D+00
 Coeff-Com:  0.100D+01
 Coeff:      0.100D+01
 Gap=     0.366 Goal=   None    Shift=    0.000
 RMSDP=1.24D-09 MaxDP=1.00D-07              OVMax= 1.45D-07

 SCF Done:  E(ROHF) =  -241.464490843     A.U. after    1 cycles
            NFock=  1  Conv=0.12D-08     -V/T= 2.4544
 <Sx>= 0.0000 <Sy>= 0.0000 <Sz>= 0.0000 <S**2>=-0.0000 S=-0.0000
 <L.S>=  0.00000000000    
 KE= 1.660263532104D+02 PE=-6.969647761690D+02 EE= 2.406268049542D+02
 Annihilation of the first spin contaminant:
 S**2 before annihilation    -0.0000,   after     0.0000
 Leave Link  502 at Tue Mar 27 23:27:44 2018, MaxMem= 10737418240 cpu:             342.7 elap:              10.8
 (Enter /home1/apps/gaussian/16rA.03/g16/l801.exe)
 Windowed orbitals will be sorted by symmetry type.
 GenMOA:  NOpAll=  4 NOp2=4 NOpUse=  4 JSym2X=1
 FoFJK:  IHMeth= 1 ICntrl=       0 DoSepK=F KAlg= 0 I1Cent=           0 FoldK=F
 IRaf=         0 NMat=       1 IRICut=       1 DoRegI=T DoRafI=F ISym2E= 1 IDoP0=0 IntGTp=1.
 FoFCou: FMM=F IPFlag=           8 FMFlag=      100000 FMFlg1=           0
         NFxFlg=           0 DoJE=F BraDBF=F KetDBF=F FulRan=T
         wScrn=  0.000000 ICntrl=         0 IOpCl=  1 I1Cent=           0 NGrid=           0
         NMat0=    1 NMatS0=      1 NMatT0=    0 NMatD0=    1 NMtDS0=    0 NMtDT0=    0
 Petite list used in FoFCou.
 <Sx>= 0.0000 <Sy>= 0.0000 <Sz>= 0.0000 <S**2>=-0.0000 S=-0.0000
 Range of M.O.s used for correlation:     1   261
 NBasis=   261 NAE=    13 NBE=    13 NFC=     0 NFV=     0
 NROrb=    261 NOA=    13 NOB=    13 NVA=   248 NVB=   248

 **** Warning!!: The largest alpha MO coefficient is  0.20686955D+03


 **** Warning!!: The largest beta MO coefficient is  0.20686955D+03

 Singles contribution to E2=   -0.1592178141D-13
 Leave Link  801 at Tue Mar 27 23:27:49 2018, MaxMem= 10737418240 cpu:             137.8 elap:               4.4
 (Enter /home1/apps/gaussian/16rA.03/g16/l804.exe)
 Open-shell transformation, MDV= 10737418240 ITran=4 ISComp=2.
 Unit  1 TFree=       2048399 TCopy=       1664787.
 Semi-Direct transformation.
 ModeAB=           4 MOrb=            13 LenV=   10735325126
 LASXX=     28704759 LTotXX=    28704759 LenRXX=    57882687
 LTotAB=    29177928 MaxLAS=   163841184 LenRXY=           0
 NonZer=    86587446 LenScr=   130658304 LnRSAI=   163841184
 LnScr1=   246725632 LExtra=    16850756 Total=    615958563
 MaxDsk= 67108864000 SrtSym=           T ITran=            4
 DoSDTr:  NPSUse= 32
 JobTyp=1 Pass  1:  I=   1 to  13.
 (rs|ai) integrals will be sorted in core.
 Complete sort for first half transformation.
 First half transformation complete.
 Begin second half transformation for I=  10.
 Complete sort for second half transformation.
 Second half transformation complete.
 ModeAB=           4 MOrb=            13 LenV=   10735325126
 LASXX=     28704759 LTotXX=    28704759 LenRXX=    55043178
 LTotAB=    26338419 MaxLAS=   163841184 LenRXY=           0
 NonZer=    83747937 LenScr=   126383104 LnRSAI=   163841184
 LnScr1=   246725632 LExtra=    74733443 Total=    666726541
 MaxDsk= 67108864000 SrtSym=           T ITran=            4
 DoSDTr:  NPSUse= 32
 JobTyp=2 Pass  1:  I=   1 to  13.
 (rs|ai) integrals will be sorted in core.
 Complete sort for first half transformation.
 First half transformation complete.
 Begin second half transformation for I=  10.
 Complete sort for second half transformation.
 Second half transformation complete.
 Spin components of T(2) and E(2):
     alpha-alpha T2 =       0.3332616186D-01 E2=     -0.2080521371D+00
     alpha-beta  T2 =       0.1508558742D+00 E2=     -0.9421189737D+00
     beta-beta   T2 =       0.3332616186D-01 E2=     -0.2080521371D+00
 ANorm=    0.1103407539D+01
 E2 =    -0.1358223248D+01 EUMP2 =    -0.24282271409049D+03
 (S**2,0)=  0.00000D+00           (S**2,1)=  0.00000D+00
 E(PUHF)=      -0.24146449084D+03        E(PMP2)=      -0.24282271409D+03
 Leave Link  804 at Tue Mar 27 23:30:04 2018, MaxMem= 10737418240 cpu:            4304.5 elap:             134.7
 (Enter /home1/apps/gaussian/16rA.03/g16/l913.exe)
 CIDS:  MDV= 10737418240.
 IFCWin=0 IBDFC=1 NFBD=     0     0 NFCmp=     0     0 NFFFC=     0     0
 Using original routines for 1st iteration.
 Using DD4UQ or CC4UQ for 2nd and later iterations.
 Keep R2 and R3 ints in memory in symmetry-blocked form, NReq=734620701.
 FoFCou: FMM=F IPFlag=           8 FMFlag=           0 FMFlg1=           0
         NFxFlg=           0 DoJE=F BraDBF=F KetDBF=F FulRan=T
         wScrn=  0.000000 ICntrl=       600 IOpCl=  0 I1Cent=           0 NGrid=           0
         NMat0=    1 NMatS0=  34191 NMatT0=    0 NMatD0=    1 NMtDS0=    0 NMtDT0=    0
 Petite list used in FoFCou.
 CIDS: In Core Option IDoMem=           1.
 CCSD(T)
 =======
 Iterations= 150 Convergence= 0.100D-06
 Produce multiple copies of IABC intergrals
 Iteration Nr.   1
 **********************
 DD1Dir will call FoFMem   1 times, MxPair=       494
 NAB=   169 NAA=    78 NBB=    78.
 DD1Dir will call FoFMem   1 times, MxPair=       494
 NAB=   169 NAA=    78 NBB=    78.
 MP4(R+Q)= -0.18657266D+00
 Maximum subspace dimension=  5
 A-vector RMS=  2.3567841D-05 Max=  1.7107576D-02 conv= 1.00D-05.
 RLE energy=       -1.3553876285
 E3=        0.18941421D+00        EROMP3=      -0.24263329988D+03
 E4(SDQ)=  -0.11666098D+00        ROMP4(SDQ)=  -0.24274996086D+03
 VARIATIONAL ENERGIES WITH THE FIRST-ORDER WAVEFUNCTION:
 DE(Corr)=  -1.3553817     E(Corr)=     -242.81987254    
 NORM(A)=   0.10980857D+01
 Iteration Nr.   2
 **********************
 DD1Dir will call FoFMem   1 times, MxPair=       494
 NAB=   169 NAA=    78 NBB=    78.
 A-vector RMS=  4.7542562D-03 Max=  6.6529778D-02 conv= 1.00D-05.
 RLE energy=       -1.3073988084
 DE(Corr)=  -1.1593126     E(CORR)=     -242.62380348     Delta= 1.96D-01
 NORM(A)=   0.10895667D+01
 Iteration Nr.   3
 **********************
 DD1Dir will call FoFMem   1 times, MxPair=       494
 NAB=   169 NAA=    78 NBB=    78.
 A-vector RMS=  2.9855714D-03 Max=  4.0997087D-02 conv= 1.00D-05.
 RLE energy=       -1.2789307709
 DE(Corr)=  -1.1837032     E(CORR)=     -242.64819404     Delta=-2.44D-02
 NORM(A)=   0.10890853D+01
 Iteration Nr.   4
 **********************
 DD1Dir will call FoFMem   1 times, MxPair=       494
 NAB=   169 NAA=    78 NBB=    78.
 A-vector RMS=  2.5858934D-03 Max=  4.0123641D-02 conv= 1.00D-05.
 RLE energy=       -1.2038477483
 DE(Corr)=  -1.2006190     E(CORR)=     -242.66510983     Delta=-1.69D-02
 NORM(A)=   0.10995229D+01
 Iteration Nr.   5
 **********************
 DD1Dir will call FoFMem   1 times, MxPair=       494
 NAB=   169 NAA=    78 NBB=    78.
 A-vector RMS=  1.3144612D-03 Max=  1.8796958D-02 conv= 1.00D-05.
 RLE energy=       -1.2443415764
 DE(Corr)=  -1.2531912     E(CORR)=     -242.71768203     Delta=-5.26D-02
 NORM(A)=   0.10976175D+01
 Iteration Nr.   6
 **********************
 DD1Dir will call FoFMem   1 times, MxPair=       494
 NAB=   169 NAA=    78 NBB=    78.
 A-vector RMS=  6.3478798D-04 Max=  1.1930964D-02 conv= 1.00D-05.
 RLE energy=       -1.2346180191
 DE(Corr)=  -1.2275823     E(CORR)=     -242.69207317     Delta= 2.56D-02
 NORM(A)=   0.11005501D+01
 Iteration Nr.   7
 **********************
 DD1Dir will call FoFMem   1 times, MxPair=       494
 NAB=   169 NAA=    78 NBB=    78.
 A-vector RMS=  9.1921222D-05 Max=  1.1638225D-03 conv= 1.00D-05.
 RLE energy=       -1.2342174611
 DE(Corr)=  -1.2341957     E(CORR)=     -242.69868658     Delta=-6.61D-03
 NORM(A)=   0.11011473D+01
 Iteration Nr.   8
 **********************
 DD1Dir will call FoFMem   1 times, MxPair=       494
 NAB=   169 NAA=    78 NBB=    78.
 A-vector RMS=  5.7354426D-05 Max=  1.2348701D-03 conv= 1.00D-05.
 RLE energy=       -1.2342723101
 DE(Corr)=  -1.2343512     E(CORR)=     -242.69884204     Delta=-1.55D-04
 NORM(A)=   0.11014634D+01
 Iteration Nr.   9
 **********************
 DD1Dir will call FoFMem   1 times, MxPair=       494
 NAB=   169 NAA=    78 NBB=    78.
 A-vector RMS=  2.9561992D-05 Max=  4.7020342D-04 conv= 1.00D-05.
 RLE energy=       -1.2342769365
 DE(Corr)=  -1.2342130     E(CORR)=     -242.69870386     Delta= 1.38D-04
 NORM(A)=   0.11016137D+01
 Iteration Nr.  10
 **********************
 DD1Dir will call FoFMem   1 times, MxPair=       494
 NAB=   169 NAA=    78 NBB=    78.
 A-vector RMS=  1.6101226D-05 Max=  2.2855863D-04 conv= 1.00D-05.
 RLE energy=       -1.2342211908
 DE(Corr)=  -1.2342634     E(CORR)=     -242.69875420     Delta=-5.03D-05
 NORM(A)=   0.11016222D+01
 Iteration Nr.  11
 **********************
 DD1Dir will call FoFMem   1 times, MxPair=       494
 NAB=   169 NAA=    78 NBB=    78.
 A-vector RMS=  5.5011274D-06 Max=  7.1483134D-05 conv= 1.00D-05.
 RLE energy=       -1.2342647194
 DE(Corr)=  -1.2342579     E(CORR)=     -242.69874879     Delta= 5.41D-06
 NORM(A)=   0.11016012D+01
 Iteration Nr.  12
 **********************
 DD1Dir will call FoFMem   1 times, MxPair=       494
 NAB=   169 NAA=    78 NBB=    78.
 A-vector RMS=  2.7800352D-06 Max=  3.4263411D-05 conv= 1.00D-05.
 RLE energy=       -1.2342415131
 DE(Corr)=  -1.2342392     E(CORR)=     -242.69873009     Delta= 1.87D-05
 NORM(A)=   0.11016065D+01
 Iteration Nr.  13
 **********************
 DD1Dir will call FoFMem   1 times, MxPair=       494
 NAB=   169 NAA=    78 NBB=    78.
 A-vector RMS=  2.4745098D-06 Max=  3.3139889D-05 conv= 1.00D-05.
 RLE energy=       -1.2342506672
 DE(Corr)=  -1.2342587     E(CORR)=     -242.69874950     Delta=-1.94D-05
 NORM(A)=   0.11016032D+01
 Iteration Nr.  14
 **********************
 DD1Dir will call FoFMem   1 times, MxPair=       494
 NAB=   169 NAA=    78 NBB=    78.
 A-vector RMS=  9.0945720D-07 Max=  1.2783393D-05 conv= 1.00D-05.
 RLE energy=       -1.2342525311
 DE(Corr)=  -1.2342504     E(CORR)=     -242.69874125     Delta= 8.25D-06
 NORM(A)=   0.11016056D+01
 Iteration Nr.  15
 **********************
 DD1Dir will call FoFMem   1 times, MxPair=       494
 NAB=   169 NAA=    78 NBB=    78.
 A-vector RMS=  3.1263788D-07 Max=  3.8670172D-06 conv= 1.00D-05.
 RLE energy=       -1.2342513192
 DE(Corr)=  -1.2342506     E(CORR)=     -242.69874144     Delta=-1.96D-07
 NORM(A)=   0.11016068D+01
 Iteration Nr.  16
 **********************
 DD1Dir will call FoFMem   1 times, MxPair=       494
 NAB=   169 NAA=    78 NBB=    78.
 A-vector RMS=  1.7545349D-07 Max=  3.4304409D-06 conv= 1.00D-05.
 RLE energy=       -1.2342518846
 DE(Corr)=  -1.2342521     E(CORR)=     -242.69874292     Delta=-1.48D-06
 NORM(A)=   0.11016070D+01
 Iteration Nr.  17
 **********************
 DD1Dir will call FoFMem   1 times, MxPair=       494
 NAB=   169 NAA=    78 NBB=    78.
 A-vector RMS=  1.1968435D-07 Max=  1.5793670D-06 conv= 1.00D-05.
 RLE energy=       -1.2342518786
 DE(Corr)=  -1.2342516     E(CORR)=     -242.69874249     Delta= 4.34D-07
 NORM(A)=   0.11016073D+01
 Iteration Nr.  18
 **********************
 DD1Dir will call FoFMem   1 times, MxPair=       494
 NAB=   169 NAA=    78 NBB=    78.
 A-vector RMS=  4.3812518D-08 Max=  6.9940202D-07 conv= 1.00D-05.
 RLE energy=       -1.2342518137
 DE(Corr)=  -1.2342518     E(CORR)=     -242.69874268     Delta=-1.90D-07
 NORM(A)=   0.11016075D+01
 Iteration Nr.  19
 **********************
 DD1Dir will call FoFMem   1 times, MxPair=       494
 NAB=   169 NAA=    78 NBB=    78.
 A-vector RMS=  4.1144565D-08 Max=  5.3227781D-07 conv= 1.00D-05.
 RLE energy=       -1.2342519308
 DE(Corr)=  -1.2342520     E(CORR)=     -242.69874280     Delta=-1.27D-07
 NORM(A)=   0.11016074D+01
 Iteration Nr.  20
 **********************
 DD1Dir will call FoFMem   1 times, MxPair=       494
 NAB=   169 NAA=    78 NBB=    78.
 A-vector RMS=  2.5518433D-08 Max=  3.5388601D-07 conv= 1.00D-05.
 RLE energy=       -1.2342519184
 DE(Corr)=  -1.2342518     E(CORR)=     -242.69874268     Delta= 1.20D-07
 NORM(A)=   0.11016074D+01
 Iteration Nr.  21
 **********************
 DD1Dir will call FoFMem   1 times, MxPair=       494
 NAB=   169 NAA=    78 NBB=    78.
 A-vector RMS=  1.4016075D-08 Max=  1.8104001D-07 conv= 1.00D-05.
 RLE energy=       -1.2342519070
 DE(Corr)=  -1.2342519     E(CORR)=     -242.69874270     Delta=-1.74D-08
 NORM(A)=   0.11016074D+01
 CI/CC converged in   21 iterations to DelEn=-1.74D-08 Conv= 1.00D-07 ErrA1= 1.40D-08 Conv= 1.00D-05
 Wavefunction amplitudes converged. E(Corr)=     -242.69874270    
 Largest amplitude= 7.86D-02
 Time for triples=    68939.69 seconds.
 T4(CCSD)= -0.56814764D-01
 T5(CCSD)=  0.88289506D-02
 CCSD(T)= -0.24274672852D+03
 Discarding MO integrals.
 Leave Link  913 at Wed Mar 28 00:17:13 2018, MaxMem= 10737418240 cpu:           89716.0 elap:            2828.1
 (Enter /home1/apps/gaussian/16rA.03/g16/l601.exe)
 Copying SCF densities to generalized density rwf, IOpCl= 0 IROHF=1.

 **********************************************************************

            Population analysis using the SCF density.

 **********************************************************************

 Orbital symmetries:
       Occupied  (SG) (SG) (PI) (PI) (SG) (PI) (PI) (DLTA) (DLTA)
                 (SG) (PI) (PI) (SG)
       Virtual   (SG) (PI) (PI) (SG) (SG) (PI) (PI) (SG) (SG) (SG)
                 (PI) (PI) (DLTA) (DLTA) (PI) (PI) (SG) (PI) (PI)
                 (SG) (SG) (SG) (DLTA) (DLTA) (PI) (PI) (SG) (DLTA)
                 (DLTA) (PI) (PI) (SG) (PI) (PI) (SG) (PI) (PI)
                 (SG) (PHI) (PHI) (DLTA) (DLTA) (SG) (PI) (PI)
                 (PHI) (PHI) (SG) (DLTA) (DLTA) (SG) (SG) (PI)
                 (PI) (DLTA) (DLTA) (PI) (PI) (DLTA) (DLTA) (SG)
                 (PI) (PI) (SG) (PI) (PI) (SG) (PI) (PI) (SG) (PI)
                 (PI) (PHI) (PHI) (DLTA) (DLTA) (SG) (SG) (PHI)
                 (PHI) (DLTA) (DLTA) (PI) (PI) (SG) (SG) (DLTA)
                 (DLTA) (DLTA) (DLTA) (PI) (PI) (PI) (PI) (?A)
                 (?A) (PHI) (PHI) (DLTA) (DLTA) (SG) (SG) (PI)
                 (PI) (PI) (PI) (SG) (SG) (PHI) (PHI) (DLTA) (DLTA)
                 (PI) (PI) (SG) (PI) (PI) (SG) (DLTA) (DLTA) (PI)
                 (PI) (SG) (SG) (PI) (PI) (SG) (SG) (?A) (?A) (PHI)
                 (PHI) (DLTA) (DLTA) (PI) (PI) (SG) (DLTA) (DLTA)
                 (PI) (PI) (SG) (SG) (PHI) (PHI) (PI) (PI) (DLTA)
                 (DLTA) (PI) (PI) (SG) (SG) (SG) (PI) (PI) (DLTA)
                 (DLTA) (PI) (PI) (SG) (SG) (?A) (?A) (PHI) (PHI)
                 (DLTA) (DLTA) (PI) (PI) (SG) (DLTA) (DLTA) (PI)
                 (PI) (SG) (SG) (PI) (PI) (SG) (SG) (DLTA) (DLTA)
                 (PI) (PI) (SG) (PI) (PI) (SG) (PI) (PI) (SG) (SG)
                 (SG) (PI) (PI) (SG) (DLTA) (DLTA) (PI) (PI) (SG)
                 (SG) (SG) (PI) (PI) (SG) (PI) (PI) (SG) (SG) (SG)
                 (DLTA) (DLTA) (PI) (PI) (SG) (PI) (PI) (SG) (SG)
                 (SG) (PI) (PI) (SG) (SG) (PI) (PI) (SG) (SG) (SG)
                 (PI) (PI) (SG) (SG) (SG) (PI) (PI) (SG) (SG) (SG)
                 (PI) (PI) (SG) (SG) (SG) (SG) (SG)
 The electronic state is 1-SG.
 Alpha  occ. eigenvalues --   -5.95763  -4.04723  -4.01643  -4.01643  -1.29634
 Alpha  occ. eigenvalues --   -0.89030  -0.89030  -0.83724  -0.83724  -0.79998
 Alpha  occ. eigenvalues --   -0.43150  -0.43150  -0.39030
 Alpha virt. eigenvalues --   -0.02400   0.03124   0.03124   0.03571   0.04404
 Alpha virt. eigenvalues --    0.10446   0.10446   0.13645   0.18857   0.21357
 Alpha virt. eigenvalues --    0.22664   0.22664   0.25456   0.25456   0.30674
 Alpha virt. eigenvalues --    0.30674   0.31875   0.37734   0.37734   0.39623
 Alpha virt. eigenvalues --    0.63130   0.66603   0.76533   0.76533   0.85469
 Alpha virt. eigenvalues --    0.85469   0.87358   0.90415   0.90415   1.00437
 Alpha virt. eigenvalues --    1.00437   1.03218   1.11686   1.11686   1.17815
 Alpha virt. eigenvalues --    1.22114   1.22114   1.51751   1.80517   1.80517
 Alpha virt. eigenvalues --    1.89102   1.89102   1.91555   2.09760   2.09760
 Alpha virt. eigenvalues --    2.23213   2.23213   2.27150   2.30307   2.30307
 Alpha virt. eigenvalues --    2.49262   2.53037   2.59732   2.59732   2.59836
 Alpha virt. eigenvalues --    2.59836   2.65441   2.65441   2.85865   2.85865
 Alpha virt. eigenvalues --    3.22739   3.39651   3.39651   3.44110   3.52632
 Alpha virt. eigenvalues --    3.52632   4.26466   4.38129   4.38129   4.93673
 Alpha virt. eigenvalues --    5.35163   5.35163   5.35297   5.35297   5.40807
 Alpha virt. eigenvalues --    5.40807   5.43333   5.92738   6.57477   6.57477
 Alpha virt. eigenvalues --    6.58725   6.58725   6.73597   6.73597   6.92944
 Alpha virt. eigenvalues --    7.10133   7.14039   7.14039   7.18810   7.18810
 Alpha virt. eigenvalues --    7.44526   7.44526   7.60087   7.60087   7.74851
 Alpha virt. eigenvalues --    7.74851   7.75982   7.75982   8.08875   8.08875
 Alpha virt. eigenvalues --    8.36512   8.77897   8.81173   8.81173   9.19699
 Alpha virt. eigenvalues --    9.19699   9.36872  10.39765  13.75968  13.75968
 Alpha virt. eigenvalues --   13.85620  13.85620  14.08076  14.08076  14.74747
 Alpha virt. eigenvalues --   14.75865  14.75865  15.37370  15.83330  15.83330
 Alpha virt. eigenvalues --   16.03473  16.03473  16.09326  16.67426  18.68933
 Alpha virt. eigenvalues --   18.68933  19.03071  19.64530  20.19846  20.19846
 Alpha virt. eigenvalues --   20.20546  20.20546  20.32969  20.32969  20.83659
 Alpha virt. eigenvalues --   20.83659  21.28787  30.77255  30.77255  30.94939
 Alpha virt. eigenvalues --   30.94939  31.24293  35.09460  36.17849  36.17849
 Alpha virt. eigenvalues --   36.23836  36.23836  36.24772  36.24772  36.42108
 Alpha virt. eigenvalues --   36.42108  36.61792  37.10030  40.19570  44.13127
 Alpha virt. eigenvalues --   44.13127  44.38000  44.38000  44.56694  44.56694
 Alpha virt. eigenvalues --   44.75992  45.32412  47.40739  47.40739  47.41652
 Alpha virt. eigenvalues --   47.41652  47.49559  47.49559  47.81653  47.81653
 Alpha virt. eigenvalues --   48.18823  55.54256  55.54256  55.72086  55.72086
 Alpha virt. eigenvalues --   56.05642  65.26026  67.07402  67.07402  67.67845
 Alpha virt. eigenvalues --   81.85368 100.12956 100.12956 100.29352 100.29352
 Alpha virt. eigenvalues --  100.57398 114.81995 114.81995 115.72548 120.40523
 Alpha virt. eigenvalues --  120.40523 120.61947 121.22851 162.65338 215.22690
 Alpha virt. eigenvalues --  215.22690 215.66758 217.64946 217.64946 217.78704
 Alpha virt. eigenvalues --  217.78704 218.01647 229.71950 251.47736 268.55331
 Alpha virt. eigenvalues --  268.55331 269.41326 384.05264 384.05264 384.45807
 Alpha virt. eigenvalues --  430.25780 494.70309 689.38412 689.38412 689.47460
 Alpha virt. eigenvalues --  689.47460 689.62513 708.88177 708.88177 709.27900
 Alpha virt. eigenvalues --  822.657171384.945921394.669801394.669801395.05393
 Alpha virt. eigenvalues -- 1657.003272995.634452995.634452995.980113569.61851
 Alpha virt. eigenvalues -- 5295.651447234.288297234.288297234.588948256.50325
 Alpha virt. eigenvalues -- **************************************************
 Alpha virt. eigenvalues -- **************************************************
 Alpha virt. eigenvalues -- ******************************
     Molecular Orbital Coefficients:
                           9        10        11        12        13
                           O         O         O         O         O
     Eigenvalues --    -0.83724  -0.79998  -0.43150  -0.43150  -0.39030
   1 1   Zn 1S          0.00000   0.00000   0.00000   0.00000  -0.00000
   2        2S          0.00000   0.00000   0.00000   0.00000  -0.00000
   3        3S          0.00000  -0.00000   0.00000   0.00000  -0.00000
   4        4S          0.00000   0.00000   0.00000   0.00000  -0.00000
   5        5S          0.00000  -0.00000   0.00000   0.00000   0.00000
   6        6S          0.00000   0.00000   0.00000   0.00000  -0.00001
   7        7S          0.00000  -0.00001   0.00000   0.00000   0.00002
   8        8S          0.00000   0.00003   0.00000   0.00000  -0.00012
   9        9S          0.00000  -0.00006   0.00000   0.00000   0.00022
  10       10S          0.00000   0.00022   0.00000   0.00000  -0.00097
  11       11S          0.00000  -0.00065   0.00000   0.00000   0.00298
  12       12S          0.00000   0.00271   0.00000   0.00000  -0.01401
  13       13S          0.00000  -0.00374   0.00000   0.00000   0.00966
  14       14S          0.00000  -0.00325   0.00000   0.00000   0.11351
  15       15S          0.00000   0.04484   0.00000   0.00000  -0.06942
  16       16S          0.00000  -0.07962   0.00000   0.00000  -0.06481
  17       17S          0.00000   0.01879   0.00000   0.00000  -0.14625
  18       18S          0.00000  -0.12103   0.00000   0.00000   0.32394
  19       19S          0.00000   0.00158   0.00000   0.00000   0.23774
  20       20S          0.00000  -0.00634   0.00000   0.00000   0.04476
  21       21S          0.00000  -0.02921   0.00000   0.00000  -0.00483
  22       22S          0.00000   0.10941   0.00000   0.00000  -0.19228
  23       23S          0.00000   0.00217   0.00000   0.00000   0.00022
  24       24PX         0.00000   0.00000  -0.00000   0.00000   0.00000
  25       24PY         0.00000   0.00000   0.00000  -0.00000   0.00000
  26       24PZ         0.00000   0.00000   0.00000   0.00000   0.00000
  27       25PX         0.00000   0.00000   0.00000   0.00000   0.00000
  28       25PY         0.00000   0.00000   0.00000   0.00000   0.00000
  29       25PZ         0.00000  -0.00000   0.00000   0.00000  -0.00000
  30       26PX         0.00000   0.00000  -0.00000   0.00000   0.00000
  31       26PY         0.00000   0.00000   0.00000  -0.00000   0.00000
  32       26PZ         0.00000   0.00000   0.00000   0.00000   0.00000
  33       27PX         0.00000   0.00000   0.00000   0.00000   0.00000
  34       27PY         0.00000   0.00000   0.00000   0.00000   0.00000
  35       27PZ         0.00000  -0.00000   0.00000   0.00000  -0.00000
  36       28PX         0.00000   0.00000  -0.00004   0.00000   0.00000
  37       28PY         0.00000   0.00000   0.00000  -0.00004   0.00000
  38       28PZ         0.00000   0.00001   0.00000   0.00000   0.00003
  39       29PX         0.00000   0.00000   0.00006   0.00000   0.00000
  40       29PY         0.00000   0.00000   0.00000   0.00006   0.00000
  41       29PZ         0.00000  -0.00003   0.00000   0.00000  -0.00005
  42       30PX         0.00000   0.00000  -0.00072   0.00000   0.00000
  43       30PY         0.00000   0.00000   0.00000  -0.00072   0.00000
  44       30PZ         0.00000   0.00006   0.00000   0.00000   0.00057
  45       31PX         0.00000   0.00000   0.00198   0.00000   0.00000
  46       31PY         0.00000   0.00000   0.00000   0.00198   0.00000
  47       31PZ         0.00000  -0.00026   0.00000   0.00000  -0.00159
  48       32PX         0.00000   0.00000   0.00857   0.00000   0.00000
  49       32PY         0.00000   0.00000   0.00000   0.00857   0.00000
  50       32PZ         0.00000   0.00250   0.00000   0.00000  -0.00569
  51       33PX         0.00000   0.00000  -0.01459   0.00000   0.00000
  52       33PY         0.00000   0.00000   0.00000  -0.01459   0.00000
  53       33PZ         0.00000   0.01420   0.00000   0.00000   0.01597
  54       34PX         0.00000   0.00000  -0.04187   0.00000   0.00000
  55       34PY         0.00000   0.00000   0.00000  -0.04187   0.00000
  56       34PZ         0.00000  -0.01061   0.00000   0.00000   0.02814
  57       35PX         0.00000   0.00000  -0.05753   0.00000   0.00000
  58       35PY         0.00000   0.00000   0.00000  -0.05753   0.00000
  59       35PZ         0.00000  -0.01385   0.00000   0.00000   0.05337
  60       36PX         0.00000   0.00000  -0.03397   0.00000   0.00000
  61       36PY         0.00000   0.00000   0.00000  -0.03397   0.00000
  62       36PZ         0.00000  -0.01858   0.00000   0.00000   0.01664
  63       37PX         0.00000   0.00000   0.06590   0.00000   0.00000
  64       37PY         0.00000   0.00000   0.00000   0.06590   0.00000
  65       37PZ         0.00000   0.02830   0.00000   0.00000  -0.02467
  66       38PX         0.00000   0.00000   0.09498   0.00000   0.00000
  67       38PY         0.00000   0.00000   0.00000   0.09498   0.00000
  68       38PZ         0.00000   0.00045   0.00000   0.00000   0.05129
  69       39PX         0.00000   0.00000   0.01824   0.00000   0.00000
  70       39PY         0.00000   0.00000   0.00000   0.01824   0.00000
  71       39PZ         0.00000  -0.00419   0.00000   0.00000   0.03217
  72       40PX         0.00000   0.00000   0.00811   0.00000   0.00000
  73       40PY         0.00000   0.00000   0.00000   0.00811   0.00000
  74       40PZ         0.00000  -0.01269   0.00000   0.00000  -0.01057
  75       41PX         0.00000   0.00000  -0.00385   0.00000   0.00000
  76       41PY         0.00000   0.00000   0.00000  -0.00385   0.00000
  77       41PZ         0.00000   0.01881   0.00000   0.00000  -0.00173
  78       42PX         0.00000   0.00000  -0.00451   0.00000   0.00000
  79       42PY         0.00000   0.00000   0.00000  -0.00451   0.00000
  80       42PZ         0.00000   0.00078   0.00000   0.00000  -0.00510
  81       43D 0        0.00000   0.00121   0.00000   0.00000  -0.00035
  82       43D+1        0.00000   0.00000   0.00048   0.00000   0.00000
  83       43D-1        0.00000   0.00000   0.00000   0.00048   0.00000
  84       43D+2        0.00000  -0.00000   0.00000   0.00000   0.00000
  85       43D-2        0.00145   0.00000   0.00000   0.00000   0.00000
  86       44D 0        0.00000   0.01497   0.00000   0.00000  -0.00422
  87       44D+1        0.00000   0.00000   0.00592   0.00000   0.00000
  88       44D-1        0.00000   0.00000   0.00000   0.00592   0.00000
  89       44D+2        0.00000  -0.00000   0.00000   0.00000  -0.00000
  90       44D-2        0.01774   0.00000   0.00000   0.00000   0.00000
  91       45D 0        0.00000   0.06733   0.00000   0.00000  -0.01934
  92       45D+1        0.00000   0.00000   0.02680   0.00000   0.00000
  93       45D-1        0.00000   0.00000   0.00000   0.02680   0.00000
  94       45D+2        0.00000  -0.00000   0.00000   0.00000   0.00000
  95       45D-2        0.08064   0.00000   0.00000   0.00000   0.00000
  96       46D 0        0.00000   0.17128   0.00000   0.00000  -0.04376
  97       46D+1        0.00000   0.00000   0.06645   0.00000   0.00000
  98       46D-1        0.00000   0.00000   0.00000   0.06645   0.00000
  99       46D+2        0.00000  -0.00000   0.00000   0.00000  -0.00000
 100       46D-2        0.19249   0.00000   0.00000   0.00000   0.00000
 101       47D 0        0.00000   0.39092   0.00000   0.00000  -0.00867
 102       47D+1        0.00000   0.00000   0.12260   0.00000   0.00000
 103       47D-1        0.00000   0.00000   0.00000   0.12260   0.00000
 104       47D+2        0.00000   0.00000   0.00000   0.00000  -0.00000
 105       47D-2        0.24174   0.00000   0.00000   0.00000   0.00000
 106       48D 0        0.00000   0.31846   0.00000   0.00000  -0.08310
 107       48D+1        0.00000   0.00000   0.12182   0.00000   0.00000
 108       48D-1        0.00000   0.00000   0.00000   0.12182   0.00000
 109       48D+2        0.00000  -0.00000   0.00000   0.00000   0.00000
 110       48D-2        0.35876   0.00000   0.00000   0.00000   0.00000
 111       49D 0        0.00000   0.22719   0.00000   0.00000  -0.06233
 112       49D+1        0.00000   0.00000   0.07380   0.00000   0.00000
 113       49D-1        0.00000   0.00000   0.00000   0.07380   0.00000
 114       49D+2        0.00000  -0.00000   0.00000   0.00000   0.00000
 115       49D-2        0.27090   0.00000   0.00000   0.00000   0.00000
 116       50D 0        0.00000   0.08072   0.00000   0.00000  -0.03935
 117       50D+1        0.00000   0.00000   0.03457   0.00000   0.00000
 118       50D-1        0.00000   0.00000   0.00000   0.03457   0.00000
 119       50D+2        0.00000  -0.00000   0.00000   0.00000   0.00000
 120       50D-2        0.09631   0.00000   0.00000   0.00000   0.00000
 121       51D 0        0.00000  -0.00381   0.00000   0.00000  -0.00819
 122       51D+1        0.00000   0.00000   0.00149   0.00000   0.00000
 123       51D-1        0.00000   0.00000   0.00000   0.00149   0.00000
 124       51D+2        0.00000  -0.00000   0.00000   0.00000   0.00000
 125       51D-2        0.01658   0.00000   0.00000   0.00000   0.00000
 126       52D 0        0.00000  -0.11507   0.00000   0.00000  -0.06887
 127       52D+1        0.00000   0.00000  -0.01406   0.00000   0.00000
 128       52D-1        0.00000   0.00000   0.00000  -0.01406   0.00000
 129       52D+2        0.00000  -0.00000   0.00000   0.00000   0.00000
 130       52D-2        0.08471   0.00000   0.00000   0.00000   0.00000
 131       53D 0        0.00000   0.00629   0.00000   0.00000  -0.02752
 132       53D+1        0.00000   0.00000   0.00896   0.00000   0.00000
 133       53D-1        0.00000   0.00000   0.00000   0.00896   0.00000
 134       53D+2        0.00000   0.00000   0.00000   0.00000  -0.00000
 135       53D-2        0.00392   0.00000   0.00000   0.00000   0.00000
 136       54F 0        0.00000   0.00008   0.00000   0.00000  -0.00058
 137       54F+1        0.00000   0.00000   0.00050   0.00000   0.00000
 138       54F-1        0.00000   0.00000   0.00000   0.00050   0.00000
 139       54F+2        0.00000  -0.00000   0.00000   0.00000   0.00000
 140       54F-2        0.00031   0.00000   0.00000   0.00000   0.00000
 141       54F+3        0.00000   0.00000   0.00000   0.00000   0.00000
 142       54F-3        0.00000   0.00000   0.00000  -0.00000   0.00000
 143       55F 0        0.00000   0.00120   0.00000   0.00000  -0.00133
 144       55F+1        0.00000   0.00000   0.00146   0.00000   0.00000
 145       55F-1        0.00000   0.00000   0.00000   0.00146   0.00000
 146       55F+2        0.00000  -0.00000   0.00000   0.00000   0.00000
 147       55F-2        0.00099   0.00000   0.00000   0.00000   0.00000
 148       55F+3        0.00000   0.00000   0.00000   0.00000   0.00000
 149       55F-3        0.00000   0.00000   0.00000  -0.00000   0.00000
 150       56F 0        0.00000  -0.00371   0.00000   0.00000  -0.00661
 151       56F+1        0.00000   0.00000   0.00616   0.00000   0.00000
 152       56F-1        0.00000   0.00000   0.00000   0.00616   0.00000
 153       56F+2        0.00000  -0.00000   0.00000   0.00000   0.00000
 154       56F-2        0.00132   0.00000   0.00000   0.00000   0.00000
 155       56F+3        0.00000   0.00000   0.00000   0.00000   0.00000
 156       56F-3        0.00000   0.00000   0.00000   0.00000   0.00000
 157       57F 0        0.00000   0.00885   0.00000   0.00000  -0.00709
 158       57F+1        0.00000   0.00000   0.01448   0.00000   0.00000
 159       57F-1        0.00000   0.00000   0.00000   0.01448   0.00000
 160       57F+2        0.00000  -0.00000   0.00000   0.00000  -0.00000
 161       57F-2        0.00545   0.00000   0.00000   0.00000   0.00000
 162       57F+3        0.00000   0.00000   0.00000   0.00000   0.00000
 163       57F-3        0.00000   0.00000   0.00000   0.00000   0.00000
 164       58G 0        0.00000   0.00021   0.00000   0.00000   0.00011
 165       58G+1        0.00000   0.00000  -0.00014   0.00000   0.00000
 166       58G-1        0.00000   0.00000   0.00000  -0.00014   0.00000
 167       58G+2        0.00000  -0.00000   0.00000   0.00000  -0.00000
 168       58G-2        0.00012   0.00000   0.00000   0.00000   0.00000
 169       58G+3        0.00000   0.00000   0.00000   0.00000   0.00000
 170       58G-3        0.00000   0.00000   0.00000   0.00000   0.00000
 171       58G+4        0.00000  -0.00000   0.00000   0.00000   0.00000
 172       58G-4        0.00000   0.00000   0.00000   0.00000   0.00000
 173       59G 0        0.00000  -0.00056   0.00000   0.00000  -0.00035
 174       59G+1        0.00000   0.00000   0.00040   0.00000   0.00000
 175       59G-1        0.00000   0.00000   0.00000   0.00040   0.00000
 176       59G+2        0.00000   0.00000   0.00000   0.00000   0.00000
 177       59G-2       -0.00014   0.00000   0.00000   0.00000   0.00000
 178       59G+3        0.00000   0.00000   0.00000   0.00000   0.00000
 179       59G-3        0.00000   0.00000   0.00000   0.00000   0.00000
 180       59G+4        0.00000   0.00000   0.00000   0.00000  -0.00000
 181       59G-4        0.00000   0.00000   0.00000   0.00000   0.00000
 182       60G 0        0.00000   0.00395   0.00000   0.00000   0.00173
 183       60G+1        0.00000   0.00000  -0.00176   0.00000   0.00000
 184       60G-1        0.00000   0.00000   0.00000  -0.00176   0.00000
 185       60G+2        0.00000  -0.00000   0.00000   0.00000  -0.00000
 186       60G-2        0.00151   0.00000   0.00000   0.00000   0.00000
 187       60G+3        0.00000   0.00000  -0.00000   0.00000   0.00000
 188       60G-3        0.00000   0.00000   0.00000   0.00000   0.00000
 189       60G+4        0.00000  -0.00000   0.00000   0.00000   0.00000
 190       60G-4        0.00000   0.00000   0.00000   0.00000   0.00000
 191 2   O  1S          0.00000  -0.00000   0.00000   0.00000  -0.00000
 192        2S          0.00000  -0.00003   0.00000   0.00000  -0.00001
 193        3S          0.00000  -0.00011   0.00000   0.00000  -0.00005
 194        4S          0.00000  -0.00051   0.00000   0.00000  -0.00026
 195        5S          0.00000  -0.00025   0.00000   0.00000   0.00002
 196        6S          0.00000   0.00803   0.00000   0.00000   0.00711
 197        7S          0.00000   0.04454   0.00000   0.00000   0.02703
 198        8S          0.00000  -0.20296   0.00000   0.00000  -0.10336
 199        9S          0.00000  -0.05382   0.00000   0.00000  -0.03025
 200       10S          0.00000  -0.21375   0.00000   0.00000  -0.11249
 201       11S          0.00000   0.01399   0.00000   0.00000   0.00028
 202       12S          0.00000  -0.01123   0.00000   0.00000  -0.00748
 203       13S          0.00000  -0.03853   0.00000   0.00000  -0.00753
 204       14PX         0.00000   0.00000   0.00755   0.00000   0.00000
 205       14PY         0.00000   0.00000   0.00000   0.00755   0.00000
 206       14PZ         0.00000   0.00241   0.00000   0.00000   0.00585
 207       15PX         0.00000   0.00000   0.08058   0.00000   0.00000
 208       15PY         0.00000   0.00000   0.00000   0.08058   0.00000
 209       15PZ         0.00000   0.02934   0.00000   0.00000   0.06344
 210       16PX         0.00000   0.00000   0.25944   0.00000   0.00000
 211       16PY         0.00000   0.00000   0.00000   0.25944   0.00000
 212       16PZ         0.00000   0.10373   0.00000   0.00000   0.20724
 213       17PX         0.00000   0.00000   0.41562   0.00000   0.00000
 214       17PY         0.00000   0.00000   0.00000   0.41562   0.00000
 215       17PZ         0.00000   0.14948   0.00000   0.00000   0.32733
 216       18PX         0.00000   0.00000   0.35513   0.00000   0.00000
 217       18PY         0.00000   0.00000   0.00000   0.35513   0.00000
 218       18PZ         0.00000   0.06164   0.00000   0.00000   0.26753
 219       19PX         0.00000   0.00000   0.00686   0.00000   0.00000
 220       19PY         0.00000   0.00000   0.00000   0.00686   0.00000
 221       19PZ         0.00000   0.00396   0.00000   0.00000   0.00584
 222       20PX         0.00000   0.00000   0.00169   0.00000   0.00000
 223       20PY         0.00000   0.00000   0.00000   0.00169   0.00000
 224       20PZ         0.00000   0.00086   0.00000   0.00000   0.00141
 225       21PX         0.00000   0.00000   0.05742   0.00000   0.00000
 226       21PY         0.00000   0.00000   0.00000   0.05742   0.00000
 227       21PZ         0.00000  -0.00195   0.00000   0.00000   0.04927
 228       22D 0        0.00000   0.01135   0.00000   0.00000   0.00390
 229       22D+1        0.00000   0.00000   0.00616   0.00000   0.00000
 230       22D-1        0.00000   0.00000   0.00000   0.00616   0.00000
 231       22D+2        0.00000  -0.00000   0.00000   0.00000  -0.00000
 232       22D-2        0.00144   0.00000   0.00000   0.00000   0.00000
 233       23D 0        0.00000   0.01907   0.00000   0.00000   0.01244
 234       23D+1        0.00000   0.00000   0.02536   0.00000   0.00000
 235       23D-1        0.00000   0.00000   0.00000   0.02536   0.00000
 236       23D+2        0.00000  -0.00000   0.00000   0.00000  -0.00000
 237       23D-2        0.00529   0.00000   0.00000   0.00000   0.00000
 238       24D 0        0.00000   0.00039   0.00000   0.00000   0.00015
 239       24D+1        0.00000   0.00000   0.00024   0.00000   0.00000
 240       24D-1        0.00000   0.00000   0.00000   0.00024   0.00000
 241       24D+2        0.00000  -0.00000   0.00000   0.00000   0.00000
 242       24D-2        0.00007   0.00000   0.00000   0.00000   0.00000
 243       25D 0        0.00000   0.00290   0.00000   0.00000   0.01119
 244       25D+1        0.00000   0.00000   0.02791   0.00000   0.00000
 245       25D-1        0.00000   0.00000   0.00000   0.02791   0.00000
 246       25D+2        0.00000   0.00000   0.00000   0.00000  -0.00000
 247       25D-2       -0.00143   0.00000   0.00000   0.00000   0.00000
 248       26F 0        0.00000   0.00606   0.00000   0.00000   0.00121
 249       26F+1        0.00000   0.00000   0.00392   0.00000   0.00000
 250       26F-1        0.00000   0.00000   0.00000   0.00392   0.00000
 251       26F+2        0.00000  -0.00000   0.00000   0.00000  -0.00000
 252       26F-2        0.00171   0.00000   0.00000   0.00000   0.00000
 253       26F+3        0.00000   0.00000   0.00000   0.00000   0.00000
 254       26F-3        0.00000   0.00000   0.00000   0.00000   0.00000
 255       27F 0        0.00000   0.00095   0.00000   0.00000   0.00297
 256       27F+1        0.00000   0.00000   0.00508   0.00000   0.00000
 257       27F-1        0.00000   0.00000   0.00000   0.00508   0.00000
 258       27F+2        0.00000   0.00000   0.00000   0.00000  -0.00000
 259       27F-2        0.00120   0.00000   0.00000   0.00000   0.00000
 260       27F+3        0.00000   0.00000   0.00000   0.00000   0.00000
 261       27F-3        0.00000   0.00000   0.00000   0.00000   0.00000
                          14        15        16        17        18
                           V         V         V         V         V
     Eigenvalues --    -0.02400   0.03124   0.03124   0.03571   0.04404
   1 1   Zn 1S         -0.00000   0.00000   0.00000  -0.00000  -0.00000
   2        2S         -0.00000   0.00000   0.00000  -0.00000   0.00000
   3        3S         -0.00000   0.00000   0.00000  -0.00000  -0.00000
   4        4S         -0.00000   0.00000   0.00000   0.00000   0.00000
   5        5S         -0.00000   0.00000   0.00000  -0.00000  -0.00000
   6        6S         -0.00000   0.00000   0.00000   0.00000   0.00000
   7        7S          0.00000   0.00000   0.00000  -0.00001  -0.00000
   8        8S         -0.00001   0.00000   0.00000   0.00001   0.00002
   9        9S          0.00001   0.00000   0.00000  -0.00006  -0.00005
  10       10S         -0.00005   0.00000   0.00000   0.00011   0.00014
  11       11S          0.00016   0.00000   0.00000  -0.00022  -0.00040
  12       12S         -0.00087   0.00000   0.00000  -0.00005   0.00142
  13       13S          0.00001   0.00000   0.00000  -0.00551  -0.00327
  14       14S          0.01297   0.00000   0.00000   0.05790   0.01254
  15       15S          0.00984   0.00000   0.00000   0.10505   0.05290
  16       16S         -0.08713   0.00000   0.00000  -0.45003  -0.18788
  17       17S         -0.04080   0.00000   0.00000  -0.15475  -0.02162
  18       18S         -0.08398   0.00000   0.00000   0.64953  -0.61959
  19       19S          0.33964   0.00000   0.00000  -0.79122  -1.59896
  20       20S          0.01739   0.00000   0.00000   1.87712  -3.20538
  21       21S         -0.01114   0.00000   0.00000  -0.09568  -0.04031
  22       22S          0.08141   0.00000   0.00000   0.44190   0.20647
  23       23S          0.53961   0.00000   0.00000  -1.54341   2.12404
  24       24PX         0.00000   0.00000   0.00000   0.00000   0.00000
  25       24PY         0.00000   0.00000   0.00000   0.00000   0.00000
  26       24PZ        -0.00000   0.00000   0.00000  -0.00000   0.00000
  27       25PX         0.00000  -0.00000   0.00000   0.00000   0.00000
  28       25PY         0.00000   0.00000  -0.00000   0.00000   0.00000
  29       25PZ         0.00000   0.00000   0.00000   0.00000   0.00000
  30       26PX         0.00000   0.00000   0.00000   0.00000   0.00000
  31       26PY         0.00000   0.00000   0.00000   0.00000   0.00000
  32       26PZ        -0.00000   0.00000   0.00000  -0.00000   0.00000
  33       27PX         0.00000  -0.00001   0.00000   0.00000   0.00000
  34       27PY         0.00000   0.00000  -0.00001   0.00000   0.00000
  35       27PZ         0.00000   0.00000   0.00000   0.00000   0.00000
  36       28PX         0.00000   0.00003   0.00000   0.00000   0.00000
  37       28PY         0.00000   0.00000   0.00003   0.00000   0.00000
  38       28PZ        -0.00005   0.00000   0.00000  -0.00003   0.00001
  39       29PX         0.00000  -0.00010   0.00000   0.00000   0.00000
  40       29PY         0.00000   0.00000  -0.00010   0.00000   0.00000
  41       29PZ         0.00009   0.00000   0.00000   0.00005  -0.00001
  42       30PX         0.00000   0.00024   0.00000   0.00000   0.00000
  43       30PY         0.00000   0.00000   0.00024   0.00000   0.00000
  44       30PZ        -0.00097   0.00000   0.00000  -0.00060   0.00014
  45       31PX         0.00000  -0.00093   0.00000   0.00000   0.00000
  46       31PY         0.00000   0.00000  -0.00093   0.00000   0.00000
  47       31PZ         0.00270   0.00000   0.00000   0.00164  -0.00038
  48       32PX         0.00000   0.00743   0.00000   0.00000   0.00000
  49       32PY         0.00000   0.00000   0.00743   0.00000   0.00000
  50       32PZ         0.00949   0.00000   0.00000   0.00698  -0.00208
  51       33PX         0.00000   0.04723   0.00000   0.00000   0.00000
  52       33PY         0.00000   0.00000   0.04723   0.00000   0.00000
  53       33PZ        -0.02805   0.00000   0.00000  -0.01294   0.00156
  54       34PX         0.00000  -0.03814   0.00000   0.00000   0.00000
  55       34PY         0.00000   0.00000  -0.03814   0.00000   0.00000
  56       34PZ        -0.04583   0.00000   0.00000  -0.03355   0.01005
  57       35PX         0.00000  -0.20574   0.00000   0.00000   0.00000
  58       35PY         0.00000   0.00000  -0.20574   0.00000   0.00000
  59       35PZ        -0.04016   0.00000   0.00000  -0.04555   0.02381
  60       36PX         0.00000   0.02641   0.00000   0.00000   0.00000
  61       36PY         0.00000   0.00000   0.02641   0.00000   0.00000
  62       36PZ        -0.04948   0.00000   0.00000  -0.01915  -0.00749
  63       37PX         0.00000  -0.02124   0.00000   0.00000   0.00000
  64       37PY         0.00000   0.00000  -0.02124   0.00000   0.00000
  65       37PZ         0.09296   0.00000   0.00000  -0.06261   0.16413
  66       38PX         0.00000   0.18282   0.00000   0.00000   0.00000
  67       38PY         0.00000   0.00000   0.18282   0.00000   0.00000
  68       38PZ         0.17724   0.00000   0.00000   0.01944   0.68355
  69       39PX         0.00000  -0.06648   0.00000   0.00000   0.00000
  70       39PY         0.00000   0.00000  -0.06648   0.00000   0.00000
  71       39PZ         0.30186   0.00000   0.00000   0.66865   1.06979
  72       40PX         0.00000  -0.04230   0.00000   0.00000   0.00000
  73       40PY         0.00000   0.00000  -0.04230   0.00000   0.00000
  74       40PZ         0.01877   0.00000   0.00000   0.00741  -0.00030
  75       41PX         0.00000   0.19864   0.00000   0.00000   0.00000
  76       41PY         0.00000   0.00000   0.19864   0.00000   0.00000
  77       41PZ        -0.03820   0.00000   0.00000  -0.00658  -0.00865
  78       42PX         0.00000   1.11913   0.00000   0.00000   0.00000
  79       42PY         0.00000   0.00000   1.11913   0.00000   0.00000
  80       42PZ         0.20284   0.00000   0.00000  -1.00304  -1.09436
  81       43D 0        0.00025   0.00000   0.00000   0.00015  -0.00000
  82       43D+1        0.00000  -0.00007   0.00000   0.00000   0.00000
  83       43D-1        0.00000   0.00000  -0.00007   0.00000   0.00000
  84       43D+2       -0.00000   0.00000   0.00000  -0.00000   0.00000
  85       43D-2        0.00000   0.00000   0.00000   0.00000   0.00000
  86       44D 0        0.00307   0.00000   0.00000   0.00178   0.00006
  87       44D+1        0.00000  -0.00083   0.00000   0.00000   0.00000
  88       44D-1        0.00000   0.00000  -0.00083   0.00000   0.00000
  89       44D+2       -0.00000   0.00000   0.00000  -0.00000   0.00000
  90       44D-2        0.00000   0.00000   0.00000   0.00000   0.00000
  91       45D 0        0.01395   0.00000   0.00000   0.00854  -0.00019
  92       45D+1        0.00000  -0.00369   0.00000   0.00000   0.00000
  93       45D-1        0.00000   0.00000  -0.00369   0.00000   0.00000
  94       45D+2       -0.00000   0.00000   0.00000  -0.00000   0.00000
  95       45D-2        0.00000   0.00000   0.00000   0.00000   0.00000
  96       46D 0        0.03378   0.00000   0.00000   0.01373   0.00679
  97       46D+1        0.00000  -0.01027   0.00000   0.00000   0.00000
  98       46D-1        0.00000   0.00000  -0.01027   0.00000   0.00000
  99       46D+2       -0.00000   0.00000   0.00000  -0.00000   0.00000
 100       46D-2        0.00000   0.00000   0.00000   0.00000   0.00000
 101       47D 0        0.04773   0.00000   0.00000  -0.09485   0.13046
 102       47D+1        0.00000  -0.03540   0.00000   0.00000   0.00000
 103       47D-1        0.00000   0.00000  -0.03540   0.00000   0.00000
 104       47D+2        0.00000   0.00000   0.00000  -0.00000   0.00000
 105       47D-2        0.00000   0.00000   0.00000   0.00000   0.00000
 106       48D 0        0.06387   0.00000   0.00000   0.02612   0.01244
 107       48D+1        0.00000  -0.01809   0.00000   0.00000   0.00000
 108       48D-1        0.00000   0.00000  -0.01809   0.00000   0.00000
 109       48D+2       -0.00000   0.00000   0.00000  -0.00000   0.00000
 110       48D-2        0.00000   0.00000   0.00000   0.00000   0.00000
 111       49D 0        0.03889   0.00000   0.00000   0.05122  -0.03118
 112       49D+1        0.00000  -0.00890   0.00000   0.00000   0.00000
 113       49D-1        0.00000   0.00000  -0.00890   0.00000   0.00000
 114       49D+2       -0.00000   0.00000   0.00000  -0.00000   0.00000
 115       49D-2        0.00000   0.00000   0.00000   0.00000   0.00000
 116       50D 0        0.03845   0.00000   0.00000   0.06379  -0.10666
 117       50D+1        0.00000  -0.02053   0.00000   0.00000   0.00000
 118       50D-1        0.00000   0.00000  -0.02053   0.00000   0.00000
 119       50D+2       -0.00000   0.00000   0.00000  -0.00000   0.00000
 120       50D-2        0.00000   0.00000   0.00000   0.00000   0.00000
 121       51D 0        0.00216   0.00000   0.00000   0.01282  -0.01209
 122       51D+1        0.00000   0.00163   0.00000   0.00000   0.00000
 123       51D-1        0.00000   0.00000   0.00163   0.00000   0.00000
 124       51D+2       -0.00000   0.00000   0.00000   0.00000  -0.00000
 125       51D-2        0.00000   0.00000   0.00000   0.00000   0.00000
 126       52D 0        0.00866   0.00000   0.00000   0.12806  -0.12992
 127       52D+1        0.00000   0.02013   0.00000   0.00000   0.00000
 128       52D-1        0.00000   0.00000   0.02013   0.00000   0.00000
 129       52D+2       -0.00000   0.00000   0.00000   0.00000  -0.00000
 130       52D-2        0.00000   0.00000   0.00000   0.00000   0.00000
 131       53D 0        0.06908   0.00000   0.00000   0.00697  -0.25157
 132       53D+1        0.00000   0.00875   0.00000   0.00000   0.00000
 133       53D-1        0.00000   0.00000   0.00875   0.00000   0.00000
 134       53D+2       -0.00000   0.00000   0.00000  -0.00000   0.00000
 135       53D-2        0.00000   0.00000   0.00000   0.00000   0.00000
 136       54F 0        0.00035   0.00000   0.00000   0.00007   0.00001
 137       54F+1        0.00000  -0.00013   0.00000   0.00000   0.00000
 138       54F-1        0.00000   0.00000  -0.00013   0.00000   0.00000
 139       54F+2       -0.00000   0.00000   0.00000  -0.00000   0.00000
 140       54F-2        0.00000   0.00000   0.00000   0.00000   0.00000
 141       54F+3        0.00000  -0.00000   0.00000   0.00000   0.00000
 142       54F-3        0.00000   0.00000   0.00000   0.00000   0.00000
 143       55F 0        0.00048   0.00000   0.00000   0.00081  -0.00014
 144       55F+1        0.00000  -0.00006   0.00000   0.00000   0.00000
 145       55F-1        0.00000   0.00000  -0.00006   0.00000   0.00000
 146       55F+2       -0.00000   0.00000   0.00000  -0.00000   0.00000
 147       55F-2        0.00000   0.00000   0.00000   0.00000   0.00000
 148       55F+3        0.00000  -0.00000   0.00000   0.00000   0.00000
 149       55F-3        0.00000   0.00000   0.00000   0.00000   0.00000
 150       56F 0        0.00373   0.00000   0.00000   0.00047   0.00010
 151       56F+1        0.00000  -0.00173   0.00000   0.00000   0.00000
 152       56F-1        0.00000   0.00000  -0.00173   0.00000   0.00000
 153       56F+2        0.00000   0.00000   0.00000   0.00000  -0.00000
 154       56F-2        0.00000   0.00000   0.00000   0.00000   0.00000
 155       56F+3        0.00000   0.00000   0.00000   0.00000   0.00000
 156       56F-3        0.00000   0.00000   0.00000   0.00000   0.00000
 157       57F 0        0.00710   0.00000   0.00000  -0.00614   0.01526
 158       57F+1        0.00000   0.00121   0.00000   0.00000   0.00000
 159       57F-1        0.00000   0.00000   0.00121   0.00000   0.00000
 160       57F+2       -0.00000   0.00000   0.00000  -0.00000   0.00000
 161       57F-2        0.00000   0.00000   0.00000   0.00000   0.00000
 162       57F+3        0.00000   0.00000   0.00000   0.00000   0.00000
 163       57F-3        0.00000   0.00000   0.00000   0.00000   0.00000
 164       58G 0       -0.00009   0.00000   0.00000   0.00012  -0.00012
 165       58G+1        0.00000   0.00002   0.00000   0.00000   0.00000
 166       58G-1        0.00000   0.00000   0.00002   0.00000   0.00000
 167       58G+2        0.00000   0.00000   0.00000  -0.00000   0.00000
 168       58G-2        0.00000   0.00000   0.00000   0.00000   0.00000
 169       58G+3        0.00000  -0.00000   0.00000   0.00000   0.00000
 170       58G-3        0.00000   0.00000  -0.00000   0.00000   0.00000
 171       58G+4       -0.00000   0.00000   0.00000   0.00000  -0.00000
 172       58G-4        0.00000   0.00000   0.00000   0.00000   0.00000
 173       59G 0        0.00033   0.00000   0.00000  -0.00052   0.00048
 174       59G+1        0.00000  -0.00006   0.00000   0.00000   0.00000
 175       59G-1        0.00000   0.00000  -0.00006   0.00000   0.00000
 176       59G+2       -0.00000   0.00000   0.00000   0.00000  -0.00000
 177       59G-2        0.00000   0.00000   0.00000   0.00000   0.00000
 178       59G+3        0.00000   0.00000   0.00000   0.00000   0.00000
 179       59G-3        0.00000   0.00000  -0.00000   0.00000   0.00000
 180       59G+4        0.00000   0.00000   0.00000  -0.00000   0.00000
 181       59G-4        0.00000   0.00000   0.00000   0.00000   0.00000
 182       60G 0       -0.00137   0.00000   0.00000   0.00101  -0.00118
 183       60G+1        0.00000   0.00020   0.00000   0.00000   0.00000
 184       60G-1        0.00000   0.00000   0.00020   0.00000   0.00000
 185       60G+2        0.00000   0.00000   0.00000  -0.00000  -0.00000
 186       60G-2        0.00000   0.00000   0.00000   0.00000   0.00000
 187       60G+3        0.00000  -0.00000   0.00000   0.00000   0.00000
 188       60G-3        0.00000   0.00000   0.00000   0.00000   0.00000
 189       60G+4       -0.00000   0.00000   0.00000   0.00000  -0.00000
 190       60G-4        0.00000   0.00000   0.00000   0.00000   0.00000
 191 2   O  1S         -0.00000   0.00000   0.00000  -0.00000  -0.00000
 192        2S         -0.00000   0.00000   0.00000  -0.00000  -0.00000
 193        3S         -0.00001   0.00000   0.00000  -0.00002  -0.00002
 194        4S         -0.00011   0.00000   0.00000  -0.00007   0.00002
 195        5S          0.00024   0.00000   0.00000  -0.00006  -0.00068
 196        6S          0.00736   0.00000   0.00000   0.00052  -0.01339
 197        7S          0.01740   0.00000   0.00000   0.00453  -0.02009
 198        8S         -0.02760   0.00000   0.00000  -0.01986  -0.09172
 199        9S         -0.01256   0.00000   0.00000  -0.00460   0.00829
 200       10S         -0.02550   0.00000   0.00000  -0.24874   0.56913
 201       11S         -0.00920   0.00000   0.00000   0.00366   0.02685
 202       12S         -0.00576   0.00000   0.00000  -0.00120   0.00841
 203       13S          0.04896   0.00000   0.00000   0.11278   3.22017
 204       14PX         0.00000  -0.00106   0.00000   0.00000   0.00000
 205       14PY         0.00000   0.00000  -0.00106   0.00000   0.00000
 206       14PZ        -0.00290   0.00000   0.00000  -0.00218   0.00082
 207       15PX         0.00000  -0.01014   0.00000   0.00000   0.00000
 208       15PY         0.00000   0.00000  -0.01014   0.00000   0.00000
 209       15PZ        -0.03180   0.00000   0.00000  -0.01978   0.00668
 210       16PX         0.00000  -0.02973   0.00000   0.00000   0.00000
 211       16PY         0.00000   0.00000  -0.02973   0.00000   0.00000
 212       16PZ        -0.10546   0.00000   0.00000  -0.05287   0.01393
 213       17PX         0.00000  -0.05372   0.00000   0.00000   0.00000
 214       17PY         0.00000   0.00000  -0.05372   0.00000   0.00000
 215       17PZ        -0.16448   0.00000   0.00000  -0.12159   0.04864
 216       18PX         0.00000  -0.06185   0.00000   0.00000   0.00000
 217       18PY         0.00000   0.00000  -0.06185   0.00000   0.00000
 218       18PZ        -0.11725   0.00000   0.00000  -0.28046   0.54471
 219       19PX         0.00000  -0.00044   0.00000   0.00000   0.00000
 220       19PY         0.00000   0.00000  -0.00044   0.00000   0.00000
 221       19PZ        -0.00305   0.00000   0.00000  -0.00036  -0.00026
 222       20PX         0.00000  -0.00014   0.00000   0.00000   0.00000
 223       20PY         0.00000   0.00000  -0.00014   0.00000   0.00000
 224       20PZ        -0.00072   0.00000   0.00000  -0.00020   0.00001
 225       21PX         0.00000  -0.24594   0.00000   0.00000   0.00000
 226       21PY         0.00000   0.00000  -0.24594   0.00000   0.00000
 227       21PZ        -0.13313   0.00000   0.00000   0.02803   1.05382
 228       22D 0       -0.00121   0.00000   0.00000   0.00061  -0.00126
 229       22D+1        0.00000  -0.00066   0.00000   0.00000   0.00000
 230       22D-1        0.00000   0.00000  -0.00066   0.00000   0.00000
 231       22D+2        0.00000   0.00000   0.00000  -0.00000   0.00000
 232       22D-2        0.00000   0.00000   0.00000   0.00000   0.00000
 233       23D 0        0.00301   0.00000   0.00000  -0.02133   0.03028
 234       23D+1        0.00000   0.00199   0.00000   0.00000   0.00000
 235       23D-1        0.00000   0.00000   0.00199   0.00000   0.00000
 236       23D+2        0.00000   0.00000   0.00000   0.00000  -0.00000
 237       23D-2        0.00000   0.00000   0.00000   0.00000   0.00000
 238       24D 0        0.00001   0.00000   0.00000  -0.00002   0.00005
 239       24D+1        0.00000   0.00002   0.00000   0.00000   0.00000
 240       24D-1        0.00000   0.00000   0.00002   0.00000   0.00000
 241       24D+2       -0.00000   0.00000   0.00000   0.00000  -0.00000
 242       24D-2        0.00000   0.00000   0.00000   0.00000   0.00000
 243       25D 0        0.00909   0.00000   0.00000  -0.06719   0.14085
 244       25D+1        0.00000  -0.03889   0.00000   0.00000   0.00000
 245       25D-1        0.00000   0.00000  -0.03889   0.00000   0.00000
 246       25D+2        0.00000   0.00000   0.00000   0.00000  -0.00000
 247       25D-2        0.00000   0.00000   0.00000   0.00000   0.00000
 248       26F 0       -0.00039   0.00000   0.00000  -0.00064   0.00124
 249       26F+1        0.00000   0.00024   0.00000   0.00000   0.00000
 250       26F-1        0.00000   0.00000   0.00024   0.00000   0.00000
 251       26F+2       -0.00000   0.00000   0.00000   0.00000  -0.00000
 252       26F-2        0.00000   0.00000   0.00000   0.00000   0.00000
 253       26F+3        0.00000  -0.00000   0.00000   0.00000   0.00000
 254       26F-3        0.00000   0.00000  -0.00000   0.00000   0.00000
 255       27F 0        0.00192   0.00000   0.00000  -0.01090   0.01704
 256       27F+1        0.00000  -0.00445   0.00000   0.00000   0.00000
 257       27F-1        0.00000   0.00000  -0.00445   0.00000   0.00000
 258       27F+2        0.00000   0.00000   0.00000   0.00000   0.00000
 259       27F-2        0.00000   0.00000   0.00000   0.00000   0.00000
 260       27F+3        0.00000  -0.00000   0.00000   0.00000   0.00000
 261       27F-3        0.00000   0.00000  -0.00000   0.00000   0.00000
     Alpha Density Matrix:
                           1         2         3         4         5
   1 1   Zn 1S          0.00000
   2        2S          0.00000   0.00000
   3        3S          0.00000   0.00000   0.00000
   4        4S          0.00000   0.00000   0.00000   0.00000
   5        5S         -0.00000  -0.00000  -0.00000  -0.00000   0.00000
   6        6S          0.00000   0.00000   0.00000   0.00000  -0.00000
[...]
  40       29PY        -0.00002  -0.00001  -0.00001   0.00000
  41       29PZ        -0.00002  -0.00001  -0.00001   0.00000
  42       30PX         0.00069   0.00035   0.00035   0.00000
  43       30PY         0.00069   0.00035   0.00035   0.00000
  44       30PZ         0.00069   0.00034   0.00034   0.00000
  45       31PX        -0.00495  -0.00248  -0.00248   0.00000
  46       31PY        -0.00495  -0.00248  -0.00248   0.00000
  47       31PZ        -0.00488  -0.00244  -0.00244   0.00000
  48       32PX        -0.05125  -0.02562  -0.02562   0.00000
  49       32PY        -0.05125  -0.02562  -0.02562   0.00000
  50       32PZ        -0.05259  -0.02629  -0.02629   0.00000
  51       33PX         0.12367   0.06183   0.06183   0.00000
  52       33PY         0.12367   0.06183   0.06183   0.00000
  53       33PZ         0.10817   0.05409   0.05409   0.00000
  54       34PX         0.61145   0.30572   0.30572   0.00000
  55       34PY         0.61145   0.30572   0.30572   0.00000
  56       34PZ         0.62751   0.31375   0.31375   0.00000
  57       35PX         0.79529   0.39764   0.39764   0.00000
  58       35PY         0.79529   0.39764   0.39764   0.00000
  59       35PZ         0.87418   0.43709   0.43709   0.00000
  60       36PX         0.44155   0.22077   0.22077   0.00000
  61       36PY         0.44155   0.22077   0.22077   0.00000
  62       36PZ         0.43988   0.21994   0.21994   0.00000
  63       37PX         0.08022   0.04011   0.04011   0.00000
  64       37PY         0.08022   0.04011   0.04011   0.00000
  65       37PZ         0.02960   0.01480   0.01480   0.00000
  66       38PX         0.09464   0.04732   0.04732   0.00000
  67       38PY         0.09464   0.04732   0.04732   0.00000
  68       38PZ        -0.01618  -0.00809  -0.00809   0.00000
  69       39PX         0.01296   0.00648   0.00648   0.00000
  70       39PY         0.01296   0.00648   0.00648   0.00000
  71       39PZ         0.00610   0.00305   0.00305   0.00000
  72       40PX        -0.06136  -0.03068  -0.03068   0.00000
  73       40PY        -0.06136  -0.03068  -0.03068   0.00000
  74       40PZ        -0.04905  -0.02453  -0.02453   0.00000
  75       41PX         0.11489   0.05745   0.05745   0.00000
  76       41PY         0.11489   0.05745   0.05745   0.00000
  77       41PZ         0.03034   0.01517   0.01517   0.00000
  78       42PX        -0.00139  -0.00069  -0.00069   0.00000
  79       42PY        -0.00139  -0.00069  -0.00069   0.00000
  80       42PZ        -0.00089  -0.00045  -0.00045   0.00000
  81       43D 0        0.00010   0.00005   0.00005   0.00000
  82       43D+1        0.00011   0.00006   0.00006   0.00000
  83       43D-1        0.00011   0.00006   0.00006   0.00000
  84       43D+2        0.00011   0.00006   0.00006   0.00000
  85       43D-2        0.00011   0.00006   0.00006   0.00000
  86       44D 0        0.00492   0.00246   0.00246   0.00000
  87       44D+1        0.00575   0.00287   0.00287   0.00000
  88       44D-1        0.00575   0.00287   0.00287   0.00000
  89       44D+2        0.00570   0.00285   0.00285   0.00000
  90       44D-2        0.00570   0.00285   0.00285   0.00000
  91       45D 0        0.05302   0.02651   0.02651   0.00000
  92       45D+1        0.06215   0.03108   0.03108   0.00000
  93       45D-1        0.06215   0.03108   0.03108   0.00000
  94       45D+2        0.06187   0.03093   0.03093   0.00000
  95       45D-2        0.06187   0.03093   0.03093   0.00000
  96       46D 0        0.23014   0.11507   0.11507   0.00000
  97       46D+1        0.25889   0.12944   0.12944   0.00000
  98       46D-1        0.25889   0.12944   0.12944   0.00000
  99       46D+2        0.25135   0.12567   0.12567   0.00000
 100       46D-2        0.25135   0.12567   0.12567   0.00000
 101       47D 0        0.69106   0.34553   0.34553   0.00000
 102       47D+1        0.55461   0.27731   0.27731   0.00000
 103       47D-1        0.55461   0.27731   0.27731   0.00000
 104       47D+2        0.41457   0.20729   0.20729   0.00000
 105       47D-2        0.41457   0.20729   0.20729   0.00000
 106       48D 0        0.60426   0.30213   0.30213   0.00000
 107       48D+1        0.64741   0.32370   0.32370   0.00000
 108       48D-1        0.64741   0.32370   0.32370   0.00000
 109       48D+2        0.63780   0.31890   0.31890   0.00000
 110       48D-2        0.63780   0.31890   0.31890   0.00000
 111       49D 0        0.35374   0.17687   0.17687   0.00000
 112       49D+1        0.37011   0.18505   0.18505   0.00000
 113       49D-1        0.37011   0.18505   0.18505   0.00000
 114       49D+2        0.38173   0.19087   0.19087   0.00000
 115       49D-2        0.38173   0.19087   0.19087   0.00000
 116       50D 0        0.05474   0.02737   0.02737   0.00000
 117       50D+1        0.06024   0.03012   0.03012   0.00000
 118       50D-1        0.06024   0.03012   0.03012   0.00000
 119       50D+2        0.07452   0.03726   0.03726   0.00000
 120       50D-2        0.07452   0.03726   0.03726   0.00000
 121       51D 0       -0.00504  -0.00252  -0.00252   0.00000
 122       51D+1        0.01227   0.00614   0.00614   0.00000
 123       51D-1        0.01227   0.00614   0.00614   0.00000
 124       51D+2        0.02371   0.01185   0.01185   0.00000
 125       51D-2        0.02371   0.01185   0.01185   0.00000
 126       52D 0       -0.20105  -0.10053  -0.10053   0.00000
 127       52D+1        0.00974   0.00487   0.00487   0.00000
 128       52D-1        0.00974   0.00487   0.00487   0.00000
 129       52D+2        0.14634   0.07317   0.07317   0.00000
 130       52D-2        0.14634   0.07317   0.07317   0.00000
 131       53D 0        0.01230   0.00615   0.00615   0.00000
 132       53D+1       -0.00434  -0.00217  -0.00217   0.00000
 133       53D-1       -0.00434  -0.00217  -0.00217   0.00000
 134       53D+2        0.00115   0.00057   0.00057   0.00000
 135       53D-2        0.00115   0.00057   0.00057   0.00000
 136       54F 0        0.00001   0.00000   0.00000   0.00000
 137       54F+1        0.00000   0.00000   0.00000   0.00000
 138       54F-1        0.00000   0.00000   0.00000   0.00000
 139       54F+2        0.00000   0.00000   0.00000   0.00000
 140       54F-2        0.00000   0.00000   0.00000   0.00000
 141       54F+3       -0.00000  -0.00000  -0.00000   0.00000
 142       54F-3       -0.00000  -0.00000  -0.00000   0.00000
 143       55F 0        0.00006   0.00003   0.00003   0.00000
 144       55F+1        0.00005   0.00002   0.00002   0.00000
 145       55F-1        0.00005   0.00002   0.00002   0.00000
 146       55F+2        0.00001   0.00000   0.00000   0.00000
 147       55F-2        0.00001   0.00000   0.00000   0.00000
 148       55F+3        0.00000   0.00000   0.00000   0.00000
 149       55F-3       -0.00000  -0.00000  -0.00000   0.00000
 150       56F 0        0.00216   0.00108   0.00108   0.00000
 151       56F+1        0.00123   0.00062   0.00062   0.00000
 152       56F-1        0.00123   0.00062   0.00062   0.00000
 153       56F+2        0.00001   0.00001   0.00001   0.00000
 154       56F-2        0.00001   0.00001   0.00001   0.00000
 155       56F+3       -0.00000  -0.00000  -0.00000   0.00000
 156       56F-3        0.00000   0.00000   0.00000   0.00000
 157       57F 0        0.00155   0.00077   0.00077   0.00000
 158       57F+1        0.00869   0.00435   0.00435   0.00000
 159       57F-1        0.00869   0.00435   0.00435   0.00000
 160       57F+2        0.00004   0.00002   0.00002   0.00000
 161       57F-2        0.00004   0.00002   0.00002   0.00000
 162       57F+3        0.00000   0.00000   0.00000   0.00000
 163       57F-3        0.00000   0.00000   0.00000   0.00000
 164       58G 0        0.00000   0.00000   0.00000   0.00000
 165       58G+1        0.00000   0.00000   0.00000   0.00000
 166       58G-1        0.00000   0.00000   0.00000   0.00000
 167       58G+2        0.00000   0.00000   0.00000   0.00000
 168       58G-2        0.00000   0.00000   0.00000   0.00000
 169       58G+3       -0.00000  -0.00000  -0.00000   0.00000
 170       58G-3       -0.00000  -0.00000  -0.00000   0.00000
 171       58G+4        0.00000   0.00000   0.00000   0.00000
 172       58G-4       -0.00000  -0.00000  -0.00000   0.00000
 173       59G 0       -0.00001  -0.00001  -0.00001   0.00000
 174       59G+1       -0.00001  -0.00000  -0.00000   0.00000
 175       59G-1       -0.00001  -0.00000  -0.00000   0.00000
 176       59G+2       -0.00000  -0.00000  -0.00000   0.00000
 177       59G-2       -0.00000  -0.00000  -0.00000   0.00000
 178       59G+3       -0.00000  -0.00000  -0.00000   0.00000
 179       59G-3        0.00000   0.00000   0.00000   0.00000
 180       59G+4        0.00000   0.00000   0.00000   0.00000
 181       59G-4        0.00000   0.00000   0.00000   0.00000
 182       60G 0        0.00045   0.00022   0.00022   0.00000
 183       60G+1        0.00028   0.00014   0.00014   0.00000
 184       60G-1        0.00028   0.00014   0.00014   0.00000
 185       60G+2        0.00001   0.00000   0.00000   0.00000
 186       60G-2        0.00001   0.00000   0.00000   0.00000
 187       60G+3        0.00000   0.00000   0.00000   0.00000
 188       60G-3        0.00000   0.00000   0.00000   0.00000
 189       60G+4        0.00000   0.00000   0.00000   0.00000
 190       60G-4       -0.00000  -0.00000  -0.00000   0.00000
 191 2   O  1S          0.00000   0.00000   0.00000   0.00000
 192        2S          0.00000   0.00000   0.00000   0.00000
 193        3S          0.00000   0.00000   0.00000   0.00000
 194        4S          0.00006   0.00003   0.00003   0.00000
 195        5S         -0.00002  -0.00001  -0.00001   0.00000
 196        6S         -0.01062  -0.00531  -0.00531   0.00000
 197        7S         -0.10449  -0.05225  -0.05225   0.00000
 198        8S          1.08292   0.54146   0.54146   0.00000
 199        9S          0.23511   0.11755   0.11755   0.00000
 200       10S          0.80393   0.40197   0.40197   0.00000
 201       11S          0.00067   0.00033   0.00033   0.00000
 202       12S          0.00889   0.00445   0.00445   0.00000
 203       13S          0.12427   0.06213   0.06213   0.00000
 204       14PX         0.00195   0.00098   0.00098   0.00000
 205       14PY         0.00195   0.00098   0.00098   0.00000
 206       14PZ         0.00142   0.00071   0.00071   0.00000
 207       15PX         0.06529   0.03264   0.03264   0.00000
 208       15PY         0.06529   0.03264   0.03264   0.00000
 209       15PZ         0.04968   0.02484   0.02484   0.00000
 210       16PX         0.38288   0.19144   0.19144   0.00000
 211       16PY         0.38288   0.19144   0.19144   0.00000
 212       16PZ         0.30644   0.15322   0.15322   0.00000
 213       17PX         0.77592   0.38796   0.38796   0.00000
 214       17PY         0.77592   0.38796   0.38796   0.00000
 215       17PZ         0.60607   0.30303   0.30303   0.00000
 216       18PX         0.55831   0.27915   0.27915   0.00000
 217       18PY         0.55831   0.27915   0.27915   0.00000
 218       18PZ         0.41844   0.20922   0.20922   0.00000
 219       19PX         0.00353   0.00176   0.00176   0.00000
 220       19PY         0.00353   0.00176   0.00176   0.00000
 221       19PZ         0.00317   0.00158   0.00158   0.00000
 222       20PX         0.00027   0.00014   0.00014   0.00000
 223       20PY         0.00027   0.00014   0.00014   0.00000
 224       20PZ         0.00023   0.00012   0.00012   0.00000
 225       21PX         0.05158   0.02579   0.02579   0.00000
 226       21PY         0.05158   0.02579   0.02579   0.00000
 227       21PZ         0.05957   0.02979   0.02979   0.00000
 228       22D 0        0.00256   0.00128   0.00128   0.00000
 229       22D+1        0.00122   0.00061   0.00061   0.00000
 230       22D-1        0.00122   0.00061   0.00061   0.00000
 231       22D+2        0.00004   0.00002   0.00002   0.00000
 232       22D-2        0.00004   0.00002   0.00002   0.00000
 233       23D 0        0.00643   0.00322   0.00322   0.00000
 234       23D+1        0.01021   0.00511   0.00511   0.00000
 235       23D-1        0.01021   0.00511   0.00511   0.00000
 236       23D+2        0.00084   0.00042   0.00042   0.00000
 237       23D-2        0.00084   0.00042   0.00042   0.00000
 238       24D 0        0.00001   0.00000   0.00000   0.00000
 239       24D+1        0.00000   0.00000   0.00000   0.00000
 240       24D-1        0.00000   0.00000   0.00000   0.00000
 241       24D+2        0.00000   0.00000   0.00000   0.00000
 242       24D-2        0.00000   0.00000   0.00000   0.00000
 243       25D 0       -0.00076  -0.00038  -0.00038   0.00000
 244       25D+1        0.00360   0.00180   0.00180   0.00000
 245       25D-1        0.00360   0.00180   0.00180   0.00000
 246       25D+2       -0.00038  -0.00019  -0.00019   0.00000
 247       25D-2       -0.00038  -0.00019  -0.00019   0.00000
 248       26F 0        0.00187   0.00093   0.00093   0.00000
 249       26F+1        0.00124   0.00062   0.00062   0.00000
 250       26F-1        0.00124   0.00062   0.00062   0.00000
 251       26F+2        0.00015   0.00008   0.00008   0.00000
 252       26F-2        0.00015   0.00008   0.00008   0.00000
 253       26F+3        0.00000   0.00000   0.00000   0.00000
 254       26F-3        0.00000   0.00000   0.00000   0.00000
 255       27F 0       -0.00122  -0.00061  -0.00061   0.00000
 256       27F+1        0.00042   0.00021   0.00021   0.00000
 257       27F-1        0.00042   0.00021   0.00021   0.00000
 258       27F+2        0.00045   0.00022   0.00022   0.00000
 259       27F-2        0.00045   0.00022   0.00022   0.00000
 260       27F+3        0.00000   0.00000   0.00000   0.00000
 261       27F-3       -0.00000  -0.00000  -0.00000   0.00000
          Condensed to atoms (all electrons):
               1          2
     1  Zn  18.601337   0.089011
     2  O    0.089011   7.220640
          Atomic-Atomic Spin Densities.
               1          2
     1  Zn   0.000000   0.000000
     2  O    0.000000   0.000000
 Mulliken charges and spin densities:
               1          2
     1  Zn   1.309652   0.000000
     2  O   -1.309652   0.000000
 Sum of Mulliken charges =   0.00000   0.00000
 Mulliken charges and spin densities with hydrogens summed into heavy atoms:
               1          2
     1  Zn   1.309652   0.000000
     2  O   -1.309652   0.000000
 Electronic spatial extent (au):  <R**2>=             69.0942
 Charge=              0.0000 electrons
 Dipole moment (field-independent basis, Debye):
    X=              0.0000    Y=              0.0000    Z=              5.6443  Tot=              5.6443
 Quadrupole moment (field-independent basis, Debye-Ang):
   XX=            -17.9202   YY=            -17.9202   ZZ=            -19.5422
   XY=              0.0000   XZ=              0.0000   YZ=              0.0000
 Traceless Quadrupole moment (field-independent basis, Debye-Ang):
   XX=              0.5407   YY=              0.5407   ZZ=             -1.0813
   XY=              0.0000   XZ=              0.0000   YZ=              0.0000
 Octapole moment (field-independent basis, Debye-Ang**2):
  XXX=              0.0000  YYY=              0.0000  ZZZ=             15.6072  XYY=              0.0000
  XXY=              0.0000  XXZ=              3.9599  XZZ=              0.0000  YZZ=              0.0000
  YYZ=              3.9599  XYZ=              0.0000
 Hexadecapole moment (field-independent basis, Debye-Ang**3):
 XXXX=            -18.5620 YYYY=            -18.5620 ZZZZ=            -61.1686 XXXY=              0.0000
 XXXZ=              0.0000 YYYX=              0.0000 YYYZ=              0.0000 ZZZX=              0.0000
 ZZZY=              0.0000 XXYY=             -6.1873 XXZZ=            -13.2792 YYZZ=            -13.2792
 XXYZ=              0.0000 YYXZ=              0.0000 ZZXY=              0.0000
 N-N= 4.884712716185D+01 E-N=-6.969647759991D+02  KE= 1.660263532104D+02
 Symmetry A1   KE= 6.644106818880D+01
 Symmetry A2   KE= 2.266187378510D+01
 Symmetry B1   KE= 3.846170561959D+01
 Symmetry B2   KE= 3.846170561781D+01
 Symmetry A1   SP= 0.000000000000D+00
 Symmetry A2   SP= 0.000000000000D+00
 Symmetry B1   SP= 0.000000000000D+00
 Symmetry B2   SP= 0.000000000000D+00
 Orbital energies and kinetic energies (alpha):
                                 1                 2
   9         O                -0.837238         11.330937
  10         O                -0.799982          8.515921
  11         O                -0.431497          3.187335
  12         O                -0.431497          3.187335
  13         O                -0.390298          2.273322
  14         V                -0.024005          0.850523
  15         V                 0.031239          0.092007
  16         V                 0.031239          0.092007
  17         V                 0.035708          0.359306
  18         V                 0.044041          0.051737
 Total kinetic energy from orbitals= 1.660263532104D+02
                          Isotropic Fermi Contact Couplings
        Atom                 a.u.       MegaHertz       Gauss      10(-4) cm-1
     1  Zn(67)             0.00000       0.00000       0.00000       0.00000
     2  O(17)              0.00000      -0.00000      -0.00000      -0.00000
 --------------------------------------------------------
       Center         ----  Spin Dipole Couplings  ----
                      3XX-RR        3YY-RR        3ZZ-RR
 --------------------------------------------------------
     1   Atom        0.000000      0.000000      0.000000
     2   Atom        0.000000      0.000000      0.000000
 --------------------------------------------------------
                        XY            XZ            YZ
 --------------------------------------------------------
     1   Atom        0.000000      0.000000      0.000000
     2   Atom        0.000000      0.000000      0.000000
 --------------------------------------------------------


 ---------------------------------------------------------------------------------
              Anisotropic Spin Dipole Couplings in Principal Axis System
 ---------------------------------------------------------------------------------

       Atom             a.u.   MegaHertz   Gauss  10(-4) cm-1        Axes

              Baa     0.0000     0.000     0.000     0.000  1.0000  0.0000  0.0000
     1 Zn(67) Bbb     0.0000     0.000     0.000     0.000 -0.0000  1.0000  0.0000
              Bcc     0.0000     0.000     0.000     0.000  0.0000  0.0000  1.0000
 
              Baa     0.0000    -0.000    -0.000    -0.000  1.0000  0.0000  0.0000
     2 O(17)  Bbb     0.0000    -0.000    -0.000    -0.000 -0.0000  1.0000  0.0000
              Bcc     0.0000    -0.000    -0.000    -0.000  0.0000  0.0000  1.0000
 

 ---------------------------------------------------------------------------------

 No NMR shielding tensors so no spin-rotation constants.
 Leave Link  601 at Wed Mar 28 00:17:16 2018, MaxMem= 10737418240 cpu:              92.9 elap:               3.0
 (Enter /home1/apps/gaussian/16rA.03/g16/l9999.exe)

 Test job not archived.
 1\1\GINC-C402-064\SP\ROCCSD(T)-Full\Gen\O1Zn1\GWANG18\28-Mar-2018\0\\#
 P ROCCSD(T)=(MaxCyc=150, Full)/Gen SCF=(maxcycle=400) Pseudo=Read Inte
 gral(NoXCTest) Pop=Regular MaxDisk=500GB Guess=Read IOp(5/15=2)\\ZnO\\
 0,1\Zn,0,0.,0.,0.\O,0,0.,0.,1.3\\Version=ES64L-G16RevA.03\State=1-SG\H
 F=-241.4644908\MP2=-242.8227141\MP3=-242.6332999\PUHF=-241.4644908\PMP
 2-0=-242.8227141\MP4SDQ=-242.7499609\CCSD=-242.6987427\CCSD(T)=-242.74
 67285\RMSD=1.239e-09\PG=C*V [C*(O1Zn1)]\\@


 HERE WE GO......
 SLIDING DOWN THE RAZOR BLADE OF LIFE......
                                 TOM LEHRER
 Job cpu time:       1 days  2 hours 18 minutes  8.8 seconds.
 Elapsed time:       0 days  0 hours 49 minutes 44.4 seconds.
 File lengths (MBytes):  RWF=   5449 Int=      0 D2E=      0 Chk=      9 Scr=      1
 Normal termination of Gaussian 16 at Wed Mar 28 00:17:17 2018.
