 Entering Gaussian System, Link 0=g16
 Initial command:
 /home1/apps/gaussian/16rA.03/g16/l1.exe "/tmp/Gau-165811.inp" -scrdir="/tmp/"
 Entering Link 1 = /home1/apps/gaussian/16rA.03/g16/l1.exe PID=    165812.
  
 Copyright (c) 1988,1990,1992,1993,1995,1998,2003,2009,2016,
            Gaussian, Inc.  All Rights Reserved.
  
 This is part of the Gaussian(R) 16 program.  It is based on
 the Gaussian(R) 09 system (copyright 2009, Gaussian, Inc.),
 the Gaussian(R) 03 system (copyright 2003, Gaussian, Inc.),
 the Gaussian(R) 98 system (copyright 1998, Gaussian, Inc.),
 the Gaussian(R) 94 system (copyright 1995, Gaussian, Inc.),
 the Gaussian 92(TM) system (copyright 1992, Gaussian, Inc.),
 the Gaussian 90(TM) system (copyright 1990, Gaussian, Inc.),
 the Gaussian 88(TM) system (copyright 1988, Gaussian, Inc.),
 the Gaussian 86(TM) system (copyright 1986, Carnegie Mellon
 University), and the Gaussian 82(TM) system (copyright 1983,
 Carnegie Mellon University). Gaussian is a federally registered
 trademark of Gaussian, Inc.
  
 This software contains proprietary and confidential information,
 including trade secrets, belonging to Gaussian, Inc.
  
 This software is provided under written license and may be
 used, copied, transmitted, or stored only in accord with that
 written license.
  
 The following legend is applicable only to US Government
 contracts under FAR:
  
                    RESTRICTED RIGHTS LEGEND
  
 Use, reproduction and disclosure by the US Government is
 subject to restrictions as set forth in subparagraphs (a)
 and (c) of the Commercial Computer Software - Restricted
 Rights clause in FAR 52.227-19.
  
 Gaussian, Inc.
 340 Quinnipiac St., Bldg. 40, Wallingford CT 06492
  
  
 ---------------------------------------------------------------
 Warning -- This program may not be used in any manner that
 competes with the business of Gaussian, Inc. or will provide
 assistance to any competitor of Gaussian, Inc.  The licensee
 of this program is prohibited from giving any competitor of
 Gaussian, Inc. access to this program.  By using this program,
 the user acknowledges that Gaussian, Inc. is engaged in the
 business of creating and licensing software in the field of
 computational chemistry and represents and warrants to the
 licensee that it is not a competitor of Gaussian, Inc. and that
 it will not use this program in any manner prohibited above.
 ---------------------------------------------------------------
  

 Cite this work as:
 Gaussian 16, Revision A.03,
 M. J. Frisch, G. W. Trucks, H. B. Schlegel, G. E. Scuseria, 
 M. A. Robb, J. R. Cheeseman, G. Scalmani, V. Barone, 
 G. A. Petersson, H. Nakatsuji, X. Li, M. Caricato, A. V. Marenich, 
 J. Bloino, B. G. Janesko, R. Gomperts, B. Mennucci, H. P. Hratchian, 
 J. V. Ortiz, A. F. Izmaylov, J. L. Sonnenberg, D. Williams-Young, 
 F. Ding, F. Lipparini, F. Egidi, J. Goings, B. Peng, A. Petrone, 
 T. Henderson, D. Ranasinghe, V. G. Zakrzewski, J. Gao, N. Rega, 
 G. Zheng, W. Liang, M. Hada, M. Ehara, K. Toyota, R. Fukuda, 
 J. Hasegawa, M. Ishida, T. Nakajima, Y. Honda, O. Kitao, H. Nakai, 
 T. Vreven, K. Throssell, J. A. Montgomery, Jr., J. E. Peralta, 
 F. Ogliaro, M. J. Bearpark, J. J. Heyd, E. N. Brothers, K. N. Kudin, 
 V. N. Staroverov, T. A. Keith, R. Kobayashi, J. Normand, 
 K. Raghavachari, A. P. Rendell, J. C. Burant, S. S. Iyengar, 
 J. Tomasi, M. Cossi, J. M. Millam, M. Klene, C. Adamo, R. Cammi, 
 J. W. Ochterski, R. L. Martin, K. Morokuma, O. Farkas, 
 J. B. Foresman, and D. J. Fox, Gaussian, Inc., Wallingford CT, 2016.
 
 ******************************************
 Gaussian 16:  ES64L-G16RevA.03 25-Dec-2016
                25-Feb-2018 
 ******************************************
 %MEM=64GB
 %CPU=0-15
 SetSPE:  set environment variable "MP_BIND" = "yes"
 SetSPE:  set environment variable "MP_BLIST" = "0,1,2,3,4,5,6,7,8,9,10,11,12,13,14,15"
 Will use up to   16 processors via shared memory.
 %RWF=/scratch/04843/aannabe/gaussian/
 %Int=/scratch/04843/aannabe/gaussian/
 %D2E=/scratch/04843/aannabe/gaussian/
 %NoSave
 %CHK=MnH
 ----------------------------------------------------------------------
 #P ROHF/Gen 5d 7f SCF=(maxcycles=300) Integral(NoXCTest) MaxDisk=500GB
  Pop=Regular Pseudo=Read
 ----------------------------------------------------------------------
 1/38=1,172=1/1;
 2/12=2,17=6,18=5,40=1/2;
 3/5=7,8=11,11=2,16=1,17=8,25=1,30=1,47=8,116=101/1,2,3;
 4//1;
 5/5=2,7=300,38=5/2;
 6/28=1/1;
 99/5=1,9=1/99;
 Leave Link    1 at Sun Feb 25 17:17:39 2018, MaxMem=  8589934592 cpu:               4.2 elap:               0.3
 (Enter /home1/apps/gaussian/16rA.03/g16/l101.exe)
 ---
 MnH
 ---
 Symbolic Z-matrix:
 Charge =  0 Multiplicity = 7
 Mn                    0.        0.        0. 
 H                     0.        0.        1.7 
 
 ITRead=  0  0
 MicOpt= -1 -1
 NAtoms=      2 NQM=        2 NQMF=       0 NMMI=      0 NMMIF=      0
                NMic=       0 NMicF=      0.
                    Isotopes and Nuclear Properties:
 (Nuclear quadrupole moments (NQMom) in fm**2, nuclear magnetic moments (NMagM)
  in nuclear magnetons)

  Atom         1           2
 IAtWgt=          55           1
 AtmWgt=  54.9380463   1.0078250
 NucSpn=           5           1
 AtZEff=  -0.0000000  -0.0000000
 NQMom=   33.0000000   0.0000000
 NMagM=    3.4532000   2.7928460
 AtZNuc=  25.0000000   1.0000000
 Leave Link  101 at Sun Feb 25 17:17:40 2018, MaxMem=  8589934592 cpu:               1.4 elap:               0.1
 (Enter /home1/apps/gaussian/16rA.03/g16/l202.exe)
                          Input orientation:                          
 ---------------------------------------------------------------------
 Center     Atomic      Atomic             Coordinates (Angstroms)
 Number     Number       Type             X           Y           Z
 ---------------------------------------------------------------------
      1         25           0        0.000000    0.000000    0.000000
      2          1           0        0.000000    0.000000    1.700000
 ---------------------------------------------------------------------
 Stoichiometry    HMn(7)
 Framework group  C*V[C*(HMn)]
 Deg. of freedom     1
 Full point group                 C*V     NOp   4
 Largest Abelian subgroup         C2V     NOp   4
 Largest concise Abelian subgroup C1      NOp   1
                         Standard orientation:                         
 ---------------------------------------------------------------------
 Center     Atomic      Atomic             Coordinates (Angstroms)
 Number     Number       Type             X           Y           Z
 ---------------------------------------------------------------------
      1         25           0        0.000000    0.000000    0.065385
      2          1           0        0.000000    0.000000   -1.634615
 ---------------------------------------------------------------------
 Rotational constants (GHZ):           0.0000000         176.6969467         176.6969467
 Leave Link  202 at Sun Feb 25 17:17:40 2018, MaxMem=  8589934592 cpu:               0.4 elap:               0.1
 (Enter /home1/apps/gaussian/16rA.03/g16/l301.exe)
 General basis read from cards:  (5D, 7F)
 Centers:       1
 S 1 1.00
     Exponent=  3.9608050000D+06 Coefficients=  1.0000000000D+00
 S 1 1.00
     Exponent=  5.9311550000D+05 Coefficients=  1.0000000000D+00
 S 1 1.00
     Exponent=  1.3497680000D+05 Coefficients=  1.0000000000D+00
 S 1 1.00
     Exponent=  3.8230670000D+04 Coefficients=  1.0000000000D+00
 S 1 1.00
     Exponent=  1.2471540000D+04 Coefficients=  1.0000000000D+00
 S 1 1.00
     Exponent=  4.5017430000D+03 Coefficients=  1.0000000000D+00
 S 1 1.00
     Exponent=  1.7552120000D+03 Coefficients=  1.0000000000D+00
 S 1 1.00
     Exponent=  7.2730390000D+02 Coefficients=  1.0000000000D+00
 S 1 1.00
     Exponent=  3.1636780000D+02 Coefficients=  1.0000000000D+00
 S 1 1.00
     Exponent=  1.4300980000D+02 Coefficients=  1.0000000000D+00
 S 1 1.00
     Exponent=  6.6218050000D+01 Coefficients=  1.0000000000D+00
 S 1 1.00
     Exponent=  2.9918960000D+01 Coefficients=  1.0000000000D+00
 S 1 1.00
     Exponent=  1.4303180000D+01 Coefficients=  1.0000000000D+00
 S 1 1.00
     Exponent=  6.8394510000D+00 Coefficients=  1.0000000000D+00
 S 1 1.00
     Exponent=  3.0123740000D+00 Coefficients=  1.0000000000D+00
 S 1 1.00
     Exponent=  1.4188080000D+00 Coefficients=  1.0000000000D+00
 S 1 1.00
     Exponent=  6.2362400000D-01 Coefficients=  1.0000000000D+00
 S 1 1.00
     Exponent=  1.3409800000D-01 Coefficients=  1.0000000000D+00
 S 1 1.00
     Exponent=  6.5548000000D-02 Coefficients=  1.0000000000D+00
 S 1 1.00
     Exponent=  2.9584000000D-02 Coefficients=  1.0000000000D+00
 S 1 1.00
     Exponent=  4.1714000000D+00 Coefficients=  1.0000000000D+00
 S 1 1.00
     Exponent=  1.0701000000D+00 Coefficients=  1.0000000000D+00
 S 1 1.00
     Exponent=  1.3350000000D-02 Coefficients=  1.0000000000D+00
 P 1 1.00
     Exponent=  1.6205860000D+04 Coefficients=  1.0000000000D+00
 P 1 1.00
     Exponent=  3.8362740000D+03 Coefficients=  1.0000000000D+00
 P 1 1.00
     Exponent=  1.2460480000D+03 Coefficients=  1.0000000000D+00
 P 1 1.00
     Exponent=  4.7675350000D+02 Coefficients=  1.0000000000D+00
 P 1 1.00
     Exponent=  2.0218950000D+02 Coefficients=  1.0000000000D+00
 P 1 1.00
     Exponent=  9.2094870000D+01 Coefficients=  1.0000000000D+00
 P 1 1.00
     Exponent=  4.4147200000D+01 Coefficients=  1.0000000000D+00
 P 1 1.00
     Exponent=  2.1854680000D+01 Coefficients=  1.0000000000D+00
 P 1 1.00
     Exponent=  1.1085960000D+01 Coefficients=  1.0000000000D+00
 P 1 1.00
     Exponent=  5.6741080000D+00 Coefficients=  1.0000000000D+00
 P 1 1.00
     Exponent=  2.8231700000D+00 Coefficients=  1.0000000000D+00
 P 1 1.00
     Exponent=  1.3686210000D+00 Coefficients=  1.0000000000D+00
 P 1 1.00
     Exponent=  6.4443100000D-01 Coefficients=  1.0000000000D+00
 P 1 1.00
     Exponent=  2.4834600000D-01 Coefficients=  1.0000000000D+00
 P 1 1.00
     Exponent=  9.7175000000D-02 Coefficients=  1.0000000000D+00
 P 1 1.00
     Exponent=  3.6565000000D-02 Coefficients=  1.0000000000D+00
 P 1 1.00
     Exponent=  6.0568000000D+00 Coefficients=  1.0000000000D+00
 P 1 1.00
     Exponent=  1.3911000000D+00 Coefficients=  1.0000000000D+00
 P 1 1.00
     Exponent=  1.3760000000D-02 Coefficients=  1.0000000000D+00
 D 1 1.00
     Exponent=  1.0190400000D+02 Coefficients=  1.0000000000D+00
 D 1 1.00
     Exponent=  3.0033700000D+01 Coefficients=  1.0000000000D+00
 D 1 1.00
     Exponent=  1.0923800000D+01 Coefficients=  1.0000000000D+00
 D 1 1.00
     Exponent=  4.3974000000D+00 Coefficients=  1.0000000000D+00
 D 1 1.00
     Exponent=  1.8159500000D+00 Coefficients=  1.0000000000D+00
 D 1 1.00
     Exponent=  7.2573100000D-01 Coefficients=  1.0000000000D+00
 D 1 1.00
     Exponent=  2.6996100000D-01 Coefficients=  1.0000000000D+00
 D 1 1.00
     Exponent=  8.7760000000D-02 Coefficients=  1.0000000000D+00
 D 1 1.00
     Exponent=  3.9511000000D+00 Coefficients=  1.0000000000D+00
 D 1 1.00
     Exponent=  1.8488000000D+00 Coefficients=  1.0000000000D+00
 D 1 1.00
     Exponent=  2.8530000000D-02 Coefficients=  1.0000000000D+00
 F 1 1.00
     Exponent=  5.1541000000D+00 Coefficients=  1.0000000000D+00
 F 1 1.00
     Exponent=  1.9044000000D+00 Coefficients=  1.0000000000D+00
 F 1 1.00
     Exponent=  6.4380000000D-01 Coefficients=  1.0000000000D+00
 F 1 1.00
     Exponent=  2.1764000000D-01 Coefficients=  1.0000000000D+00
 G 1 1.00
     Exponent=  4.7163000000D+00 Coefficients=  1.0000000000D+00
 G 1 1.00
     Exponent=  1.7022000000D+00 Coefficients=  1.0000000000D+00
 G 1 1.00
     Exponent=  6.1436000000D-01 Coefficients=  1.0000000000D+00
 ****
 Centers:       2
 S 1 1.00
     Exponent=  3.3870000000D+01 Coefficients=  1.0000000000D+00
 S 1 1.00
     Exponent=  5.0950000000D+00 Coefficients=  1.0000000000D+00
 S 1 1.00
     Exponent=  1.1590000000D+00 Coefficients=  1.0000000000D+00
 S 1 1.00
     Exponent=  3.2580000000D-01 Coefficients=  1.0000000000D+00
 S 1 1.00
     Exponent=  1.0270000000D-01 Coefficients=  1.0000000000D+00
 S 1 1.00
     Exponent=  2.5260000000D-02 Coefficients=  1.0000000000D+00
 P 1 1.00
     Exponent=  1.4070000000D+00 Coefficients=  1.0000000000D+00
 P 1 1.00
     Exponent=  3.8800000000D-01 Coefficients=  1.0000000000D+00
 P 1 1.00
     Exponent=  1.0200000000D-01 Coefficients=  1.0000000000D+00
 D 1 1.00
     Exponent=  1.0570000000D+00 Coefficients=  1.0000000000D+00
 D 1 1.00
     Exponent=  2.4700000000D-01 Coefficients=  1.0000000000D+00
 ****
 ======================================================================================================
                                       Pseudopotential Parameters
 ======================================================================================================
  Center     Atomic      Valence      Angular      Power
  Number     Number     Electrons     Momentum     of R      Exponent        Coefficient   SO-Coeffient
 ======================================================================================================
    1         25           15
                                      D and up 
                                                     1        3.2952461       15.00000000    0.00000000
                                                     3        3.6159915       49.42869068    0.00000000
                                                     2        3.5740576      -61.66925169    0.00000000
                                      S - D
                                                     2        9.9915420      112.85037953    0.00000000
                                      P - D
                                                     2        7.8092522       49.18832867    0.00000000
    2          1            1
                                      P and up 
                                                     2       21.7769666      -10.85192405    0.00000000
                                                     1       21.2435951        1.00000000    0.00000000
                                                     3       21.2435951       21.24359508    0.00000000
                                      S - P
                                                     2        1.0000000        0.00000000    0.00000000
 ======================================================================================================
 Ernie: Thresh=  0.10000D-02 Tol=  0.10000D-05 Strict=F.
 There are   120 symmetry adapted cartesian basis functions of A1  symmetry.
 There are    26 symmetry adapted cartesian basis functions of A2  symmetry.
 There are    56 symmetry adapted cartesian basis functions of B1  symmetry.
 There are    56 symmetry adapted cartesian basis functions of B2  symmetry.
 There are    94 symmetry adapted basis functions of A1  symmetry.
 There are    23 symmetry adapted basis functions of A2  symmetry.
 There are    49 symmetry adapted basis functions of B1  symmetry.
 There are    49 symmetry adapted basis functions of B2  symmetry.
   215 basis functions,   258 primitive gaussians,   258 cartesian basis functions
    11 alpha electrons        5 beta electrons
       nuclear repulsion energy         4.6692106846 Hartrees.
 IExCor=    0 DFT=F Ex=HF Corr=None ExCW=0 ScaHFX=  1.000000
 ScaDFX=  1.000000  1.000000  1.000000  1.000000 ScalE2=  1.000000  1.000000
 IRadAn=      5 IRanWt=     -1 IRanGd=            0 ICorTp=0 IEmpDi=  4
 NAtoms=    2 NActive=    2 NUniq=    2 SFac= 1.00D+00 NAtFMM=   60 NAOKFM=F Big=F
 Integral buffers will be    131072 words long.
 Raffenetti 2 integral format.
 Two-electron integral symmetry is turned on.
 Leave Link  301 at Sun Feb 25 17:17:41 2018, MaxMem=  8589934592 cpu:               3.5 elap:               0.3
 (Enter /home1/apps/gaussian/16rA.03/g16/l302.exe)
 NPDir=0 NMtPBC=     1 NCelOv=     1 NCel=       1 NClECP=     1 NCelD=      1
         NCelK=      1 NCelE2=     1 NClLst=     1 CellRange=     0.0.
 One-electron integrals computed using PRISM.
 One-electron integral symmetry used in STVInt
   4 Symmetry operations used in ECPInt.
 ECPInt:  NShTT=    2556 NPrTT=    2556 LenC2=    2532 LenP2D=    2531.
 LDataN:  DoStor=T MaxTD1= 8 Len=  415
 NBasis=   215 RedAO= T EigKep=  1.41D-06  NBF=    94    23    49    49
 NBsUse=   212 1.00D-06 EigRej=  1.76D-07 NBFU=    93    23    48    48
 Leave Link  302 at Sun Feb 25 17:17:42 2018, MaxMem=  8589934592 cpu:              14.2 elap:               0.9
 (Enter /home1/apps/gaussian/16rA.03/g16/l303.exe)
 DipDrv:  MaxL=1.
 Leave Link  303 at Sun Feb 25 17:17:42 2018, MaxMem=  8589934592 cpu:               1.0 elap:               0.1
 (Enter /home1/apps/gaussian/16rA.03/g16/l401.exe)
 ExpMin= 1.34D-02 ExpMax= 3.96D+06 ExpMxC= 3.96D+06 IAcc=4 IRadAn=    199590 AccDes= 0.00D+00
 Harris functional with IExCor=  205 and IRadAn=  199590 diagonalized for initial guess.
 HarFok:  IExCor=  205 AccDes= 0.00D+00 IRadAn=    199590 IDoV= 1 UseB2=F ITyADJ=14
 ICtDFT=  3500011 ScaDFX=  1.000000  1.000000  1.000000  1.000000
 Spurious integrated density or basis function:
 NE=   16 NElCor=    0 El error=1.83D-08 rel=7.02D-10 Tolerance=1.00D-03
 Shell     1     absolute error=1.56D-02              Tolerance=1.20D-02
 Shell     2       signed error=1.57D-05              Tolerance=1.00D-01
 FoFCou: FMM=F IPFlag=           8 FMFlag=      100000 FMFlg1=           0
         NFxFlg=           0 DoJE=T BraDBF=F KetDBF=T FulRan=T
         wScrn=  0.000000 ICntrl=       500 IOpCl=  0 I1Cent=   200000004 NGrid=           0
         NMat0=    1 NMatS0=      1 NMatT0=    0 NMatD0=    1 NMtDS0=    0 NMtDT0=    0
 Petite list used in FoFCou.
 Harris En= -104.753740125872    
 JPrj=0 DoOrth=F DoCkMO=F.
 Initial guess orbital symmetries:
       Occupied  (SG) (SG) (PI) (PI) (SG) (PI) (PI) (DLTA) (DLTA)
                 (SG) (SG)
       Virtual   (PI) (PI) (SG) (SG) (SG) (PI) (PI) (PI) (PI) (DLTA)
                 (DLTA) (SG) (SG) (SG) (PI) (PI) (SG) (PI) (PI)
                 (DLTA) (DLTA) (PI) (PI) (SG) (SG) (SG) (SG) (DLTA)
                 (DLTA) (PI) (PI) (PHI) (PHI) (PI) (PI) (SG) (SG)
                 (PI) (PI) (DLTA) (DLTA) (SG) (DLTA) (DLTA) (PI)
                 (PI) (SG) (PI) (PI) (SG) (SG) (PHI) (PHI) (SG)
                 (DLTA) (DLTA) (PI) (PI) (PI) (PI) (SG) (SG) (PHI)
                 (PHI) (?A) (?A) (PI) (PI) (DLTA) (DLTA) (DLTA)
                 (DLTA) (SG) (PI) (PI) (SG) (DLTA) (DLTA) (PI)
                 (PI) (PI) (PI) (SG) (SG) (SG) (PHI) (PHI) (DLTA)
                 (DLTA) (PI) (PI) (SG) (DLTA) (DLTA) (PI) (PI)
                 (PI) (PI) (SG) (SG) (PHI) (PHI) (?A) (?A) (DLTA)
                 (DLTA) (PI) (PI) (SG) (SG) (SG) (DLTA) (DLTA)
                 (PI) (PI) (SG) (PHI) (PHI) (DLTA) (DLTA) (PI)
                 (PI) (PI) (PI) (SG) (SG) (PHI) (PHI) (?A) (?A)
                 (DLTA) (DLTA) (PI) (PI) (SG) (SG) (DLTA) (DLTA)
                 (PI) (PI) (SG) (PI) (PI) (SG) (SG) (DLTA) (DLTA)
                 (PI) (PI) (SG) (PI) (PI) (SG) (SG) (SG) (PI) (PI)
                 (SG) (DLTA) (DLTA) (PI) (PI) (SG) (SG) (PI) (PI)
                 (SG) (SG) (DLTA) (DLTA) (PI) (PI) (SG) (PI) (PI)
                 (SG) (SG) (PI) (PI) (SG) (SG) (PI) (PI) (SG) (SG)
                 (PI) (PI) (SG) (SG) (PI) (PI) (SG) (SG) (SG) (PI)
                 (PI) (SG) (SG) (SG) (SG) (SG)
 The electronic state of the initial guess is 7-SG.
 Leave Link  401 at Sun Feb 25 17:17:44 2018, MaxMem=  8589934592 cpu:              20.1 elap:               1.3
 (Enter /home1/apps/gaussian/16rA.03/g16/l502.exe)
 Keep R1 and R2 ints in memory in symmetry-blocked form, NReq=338797193.
 FoFCou: FMM=F IPFlag=           8 FMFlag=           0 FMFlg1=           0
         NFxFlg=           0 DoJE=F BraDBF=F KetDBF=F FulRan=T
         wScrn=  0.000000 ICntrl=       600 IOpCl=  0 I1Cent=           0 NGrid=           0
         NMat0=    1 NMatS0=  23220 NMatT0=    0 NMatD0=    1 NMtDS0=    0 NMtDT0=    0
 Petite list used in FoFCou.
 Restricted open shell SCF:
 Using DIIS extrapolation, IDIIS=  1040.
 NGot=  8589934592 LenX=  8451450423 LenY=  8451383418
 Requested convergence on RMS density matrix=1.00D-08 within 300 cycles.
 Requested convergence on MAX density matrix=1.00D-06.
 Requested convergence on             energy=1.00D-06.
 No special actions if energy rises.

 Cycle   1  Pass 1  IDiag  1:
 E= -104.143257086910    
 DIIS: error= 4.24D-02 at cycle   1 NSaved=   1.
 NSaved= 1 IEnMin= 1 EnMin= -104.143257086910     IErMin= 1 ErrMin= 4.24D-02
 ErrMax= 4.24D-02  0.00D+00 EMaxC= 1.00D-01 BMatC= 1.73D-01 BMatP= 1.73D-01
 IDIUse=3 WtCom= 5.76D-01 WtEn= 4.24D-01
 Coeff-Com:  0.100D+01
 Coeff-En:   0.100D+01
 Coeff:      0.100D+01
 Gap=     0.114 Goal=   None    Shift=    0.000
 GapD=    0.114 DampG=1.000 DampE=0.250 DampFc=0.2500 IDamp=-1.
 Damping current iteration by 2.50D-01
 RMSDP=5.79D-03 MaxDP=4.84D-01              OVMax= 2.12D-01

 Cycle   2  Pass 1  IDiag  1:
 E= -104.153940800936     Delta-E=       -0.010683714026 Rises=F Damp=T
 DIIS: error= 2.49D-02 at cycle   2 NSaved=   2.
 NSaved= 2 IEnMin= 2 EnMin= -104.153940800936     IErMin= 2 ErrMin= 2.49D-02
 ErrMax= 2.49D-02  0.00D+00 EMaxC= 1.00D-01 BMatC= 5.45D-02 BMatP= 1.73D-01
 IDIUse=3 WtCom= 7.51D-01 WtEn= 2.49D-01
 Coeff-Com: -0.750D-01 0.108D+01
 Coeff-En:   0.400D+00 0.600D+00
 Coeff:      0.431D-01 0.957D+00
 Gap=     0.077 Goal=   None    Shift=    0.000
 RMSDP=6.60D-03 MaxDP=6.51D-01 DE=-1.07D-02 OVMax= 2.92D-01

 Cycle   3  Pass 1  IDiag  1:
 E= -104.142376030712     Delta-E=        0.011564770224 Rises=F Damp=F
 DIIS: error= 4.38D-02 at cycle   3 NSaved=   3.
 NSaved= 3 IEnMin= 2 EnMin= -104.153940800936     IErMin= 2 ErrMin= 2.49D-02
 ErrMax= 4.38D-02  0.00D+00 EMaxC= 1.00D-01 BMatC= 9.11D-02 BMatP= 5.45D-02
 IDIUse=2 WtCom= 0.00D+00 WtEn= 1.00D+00
 Coeff-En:   0.000D+00 0.540D+00 0.460D+00
 Coeff:      0.000D+00 0.540D+00 0.460D+00
 Gap=     0.089 Goal=   None    Shift=    0.000
 RMSDP=3.36D-03 MaxDP=1.71D-01 DE= 1.16D-02 OVMax= 2.30D-01

 Cycle   4  Pass 1  IDiag  1:
 E= -104.235066140315     Delta-E=       -0.092690109603 Rises=F Damp=F
 DIIS: error= 1.22D-02 at cycle   4 NSaved=   4.
 NSaved= 4 IEnMin= 4 EnMin= -104.235066140315     IErMin= 4 ErrMin= 1.22D-02
 ErrMax= 1.22D-02  0.00D+00 EMaxC= 1.00D-01 BMatC= 2.05D-02 BMatP= 5.45D-02
 IDIUse=3 WtCom= 8.78D-01 WtEn= 1.22D-01
 Coeff-Com: -0.375D+00 0.621D+00 0.491D+00 0.262D+00
 Coeff-En:   0.000D+00 0.000D+00 0.252D+00 0.748D+00
 Coeff:     -0.329D+00 0.545D+00 0.462D+00 0.322D+00
 Gap=     0.084 Goal=   None    Shift=    0.000
 RMSDP=2.09D-03 MaxDP=1.44D-01 DE=-9.27D-02 OVMax= 5.84D-02

 Cycle   5  Pass 1  IDiag  1:
 E= -104.240914674539     Delta-E=       -0.005848534223 Rises=F Damp=F
 DIIS: error= 1.38D-02 at cycle   5 NSaved=   5.
 NSaved= 5 IEnMin= 5 EnMin= -104.240914674539     IErMin= 4 ErrMin= 1.22D-02
 ErrMax= 1.38D-02  0.00D+00 EMaxC= 1.00D-01 BMatC= 8.69D-03 BMatP= 2.05D-02
 IDIUse=3 WtCom= 8.62D-01 WtEn= 1.38D-01
 Rare condition: small coef for last iteration:  0.000D+00
 Coeff-Com: -0.422D+00 0.555D+00 0.205D+00-0.151D+00 0.813D+00
 Coeff-En:   0.000D+00 0.000D+00 0.881D-01 0.312D+00 0.600D+00
 Coeff:     -0.422D+00 0.555D+00 0.205D+00-0.151D+00 0.813D+00
 Gap=     0.082 Goal=   None    Shift=    0.000
 RMSDP=1.38D-03 MaxDP=1.14D-01 DE=-5.85D-03 OVMax= 4.04D-02

 Cycle   6  Pass 1  IDiag  1:
 E= -104.238343044987     Delta-E=        0.002571629551 Rises=F Damp=F
 DIIS: error= 1.41D-02 at cycle   6 NSaved=   6.
 NSaved= 6 IEnMin= 5 EnMin= -104.240914674539     IErMin= 4 ErrMin= 1.22D-02
 ErrMax= 1.41D-02  0.00D+00 EMaxC= 1.00D-01 BMatC= 8.99D-03 BMatP= 8.69D-03
 IDIUse=3 WtCom= 8.62D-01 WtEn= 1.38D-01
 EnCoef did   100 forward-backward iterations
 Coeff-Com: -0.331D+00 0.445D+00-0.514D-01-0.266D+00 0.358D+00 0.845D+00
 Coeff-En:   0.000D+00 0.000D+00 0.243D+00 0.727D+00 0.293D-01 0.138D-03
 Coeff:     -0.285D+00 0.384D+00-0.107D-01-0.129D+00 0.312D+00 0.728D+00
 Gap=     0.079 Goal=   None    Shift=    0.000
 RMSDP=1.28D-03 MaxDP=1.10D-01 DE= 2.57D-03 OVMax= 4.37D-02

 Cycle   7  Pass 1  IDiag  1:
 E= -104.247440191827     Delta-E=       -0.009097146839 Rises=F Damp=F
 DIIS: error= 8.46D-03 at cycle   7 NSaved=   7.
 NSaved= 7 IEnMin= 7 EnMin= -104.247440191827     IErMin= 7 ErrMin= 8.46D-03
 ErrMax= 8.46D-03  0.00D+00 EMaxC= 1.00D-01 BMatC= 3.15D-03 BMatP= 8.69D-03
 IDIUse=3 WtCom= 9.15D-01 WtEn= 8.46D-02
 Coeff-Com: -0.235D+00 0.321D+00-0.702D-01-0.236D+00-0.155D-01 0.509D+00
 Coeff-Com:  0.727D+00
 Coeff-En:   0.000D+00 0.000D+00 0.000D+00 0.635D-01 0.000D+00 0.000D+00
 Coeff-En:   0.937D+00
 Coeff:     -0.215D+00 0.293D+00-0.643D-01-0.211D+00-0.142D-01 0.466D+00
 Coeff:      0.745D+00
 Gap=     0.078 Goal=   None    Shift=    0.000
 RMSDP=1.47D-03 MaxDP=1.35D-01 DE=-9.10D-03 OVMax= 2.57D-02

 Cycle   8  Pass 1  IDiag  1:
 E= -104.249182506908     Delta-E=       -0.001742315081 Rises=F Damp=F
 DIIS: error= 5.57D-03 at cycle   8 NSaved=   8.
 NSaved= 8 IEnMin= 8 EnMin= -104.249182506908     IErMin= 8 ErrMin= 5.57D-03
 ErrMax= 5.57D-03  0.00D+00 EMaxC= 1.00D-01 BMatC= 1.73D-03 BMatP= 3.15D-03
 IDIUse=3 WtCom= 9.44D-01 WtEn= 5.57D-02
 Coeff-Com: -0.187D+00 0.253D+00-0.648D-02-0.196D+00-0.893D-01 0.844D-01
 Coeff-Com:  0.647D+00 0.494D+00
 Coeff-En:   0.000D+00 0.000D+00 0.174D-01 0.000D+00 0.000D+00 0.000D+00
 Coeff-En:   0.000D+00 0.983D+00
 Coeff:     -0.176D+00 0.239D+00-0.515D-02-0.185D+00-0.843D-01 0.797D-01
 Coeff:      0.611D+00 0.521D+00
 Gap=     0.078 Goal=   None    Shift=    0.000
 RMSDP=1.71D-03 MaxDP=1.79D-01 DE=-1.74D-03 OVMax= 2.78D-02

 Cycle   9  Pass 1  IDiag  1:
 E= -104.249947367706     Delta-E=       -0.000764860798 Rises=F Damp=F
 DIIS: error= 4.71D-03 at cycle   9 NSaved=   9.
 NSaved= 9 IEnMin= 9 EnMin= -104.249947367706     IErMin= 9 ErrMin= 4.71D-03
 ErrMax= 4.71D-03  0.00D+00 EMaxC= 1.00D-01 BMatC= 1.21D-03 BMatP= 1.73D-03
 IDIUse=3 WtCom= 9.53D-01 WtEn= 4.71D-02
 EnCoef did     9 forward-backward iterations
 Coeff-Com: -0.160D+00 0.215D+00 0.177D-01-0.163D+00 0.269D-01-0.523D-01
 Coeff-Com:  0.169D+00 0.443D+00 0.504D+00
 Coeff-En:   0.000D+00 0.000D+00 0.594D-02 0.000D+00 0.000D+00 0.000D+00
 Coeff-En:   0.000D+00 0.177D+00 0.817D+00
 Coeff:     -0.152D+00 0.205D+00 0.172D-01-0.155D+00 0.256D-01-0.498D-01
 Coeff:      0.161D+00 0.430D+00 0.519D+00
 Gap=     0.078 Goal=   None    Shift=    0.000
 RMSDP=1.11D-03 MaxDP=1.15D-01 DE=-7.65D-04 OVMax= 1.44D-02

 Cycle  10  Pass 1  IDiag  1:
 E= -104.250417323080     Delta-E=       -0.000469955374 Rises=F Damp=F
 DIIS: error= 4.38D-03 at cycle  10 NSaved=  10.
 NSaved=10 IEnMin=10 EnMin= -104.250417323080     IErMin=10 ErrMin= 4.38D-03
 ErrMax= 4.38D-03  0.00D+00 EMaxC= 1.00D-01 BMatC= 9.13D-04 BMatP= 1.21D-03
 IDIUse=3 WtCom= 9.56D-01 WtEn= 4.38D-02
 Coeff-Com: -0.129D+00 0.172D+00 0.163D-01-0.122D+00 0.138D+00-0.750D-01
 Coeff-Com: -0.204D+00 0.149D+00 0.441D+00 0.614D+00
 Coeff-En:   0.000D+00 0.000D+00 0.134D-01 0.000D+00 0.000D+00 0.000D+00
 Coeff-En:   0.000D+00 0.000D+00 0.000D+00 0.987D+00
 Coeff:     -0.123D+00 0.165D+00 0.161D-01-0.117D+00 0.132D+00-0.717D-01
 Coeff:     -0.195D+00 0.142D+00 0.421D+00 0.630D+00
 Gap=     0.077 Goal=   None    Shift=    0.000
 RMSDP=4.24D-04 MaxDP=4.09D-02 DE=-4.70D-04 OVMax= 6.08D-03

 Cycle  11  Pass 1  IDiag  1:
 E= -104.250929004901     Delta-E=       -0.000511681821 Rises=F Damp=F
 DIIS: error= 3.45D-03 at cycle  11 NSaved=  11.
 NSaved=11 IEnMin=11 EnMin= -104.250929004901     IErMin=11 ErrMin= 3.45D-03
 ErrMax= 3.45D-03  0.00D+00 EMaxC= 1.00D-01 BMatC= 5.81D-04 BMatP= 9.13D-04
 IDIUse=3 WtCom= 9.65D-01 WtEn= 3.45D-02
 Coeff-Com: -0.855D-01 0.114D+00 0.475D-02-0.766D-01 0.122D+00-0.585D-01
 Coeff-Com: -0.217D+00-0.507D-01 0.448D-01 0.308D+00 0.896D+00
 Coeff-En:   0.000D+00 0.000D+00 0.279D-01 0.000D+00 0.000D+00 0.000D+00
 Coeff-En:   0.000D+00 0.000D+00 0.000D+00 0.000D+00 0.972D+00
 Coeff:     -0.825D-01 0.110D+00 0.555D-02-0.739D-01 0.118D+00-0.565D-01
 Coeff:     -0.210D+00-0.490D-01 0.432D-01 0.297D+00 0.898D+00
 Gap=     0.076 Goal=   None    Shift=    0.000
 RMSDP=3.07D-04 MaxDP=2.60D-02 DE=-5.12D-04 OVMax= 9.90D-03

 Cycle  12  Pass 1  IDiag  1:
 E= -104.251428937909     Delta-E=       -0.000499933008 Rises=F Damp=F
 DIIS: error= 2.26D-03 at cycle  12 NSaved=  12.
 NSaved=12 IEnMin=12 EnMin= -104.251428937909     IErMin=12 ErrMin= 2.26D-03
 ErrMax= 2.26D-03  0.00D+00 EMaxC= 1.00D-01 BMatC= 2.53D-04 BMatP= 5.81D-04
 IDIUse=3 WtCom= 9.77D-01 WtEn= 2.26D-02
 Coeff-Com: -0.501D-01 0.658D-01 0.354D-03-0.403D-01 0.807D-01-0.331D-01
 Coeff-Com: -0.160D+00-0.139D+00-0.189D+00-0.358D-01 0.104D+01 0.465D+00
 Coeff-En:   0.000D+00 0.000D+00 0.525D-01 0.000D+00 0.000D+00 0.000D+00
 Coeff-En:   0.000D+00 0.000D+00 0.000D+00 0.000D+00 0.000D+00 0.948D+00
 Coeff:     -0.490D-01 0.643D-01 0.153D-02-0.394D-01 0.789D-01-0.323D-01
 Coeff:     -0.156D+00-0.136D+00-0.185D+00-0.350D-01 0.101D+01 0.476D+00
 Gap=     0.076 Goal=   None    Shift=    0.000
 RMSDP=3.57D-04 MaxDP=3.17D-02 DE=-5.00D-04 OVMax= 6.86D-03

 Cycle  13  Pass 1  IDiag  1:
 E= -104.251687210178     Delta-E=       -0.000258272269 Rises=F Damp=F
 DIIS: error= 1.29D-03 at cycle  13 NSaved=  13.
 NSaved=13 IEnMin=13 EnMin= -104.251687210178     IErMin=13 ErrMin= 1.29D-03
 ErrMax= 1.29D-03  0.00D+00 EMaxC= 1.00D-01 BMatC= 8.24D-05 BMatP= 2.53D-04
 IDIUse=3 WtCom= 9.87D-01 WtEn= 1.29D-02
 Coeff-Com: -0.206D-01 0.265D-01 0.378D-03-0.148D-01 0.231D-01 0.253D-02
 Coeff-Com: -0.559D-01-0.919D-01-0.139D+00-0.177D+00 0.289D+00 0.436D+00
 Coeff-Com:  0.722D+00
 Coeff-En:   0.000D+00 0.000D+00 0.675D-01 0.000D+00 0.000D+00 0.000D+00
 Coeff-En:   0.000D+00 0.000D+00 0.000D+00 0.000D+00 0.000D+00 0.000D+00
 Coeff-En:   0.932D+00
 Coeff:     -0.203D-01 0.261D-01 0.124D-02-0.146D-01 0.228D-01 0.249D-02
 Coeff:     -0.552D-01-0.907D-01-0.137D+00-0.174D+00 0.285D+00 0.430D+00
 Coeff:      0.725D+00
 Gap=     0.075 Goal=   None    Shift=    0.000
 RMSDP=2.41D-04 MaxDP=2.09D-02 DE=-2.58D-04 OVMax= 4.18D-03

 Cycle  14  Pass 1  IDiag  1:
 E= -104.251791104184     Delta-E=       -0.000103894006 Rises=F Damp=F
 DIIS: error= 4.93D-04 at cycle  14 NSaved=  14.
 NSaved=14 IEnMin=14 EnMin= -104.251791104184     IErMin=14 ErrMin= 4.93D-04
 ErrMax= 4.93D-04  0.00D+00 EMaxC= 1.00D-01 BMatC= 1.31D-05 BMatP= 8.24D-05
 IDIUse=3 WtCom= 9.95D-01 WtEn= 4.93D-03
 Coeff-Com: -0.713D-02 0.903D-02-0.870D-04-0.575D-02 0.932D-03 0.147D-01
 Coeff-Com: -0.793D-02-0.319D-01-0.453D-01-0.109D+00-0.809D-01 0.145D+00
 Coeff-Com:  0.517D+00 0.601D+00
 Coeff-En:   0.000D+00 0.000D+00 0.796D-01 0.000D+00 0.000D+00 0.000D+00
 Coeff-En:   0.000D+00 0.000D+00 0.000D+00 0.000D+00 0.000D+00 0.000D+00
 Coeff-En:   0.000D+00 0.920D+00
 Coeff:     -0.710D-02 0.899D-02 0.306D-03-0.572D-02 0.927D-03 0.146D-01
 Coeff:     -0.789D-02-0.317D-01-0.451D-01-0.108D+00-0.805D-01 0.144D+00
 Coeff:      0.514D+00 0.603D+00
 Gap=     0.075 Goal=   None    Shift=    0.000
 RMSDP=1.28D-04 MaxDP=1.39D-02 DE=-1.04D-04 OVMax= 2.23D-03

 Cycle  15  Pass 1  IDiag  1:
 E= -104.251807975919     Delta-E=       -0.000016871735 Rises=F Damp=F
 DIIS: error= 1.69D-04 at cycle  15 NSaved=  15.
 NSaved=15 IEnMin=15 EnMin= -104.251807975919     IErMin=15 ErrMin= 1.69D-04
 ErrMax= 1.69D-04  0.00D+00 EMaxC= 1.00D-01 BMatC= 1.97D-06 BMatP= 1.31D-05
 IDIUse=3 WtCom= 9.98D-01 WtEn= 1.69D-03
 Coeff-Com: -0.225D-02 0.285D-02 0.411D-03-0.256D-02-0.247D-02 0.145D-01
 Coeff-Com:  0.422D-02 0.193D-02 0.121D-01-0.315D-01-0.183D+00-0.295D-01
 Coeff-Com:  0.223D+00 0.554D+00 0.438D+00
 Coeff-En:   0.000D+00 0.000D+00 0.853D-01 0.000D+00 0.000D+00 0.000D+00
 Coeff-En:   0.000D+00 0.000D+00 0.000D+00 0.000D+00 0.000D+00 0.000D+00
 Coeff-En:   0.000D+00 0.000D+00 0.915D+00
 Coeff:     -0.225D-02 0.285D-02 0.555D-03-0.256D-02-0.246D-02 0.145D-01
 Coeff:      0.421D-02 0.193D-02 0.121D-01-0.315D-01-0.182D+00-0.295D-01
 Coeff:      0.223D+00 0.553D+00 0.439D+00
 Gap=     0.075 Goal=   None    Shift=    0.000
 RMSDP=5.87D-05 MaxDP=4.90D-03 DE=-1.69D-05 OVMax= 1.14D-03

 Cycle  16  Pass 1  IDiag  1:
 E= -104.251810728428     Delta-E=       -0.000002752509 Rises=F Damp=F
 DIIS: error= 6.58D-05 at cycle  16 NSaved=  16.
 NSaved=16 IEnMin=16 EnMin= -104.251810728428     IErMin=16 ErrMin= 6.58D-05
 ErrMax= 6.58D-05  0.00D+00 EMaxC= 1.00D-01 BMatC= 2.52D-07 BMatP= 1.97D-06
 IDIUse=1 WtCom= 1.00D+00 WtEn= 0.00D+00
 Coeff-Com: -0.253D-03 0.337D-03 0.173D-03-0.900D-03-0.101D-02 0.696D-02
 Coeff-Com:  0.461D-02 0.652D-02 0.170D-01-0.169D-02-0.120D+00-0.543D-01
 Coeff-Com:  0.572D-01 0.303D+00 0.344D+00 0.438D+00
 Coeff:     -0.253D-03 0.337D-03 0.173D-03-0.900D-03-0.101D-02 0.696D-02
 Coeff:      0.461D-02 0.652D-02 0.170D-01-0.169D-02-0.120D+00-0.543D-01
 Coeff:      0.572D-01 0.303D+00 0.344D+00 0.438D+00
 Gap=     0.075 Goal=   None    Shift=    0.000
 RMSDP=6.19D-05 MaxDP=6.68D-03 DE=-2.75D-06 OVMax= 4.45D-04

 Cycle  17  Pass 1  IDiag  1:
 E= -104.251811128005     Delta-E=       -0.000000399578 Rises=F Damp=F
 DIIS: error= 1.23D-05 at cycle  17 NSaved=  17.
 NSaved=17 IEnMin=17 EnMin= -104.251811128005     IErMin=17 ErrMin= 1.23D-05
 ErrMax= 1.23D-05  0.00D+00 EMaxC= 1.00D-01 BMatC= 1.61D-08 BMatP= 2.52D-07
 IDIUse=1 WtCom= 1.00D+00 WtEn= 0.00D+00
 Coeff-Com:  0.183D-04 0.251D-04-0.479D-05-0.362D-03 0.856D-03 0.913D-03
 Coeff-Com:  0.982D-03 0.364D-02 0.974D-02 0.829D-02-0.393D-01-0.292D-01
 Coeff-Com: -0.130D-01 0.794D-01 0.131D+00 0.289D+00 0.558D+00
 Coeff:      0.183D-04 0.251D-04-0.479D-05-0.362D-03 0.856D-03 0.913D-03
 Coeff:      0.982D-03 0.364D-02 0.974D-02 0.829D-02-0.393D-01-0.292D-01
 Coeff:     -0.130D-01 0.794D-01 0.131D+00 0.289D+00 0.558D+00
 Gap=     0.075 Goal=   None    Shift=    0.000
 RMSDP=1.70D-05 MaxDP=2.05D-03 DE=-4.00D-07 OVMax= 1.92D-04

 Cycle  18  Pass 1  IDiag  1:
 E= -104.251811154540     Delta-E=       -0.000000026535 Rises=F Damp=F
 DIIS: error= 3.60D-06 at cycle  18 NSaved=  18.
 NSaved=18 IEnMin=18 EnMin= -104.251811154540     IErMin=18 ErrMin= 3.60D-06
 ErrMax= 3.60D-06  0.00D+00 EMaxC= 1.00D-01 BMatC= 1.29D-09 BMatP= 1.61D-08
 IDIUse=1 WtCom= 1.00D+00 WtEn= 0.00D+00
 Coeff-Com:  0.504D-05 0.216D-04-0.866D-05-0.130D-03 0.639D-03-0.662D-03
 Coeff-Com: -0.292D-03 0.142D-02 0.410D-02 0.608D-02-0.712D-02-0.107D-01
 Coeff-Com: -0.141D-01 0.527D-02 0.267D-01 0.968D-01 0.304D+00 0.588D+00
 Coeff:      0.504D-05 0.216D-04-0.866D-05-0.130D-03 0.639D-03-0.662D-03
 Coeff:     -0.292D-03 0.142D-02 0.410D-02 0.608D-02-0.712D-02-0.107D-01
 Coeff:     -0.141D-01 0.527D-02 0.267D-01 0.968D-01 0.304D+00 0.588D+00
 Gap=     0.075 Goal=   None    Shift=    0.000
 RMSDP=6.27D-06 MaxDP=6.87D-04 DE=-2.65D-08 OVMax= 5.71D-05

 Cycle  19  Pass 1  IDiag  1:
 E= -104.251811156383     Delta-E=       -0.000000001843 Rises=F Damp=F
 DIIS: error= 1.92D-06 at cycle  19 NSaved=  19.
 NSaved=19 IEnMin=19 EnMin= -104.251811156383     IErMin=19 ErrMin= 1.92D-06
 ErrMax= 1.92D-06  0.00D+00 EMaxC= 1.00D-01 BMatC= 2.33D-10 BMatP= 1.29D-09
 IDIUse=1 WtCom= 1.00D+00 WtEn= 0.00D+00
 Coeff-Com: -0.152D-04 0.233D-04 0.128D-04-0.110D-04 0.123D-03-0.424D-03
 Coeff-Com: -0.505D-03 0.233D-03 0.943D-03 0.211D-02 0.140D-02-0.144D-02
 Coeff-Com: -0.360D-02-0.718D-02-0.704D-02-0.241D-02 0.371D-01 0.294D+00
 Coeff-Com:  0.687D+00
 Coeff:     -0.152D-04 0.233D-04 0.128D-04-0.110D-04 0.123D-03-0.424D-03
 Coeff:     -0.505D-03 0.233D-03 0.943D-03 0.211D-02 0.140D-02-0.144D-02
 Coeff:     -0.360D-02-0.718D-02-0.704D-02-0.241D-02 0.371D-01 0.294D+00
 Coeff:      0.687D+00
 Gap=     0.075 Goal=   None    Shift=    0.000
 RMSDP=2.38D-06 MaxDP=2.13D-04 DE=-1.84D-09 OVMax= 2.73D-05

 Cycle  20  Pass 1  IDiag  1:
 E= -104.251811156673     Delta-E=       -0.000000000290 Rises=F Damp=F
 DIIS: error= 8.54D-07 at cycle  20 NSaved=  20.
 NSaved=20 IEnMin=20 EnMin= -104.251811156673     IErMin=20 ErrMin= 8.54D-07
 ErrMax= 8.54D-07  0.00D+00 EMaxC= 1.00D-01 BMatC= 5.23D-11 BMatP= 2.33D-10
 IDIUse=1 WtCom= 1.00D+00 WtEn= 0.00D+00
 Coeff-Com: -0.113D-04 0.145D-04 0.252D-05 0.883D-06 0.292D-04-0.135D-03
 Coeff-Com: -0.323D-03 0.137D-04 0.304D-03 0.813D-03 0.964D-03-0.146D-03
 Coeff-Com: -0.866D-03-0.368D-02-0.540D-02-0.880D-02-0.601D-02 0.119D+00
 Coeff-Com:  0.422D+00 0.482D+00
 Coeff:     -0.113D-04 0.145D-04 0.252D-05 0.883D-06 0.292D-04-0.135D-03
 Coeff:     -0.323D-03 0.137D-04 0.304D-03 0.813D-03 0.964D-03-0.146D-03
 Coeff:     -0.866D-03-0.368D-02-0.540D-02-0.880D-02-0.601D-02 0.119D+00
 Coeff:      0.422D+00 0.482D+00
 Gap=     0.075 Goal=   None    Shift=    0.000
 RMSDP=4.76D-07 MaxDP=4.84D-05 DE=-2.90D-10 OVMax= 1.12D-05

 Cycle  21  Pass 1  IDiag  1:
 E= -104.251811156753     Delta-E=       -0.000000000080 Rises=F Damp=F
 DIIS: error= 2.93D-07 at cycle  21 NSaved=  20.
 NSaved=20 IEnMin=20 EnMin= -104.251811156753     IErMin=20 ErrMin= 2.93D-07
 ErrMax= 2.93D-07  0.00D+00 EMaxC= 1.00D-01 BMatC= 9.02D-12 BMatP= 5.23D-11
 IDIUse=1 WtCom= 1.00D+00 WtEn= 0.00D+00
 Coeff-Com: -0.207D-05 0.196D-05 0.497D-05 0.505D-05 0.423D-05-0.115D-03
 Coeff-Com: -0.267D-04 0.511D-04 0.160D-03 0.214D-03 0.770D-04-0.136D-05
 Coeff-Com: -0.993D-03-0.189D-02-0.504D-02-0.120D-01 0.976D-02 0.119D+00
 Coeff-Com:  0.302D+00 0.589D+00
 Coeff:     -0.207D-05 0.196D-05 0.497D-05 0.505D-05 0.423D-05-0.115D-03
 Coeff:     -0.267D-04 0.511D-04 0.160D-03 0.214D-03 0.770D-04-0.136D-05
 Coeff:     -0.993D-03-0.189D-02-0.504D-02-0.120D-01 0.976D-02 0.119D+00
 Coeff:      0.302D+00 0.589D+00
 Gap=     0.075 Goal=   None    Shift=    0.000
 RMSDP=2.29D-07 MaxDP=1.93D-05 DE=-7.96D-11 OVMax= 4.10D-06

 Cycle  22  Pass 1  IDiag  1:
 E= -104.251811156767     Delta-E=       -0.000000000015 Rises=F Damp=F
 DIIS: error= 6.48D-08 at cycle  22 NSaved=  20.
 NSaved=20 IEnMin=20 EnMin= -104.251811156767     IErMin=20 ErrMin= 6.48D-08
 ErrMax= 6.48D-08  0.00D+00 EMaxC= 1.00D-01 BMatC= 5.58D-13 BMatP= 9.02D-12
 IDIUse=1 WtCom= 1.00D+00 WtEn= 0.00D+00
 Coeff-Com: -0.190D-06 0.110D-05 0.212D-05 0.211D-04 0.770D-07-0.122D-04
 Coeff-Com: -0.269D-04-0.423D-04-0.686D-04 0.447D-04 0.143D-03 0.488D-04
 Coeff-Com:  0.888D-04-0.895D-03-0.431D-02-0.182D-01-0.212D-01 0.544D-01
 Coeff-Com:  0.259D+00 0.731D+00
 Coeff:     -0.190D-06 0.110D-05 0.212D-05 0.211D-04 0.770D-07-0.122D-04
 Coeff:     -0.269D-04-0.423D-04-0.686D-04 0.447D-04 0.143D-03 0.488D-04
 Coeff:      0.888D-04-0.895D-03-0.431D-02-0.182D-01-0.212D-01 0.544D-01
 Coeff:      0.259D+00 0.731D+00
 Gap=     0.075 Goal=   None    Shift=    0.000
 RMSDP=8.25D-08 MaxDP=6.26D-06 DE=-1.47D-11 OVMax= 1.83D-06

 Cycle  23  Pass 1  IDiag  1:
 E= -104.251811156768     Delta-E=       -0.000000000001 Rises=F Damp=F
 DIIS: error= 1.97D-08 at cycle  23 NSaved=  20.
 NSaved=20 IEnMin=20 EnMin= -104.251811156768     IErMin=20 ErrMin= 1.97D-08
 ErrMax= 1.97D-08  0.00D+00 EMaxC= 1.00D-01 BMatC= 4.46D-14 BMatP= 5.58D-13
 IDIUse=1 WtCom= 1.00D+00 WtEn= 0.00D+00
 Coeff-Com: -0.155D-06 0.226D-06 0.447D-05 0.940D-05-0.248D-05-0.140D-04
 Coeff-Com: -0.277D-04-0.470D-04 0.201D-04 0.725D-04 0.931D-04 0.188D-03
 Coeff-Com:  0.161D-04-0.669D-03-0.793D-02-0.158D-01 0.475D-02 0.764D-01
 Coeff-Com:  0.295D+00 0.648D+00
 Coeff:     -0.155D-06 0.226D-06 0.447D-05 0.940D-05-0.248D-05-0.140D-04
 Coeff:     -0.277D-04-0.470D-04 0.201D-04 0.725D-04 0.931D-04 0.188D-03
 Coeff:      0.161D-04-0.669D-03-0.793D-02-0.158D-01 0.475D-02 0.764D-01
 Coeff:      0.295D+00 0.648D+00
 Gap=     0.075 Goal=   None    Shift=    0.000
 RMSDP=2.18D-08 MaxDP=1.81D-06 DE=-1.18D-12 OVMax= 3.92D-07

 Cycle  24  Pass 1  IDiag  1:
 E= -104.251811156769     Delta-E=       -0.000000000000 Rises=F Damp=F
 DIIS: error= 1.39D-08 at cycle  24 NSaved=  20.
 NSaved=20 IEnMin=20 EnMin= -104.251811156769     IErMin=20 ErrMin= 1.39D-08
 ErrMax= 1.39D-08  0.00D+00 EMaxC= 1.00D-01 BMatC= 1.35D-14 BMatP= 4.46D-14
 IDIUse=1 WtCom= 1.00D+00 WtEn= 0.00D+00
 Coeff-Com: -0.621D-07-0.765D-06 0.567D-05-0.241D-05-0.105D-04-0.165D-04
 Coeff-Com: -0.424D-05 0.180D-04 0.331D-04 0.260D-04 0.762D-04 0.861D-04
 Coeff-Com:  0.111D-03-0.281D-02-0.747D-02-0.343D-02 0.185D-01 0.965D-01
 Coeff-Com:  0.437D+00 0.461D+00
 Coeff:     -0.621D-07-0.765D-06 0.567D-05-0.241D-05-0.105D-04-0.165D-04
 Coeff:     -0.424D-05 0.180D-04 0.331D-04 0.260D-04 0.762D-04 0.861D-04
 Coeff:      0.111D-03-0.281D-02-0.747D-02-0.343D-02 0.185D-01 0.965D-01
 Coeff:      0.437D+00 0.461D+00
 Gap=     0.075 Goal=   None    Shift=    0.000
 RMSDP=9.06D-09 MaxDP=8.61D-07 DE=-2.13D-13 OVMax= 1.37D-07

 SCF Done:  E(ROHF) =  -104.251811157     A.U. after   24 cycles
            NFock= 24  Conv=0.91D-08     -V/T= 2.8508
 <Sx>= 0.0000 <Sy>= 0.0000 <Sz>= 3.0000 <S**2>=12.0000 S= 3.0000
 <L.S>=  0.00000000000    
 KE= 5.632890406094D+01 PE=-2.472321413063D+02 EE= 8.198221540404D+01
 Annihilation of the first spin contaminant:
 S**2 before annihilation    12.0000,   after    12.0000
 Leave Link  502 at Sun Feb 25 17:18:02 2018, MaxMem=  8589934592 cpu:             243.5 elap:              17.3
 (Enter /home1/apps/gaussian/16rA.03/g16/l601.exe)
 Copying SCF densities to generalized density rwf, IOpCl= 0 IROHF=1.

 **********************************************************************

            Population analysis using the SCF density.

 **********************************************************************

 Orbital symmetries:
       Occupied  (SG) (PI) (PI) (SG) (SG) (DLTA) (DLTA) (SG) (PI)
                 (PI) (SG)
       Virtual   (PI) (PI) (SG) (SG) (PI) (PI) (DLTA) (DLTA) (SG)
                 (PI) (PI) (SG) (SG) (SG) (PI) (PI) (SG) (DLTA)
                 (DLTA) (PI) (PI) (PI) (PI) (SG) (SG) (SG) (SG)
                 (DLTA) (DLTA) (PHI) (PHI) (PI) (PI) (PI) (PI)
                 (SG) (SG) (DLTA) (DLTA) (PI) (PI) (SG) (DLTA)
                 (DLTA) (PI) (PI) (SG) (PI) (PI) (SG) (SG) (PHI)
                 (PHI) (DLTA) (DLTA) (PI) (PI) (SG) (PI) (PI) (SG)
                 (?A) (?A) (PHI) (PHI) (SG) (DLTA) (DLTA) (PI)
                 (PI) (DLTA) (DLTA) (SG) (PI) (PI) (SG) (DLTA)
                 (DLTA) (PI) (PI) (PI) (PI) (SG) (SG) (SG) (PHI)
                 (PHI) (DLTA) (DLTA) (PI) (PI) (SG) (DLTA) (DLTA)
                 (PI) (PI) (PI) (PI) (SG) (SG) (?A) (?A) (PHI)
                 (PHI) (DLTA) (DLTA) (PI) (PI) (SG) (SG) (SG) (DLTA)
                 (DLTA) (PI) (PI) (SG) (PI) (PI) (PHI) (PHI) (DLTA)
                 (DLTA) (PI) (PI) (SG) (SG) (?A) (?A) (PHI) (PHI)
                 (DLTA) (DLTA) (PI) (PI) (SG) (SG) (DLTA) (DLTA)
                 (PI) (PI) (SG) (PI) (PI) (SG) (SG) (DLTA) (DLTA)
                 (PI) (PI) (SG) (PI) (PI) (SG) (SG) (SG) (PI) (PI)
                 (SG) (DLTA) (DLTA) (PI) (PI) (SG) (SG) (PI) (PI)
                 (SG) (SG) (DLTA) (DLTA) (PI) (PI) (SG) (PI) (PI)
                 (SG) (SG) (PI) (PI) (SG) (SG) (PI) (PI) (SG) (SG)
                 (PI) (PI) (SG) (SG) (PI) (PI) (SG) (SG) (SG) (PI)
                 (PI) (SG) (SG) (SG) (SG) (SG)
 The electronic state is 7-SG.
 Alpha  occ. eigenvalues --   -3.79904  -2.40320  -2.40320  -2.39632  -0.40176
 Alpha  occ. eigenvalues --   -0.09610  -0.09610  -0.09116  -0.09046  -0.09046
 Alpha  occ. eigenvalues --   -0.05624
 Alpha virt. eigenvalues --    0.01843   0.01843   0.02417   0.03227   0.06628
 Alpha virt. eigenvalues --    0.06628   0.08577   0.08577   0.08636   0.09089
 Alpha virt. eigenvalues --    0.09089   0.09895   0.14677   0.20286   0.23754
 Alpha virt. eigenvalues --    0.23754   0.25983   0.30787   0.30787   0.30790
 Alpha virt. eigenvalues --    0.30790   0.35727   0.35727   0.36153   0.44087
 Alpha virt. eigenvalues --    0.51265   0.68124   0.75995   0.75995   0.77565
 Alpha virt. eigenvalues --    0.77565   0.80033   0.80033   0.87954   0.87954
 Alpha virt. eigenvalues --    0.88972   0.97053   0.99734   0.99734   0.99763
 Alpha virt. eigenvalues --    0.99763   1.05216   1.06443   1.06443   1.10494
 Alpha virt. eigenvalues --    1.10494   1.37328   1.54998   1.54998   1.80006
 Alpha virt. eigenvalues --    1.85217   2.37614   2.37614   2.40712   2.40712
 Alpha virt. eigenvalues --    2.43376   2.43376   2.47496   2.59940   2.59940
 Alpha virt. eigenvalues --    2.67204   2.78522   2.78522   2.80018   2.80018
 Alpha virt. eigenvalues --    2.85048   2.87659   2.87659   2.90690   2.90690
 Alpha virt. eigenvalues --    2.96347   2.96347   3.02476   3.21224   3.21224
 Alpha virt. eigenvalues --    3.52921   4.00481   4.00481   4.31990   4.31990
 Alpha virt. eigenvalues --    4.46008   4.46008   4.73846   5.04571   5.42672
 Alpha virt. eigenvalues --    6.39978   6.39978   6.42394   6.42394   6.51162
 Alpha virt. eigenvalues --    6.51162   6.88818   7.03672   7.03672   7.10674
 Alpha virt. eigenvalues --    7.10674   7.25036   7.25036   7.25814   7.72850
 Alpha virt. eigenvalues --    8.26144   8.26144   8.26959   8.26959   8.31364
 Alpha virt. eigenvalues --    8.31364   8.50126   8.50126   8.67819  10.38066
 Alpha virt. eigenvalues --   12.15243  14.52733  14.52733  14.59149  14.59149
 Alpha virt. eigenvalues --   14.74846  16.84027  16.84027  16.85457  16.85457
 Alpha virt. eigenvalues --   16.86994  16.86994  16.91417  16.91417  17.02471
 Alpha virt. eigenvalues --   17.22790  21.59851  21.59851  21.60265  21.60265
 Alpha virt. eigenvalues --   21.62414  21.62414  21.71539  21.71539  21.81377
 Alpha virt. eigenvalues --   24.69726  27.16493  27.16493  27.22214  27.22214
 Alpha virt. eigenvalues --   27.36737  33.76143  33.76143  33.95280  47.41788
 Alpha virt. eigenvalues --   51.22306  51.22306  51.27239  51.27239  51.39497
 Alpha virt. eigenvalues --   63.01847  63.01847  63.21043  64.01517  87.01917
 Alpha virt. eigenvalues --  117.24513 117.24513 117.45624 123.81699 123.81699
 Alpha virt. eigenvalues --  123.85410 123.85410 123.94956 157.78218 224.42196
 Alpha virt. eigenvalues --  224.42196 224.62635 298.61397 414.17090 414.17090
 Alpha virt. eigenvalues --  414.19384 414.19384 414.25264 446.75371 446.75371
 Alpha virt. eigenvalues --  446.94174 592.25998 934.23608 934.23608 934.40486
 Alpha virt. eigenvalues -- 1230.358352084.776472084.776472084.925422681.15091
 Alpha virt. eigenvalues -- 5096.063175096.063175096.191206150.74906**********
 Alpha virt. eigenvalues -- **************************************************
 Alpha virt. eigenvalues -- **************************************************
 Alpha virt. eigenvalues -- **********
     Molecular Orbital Coefficients:
                           1         2         3         4         5
                           O         O         O         O         O
     Eigenvalues --    -3.79904  -2.40320  -2.40320  -2.39632  -0.40176
   1 1   Mn 1S         -0.00000   0.00000   0.00000   0.00000   0.00000
   2        2S          0.00000   0.00000   0.00000  -0.00000  -0.00000
   3        3S         -0.00000   0.00000   0.00000   0.00000   0.00000
   4        4S          0.00000   0.00000   0.00000  -0.00000  -0.00000
   5        5S         -0.00000   0.00000   0.00000   0.00000   0.00000
   6        6S          0.00001   0.00000   0.00000  -0.00000  -0.00000
   7        7S         -0.00003   0.00000   0.00000   0.00000   0.00001
   8        8S          0.00010   0.00000   0.00000  -0.00000  -0.00003
   9        9S         -0.00029   0.00000   0.00000   0.00000   0.00008
  10       10S          0.00077   0.00000   0.00000  -0.00001  -0.00021
  11       11S         -0.00168   0.00000   0.00000   0.00002   0.00051
  12       12S         -0.00193   0.00000   0.00000  -0.00004  -0.00062
  13       13S          0.11879   0.00000   0.00000  -0.00037  -0.01467
  14       14S         -0.64755   0.00000   0.00000   0.00225   0.09448
  15       15S          0.00202   0.00000   0.00000  -0.00214  -0.00592
  16       16S          0.77828   0.00000   0.00000   0.00023  -0.10444
  17       17S          0.39131   0.00000   0.00000   0.00116  -0.11494
  18       18S          0.01517   0.00000   0.00000   0.00356   0.20434
  19       19S         -0.00752   0.00000   0.00000   0.01032   0.10748
  20       20S          0.00436   0.00000   0.00000  -0.00441   0.01720
  21       21S          0.27003   0.00000   0.00000   0.00063  -0.03976
  22       22S         -0.04442   0.00000   0.00000  -0.00536  -0.04999
  23       23S         -0.00059   0.00000   0.00000  -0.00084  -0.01454
  24       24PX         0.00000   0.00000  -0.00000   0.00000   0.00000
  25       24PY         0.00000  -0.00000   0.00000   0.00000   0.00000
  26       24PZ         0.00000   0.00000   0.00000  -0.00000  -0.00000
  27       25PX         0.00000   0.00000   0.00000   0.00000   0.00000
  28       25PY         0.00000   0.00000   0.00000   0.00000   0.00000
  29       25PZ        -0.00000   0.00000   0.00000   0.00000   0.00000
  30       26PX         0.00000   0.00000  -0.00001   0.00000   0.00000
  31       26PY         0.00000  -0.00001   0.00000   0.00000   0.00000
  32       26PZ         0.00000   0.00000   0.00000  -0.00001  -0.00000
  33       27PX         0.00000   0.00000   0.00003   0.00000   0.00000
  34       27PY         0.00000   0.00003   0.00000   0.00000   0.00000
  35       27PZ        -0.00000   0.00000   0.00000   0.00003   0.00000
  36       28PX         0.00000   0.00000  -0.00011   0.00000   0.00000
  37       28PY         0.00000  -0.00011   0.00000   0.00000   0.00000
  38       28PZ         0.00000   0.00000   0.00000  -0.00010  -0.00001
  39       29PX         0.00000   0.00000   0.00037   0.00000   0.00000
  40       29PY         0.00000   0.00037   0.00000   0.00000   0.00000
  41       29PZ        -0.00000   0.00000   0.00000   0.00036   0.00005
  42       30PX         0.00000   0.00000  -0.00130   0.00000   0.00000
  43       30PY         0.00000  -0.00130   0.00000   0.00000   0.00000
  44       30PZ         0.00001   0.00000   0.00000  -0.00129  -0.00017
  45       31PX         0.00000   0.00000   0.00633   0.00000   0.00000
  46       31PY         0.00000   0.00633   0.00000   0.00000   0.00000
  47       31PZ        -0.00001   0.00000   0.00000   0.00629   0.00084
  48       32PX         0.00000   0.00000  -0.03773   0.00000   0.00000
  49       32PY         0.00000  -0.03773   0.00000   0.00000   0.00000
  50       32PZ         0.00004   0.00000   0.00000  -0.03766  -0.00534
  51       33PX         0.00000   0.00000   0.43161   0.00000   0.00000
  52       33PY         0.00000   0.43161   0.00000   0.00000   0.00000
  53       33PZ         0.00439   0.00000   0.00000   0.43541   0.05146
  54       34PX         0.00000   0.00000   0.31077   0.00000   0.00000
  55       34PY         0.00000   0.31077   0.00000   0.00000   0.00000
  56       34PZ         0.00057   0.00000   0.00000   0.31132   0.04040
  57       35PX         0.00000   0.00000   0.34552   0.00000   0.00000
  58       35PY         0.00000   0.34552   0.00000   0.00000   0.00000
  59       35PZ        -0.00068   0.00000   0.00000   0.34285   0.04245
  60       36PX         0.00000   0.00000   0.27637   0.00000   0.00000
  61       36PY         0.00000   0.27637   0.00000   0.00000   0.00000
  62       36PZ         0.00105   0.00000   0.00000   0.27214   0.04446
  63       37PX         0.00000   0.00000   0.04168   0.00000   0.00000
  64       37PY         0.00000   0.04168   0.00000   0.00000   0.00000
  65       37PZ         0.00133   0.00000   0.00000   0.04033  -0.07141
  66       38PX         0.00000   0.00000  -0.00422   0.00000   0.00000
  67       38PY         0.00000  -0.00422   0.00000   0.00000   0.00000
  68       38PZ         0.00013   0.00000   0.00000  -0.00900  -0.09790
  69       39PX         0.00000   0.00000   0.00197   0.00000   0.00000
  70       39PY         0.00000   0.00197   0.00000   0.00000   0.00000
  71       39PZ        -0.00010   0.00000   0.00000   0.00368  -0.02514
  72       40PX         0.00000   0.00000  -0.39217   0.00000   0.00000
  73       40PY         0.00000  -0.39217   0.00000   0.00000   0.00000
  74       40PZ        -0.00418   0.00000   0.00000  -0.39557  -0.04445
  75       41PX         0.00000   0.00000   0.10558   0.00000   0.00000
  76       41PY         0.00000   0.10558   0.00000   0.00000   0.00000
  77       41PZ         0.00235   0.00000   0.00000   0.11004   0.02253
  78       42PX         0.00000   0.00000  -0.00060   0.00000   0.00000
  79       42PY         0.00000  -0.00060   0.00000   0.00000   0.00000
  80       42PZ        -0.00024   0.00000   0.00000   0.00038   0.00516
  81       43D 0       -0.00000   0.00000   0.00000   0.00000   0.00002
  82       43D+1        0.00000   0.00000   0.00000   0.00000   0.00000
  83       43D-1        0.00000   0.00000   0.00000   0.00000   0.00000
  84       43D+2       -0.00000   0.00000   0.00000   0.00000   0.00000
  85       43D-2        0.00000   0.00000   0.00000   0.00000   0.00000
  86       44D 0        0.00000   0.00000   0.00000  -0.00001  -0.00014
  87       44D+1        0.00000   0.00000  -0.00000   0.00000   0.00000
  88       44D-1        0.00000  -0.00000   0.00000   0.00000   0.00000
  89       44D+2        0.00000   0.00000   0.00000  -0.00000  -0.00000
  90       44D-2        0.00000   0.00000   0.00000   0.00000   0.00000
  91       45D 0       -0.00015   0.00000   0.00000   0.00036   0.00622
  92       45D+1        0.00000   0.00000   0.00007   0.00000   0.00000
  93       45D-1        0.00000   0.00007   0.00000   0.00000   0.00000
  94       45D+2       -0.00000   0.00000   0.00000   0.00000   0.00000
  95       45D-2        0.00000   0.00000   0.00000   0.00000   0.00000
  96       46D 0       -0.00133   0.00000   0.00000   0.00355   0.06371
  97       46D+1        0.00000   0.00000   0.00106   0.00000   0.00000
  98       46D-1        0.00000   0.00106   0.00000   0.00000   0.00000
  99       46D+2        0.00000   0.00000   0.00000  -0.00000   0.00000
 100       46D-2        0.00000   0.00000   0.00000   0.00000   0.00000
 101       47D 0       -0.00795   0.00000   0.00000   0.00163  -0.14425
 102       47D+1        0.00000   0.00000  -0.00594   0.00000   0.00000
 103       47D-1        0.00000  -0.00594   0.00000   0.00000   0.00000
 104       47D+2       -0.00000   0.00000   0.00000  -0.00000  -0.00000
 105       47D-2        0.00000   0.00000   0.00000   0.00000   0.00000
 106       48D 0       -0.00226   0.00000   0.00000   0.00290   0.04969
 107       48D+1        0.00000   0.00000   0.00089   0.00000   0.00000
 108       48D-1        0.00000   0.00089   0.00000   0.00000   0.00000
 109       48D+2       -0.00000   0.00000   0.00000  -0.00000   0.00000
 110       48D-2        0.00000   0.00000   0.00000   0.00000   0.00000
 111       49D 0       -0.00096   0.00000   0.00000   0.00203   0.05022
 112       49D+1        0.00000   0.00000   0.00004   0.00000   0.00000
 113       49D-1        0.00000   0.00004   0.00000   0.00000   0.00000
 114       49D+2       -0.00000   0.00000   0.00000   0.00000   0.00000
 115       49D-2        0.00000   0.00000   0.00000   0.00000   0.00000
 116       50D 0        0.00015   0.00000   0.00000   0.00248   0.02115
 117       50D+1        0.00000   0.00000   0.00006   0.00000   0.00000
 118       50D-1        0.00000   0.00006   0.00000   0.00000   0.00000
 119       50D+2       -0.00000   0.00000   0.00000  -0.00000  -0.00000
 120       50D-2        0.00000   0.00000   0.00000   0.00000   0.00000
 121       51D 0        0.00048   0.00000   0.00000  -0.00175  -0.03553
 122       51D+1        0.00000   0.00000  -0.00071   0.00000   0.00000
 123       51D-1        0.00000  -0.00071   0.00000   0.00000   0.00000
 124       51D+2       -0.00000   0.00000   0.00000   0.00000  -0.00000
 125       51D-2        0.00000   0.00000   0.00000   0.00000   0.00000
 126       52D 0        0.00650   0.00000   0.00000   0.00121   0.18931
 127       52D+1        0.00000   0.00000   0.00652   0.00000   0.00000
 128       52D-1        0.00000   0.00652   0.00000   0.00000   0.00000
 129       52D+2        0.00000   0.00000   0.00000   0.00000   0.00000
 130       52D-2        0.00000   0.00000   0.00000   0.00000   0.00000
 131       53D 0        0.00010   0.00000   0.00000  -0.00086  -0.00020
 132       53D+1        0.00000   0.00000   0.00002   0.00000   0.00000
 133       53D-1        0.00000   0.00002   0.00000   0.00000   0.00000
 134       53D+2        0.00000   0.00000   0.00000   0.00000   0.00000
 135       53D-2        0.00000   0.00000   0.00000   0.00000   0.00000
 136       54F 0        0.00000   0.00000   0.00000  -0.00010  -0.00039
 137       54F+1        0.00000   0.00000  -0.00009   0.00000   0.00000
 138       54F-1        0.00000  -0.00009   0.00000   0.00000   0.00000
 139       54F+2        0.00000   0.00000   0.00000  -0.00000   0.00000
 140       54F-2        0.00000   0.00000   0.00000   0.00000   0.00000
 141       54F+3        0.00000   0.00000  -0.00000   0.00000   0.00000
 142       54F-3        0.00000  -0.00000   0.00000   0.00000   0.00000
 143       55F 0        0.00008   0.00000   0.00000  -0.00068  -0.00068
 144       55F+1        0.00000   0.00000  -0.00052   0.00000   0.00000
 145       55F-1        0.00000  -0.00052   0.00000   0.00000   0.00000
 146       55F+2       -0.00000   0.00000   0.00000  -0.00000   0.00000
 147       55F-2        0.00000   0.00000   0.00000   0.00000   0.00000
 148       55F+3        0.00000   0.00000   0.00000   0.00000   0.00000
 149       55F-3        0.00000   0.00000   0.00000   0.00000   0.00000
 150       56F 0        0.00016   0.00000   0.00000  -0.00120  -0.00609
 151       56F+1        0.00000   0.00000  -0.00124   0.00000   0.00000
 152       56F-1        0.00000  -0.00124   0.00000   0.00000   0.00000
 153       56F+2       -0.00000   0.00000   0.00000  -0.00000   0.00000
 154       56F-2        0.00000   0.00000   0.00000   0.00000   0.00000
 155       56F+3        0.00000   0.00000  -0.00000   0.00000   0.00000
 156       56F-3        0.00000  -0.00000   0.00000   0.00000   0.00000
 157       57F 0        0.00010   0.00000   0.00000  -0.00014  -0.00588
 158       57F+1        0.00000   0.00000   0.00022   0.00000   0.00000
 159       57F-1        0.00000   0.00022   0.00000   0.00000   0.00000
 160       57F+2        0.00000   0.00000   0.00000  -0.00000   0.00000
 161       57F-2        0.00000   0.00000   0.00000   0.00000   0.00000
 162       57F+3        0.00000   0.00000  -0.00000   0.00000   0.00000
 163       57F-3        0.00000  -0.00000   0.00000   0.00000   0.00000
 164       58G 0       -0.00001   0.00000   0.00000  -0.00000  -0.00000
 165       58G+1        0.00000   0.00000  -0.00001   0.00000   0.00000
 166       58G-1        0.00000  -0.00001   0.00000   0.00000   0.00000
 167       58G+2       -0.00000   0.00000   0.00000   0.00000  -0.00000
 168       58G-2        0.00000   0.00000   0.00000   0.00000   0.00000
 169       58G+3        0.00000   0.00000   0.00000   0.00000   0.00000
 170       58G-3        0.00000   0.00000   0.00000   0.00000   0.00000
 171       58G+4        0.00000   0.00000   0.00000   0.00000  -0.00000
 172       58G-4        0.00000   0.00000   0.00000   0.00000   0.00000
 173       59G 0        0.00001   0.00000   0.00000   0.00004   0.00015
 174       59G+1        0.00000   0.00000   0.00007   0.00000   0.00000
 175       59G-1        0.00000   0.00007   0.00000   0.00000   0.00000
 176       59G+2       -0.00000   0.00000   0.00000  -0.00000  -0.00000
 177       59G-2        0.00000   0.00000   0.00000   0.00000   0.00000
 178       59G+3        0.00000   0.00000   0.00000   0.00000   0.00000
 179       59G-3        0.00000   0.00000   0.00000   0.00000   0.00000
 180       59G+4        0.00000   0.00000   0.00000  -0.00000   0.00000
 181       59G-4        0.00000   0.00000   0.00000   0.00000   0.00000
 182       60G 0        0.00002   0.00000   0.00000  -0.00010   0.00149
 183       60G+1        0.00000   0.00000  -0.00002   0.00000   0.00000
 184       60G-1        0.00000  -0.00002   0.00000   0.00000   0.00000
 185       60G+2        0.00000   0.00000   0.00000   0.00000  -0.00000
 186       60G-2        0.00000   0.00000   0.00000   0.00000   0.00000
 187       60G+3        0.00000   0.00000  -0.00000   0.00000   0.00000
 188       60G-3        0.00000  -0.00000   0.00000   0.00000   0.00000
 189       60G+4       -0.00000   0.00000   0.00000  -0.00000  -0.00000
 190       60G-4        0.00000   0.00000   0.00000   0.00000   0.00000
 191 2   H  1S          0.00001   0.00000   0.00000  -0.00009   0.00332
 192        2S          0.00012   0.00000   0.00000  -0.00076   0.03597
 193        3S          0.00044   0.00000   0.00000  -0.00312   0.13807
 194        4S          0.00122   0.00000   0.00000  -0.00497   0.32247
 195        5S          0.00035   0.00000   0.00000  -0.01236   0.30538
 196        6S         -0.00105   0.00000   0.00000   0.00415   0.03851
 197        7PX         0.00000   0.00000   0.00018   0.00000   0.00000
 198        7PY         0.00000   0.00018   0.00000   0.00000   0.00000
 199        7PZ         0.00020   0.00000   0.00000  -0.00090   0.00479
 200        8PX         0.00000   0.00000   0.00010   0.00000   0.00000
 201        8PY         0.00000   0.00010   0.00000   0.00000   0.00000
 202        8PZ         0.00083   0.00000   0.00000  -0.00190   0.02287
 203        9PX         0.00000   0.00000   0.00001   0.00000   0.00000
 204        9PY         0.00000   0.00001   0.00000   0.00000   0.00000
 205        9PZ         0.00012   0.00000   0.00000  -0.00402   0.02024
 206       10D 0        0.00011   0.00000   0.00000  -0.00056   0.00186
 207       10D+1        0.00000   0.00000   0.00019   0.00000   0.00000
 208       10D-1        0.00000   0.00019   0.00000   0.00000   0.00000
 209       10D+2       -0.00000   0.00000   0.00000   0.00000   0.00000
 210       10D-2        0.00000   0.00000   0.00000   0.00000   0.00000
 211       11D 0        0.00034   0.00000   0.00000  -0.00067   0.00049
 212       11D+1        0.00000   0.00000  -0.00025   0.00000   0.00000
 213       11D-1        0.00000  -0.00025   0.00000   0.00000   0.00000
 214       11D+2       -0.00000   0.00000   0.00000   0.00000  -0.00000
 215       11D-2        0.00000   0.00000   0.00000   0.00000   0.00000
                           6         7         8         9        10
                           O         O         O         O         O
     Eigenvalues --    -0.09610  -0.09610  -0.09116  -0.09046  -0.09046
   1 1   Mn 1S          0.00000  -0.00000  -0.00000   0.00000   0.00000
   2        2S          0.00000   0.00000   0.00000   0.00000   0.00000
   3        3S          0.00000  -0.00000  -0.00000   0.00000   0.00000
   4        4S          0.00000   0.00000   0.00000   0.00000   0.00000
   5        5S          0.00000  -0.00000  -0.00000   0.00000   0.00000
   6        6S          0.00000   0.00000   0.00000   0.00000   0.00000
   7        7S          0.00000  -0.00000  -0.00001   0.00000   0.00000
   8        8S          0.00000   0.00000   0.00003   0.00000   0.00000
   9        9S          0.00000  -0.00000  -0.00009   0.00000   0.00000
  10       10S          0.00000   0.00000   0.00023   0.00000   0.00000
  11       11S          0.00000  -0.00000  -0.00058   0.00000   0.00000
  12       12S          0.00000   0.00000   0.00085   0.00000   0.00000
  13       13S          0.00000  -0.00000   0.01377   0.00000   0.00000
  14       14S          0.00000   0.00000  -0.09094   0.00000   0.00000
  15       15S          0.00000   0.00000   0.01852   0.00000   0.00000
  16       16S          0.00000  -0.00000   0.08590   0.00000   0.00000
  17       17S          0.00000  -0.00000   0.08476   0.00000   0.00000
  18       18S          0.00000   0.00000  -0.25004   0.00000   0.00000
  19       19S          0.00000  -0.00000  -0.24901   0.00000   0.00000
  20       20S          0.00000  -0.00000  -0.08419   0.00000   0.00000
  21       21S          0.00000  -0.00000   0.02997   0.00000   0.00000
  22       22S          0.00000   0.00000   0.08512   0.00000   0.00000
  23       23S          0.00000  -0.00000   0.00356   0.00000   0.00000
  24       24PX         0.00000   0.00000   0.00000   0.00000   0.00000
  25       24PY         0.00000   0.00000   0.00000   0.00000   0.00000
  26       24PZ         0.00000  -0.00000  -0.00000   0.00000   0.00000
  27       25PX         0.00000   0.00000   0.00000   0.00000  -0.00000
  28       25PY         0.00000   0.00000   0.00000  -0.00000   0.00000
  29       25PZ         0.00000  -0.00000   0.00000   0.00000   0.00000
  30       26PX         0.00000   0.00000   0.00000   0.00000   0.00000
  31       26PY         0.00000   0.00000   0.00000   0.00000   0.00000
  32       26PZ         0.00000   0.00000  -0.00000   0.00000   0.00000
  33       27PX         0.00000   0.00000   0.00000   0.00000  -0.00000
  34       27PY         0.00000   0.00000   0.00000  -0.00000   0.00000
  35       27PZ         0.00000  -0.00000   0.00000   0.00000   0.00000
  36       28PX         0.00000   0.00000   0.00000   0.00000   0.00000
  37       28PY         0.00000   0.00000   0.00000   0.00000   0.00000
  38       28PZ         0.00000   0.00000  -0.00000   0.00000   0.00000
  39       29PX         0.00000   0.00000   0.00000   0.00000  -0.00000
  40       29PY         0.00000   0.00000   0.00000  -0.00000   0.00000
  41       29PZ         0.00000  -0.00000   0.00001   0.00000   0.00000
  42       30PX         0.00000   0.00000   0.00000   0.00000   0.00001
  43       30PY         0.00000   0.00000   0.00000   0.00001   0.00000
  44       30PZ         0.00000   0.00000  -0.00004   0.00000   0.00000
  45       31PX         0.00000   0.00000   0.00000   0.00000  -0.00006
  46       31PY         0.00000   0.00000   0.00000  -0.00006   0.00000
  47       31PZ         0.00000  -0.00000   0.00021   0.00000   0.00000
  48       32PX         0.00000   0.00000   0.00000   0.00000   0.00038
  49       32PY         0.00000   0.00000   0.00000   0.00038   0.00000
  50       32PZ         0.00000   0.00000  -0.00133   0.00000   0.00000
  51       33PX         0.00000   0.00000   0.00000   0.00000  -0.00298
  52       33PY         0.00000   0.00000   0.00000  -0.00298   0.00000
  53       33PZ         0.00000   0.00000   0.01181   0.00000   0.00000
  54       34PX         0.00000   0.00000   0.00000   0.00000  -0.00272
  55       34PY         0.00000   0.00000   0.00000  -0.00272   0.00000
  56       34PZ         0.00000  -0.00000   0.00972   0.00000   0.00000
  57       35PX         0.00000   0.00000   0.00000   0.00000  -0.00912
  58       35PY         0.00000   0.00000   0.00000  -0.00912   0.00000
  59       35PZ         0.00000   0.00000  -0.01126   0.00000   0.00000
  60       36PX         0.00000   0.00000   0.00000   0.00000  -0.00252
  61       36PY         0.00000   0.00000   0.00000  -0.00252   0.00000
  62       36PZ         0.00000  -0.00000   0.01655   0.00000   0.00000
  63       37PX         0.00000   0.00000   0.00000   0.00000   0.01071
  64       37PY         0.00000   0.00000   0.00000   0.01071   0.00000
  65       37PZ         0.00000   0.00000  -0.01979   0.00000   0.00000
  66       38PX         0.00000   0.00000   0.00000   0.00000   0.00947
  67       38PY         0.00000   0.00000   0.00000   0.00947   0.00000
  68       38PZ         0.00000   0.00000  -0.09914   0.00000   0.00000
  69       39PX         0.00000   0.00000   0.00000   0.00000   0.00014
  70       39PY         0.00000   0.00000   0.00000   0.00014   0.00000
  71       39PZ         0.00000   0.00000  -0.06306   0.00000   0.00000
  72       40PX         0.00000   0.00000   0.00000   0.00000   0.00253
  73       40PY         0.00000   0.00000   0.00000   0.00253   0.00000
  74       40PZ         0.00000  -0.00000  -0.01010   0.00000   0.00000
  75       41PX         0.00000   0.00000   0.00000   0.00000   0.00413
  76       41PY         0.00000   0.00000   0.00000   0.00413   0.00000
  77       41PZ         0.00000  -0.00000   0.02577   0.00000   0.00000
  78       42PX         0.00000   0.00000   0.00000   0.00000   0.00016
  79       42PY         0.00000   0.00000   0.00000   0.00016   0.00000
  80       42PZ         0.00000   0.00000   0.00183   0.00000   0.00000
  81       43D 0        0.00000  -0.00000   0.00015   0.00000   0.00000
  82       43D+1        0.00000   0.00000   0.00000   0.00000   0.00017
  83       43D-1        0.00000   0.00000   0.00000   0.00017   0.00000
  84       43D+2        0.00000   0.00017   0.00000   0.00000   0.00000
  85       43D-2        0.00017   0.00000   0.00000   0.00000   0.00000
  86       44D 0        0.00000   0.00000  -0.00112   0.00000   0.00000
  87       44D+1        0.00000   0.00000   0.00000   0.00000  -0.00132
  88       44D-1        0.00000   0.00000   0.00000  -0.00132   0.00000
  89       44D+2        0.00000  -0.00131  -0.00000   0.00000   0.00000
  90       44D-2       -0.00131   0.00000   0.00000   0.00000   0.00000
  91       45D 0        0.00000  -0.00000   0.04714   0.00000   0.00000
  92       45D+1        0.00000   0.00000   0.00000   0.00000   0.05499
  93       45D-1        0.00000   0.00000   0.00000   0.05499   0.00000
  94       45D+2        0.00000   0.05479   0.00000   0.00000   0.00000
  95       45D-2        0.05479   0.00000   0.00000   0.00000   0.00000
  96       46D 0        0.00000  -0.00000   0.47099   0.00000   0.00000
  97       46D+1        0.00000   0.00000   0.00000   0.00000   0.54521
  98       46D-1        0.00000   0.00000   0.00000   0.54521   0.00000
  99       46D+2        0.00000   0.54716   0.00000   0.00000   0.00000
 100       46D-2        0.54716   0.00000   0.00000   0.00000   0.00000
 101       47D 0        0.00000  -0.00000  -0.73488   0.00000   0.00000
 102       47D+1        0.00000   0.00000   0.00000   0.00000  -0.78741
 103       47D-1        0.00000   0.00000   0.00000  -0.78741   0.00000
 104       47D+2        0.00000  -0.84064  -0.00000   0.00000   0.00000
 105       47D-2       -0.84064   0.00000   0.00000   0.00000   0.00000
 106       48D 0        0.00000  -0.00000   0.32613   0.00000   0.00000
 107       48D+1        0.00000   0.00000   0.00000   0.00000   0.37790
 108       48D-1        0.00000   0.00000   0.00000   0.37790   0.00000
 109       48D+2        0.00000   0.38237   0.00000   0.00000   0.00000
 110       48D-2        0.38237   0.00000   0.00000   0.00000   0.00000
 111       49D 0        0.00000  -0.00000   0.16983   0.00000   0.00000
 112       49D+1        0.00000   0.00000   0.00000   0.00000   0.20010
 113       49D-1        0.00000   0.00000   0.00000   0.20010   0.00000
 114       49D+2        0.00000   0.20032   0.00000   0.00000   0.00000
 115       49D-2        0.20032   0.00000   0.00000   0.00000   0.00000
 116       50D 0        0.00000  -0.00000   0.01513   0.00000   0.00000
 117       50D+1        0.00000   0.00000   0.00000   0.00000   0.03452
 118       50D-1        0.00000   0.00000   0.00000   0.03452   0.00000
 119       50D+2        0.00000   0.02833  -0.00000   0.00000   0.00000
 120       50D-2        0.02833   0.00000   0.00000   0.00000   0.00000
 121       51D 0        0.00000   0.00000  -0.25577   0.00000   0.00000
 122       51D+1        0.00000   0.00000   0.00000   0.00000  -0.29350
 123       51D-1        0.00000   0.00000   0.00000  -0.29350   0.00000
 124       51D+2        0.00000  -0.29700  -0.00000   0.00000   0.00000
 125       51D-2       -0.29700   0.00000   0.00000   0.00000   0.00000
 126       52D 0        0.00000   0.00000   1.08142   0.00000   0.00000
 127       52D+1        0.00000   0.00000   0.00000   0.00000   1.19106
 128       52D-1        0.00000   0.00000   0.00000   1.19106   0.00000
 129       52D+2        0.00000   1.24336   0.00000   0.00000   0.00000
 130       52D-2        1.24336   0.00000   0.00000   0.00000   0.00000
 131       53D 0        0.00000  -0.00000  -0.00243   0.00000   0.00000
 132       53D+1        0.00000   0.00000   0.00000   0.00000  -0.00201
 133       53D-1        0.00000   0.00000   0.00000  -0.00201   0.00000
 134       53D+2        0.00000  -0.00211   0.00000   0.00000   0.00000
 135       53D-2       -0.00211   0.00000   0.00000   0.00000   0.00000
 136       54F 0        0.00000   0.00000   0.00002   0.00000   0.00000
 137       54F+1        0.00000   0.00000   0.00000   0.00000   0.00016
 138       54F-1        0.00000   0.00000   0.00000   0.00016   0.00000
 139       54F+2        0.00000   0.00024   0.00000   0.00000   0.00000
 140       54F-2        0.00024   0.00000   0.00000   0.00000   0.00000
 141       54F+3        0.00000   0.00000   0.00000   0.00000   0.00000
 142       54F-3        0.00000   0.00000   0.00000   0.00000   0.00000
 143       55F 0        0.00000  -0.00000   0.00022   0.00000   0.00000
 144       55F+1        0.00000   0.00000   0.00000   0.00000   0.00030
 145       55F-1        0.00000   0.00000   0.00000   0.00030   0.00000
 146       55F+2        0.00000   0.00033  -0.00000   0.00000   0.00000
 147       55F-2        0.00033   0.00000   0.00000   0.00000   0.00000
 148       55F+3        0.00000   0.00000   0.00000   0.00000   0.00000
 149       55F-3        0.00000   0.00000   0.00000   0.00000   0.00000
 150       56F 0        0.00000   0.00000   0.00128   0.00000   0.00000
 151       56F+1        0.00000   0.00000   0.00000   0.00000   0.00251
 152       56F-1        0.00000   0.00000   0.00000   0.00251   0.00000
 153       56F+2        0.00000   0.00155   0.00000   0.00000   0.00000
 154       56F-2        0.00155   0.00000   0.00000   0.00000   0.00000
 155       56F+3        0.00000   0.00000   0.00000   0.00000  -0.00000
 156       56F-3        0.00000   0.00000   0.00000  -0.00000   0.00000
 157       57F 0        0.00000   0.00000   0.00312   0.00000   0.00000
 158       57F+1        0.00000   0.00000   0.00000   0.00000   0.00235
 159       57F-1        0.00000   0.00000   0.00000   0.00235   0.00000
 160       57F+2        0.00000   0.00312  -0.00000   0.00000   0.00000
 161       57F-2        0.00312   0.00000   0.00000   0.00000   0.00000
 162       57F+3        0.00000   0.00000   0.00000   0.00000   0.00000
 163       57F-3        0.00000   0.00000   0.00000   0.00000   0.00000
 164       58G 0        0.00000  -0.00000  -0.00007   0.00000   0.00000
 165       58G+1        0.00000   0.00000   0.00000   0.00000  -0.00004
 166       58G-1        0.00000   0.00000   0.00000  -0.00004   0.00000
 167       58G+2        0.00000  -0.00002  -0.00000   0.00000   0.00000
 168       58G-2       -0.00002   0.00000   0.00000   0.00000   0.00000
 169       58G+3        0.00000   0.00000   0.00000   0.00000  -0.00000
 170       58G-3        0.00000   0.00000   0.00000  -0.00000   0.00000
 171       58G+4        0.00000  -0.00000  -0.00000   0.00000   0.00000
 172       58G-4       -0.00000   0.00000   0.00000   0.00000   0.00000
 173       59G 0        0.00000   0.00000  -0.00053   0.00000   0.00000
 174       59G+1        0.00000   0.00000   0.00000   0.00000  -0.00058
 175       59G-1        0.00000   0.00000   0.00000  -0.00058   0.00000
 176       59G+2        0.00000  -0.00026  -0.00000   0.00000   0.00000
 177       59G-2       -0.00026   0.00000   0.00000   0.00000   0.00000
 178       59G+3        0.00000   0.00000   0.00000   0.00000   0.00000
 179       59G-3        0.00000   0.00000   0.00000   0.00000   0.00000
 180       59G+4        0.00000   0.00000   0.00000   0.00000   0.00000
 181       59G-4        0.00000   0.00000   0.00000   0.00000   0.00000
 182       60G 0        0.00000  -0.00000  -0.00201   0.00000   0.00000
 183       60G+1        0.00000   0.00000   0.00000   0.00000  -0.00221
 184       60G-1        0.00000   0.00000   0.00000  -0.00221   0.00000
 185       60G+2        0.00000  -0.00199  -0.00000   0.00000   0.00000
 186       60G-2       -0.00199   0.00000   0.00000   0.00000   0.00000
 187       60G+3        0.00000   0.00000   0.00000   0.00000  -0.00000
 188       60G-3        0.00000   0.00000   0.00000  -0.00000   0.00000
 189       60G+4        0.00000  -0.00000  -0.00000   0.00000   0.00000
 190       60G-4       -0.00000   0.00000   0.00000   0.00000   0.00000
 191 2   H  1S          0.00000   0.00000   0.00027   0.00000   0.00000
 192        2S          0.00000   0.00000   0.00246   0.00000   0.00000
 193        3S          0.00000   0.00000   0.01114   0.00000   0.00000
 194        4S          0.00000  -0.00000   0.00932   0.00000   0.00000
 195        5S          0.00000   0.00000   0.01104   0.00000   0.00000
 196        6S          0.00000   0.00000   0.00096   0.00000   0.00000
 197        7PX         0.00000   0.00000   0.00000   0.00000  -0.00184
 198        7PY         0.00000   0.00000   0.00000  -0.00184   0.00000
 199        7PZ         0.00000  -0.00000   0.00297   0.00000   0.00000
 200        8PX         0.00000   0.00000   0.00000   0.00000  -0.00311
 201        8PY         0.00000   0.00000   0.00000  -0.00311   0.00000
 202        8PZ         0.00000   0.00000   0.00012   0.00000   0.00000
 203        9PX         0.00000   0.00000   0.00000   0.00000   0.00228
 204        9PY         0.00000   0.00000   0.00000   0.00228   0.00000
 205        9PZ         0.00000   0.00000   0.00670   0.00000   0.00000
 206       10D 0        0.00000  -0.00000   0.00098   0.00000   0.00000
 207       10D+1        0.00000   0.00000   0.00000   0.00000  -0.00118
 208       10D-1        0.00000   0.00000   0.00000  -0.00118   0.00000
 209       10D+2        0.00000   0.00026  -0.00000   0.00000   0.00000
 210       10D-2        0.00026   0.00000   0.00000   0.00000   0.00000
 211       11D 0        0.00000   0.00000   0.00031   0.00000   0.00000
 212       11D+1        0.00000   0.00000   0.00000   0.00000   0.00141
 213       11D-1        0.00000   0.00000   0.00000   0.00141   0.00000
 214       11D+2        0.00000  -0.00046   0.00000   0.00000   0.00000
 215       11D-2       -0.00046   0.00000   0.00000   0.00000   0.00000
                          11        12        13        14        15
                           O         V         V         V         V
     Eigenvalues --    -0.05624   0.01843   0.01843   0.02417   0.03227
   1 1   Mn 1S          0.00000   0.00000   0.00000   0.00000   0.00000
   2        2S         -0.00000   0.00000   0.00000  -0.00000  -0.00000
   3        3S          0.00000   0.00000   0.00000   0.00000   0.00000
   4        4S         -0.00000   0.00000   0.00000  -0.00000  -0.00000
   5        5S          0.00000   0.00000   0.00000   0.00000   0.00000
   6        6S         -0.00000   0.00000   0.00000  -0.00000  -0.00000
   7        7S          0.00001   0.00000   0.00000   0.00001   0.00001
   8        8S         -0.00002   0.00000   0.00000  -0.00002  -0.00003
   9        9S          0.00006   0.00000   0.00000   0.00006   0.00008
  10       10S         -0.00017   0.00000   0.00000  -0.00016  -0.00023
  11       11S          0.00042   0.00000   0.00000   0.00043   0.00060
  12       12S         -0.00033   0.00000   0.00000  -0.00149  -0.00192
  13       13S         -0.01603   0.00000   0.00000   0.00919   0.00909
  14       14S          0.10285   0.00000   0.00000  -0.05182  -0.04943
  15       15S          0.02420   0.00000   0.00000  -0.12372  -0.15511
  16       16S         -0.17954   0.00000   0.00000   0.27098   0.33293
  17       17S         -0.16762   0.00000   0.00000   0.14093   0.18552
  18       18S          0.24593   0.00000   0.00000  -0.18497  -0.41524
  19       19S          0.42665   0.00000   0.00000   1.08873   1.27895
  20       20S          0.12481   0.00000   0.00000  -0.51553  -3.72673
  21       21S         -0.06367   0.00000   0.00000   0.10818   0.12769
  22       22S          0.03426   0.00000   0.00000  -0.26621  -0.36519
  23       23S         -0.00356   0.00000   0.00000   3.19596  -0.52810
  24       24PX         0.00000  -0.00000   0.00000   0.00000   0.00000
  25       24PY         0.00000   0.00000  -0.00000   0.00000   0.00000
  26       24PZ         0.00000   0.00000   0.00000  -0.00000   0.00000
  27       25PX         0.00000   0.00000   0.00000   0.00000   0.00000
  28       25PY         0.00000   0.00000   0.00000   0.00000   0.00000
  29       25PZ        -0.00000   0.00000   0.00000   0.00000  -0.00000
  30       26PX         0.00000  -0.00000   0.00000   0.00000   0.00000
  31       26PY         0.00000   0.00000  -0.00000   0.00000   0.00000
[...]
 213       11D-1        0.00000   0.00000   0.00000
 214       11D+2       -0.00000   0.00000   0.00000   0.00000
 215       11D-2        0.00000   0.00000   0.00000   0.00000   0.00000
     Gross orbital populations:
                         Total     Alpha     Beta      Spin
   1 1   Mn 1S         -0.00000  -0.00000  -0.00000  -0.00000
   2        2S          0.00000   0.00000   0.00000   0.00000
   3        3S         -0.00000  -0.00000  -0.00000  -0.00000
   4        4S          0.00000   0.00000   0.00000   0.00000
   5        5S         -0.00000  -0.00000  -0.00000  -0.00000
   6        6S          0.00000   0.00000   0.00000   0.00000
   7        7S         -0.00000  -0.00000  -0.00000  -0.00000
   8        8S          0.00000   0.00000   0.00000   0.00000
   9        9S         -0.00000  -0.00000  -0.00000  -0.00000
  10       10S          0.00002   0.00001   0.00001   0.00000
  11       11S         -0.00009  -0.00005  -0.00004  -0.00000
  12       12S         -0.00022  -0.00010  -0.00011   0.00001
  13       13S          0.03923   0.01994   0.01928   0.00066
  14       14S         -0.49166  -0.25040  -0.24126  -0.00914
  15       15S          0.00324   0.00139   0.00185  -0.00047
  16       16S          1.47817   0.74609   0.73208   0.01401
  17       17S          0.71815   0.35085   0.36731  -0.01646
  18       18S          0.42207   0.31258   0.10950   0.20308
  19       19S          0.45216   0.39201   0.06014   0.33187
  20       20S          0.11471   0.10472   0.00999   0.09473
  21       21S          0.31435   0.16027   0.15409   0.00618
  22       22S         -0.08229  -0.04043  -0.04186   0.00142
  23       23S         -0.01367  -0.00803  -0.00564  -0.00240
  24       24PX        -0.00000  -0.00000  -0.00000  -0.00000
  25       24PY        -0.00000  -0.00000  -0.00000  -0.00000
  26       24PZ        -0.00000  -0.00000  -0.00000  -0.00000
  27       25PX         0.00000   0.00000   0.00000   0.00000
  28       25PY         0.00000   0.00000   0.00000   0.00000
  29       25PZ         0.00000   0.00000   0.00000   0.00000
  30       26PX        -0.00000  -0.00000  -0.00000  -0.00000
  31       26PY        -0.00000  -0.00000  -0.00000  -0.00000
  32       26PZ        -0.00000  -0.00000  -0.00000  -0.00000
  33       27PX         0.00000   0.00000   0.00000   0.00000
  34       27PY         0.00000   0.00000   0.00000   0.00000
  35       27PZ         0.00000   0.00000   0.00000   0.00000
  36       28PX        -0.00000  -0.00000  -0.00000  -0.00000
  37       28PY        -0.00000  -0.00000  -0.00000  -0.00000
  38       28PZ        -0.00000  -0.00000  -0.00000  -0.00000
  39       29PX         0.00002   0.00001   0.00001   0.00000
  40       29PY         0.00002   0.00001   0.00001   0.00000
  41       29PZ         0.00002   0.00001   0.00001   0.00000
  42       30PX        -0.00019  -0.00010  -0.00010  -0.00000
  43       30PY        -0.00019  -0.00010  -0.00010  -0.00000
  44       30PZ        -0.00020  -0.00010  -0.00010  -0.00000
  45       31PX         0.00219   0.00109   0.00109   0.00000
  46       31PY         0.00219   0.00109   0.00109   0.00000
  47       31PZ         0.00225   0.00114   0.00111   0.00004
  48       32PX        -0.02670  -0.01335  -0.01335  -0.00000
  49       32PY        -0.02670  -0.01335  -0.01335  -0.00000
  50       32PZ        -0.02759  -0.01402  -0.01357  -0.00045
  51       33PX         0.52922   0.26462   0.26460   0.00001
  52       33PY         0.52922   0.26462   0.26460   0.00001
  53       33PZ         0.54642   0.27566   0.27076   0.00490
  54       34PX         0.54417   0.27209   0.27208   0.00001
  55       34PY         0.54417   0.27209   0.27208   0.00001
  56       34PZ         0.55786   0.28191   0.27594   0.00597
  57       35PX         0.68274   0.34138   0.34135   0.00003
  58       35PY         0.68274   0.34138   0.34135   0.00003
  59       35PZ         0.68376   0.34344   0.34032   0.00312
  60       36PX         0.47794   0.23896   0.23897  -0.00001
  61       36PY         0.47794   0.23896   0.23897  -0.00001
  62       36PZ         0.45497   0.22397   0.23100  -0.00703
  63       37PX         0.04359   0.02187   0.02172   0.00015
  64       37PY         0.04359   0.02187   0.02172   0.00015
  65       37PZ         0.15224   0.10358   0.04865   0.05493
  66       38PX        -0.00184  -0.00084  -0.00100   0.00016
  67       38PY        -0.00184  -0.00084  -0.00100   0.00016
  68       38PZ         0.33503   0.28237   0.05266   0.22970
  69       39PX         0.00034   0.00017   0.00017   0.00000
  70       39PY         0.00034   0.00017   0.00017   0.00000
  71       39PZ         0.12172   0.11041   0.01131   0.09910
  72       40PX        -0.45965  -0.22983  -0.22982  -0.00001
  73       40PY        -0.45965  -0.22983  -0.22982  -0.00001
  74       40PZ        -0.47403  -0.23900  -0.23503  -0.00396
  75       41PX         0.20861   0.10430   0.10431  -0.00001
  76       41PY         0.20861   0.10430   0.10431  -0.00001
  77       41PZ         0.22040   0.11075   0.10965   0.00111
  78       42PX        -0.00003  -0.00002  -0.00002   0.00000
  79       42PY        -0.00003  -0.00002  -0.00002   0.00000
  80       42PZ        -0.00248  -0.00137  -0.00111  -0.00025
  81       43D 0        0.00000   0.00000   0.00000   0.00000
  82       43D+1        0.00000   0.00000   0.00000   0.00000
  83       43D-1        0.00000   0.00000   0.00000   0.00000
  84       43D+2        0.00000   0.00000  -0.00000   0.00000
  85       43D-2        0.00000   0.00000   0.00000   0.00000
  86       44D 0       -0.00018  -0.00018  -0.00000  -0.00018
  87       44D+1       -0.00019  -0.00019  -0.00000  -0.00019
  88       44D-1       -0.00019  -0.00019  -0.00000  -0.00019
  89       44D+2       -0.00018  -0.00018  -0.00000  -0.00018
  90       44D-2       -0.00018  -0.00018   0.00000  -0.00018
  91       45D 0        0.02209   0.02179   0.00030   0.02149
  92       45D+1        0.02222   0.02222   0.00000   0.02222
  93       45D-1        0.02222   0.02222   0.00000   0.02222
  94       45D+2        0.02210   0.02210  -0.00000   0.02210
  95       45D-2        0.02210   0.02210  -0.00000   0.02210
  96       46D 0        0.38893   0.38326   0.00567   0.37760
  97       46D+1        0.38916   0.38915   0.00000   0.38915
  98       46D-1        0.38916   0.38915   0.00000   0.38915
  99       46D+2        0.39020   0.39020  -0.00000   0.39020
 100       46D-2        0.39020   0.39020   0.00000   0.39020
 101       47D 0       -0.75355  -0.73464  -0.01891  -0.71573
 102       47D+1       -0.70839  -0.70838  -0.00001  -0.70838
 103       47D-1       -0.70839  -0.70838  -0.00001  -0.70838
 104       47D+2       -0.75680  -0.75680  -0.00000  -0.75680
 105       47D-2       -0.75680  -0.75680  -0.00000  -0.75680
 106       48D 0        0.32844   0.31834   0.01010   0.30824
 107       48D+1        0.32210   0.32210   0.00000   0.32210
 108       48D-1        0.32210   0.32210   0.00000   0.32210
 109       48D+2        0.32655   0.32655   0.00000   0.32655
 110       48D-2        0.32655   0.32655   0.00000   0.32655
 111       49D 0        0.14030   0.12257   0.01772   0.10485
 112       49D+1        0.11583   0.11583   0.00000   0.11583
 113       49D-1        0.11583   0.11583   0.00000   0.11583
 114       49D+2        0.11565   0.11565  -0.00000   0.11565
 115       49D-2        0.11565   0.11565  -0.00000   0.11565
 116       50D 0        0.01916   0.01149   0.00767   0.00382
 117       50D+1        0.00837   0.00837   0.00000   0.00837
 118       50D-1        0.00837   0.00837   0.00000   0.00837
 119       50D+2        0.00672   0.00672  -0.00000   0.00672
 120       50D-2        0.00672   0.00672  -0.00000   0.00672
 121       51D 0       -0.22004  -0.21670  -0.00334  -0.21337
 122       51D+1       -0.21889  -0.21889  -0.00000  -0.21889
 123       51D-1       -0.21889  -0.21889  -0.00000  -0.21889
 124       51D+2       -0.22134  -0.22134   0.00000  -0.22134
 125       51D-2       -0.22134  -0.22134   0.00000  -0.22134
 126       52D 0        1.11364   1.08897   0.02468   1.06429
 127       52D+1        1.06956   1.06955   0.00001   1.06954
 128       52D-1        1.06956   1.06955   0.00001   1.06954
 129       52D+2        1.11724   1.11724  -0.00000   1.11724
 130       52D-2        1.11724   1.11724  -0.00000   1.11724
 131       53D 0       -0.00014  -0.00011  -0.00003  -0.00007
 132       53D+1       -0.00013  -0.00013   0.00000  -0.00013
 133       53D-1       -0.00013  -0.00013   0.00000  -0.00013
 134       53D+2       -0.00013  -0.00013   0.00000  -0.00013
 135       53D-2       -0.00013  -0.00013   0.00000  -0.00013
 136       54F 0        0.00000   0.00000   0.00000   0.00000
 137       54F+1        0.00000   0.00000   0.00000   0.00000
 138       54F-1        0.00000   0.00000   0.00000   0.00000
 139       54F+2        0.00000   0.00000   0.00000   0.00000
 140       54F-2        0.00000   0.00000  -0.00000   0.00000
 141       54F+3       -0.00000  -0.00000  -0.00000  -0.00000
 142       54F-3        0.00000   0.00000   0.00000  -0.00000
 143       55F 0        0.00002   0.00001   0.00001   0.00000
 144       55F+1        0.00000   0.00000   0.00000   0.00000
 145       55F-1        0.00000   0.00000   0.00000   0.00000
 146       55F+2        0.00000   0.00000  -0.00000   0.00000
 147       55F-2        0.00000   0.00000  -0.00000   0.00000
 148       55F+3        0.00000   0.00000   0.00000   0.00000
 149       55F-3       -0.00000   0.00000  -0.00000   0.00000
 150       56F 0        0.00107   0.00058   0.00049   0.00008
 151       56F+1        0.00001   0.00001   0.00000   0.00001
 152       56F-1        0.00001   0.00001   0.00000   0.00001
 153       56F+2        0.00001   0.00001  -0.00000   0.00001
 154       56F-2        0.00001   0.00001   0.00000   0.00001
 155       56F+3        0.00000   0.00000  -0.00000   0.00000
 156       56F-3        0.00000  -0.00000   0.00000  -0.00000
 157       57F 0        0.00278   0.00149   0.00129   0.00021
 158       57F+1        0.00001   0.00001  -0.00000   0.00001
 159       57F-1        0.00001   0.00001  -0.00000   0.00001
 160       57F+2        0.00001   0.00001  -0.00000   0.00001
 161       57F-2        0.00001   0.00001  -0.00000   0.00001
 162       57F+3        0.00000   0.00000   0.00000   0.00000
 163       57F-3        0.00000   0.00000  -0.00000   0.00000
 164       58G 0        0.00000   0.00000  -0.00000   0.00000
 165       58G+1        0.00000   0.00000  -0.00000   0.00000
 166       58G-1        0.00000   0.00000  -0.00000   0.00000
 167       58G+2        0.00000   0.00000  -0.00000   0.00000
 168       58G-2        0.00000   0.00000  -0.00000   0.00000
 169       58G+3        0.00000   0.00000   0.00000   0.00000
 170       58G-3       -0.00000  -0.00000   0.00000  -0.00000
 171       58G+4       -0.00000  -0.00000  -0.00000   0.00000
 172       58G-4       -0.00000  -0.00000  -0.00000  -0.00000
 173       59G 0        0.00000   0.00000   0.00000   0.00000
 174       59G+1        0.00000   0.00000   0.00000   0.00000
 175       59G-1        0.00000   0.00000   0.00000   0.00000
 176       59G+2        0.00000   0.00000   0.00000   0.00000
 177       59G-2        0.00000   0.00000   0.00000   0.00000
 178       59G+3        0.00000   0.00000  -0.00000   0.00000
 179       59G-3       -0.00000  -0.00000   0.00000  -0.00000
 180       59G+4        0.00000   0.00000   0.00000  -0.00000
 181       59G-4       -0.00000  -0.00000   0.00000  -0.00000
 182       60G 0        0.00021   0.00011   0.00009   0.00002
 183       60G+1        0.00000   0.00000   0.00000   0.00000
 184       60G-1        0.00000   0.00000   0.00000   0.00000
 185       60G+2        0.00000   0.00000   0.00000   0.00000
 186       60G-2        0.00000   0.00000   0.00000   0.00000
 187       60G+3        0.00000   0.00000   0.00000   0.00000
 188       60G-3       -0.00000  -0.00000   0.00000  -0.00000
 189       60G+4        0.00000   0.00000   0.00000   0.00000
 190       60G-4       -0.00000  -0.00000   0.00000  -0.00000
 191 2   H  1S          0.00071   0.00037   0.00034   0.00003
 192        2S          0.02447   0.01271   0.01176   0.00094
 193        3S          0.18730   0.09708   0.09023   0.00685
 194        4S          0.60387   0.31150   0.29236   0.01914
 195        5S          0.55963   0.28589   0.27374   0.01215
 196        6S          0.04508   0.02299   0.02208   0.00091
 197        7PX         0.00007   0.00007   0.00000   0.00007
 198        7PY         0.00007   0.00007   0.00000   0.00007
 199        7PZ         0.00097   0.00060   0.00037   0.00023
 200        8PX         0.00045   0.00045   0.00000   0.00044
 201        8PY         0.00045   0.00045   0.00000   0.00044
 202        8PZ         0.00632   0.00295   0.00337  -0.00042
 203        9PX        -0.00027  -0.00027   0.00000  -0.00027
 204        9PY        -0.00027  -0.00027   0.00000  -0.00027
 205        9PZ         0.00376   0.00097   0.00278  -0.00181
 206       10D 0        0.00024   0.00017   0.00007   0.00010
 207       10D+1        0.00009   0.00009   0.00000   0.00008
 208       10D-1        0.00009   0.00009   0.00000   0.00008
 209       10D+2        0.00000   0.00000  -0.00000   0.00000
 210       10D-2        0.00000   0.00000   0.00000   0.00000
 211       11D 0        0.00042   0.00019   0.00023  -0.00004
 212       11D+1       -0.00039  -0.00035  -0.00004  -0.00030
 213       11D-1       -0.00039  -0.00035  -0.00004  -0.00030
 214       11D+2       -0.00005  -0.00005   0.00000  -0.00005
 215       11D-2       -0.00005  -0.00005  -0.00000  -0.00005
          Condensed to atoms (all electrons):
               1          2
     1  Mn  14.250637   0.316796
     2  H    0.316796   1.115772
          Atomic-Atomic Spin Densities.
               1          2
     1  Mn   5.992569  -0.030592
     2  H   -0.030592   0.068615
 Mulliken charges and spin densities:
               1          2
     1  Mn   0.432568   5.961977
     2  H   -0.432568   0.038023
 Sum of Mulliken charges =  -0.00000   6.00000
 Mulliken charges and spin densities with hydrogens summed into heavy atoms:
               1          2
     1  Mn  -0.000000   6.000000
 Electronic spatial extent (au):  <R**2>=             53.1336
 Charge=             -0.0000 electrons
 Dipole moment (field-independent basis, Debye):
    X=              0.0000    Y=              0.0000    Z=              1.2818  Tot=              1.2818
 Quadrupole moment (field-independent basis, Debye-Ang):
   XX=            -16.0672   YY=            -16.0672   ZZ=            -26.1901
   XY=              0.0000   XZ=              0.0000   YZ=              0.0000
 Traceless Quadrupole moment (field-independent basis, Debye-Ang):
   XX=              3.3743   YY=              3.3743   ZZ=             -6.7486
   XY=              0.0000   XZ=              0.0000   YZ=              0.0000
 Octapole moment (field-independent basis, Debye-Ang**2):
  XXX=              0.0000  YYY=              0.0000  ZZZ=              6.1269  XYY=              0.0000
  XXY=              0.0000  XXZ=             -0.0057  XZZ=              0.0000  YZZ=              0.0000
  YYZ=             -0.0057  XYZ=              0.0000
 Hexadecapole moment (field-independent basis, Debye-Ang**3):
 XXXX=            -27.1460 YYYY=            -27.1460 ZZZZ=           -100.5466 XXXY=              0.0000
 XXXZ=              0.0000 YYYX=              0.0000 YYYZ=              0.0000 ZZZX=              0.0000
 ZZZY=              0.0000 XXYY=             -9.0487 XXZZ=            -19.9178 YYZZ=            -19.9178
 XXYZ=              0.0000 YYXZ=              0.0000 ZZXY=              0.0000
 N-N= 4.669210684588D+00 E-N=-2.472321413600D+02  KE= 5.632890406094D+01
 Symmetry A1   KE= 2.429179681453D+01
 Symmetry A2   KE= 5.915969671748D+00
 Symmetry B1   KE= 1.306056878845D+01
 Symmetry B2   KE= 1.306056878710D+01
 Symmetry A1   SP= 3.000000000000D+00
 Symmetry A2   SP= 1.000000000000D+00
 Symmetry B1   SP= 1.000000000000D+00
 Symmetry B2   SP= 1.000000000000D+00
 Orbital energies and kinetic energies (alpha):
                                 1                 2
   1         O                -3.799037          1.970656
   2         O                -2.403203          3.567471
   3         O                -2.403203          3.567471
   4         O                -2.396324          3.573888
   5         O                -0.401761          0.561595
   6         O                -0.096095          5.915970
   7         O                -0.096095          5.915970
   8         O                -0.091163          4.475213
   9         O                -0.090465          5.925626
  10         O                -0.090465          5.925626
  11         O                -0.056245          1.688338
  12         V                 0.018426          0.067639
  13         V                 0.018426          0.067639
  14         V                 0.024168          0.033937
  15         V                 0.032269          0.043317
  16         V                 0.066283          0.184836
 Total kinetic energy from orbitals= 8.617564579912D+01
                          Isotropic Fermi Contact Couplings
        Atom                 a.u.       MegaHertz       Gauss      10(-4) cm-1
     1  Mn(55)             0.00036       0.06709       0.02394       0.02238
     2  H(1)               0.01335       9.94295       3.54789       3.31661
 --------------------------------------------------------
       Center         ----  Spin Dipole Couplings  ----
                      3XX-RR        3YY-RR        3ZZ-RR
 --------------------------------------------------------
     1   Atom       -0.128309     -0.128309      0.256617
     2   Atom       -0.142664     -0.142664      0.285329
 --------------------------------------------------------
                        XY            XZ            YZ
 --------------------------------------------------------
     1   Atom        0.000000      0.000000      0.000000
     2   Atom        0.000000      0.000000      0.000000
 --------------------------------------------------------


 ---------------------------------------------------------------------------------
              Anisotropic Spin Dipole Couplings in Principal Axis System
 ---------------------------------------------------------------------------------

       Atom             a.u.   MegaHertz   Gauss  10(-4) cm-1        Axes

              Baa    -0.1283   -16.929    -6.041    -5.647  1.0000  0.0000  0.0000
     1 Mn(55) Bbb    -0.1283   -16.929    -6.041    -5.647 -0.0000  1.0000  0.0000
              Bcc     0.2566    33.859    12.082    11.294  0.0000  0.0000  1.0000
 
              Baa    -0.1427   -76.119   -27.161   -25.391 -0.0000  1.0000  0.0000
     2 H(1)   Bbb    -0.1427   -76.119   -27.161   -25.391  1.0000  0.0000  0.0000
              Bcc     0.2853   152.238    54.322    50.781  0.0000  0.0000  1.0000
 

 ---------------------------------------------------------------------------------

 No NMR shielding tensors so no spin-rotation constants.
 Leave Link  601 at Sun Feb 25 17:18:05 2018, MaxMem=  8589934592 cpu:              43.1 elap:               2.8
 (Enter /home1/apps/gaussian/16rA.03/g16/l9999.exe)
 1\1\GINC-C455-004\SP\ROHF\Gen\H1Mn1(7)\AANNABE\25-Feb-2018\0\\#P ROHF/
 Gen 5d 7f SCF=(maxcycles=300) Integral(NoXCTest) MaxDisk=500GB Pop=Reg
 ular Pseudo=Read\\MnH\\0,7\Mn,0,0.,0.,0.\H,0,0.,0.,1.7\\Version=ES64L-
 G16RevA.03\State=7-SG\HF=-104.2518112\RMSD=9.062e-09\Dipole=0.,0.,-0.5
 042971\Quadrupole=2.5087125,2.5087124,-5.0174249,0.,0.,0.\PG=C*V [C*(H
 1Mn1)]\\@


 It takes a long time to grow an old friend.
                            -- John Leonard
 Job cpu time:       0 days  0 hours  5 minutes 34.7 seconds.
 Elapsed time:       0 days  0 hours  0 minutes 23.3 seconds.
 File lengths (MBytes):  RWF=     24 Int=      0 D2E=      0 Chk=      4 Scr=      1
 Normal termination of Gaussian 16 at Sun Feb 25 17:18:05 2018.
