 Entering Gaussian System, Link 0=g16
 Initial command:
 /home1/apps/gaussian/16rA.03/g16/l1.exe "/tmp/Gau-114136.inp" -scrdir="/tmp/"
 Entering Link 1 = /home1/apps/gaussian/16rA.03/g16/l1.exe PID=    114137.
  
 Copyright (c) 1988,1990,1992,1993,1995,1998,2003,2009,2016,
            Gaussian, Inc.  All Rights Reserved.
  
 This is part of the Gaussian(R) 16 program.  It is based on
 the Gaussian(R) 09 system (copyright 2009, Gaussian, Inc.),
 the Gaussian(R) 03 system (copyright 2003, Gaussian, Inc.),
 the Gaussian(R) 98 system (copyright 1998, Gaussian, Inc.),
 the Gaussian(R) 94 system (copyright 1995, Gaussian, Inc.),
 the Gaussian 92(TM) system (copyright 1992, Gaussian, Inc.),
 the Gaussian 90(TM) system (copyright 1990, Gaussian, Inc.),
 the Gaussian 88(TM) system (copyright 1988, Gaussian, Inc.),
 the Gaussian 86(TM) system (copyright 1986, Carnegie Mellon
 University), and the Gaussian 82(TM) system (copyright 1983,
 Carnegie Mellon University). Gaussian is a federally registered
 trademark of Gaussian, Inc.
  
 This software contains proprietary and confidential information,
 including trade secrets, belonging to Gaussian, Inc.
  
 This software is provided under written license and may be
 used, copied, transmitted, or stored only in accord with that
 written license.
  
 The following legend is applicable only to US Government
 contracts under FAR:
  
                    RESTRICTED RIGHTS LEGEND
  
 Use, reproduction and disclosure by the US Government is
 subject to restrictions as set forth in subparagraphs (a)
 and (c) of the Commercial Computer Software - Restricted
 Rights clause in FAR 52.227-19.
  
 Gaussian, Inc.
 340 Quinnipiac St., Bldg. 40, Wallingford CT 06492
  
  
 ---------------------------------------------------------------
 Warning -- This program may not be used in any manner that
 competes with the business of Gaussian, Inc. or will provide
 assistance to any competitor of Gaussian, Inc.  The licensee
 of this program is prohibited from giving any competitor of
 Gaussian, Inc. access to this program.  By using this program,
 the user acknowledges that Gaussian, Inc. is engaged in the
 business of creating and licensing software in the field of
 computational chemistry and represents and warrants to the
 licensee that it is not a competitor of Gaussian, Inc. and that
 it will not use this program in any manner prohibited above.
 ---------------------------------------------------------------
  

 Cite this work as:
 Gaussian 16, Revision A.03,
 M. J. Frisch, G. W. Trucks, H. B. Schlegel, G. E. Scuseria, 
 M. A. Robb, J. R. Cheeseman, G. Scalmani, V. Barone, 
 G. A. Petersson, H. Nakatsuji, X. Li, M. Caricato, A. V. Marenich, 
 J. Bloino, B. G. Janesko, R. Gomperts, B. Mennucci, H. P. Hratchian, 
 J. V. Ortiz, A. F. Izmaylov, J. L. Sonnenberg, D. Williams-Young, 
 F. Ding, F. Lipparini, F. Egidi, J. Goings, B. Peng, A. Petrone, 
 T. Henderson, D. Ranasinghe, V. G. Zakrzewski, J. Gao, N. Rega, 
 G. Zheng, W. Liang, M. Hada, M. Ehara, K. Toyota, R. Fukuda, 
 J. Hasegawa, M. Ishida, T. Nakajima, Y. Honda, O. Kitao, H. Nakai, 
 T. Vreven, K. Throssell, J. A. Montgomery, Jr., J. E. Peralta, 
 F. Ogliaro, M. J. Bearpark, J. J. Heyd, E. N. Brothers, K. N. Kudin, 
 V. N. Staroverov, T. A. Keith, R. Kobayashi, J. Normand, 
 K. Raghavachari, A. P. Rendell, J. C. Burant, S. S. Iyengar, 
 J. Tomasi, M. Cossi, J. M. Millam, M. Klene, C. Adamo, R. Cammi, 
 J. W. Ochterski, R. L. Martin, K. Morokuma, O. Farkas, 
 J. B. Foresman, and D. J. Fox, Gaussian, Inc., Wallingford CT, 2016.
 
 ******************************************
 Gaussian 16:  ES64L-G16RevA.03 25-Dec-2016
                27-Feb-2018 
 ******************************************
 %MEM=80GB
 %CPU=0-15
 SetSPE:  set environment variable "MP_BIND" = "yes"
 SetSPE:  set environment variable "MP_BLIST" = "0,1,2,3,4,5,6,7,8,9,10,11,12,13,14,15"
 Will use up to   16 processors via shared memory.
 %RWF=/scratch/04843/aannabe/gaussian/
 %Int=/scratch/04843/aannabe/gaussian/
 %D2E=/scratch/04843/aannabe/gaussian/
 %NoSave
 %CHK=ScO
 ----------------------------------------------------------------------
 #P ROCCSD(T)=(maxcyc=150, Full, SaveAmplitudes, ReadAmplitudes)/Gen 5d
  7f SCF=(maxcycles=300) Integral(NoXCTest) MaxDisk=500GB Pop=Regular P
 seudo=Read Guess=Read
 ----------------------------------------------------------------------
 1/38=1,172=1/1;
 2/12=2,17=6,18=5,40=1/2;
 3/5=7,8=11,11=2,16=1,17=8,25=1,30=1,47=8,116=101/1,2,3;
 4/5=1/1;
 5/5=2,7=300,38=6/2;
 8/5=-1,6=4,9=120000,10=90,24=1/1,4;
 9/5=7,6=150,14=2,77=1/13;
 6//1;
 99/5=1,9=1/99;
 Leave Link    1 at Tue Feb 27 13:07:08 2018, MaxMem= 10737418240 cpu:               3.5 elap:               0.2
 (Enter /home1/apps/gaussian/16rA.03/g16/l101.exe)
 ---
 ScO
 ---
 Symbolic Z-matrix:
 Charge =  0 Multiplicity = 2
 Sc                    0.        0.        0. 
 O                     0.        0.        1.6 
 
 ITRead=  0  0
 MicOpt= -1 -1
 NAtoms=      2 NQM=        2 NQMF=       0 NMMI=      0 NMMIF=      0
                NMic=       0 NMicF=      0.
                    Isotopes and Nuclear Properties:
 (Nuclear quadrupole moments (NQMom) in fm**2, nuclear magnetic moments (NMagM)
  in nuclear magnetons)

  Atom         1           2
 IAtWgt=          45          16
 AtmWgt=  44.9559136  15.9949146
 NucSpn=           7           0
 AtZEff=  -0.0000000  -0.0000000
 NQMom=  -22.0000000   0.0000000
 NMagM=    4.7564830   0.0000000
 AtZNuc=  21.0000000   8.0000000
 Leave Link  101 at Tue Feb 27 13:07:08 2018, MaxMem= 10737418240 cpu:               1.4 elap:               0.1
 (Enter /home1/apps/gaussian/16rA.03/g16/l202.exe)
                          Input orientation:                          
 ---------------------------------------------------------------------
 Center     Atomic      Atomic             Coordinates (Angstroms)
 Number     Number       Type             X           Y           Z
 ---------------------------------------------------------------------
      1         21           0        0.000000    0.000000    0.000000
      2          8           0        0.000000    0.000000    1.600000
 ---------------------------------------------------------------------
 Stoichiometry    OSc(2)
 Framework group  C*V[C*(OSc)]
 Deg. of freedom     1
 Full point group                 C*V     NOp   4
 Largest Abelian subgroup         C2V     NOp   4
 Largest concise Abelian subgroup C1      NOp   1
                         Standard orientation:                         
 ---------------------------------------------------------------------
 Center     Atomic      Atomic             Coordinates (Angstroms)
 Number     Number       Type             X           Y           Z
 ---------------------------------------------------------------------
      1         21           0        0.000000    0.000000    0.441379
      2          8           0        0.000000    0.000000   -1.158621
 ---------------------------------------------------------------------
 Rotational constants (GHZ):           0.0000000          16.7335502          16.7335502
 Leave Link  202 at Tue Feb 27 13:07:08 2018, MaxMem= 10737418240 cpu:               0.3 elap:               0.1
 (Enter /home1/apps/gaussian/16rA.03/g16/l301.exe)
 General basis read from cards:  (5D, 7F)
 Centers:       1
 S 1 1.00
     Exponent=  8.4179090000D+06 Coefficients=  1.0000000000D+00
 S 1 1.00
     Exponent=  1.2603120000D+06 Coefficients=  1.0000000000D+00
 S 1 1.00
     Exponent=  2.8679840000D+05 Coefficients=  1.0000000000D+00
 S 1 1.00
     Exponent=  8.1234690000D+04 Coefficients=  1.0000000000D+00
 S 1 1.00
     Exponent=  2.6503110000D+04 Coefficients=  1.0000000000D+00
 S 1 1.00
     Exponent=  9.5687010000D+03 Coefficients=  1.0000000000D+00
 S 1 1.00
     Exponent=  3.7324970000D+03 Coefficients=  1.0000000000D+00
 S 1 1.00
     Exponent=  1.5484220000D+03 Coefficients=  1.0000000000D+00
 S 1 1.00
     Exponent=  6.7554200000D+02 Coefficients=  1.0000000000D+00
 S 1 1.00
     Exponent=  3.0725220000D+02 Coefficients=  1.0000000000D+00
 S 1 1.00
     Exponent=  1.4466720000D+02 Coefficients=  1.0000000000D+00
 S 1 1.00
     Exponent=  7.0043870000D+01 Coefficients=  1.0000000000D+00
 S 1 1.00
     Exponent=  3.4322500000D+01 Coefficients=  1.0000000000D+00
 S 1 1.00
     Exponent=  1.5612240000D+01 Coefficients=  1.0000000000D+00
 S 1 1.00
     Exponent=  7.7437220000D+00 Coefficients=  1.0000000000D+00
 S 1 1.00
     Exponent=  3.8442600000D+00 Coefficients=  1.0000000000D+00
 S 1 1.00
     Exponent=  1.7197660000D+00 Coefficients=  1.0000000000D+00
 S 1 1.00
     Exponent=  8.3252300000D-01 Coefficients=  1.0000000000D+00
 S 1 1.00
     Exponent=  3.8556400000D-01 Coefficients=  1.0000000000D+00
 S 1 1.00
     Exponent=  9.6700000000D-02 Coefficients=  1.0000000000D+00
 S 1 1.00
     Exponent=  4.7778000000D-02 Coefficients=  1.0000000000D+00
 S 1 1.00
     Exponent=  2.2363000000D-02 Coefficients=  1.0000000000D+00
 S 1 1.00
     Exponent=  3.1672000000D+00 Coefficients=  1.0000000000D+00
 S 1 1.00
     Exponent=  1.6879000000D+00 Coefficients=  1.0000000000D+00
 S 1 1.00
     Exponent=  1.0470000000D-02 Coefficients=  1.0000000000D+00
 P 1 1.00
     Exponent=  2.2640970000D+04 Coefficients=  1.0000000000D+00
 P 1 1.00
     Exponent=  5.3575450000D+03 Coefficients=  1.0000000000D+00
 P 1 1.00
     Exponent=  1.7403730000D+03 Coefficients=  1.0000000000D+00
 P 1 1.00
     Exponent=  6.6661630000D+02 Coefficients=  1.0000000000D+00
 P 1 1.00
     Exponent=  2.8363840000D+02 Coefficients=  1.0000000000D+00
 P 1 1.00
     Exponent=  1.2979760000D+02 Coefficients=  1.0000000000D+00
 P 1 1.00
     Exponent=  6.2679560000D+01 Coefficients=  1.0000000000D+00
 P 1 1.00
     Exponent=  3.1504410000D+01 Coefficients=  1.0000000000D+00
 P 1 1.00
     Exponent=  1.6235250000D+01 Coefficients=  1.0000000000D+00
 P 1 1.00
     Exponent=  8.5183240000D+00 Coefficients=  1.0000000000D+00
 P 1 1.00
     Exponent=  4.5190050000D+00 Coefficients=  1.0000000000D+00
 P 1 1.00
     Exponent=  2.3665910000D+00 Coefficients=  1.0000000000D+00
 P 1 1.00
     Exponent=  1.2152350000D+00 Coefficients=  1.0000000000D+00
 P 1 1.00
     Exponent=  6.1434800000D-01 Coefficients=  1.0000000000D+00
 P 1 1.00
     Exponent=  3.0074500000D-01 Coefficients=  1.0000000000D+00
 P 1 1.00
     Exponent=  1.2583400000D-01 Coefficients=  1.0000000000D+00
 P 1 1.00
     Exponent=  5.4719000000D-02 Coefficients=  1.0000000000D+00
 P 1 1.00
     Exponent=  2.3488000000D-02 Coefficients=  1.0000000000D+00
 P 1 1.00
     Exponent=  4.0719000000D+00 Coefficients=  1.0000000000D+00
 P 1 1.00
     Exponent=  9.9940000000D-01 Coefficients=  1.0000000000D+00
 P 1 1.00
     Exponent=  1.0080000000D-02 Coefficients=  1.0000000000D+00
 D 1 1.00
     Exponent=  1.4802800000D+02 Coefficients=  1.0000000000D+00
 D 1 1.00
     Exponent=  4.3852800000D+01 Coefficients=  1.0000000000D+00
 D 1 1.00
     Exponent=  1.6664600000D+01 Coefficients=  1.0000000000D+00
 D 1 1.00
     Exponent=  6.9789300000D+00 Coefficients=  1.0000000000D+00
 D 1 1.00
     Exponent=  3.1236900000D+00 Coefficients=  1.0000000000D+00
 D 1 1.00
     Exponent=  1.4468700000D+00 Coefficients=  1.0000000000D+00
 D 1 1.00
     Exponent=  6.6740700000D-01 Coefficients=  1.0000000000D+00
 D 1 1.00
     Exponent=  3.0163300000D-01 Coefficients=  1.0000000000D+00
 D 1 1.00
     Exponent=  1.3267400000D-01 Coefficients=  1.0000000000D+00
 D 1 1.00
     Exponent=  5.6739000000D-02 Coefficients=  1.0000000000D+00
 D 1 1.00
     Exponent=  2.3175000000D-02 Coefficients=  1.0000000000D+00
 D 1 1.00
     Exponent=  2.1282000000D+00 Coefficients=  1.0000000000D+00
 D 1 1.00
     Exponent=  9.6910000000D-01 Coefficients=  1.0000000000D+00
 D 1 1.00
     Exponent=  9.4700000000D-03 Coefficients=  1.0000000000D+00
 F 1 1.00
     Exponent=  2.7590000000D+00 Coefficients=  1.0000000000D+00
 F 1 1.00
     Exponent=  1.0490000000D+00 Coefficients=  1.0000000000D+00
 F 1 1.00
     Exponent=  3.9890000000D-01 Coefficients=  1.0000000000D+00
 F 1 1.00
     Exponent=  1.1060000000D-01 Coefficients=  1.0000000000D+00
 F 1 1.00
     Exponent=  3.0670000000D-02 Coefficients=  1.0000000000D+00
 G 1 1.00
     Exponent=  2.4852000000D+00 Coefficients=  1.0000000000D+00
 G 1 1.00
     Exponent=  9.0670000000D-01 Coefficients=  1.0000000000D+00
 G 1 1.00
     Exponent=  2.5300000000D-01 Coefficients=  1.0000000000D+00
 G 1 1.00
     Exponent=  7.0600000000D-02 Coefficients=  1.0000000000D+00
 H 1 1.00
     Exponent=  2.0405000000D+00 Coefficients=  1.0000000000D+00
 H 1 1.00
     Exponent=  4.9340000000D-01 Coefficients=  1.0000000000D+00
 H 1 1.00
     Exponent=  1.1931000000D-01 Coefficients=  1.0000000000D+00
 ****
 Centers:       2
 S 1 1.00
     Exponent=  6.1420000000D+04 Coefficients=  1.0000000000D+00
 S 1 1.00
     Exponent=  9.1990000000D+03 Coefficients=  1.0000000000D+00
 S 1 1.00
     Exponent=  2.0910000000D+03 Coefficients=  1.0000000000D+00
 S 1 1.00
     Exponent=  5.9090000000D+02 Coefficients=  1.0000000000D+00
 S 1 1.00
     Exponent=  1.9230000000D+02 Coefficients=  1.0000000000D+00
 S 1 1.00
     Exponent=  6.9320000000D+01 Coefficients=  1.0000000000D+00
 S 1 1.00
     Exponent=  2.6970000000D+01 Coefficients=  1.0000000000D+00
 S 1 1.00
     Exponent=  1.1100000000D+01 Coefficients=  1.0000000000D+00
 S 1 1.00
     Exponent=  4.6820000000D+00 Coefficients=  1.0000000000D+00
 S 1 1.00
     Exponent=  1.4280000000D+00 Coefficients=  1.0000000000D+00
 S 1 1.00
     Exponent=  5.5470000000D-01 Coefficients=  1.0000000000D+00
 S 1 1.00
     Exponent=  2.0670000000D-01 Coefficients=  1.0000000000D+00
 S 1 1.00
     Exponent=  1.2974000000D+01 Coefficients=  1.0000000000D+00
 S 1 1.00
     Exponent=  3.4900000000D+01 Coefficients=  1.0000000000D+00
 S 1 1.00
     Exponent=  9.3881000000D+01 Coefficients=  1.0000000000D+00
 S 1 1.00
     Exponent=  6.9590000000D-02 Coefficients=  1.0000000000D+00
 P 1 1.00
     Exponent=  6.3420000000D+01 Coefficients=  1.0000000000D+00
 P 1 1.00
     Exponent=  1.4660000000D+01 Coefficients=  1.0000000000D+00
 P 1 1.00
     Exponent=  4.4590000000D+00 Coefficients=  1.0000000000D+00
 P 1 1.00
     Exponent=  1.5310000000D+00 Coefficients=  1.0000000000D+00
 P 1 1.00
     Exponent=  5.3020000000D-01 Coefficients=  1.0000000000D+00
 P 1 1.00
     Exponent=  1.7500000000D-01 Coefficients=  1.0000000000D+00
 P 1 1.00
     Exponent=  1.4475000000D+01 Coefficients=  1.0000000000D+00
 P 1 1.00
     Exponent=  4.2730000000D+01 Coefficients=  1.0000000000D+00
 P 1 1.00
     Exponent=  1.2614000000D+02 Coefficients=  1.0000000000D+00
 P 1 1.00
     Exponent=  5.3480000000D-02 Coefficients=  1.0000000000D+00
 D 1 1.00
     Exponent=  3.7750000000D+00 Coefficients=  1.0000000000D+00
 D 1 1.00
     Exponent=  1.3000000000D+00 Coefficients=  1.0000000000D+00
 D 1 1.00
     Exponent=  4.4400000000D-01 Coefficients=  1.0000000000D+00
 D 1 1.00
     Exponent=  1.4927000000D+01 Coefficients=  1.0000000000D+00
 D 1 1.00
     Exponent=  5.7544000000D+01 Coefficients=  1.0000000000D+00
 D 1 1.00
     Exponent=  1.5400000000D-01 Coefficients=  1.0000000000D+00
 F 1 1.00
     Exponent=  2.6660000000D+00 Coefficients=  1.0000000000D+00
 F 1 1.00
     Exponent=  8.5900000000D-01 Coefficients=  1.0000000000D+00
 F 1 1.00
     Exponent=  2.6483000000D+01 Coefficients=  1.0000000000D+00
 F 1 1.00
     Exponent=  3.2400000000D-01 Coefficients=  1.0000000000D+00
 G 1 1.00
     Exponent=  1.8460000000D+00 Coefficients=  1.0000000000D+00
 G 1 1.00
     Exponent=  7.1400000000D-01 Coefficients=  1.0000000000D+00
 ****
 ======================================================================================================
                                       Pseudopotential Parameters
 ======================================================================================================
  Center     Atomic      Valence      Angular      Power
  Number     Number     Electrons     Momentum     of R      Exponent        Coefficient   SO-Coeffient
 ======================================================================================================
    1         21           11
                                      F and up 
                                                     2        1.0000000        0.00000000    0.00000000
                                      S - F
                                                     2       11.5000000      138.53815200    0.00000000
                                                     2        5.1840000       14.83404200    0.00000000
                                      P - F
                                                     2       10.9300000       82.45861400    0.00000000
                                                     2        4.5810000        8.56520600    0.00000000
                                      D - F
                                                     2       13.4700000      -16.12986200    0.00000000
                                                     2        4.3750000       -0.53469000    0.00000000
    2          8            6
                                      P and up 
                                                     1       12.3099700        6.00000000    0.00000000
                                                     3       14.7696200       73.85984000    0.00000000
                                                     2       13.7141900      -47.87600000    0.00000000
                                      S - P
                                                     2       13.6551200       85.86406000    0.00000000
 ======================================================================================================
 Ernie: Thresh=  0.10000D-02 Tol=  0.10000D-05 Strict=F.
 There are   213 symmetry adapted cartesian basis functions of A1  symmetry.
 There are    56 symmetry adapted cartesian basis functions of A2  symmetry.
 There are   114 symmetry adapted cartesian basis functions of B1  symmetry.
 There are   114 symmetry adapted cartesian basis functions of B2  symmetry.
 There are   157 symmetry adapted basis functions of A1  symmetry.
 There are    47 symmetry adapted basis functions of A2  symmetry.
 There are    90 symmetry adapted basis functions of B1  symmetry.
 There are    90 symmetry adapted basis functions of B2  symmetry.
   384 basis functions,   497 primitive gaussians,   497 cartesian basis functions
     9 alpha electrons        8 beta electrons
       nuclear repulsion energy        21.8285599504 Hartrees.
 IExCor=    0 DFT=F Ex=HF Corr=None ExCW=0 ScaHFX=  1.000000
 ScaDFX=  1.000000  1.000000  1.000000  1.000000 ScalE2=  1.000000  1.000000
 IRadAn=      5 IRanWt=     -1 IRanGd=            0 ICorTp=0 IEmpDi=  4
 NAtoms=    2 NActive=    2 NUniq=    2 SFac= 1.00D+00 NAtFMM=   60 NAOKFM=F Big=F
 Integral buffers will be    131072 words long.
 Raffenetti 2 integral format.
 Two-electron integral symmetry is turned on.
 Leave Link  301 at Tue Feb 27 13:07:08 2018, MaxMem= 10737418240 cpu:               4.6 elap:               0.3
 (Enter /home1/apps/gaussian/16rA.03/g16/l302.exe)
 NPDir=0 NMtPBC=     1 NCelOv=     1 NCel=       1 NClECP=     1 NCelD=      1
         NCelK=      1 NCelE2=     1 NClLst=     1 CellRange=     0.0.
 One-electron integrals computed using PRISM.
 One-electron integral symmetry used in STVInt
   4 Symmetry operations used in ECPInt.
 ECPInt:  NShTT=    6105 NPrTT=    6105 LenC2=    5617 LenP2D=    5616.
 LDataN:  DoStor=T MaxTD1=10 Len=  848
 NBasis=   384 RedAO= T EigKep=  1.22D-06  NBF=   157    47    90    90
 NBsUse=   383 1.00D-06 EigRej=  8.07D-09 NBFU=   156    47    90    90
 Leave Link  302 at Tue Feb 27 13:07:12 2018, MaxMem= 10737418240 cpu:              50.2 elap:               3.2
 (Enter /home1/apps/gaussian/16rA.03/g16/l303.exe)
 DipDrv:  MaxL=1.
 Leave Link  303 at Tue Feb 27 13:07:12 2018, MaxMem= 10737418240 cpu:               1.9 elap:               0.2
 (Enter /home1/apps/gaussian/16rA.03/g16/l401.exe)
 Initial guess from the checkpoint file:  "ScO.chk"
 B after Tr=     0.000000    0.000000    0.000000
         Rot=    1.000000    0.000000    0.000000    0.000000 Ang=   0.00 deg.
 Guess basis will be translated and rotated to current coordinates.
 JPrj=2 DoOrth=T DoCkMO=T.
 Initial guess orbital symmetries:
       Occupied  (SG) (SG) (PI) (PI) (SG) (PI) (PI) (SG) (SG)
       Virtual   (PI) (PI) (SG) (SG) (DLTA) (DLTA) (PI) (PI) (SG)
                 (PI) (PI) (SG) (DLTA) (DLTA) (SG) (PI) (PI) (SG)
                 (PI) (PI) (SG) (PHI) (PHI) (PI) (PI) (DLTA) (DLTA)
                 (DLTA) (DLTA) (SG) (PI) (PI) (SG) (PI) (PI) (SG)
                 (SG) (SG) (DLTA) (DLTA) (PI) (PI) (DLTA) (DLTA)
                 (?A) (?A) (PHI) (PHI) (SG) (PI) (PI) (PI) (PI)
                 (SG) (PHI) (PHI) (DLTA) (DLTA) (SG) (PI) (PI)
                 (SG) (PI) (PI) (DLTA) (DLTA) (SG) (SG) (DLTA)
                 (DLTA) (PI) (PI) (SG) (SG) (PI) (PI) (PI) (PI)
                 (SG) (PHI) (PHI) (DLTA) (DLTA) (?A) (?A) (PI)
                 (PI) (SG) (DLTA) (DLTA) (SG) (PI) (PI) (PHI) (PHI)
                 (PHI) (PHI) (DLTA) (DLTA) (SG) (PI) (PI) (DLTA)
                 (DLTA) (DLTA) (DLTA) (SG) (SG) (PI) (PI) (SG)
                 (PI) (PI) (SG) (PI) (PI) (SG) (PI) (PI) (SG) (SG)
                 (DLTA) (DLTA) (SG) (PI) (PI) (PHI) (PHI) (DLTA)
                 (DLTA) (PHI) (PHI) (PI) (PI) (DLTA) (DLTA) (PI)
                 (PI) (SG) (DLTA) (DLTA) (SG) (PI) (PI) (?A) (?A)
                 (PHI) (PHI) (DLTA) (DLTA) (SG) (PI) (PI) (SG)
                 (SG) (PI) (PI) (SG) (DLTA) (DLTA) (PI) (PI) (SG)
                 (PI) (PI) (SG) (SG) (SG) (PI) (PI) (SG) (DLTA)
                 (DLTA) (PI) (PI) (SG) (SG) (PI) (PI) (SG) (SG)
                 (DLTA) (DLTA) (PI) (PI) (SG) (PI) (PI) (DLTA)
                 (DLTA) (PI) (PI) (SG) (SG) (SG) (PI) (PI) (SG)
                 (SG) (SG) (PI) (PI) (SG) (SG) (PI) (PI) (SG) (DLTA)
                 (DLTA) (PI) (PI) (SG) (SG) (SG) (PI) (PI) (SG)
                 (PI) (PI) (SG) (SG) (SG) (PI) (PI) (SG) (SG) (PI)
                 (PI) (SG) (SG) (SG) (PI) (PI) (SG) (SG) (SG) (PI)
                 (PI) (SG) (SG) (SG) (SG) (PI) (PI) (SG) (SG) (SG)
                 (SG) (SG) (DLTA) (SG) (SG) (SG) (DLTA) (SG) (SG)
                 (SG) (SG) (SG) (DLTA) (DLTA) (SG) (SG) (DLTA)
                 (SG) (SG) (SG) (DLTA) (SG) (SG) (SG) (DLTA) (DLTA)
                 (?A) (SG) (?A) (DLTA) (SG) (DLTA) (DLTA) (SG)
                 (SG) (?A) (SG) (?A) (DLTA) (DLTA) (DLTA) (SG)
                 (SG) (?A) (?A) (DLTA) (DLTA) (DLTA) (DLTA) (DLTA)
                 (DLTA) (DLTA) (DLTA) (?A) (?A) (DLTA) (DLTA) (DLTA)
                 (?A) (?A) (DLTA) (DLTA) (DLTA) (?A) (?A) (PI)
                 (PI) (PI) (PI) (PI) (PI) (PI) (PHI) (PI) (PI)
                 (PI) (PHI) (PI) (PI) (PI) (PHI) (PI) (PHI) (PHI)
                 (PI) (PI) (?B) (PHI) (PHI) (PI) (PI) (PHI) (PI)
                 (?B) (PHI) (?B) (PI) (PI) (PI) (PI) (PI) (PI)
                 (PI) (PHI) (PI) (PI) (PI) (PHI) (PI) (PI) (PI)
                 (PHI) (PI) (PHI) (PHI) (PI) (PI) (?B) (PHI) (PHI)
                 (PI) (PI) (PHI) (PI) (?B) (PHI) (?B)
 The electronic state of the initial guess is 2-SG.
 Leave Link  401 at Tue Feb 27 13:07:13 2018, MaxMem= 10737418240 cpu:              13.3 elap:               0.9
 (Enter /home1/apps/gaussian/16rA.03/g16/l502.exe)
 Keep R1 and R2 ints in memory in symmetry-blocked form, NReq=3425113631.
 FoFCou: FMM=F IPFlag=           8 FMFlag=           0 FMFlg1=           0
         NFxFlg=           0 DoJE=F BraDBF=F KetDBF=F FulRan=T
         wScrn=  0.000000 ICntrl=       600 IOpCl=  0 I1Cent=           0 NGrid=           0
         NMat0=    1 NMatS0=  73920 NMatT0=    0 NMatD0=    1 NMtDS0=    0 NMtDT0=    0
 Petite list used in FoFCou.
 Restricted open shell SCF:
 Using DIIS extrapolation, IDIIS=  1040.
 NGot= 10737418240 LenX=  9351093905 LenY=  9350846399
 Requested convergence on RMS density matrix=1.00D-08 within 300 cycles.
 Requested convergence on MAX density matrix=1.00D-06.
 Requested convergence on             energy=1.00D-06.
 No special actions if energy rises.

 Cycle   1  Pass 1  IDiag  1:
 E= -62.0672022836598    
 DIIS: error= 3.46D-01 at cycle   1 NSaved=   1.
 NSaved= 1 IEnMin= 1 EnMin= -62.0672022836598     IErMin= 1 ErrMin= 3.46D-01
 ErrMax= 3.46D-01  0.00D+00 EMaxC= 1.00D-01 BMatC= 2.70D+01 BMatP= 2.70D+01
 IDIUse=3 WtCom= 0.00D+00 WtEn= 1.00D+00
 Coeff-Com:  0.100D+01
 Coeff-En:   0.100D+01
 Coeff:      0.100D+01
 Gap=     0.086 Goal=   None    Shift=    0.000
 GapD=    0.086 DampG=0.500 DampE=0.125 DampFc=0.1250 IDamp=-1.
 Damping current iteration by 1.25D-01
 RMSDP=1.87D-03 MaxDP=1.01D-01              OVMax= 4.11D-03

 Cycle   2  Pass 1  IDiag  1:
 E= -62.0673076980834     Delta-E=       -0.000105414424 Rises=F Damp=T
 DIIS: error= 3.03D-01 at cycle   2 NSaved=   2.
 NSaved= 2 IEnMin= 2 EnMin= -62.0673076980834     IErMin= 2 ErrMin= 3.03D-01
 ErrMax= 3.03D-01  0.00D+00 EMaxC= 1.00D-01 BMatC= 2.07D+01 BMatP= 2.70D+01
 IDIUse=3 WtCom= 0.00D+00 WtEn= 1.00D+00
 Coeff-Com: -0.700D+01 0.800D+01
 Coeff-En:   0.000D+00 0.100D+01
 Coeff:      0.000D+00 0.100D+01
 Gap=     0.086 Goal=   None    Shift=    0.000
 RMSDP=1.64D-03 MaxDP=8.81D-02 DE=-1.05D-04 OVMax= 1.47D-03

 Cycle   3  Pass 1  IDiag  1:
 E= -62.0680714269478     Delta-E=       -0.000763728864 Rises=F Damp=F
 DIIS: error= 1.34D-04 at cycle   3 NSaved=   3.
 NSaved= 3 IEnMin= 3 EnMin= -62.0680714269478     IErMin= 3 ErrMin= 1.34D-04
 ErrMax= 1.34D-04  0.00D+00 EMaxC= 1.00D-01 BMatC= 5.14D-06 BMatP= 2.07D+01
 IDIUse=3 WtCom= 9.99D-01 WtEn= 1.34D-03
 Coeff-Com: -0.124D-01 0.142D-01 0.998D+00
 Coeff-En:   0.000D+00 0.000D+00 0.100D+01
 Coeff:     -0.124D-01 0.142D-01 0.998D+00
 Gap=     0.086 Goal=   None    Shift=    0.000
 RMSDP=8.32D-05 MaxDP=8.11D-03 DE=-7.64D-04 OVMax= 1.66D-03

 Cycle   4  Pass 1  IDiag  1:
 E= -62.0680737557375     Delta-E=       -0.000002328790 Rises=F Damp=F
 DIIS: error= 7.61D-05 at cycle   4 NSaved=   4.
 NSaved= 4 IEnMin= 4 EnMin= -62.0680737557375     IErMin= 4 ErrMin= 7.61D-05
 ErrMax= 7.61D-05  0.00D+00 EMaxC= 1.00D-01 BMatC= 5.34D-07 BMatP= 5.14D-06
 IDIUse=1 WtCom= 1.00D+00 WtEn= 0.00D+00
 Coeff-Com:  0.143D+00-0.164D+00 0.132D+00 0.889D+00
 Coeff:      0.143D+00-0.164D+00 0.132D+00 0.889D+00
 Gap=     0.086 Goal=   None    Shift=    0.000
 RMSDP=2.04D-05 MaxDP=4.74D-03 DE=-2.33D-06 OVMax= 1.00D-03

 Cycle   5  Pass 1  IDiag  1:
 E= -62.0680739544746     Delta-E=       -0.000000198737 Rises=F Damp=F
 DIIS: error= 6.71D-05 at cycle   5 NSaved=   5.
 NSaved= 5 IEnMin= 5 EnMin= -62.0680739544746     IErMin= 5 ErrMin= 6.71D-05
 ErrMax= 6.71D-05  0.00D+00 EMaxC= 1.00D-01 BMatC= 4.00D-07 BMatP= 5.34D-07
 IDIUse=1 WtCom= 1.00D+00 WtEn= 0.00D+00
 Coeff-Com:  0.175D+00-0.200D+00-0.159D-01 0.467D+00 0.574D+00
 Coeff:      0.175D+00-0.200D+00-0.159D-01 0.467D+00 0.574D+00
 Gap=     0.086 Goal=   None    Shift=    0.000
 RMSDP=5.34D-06 MaxDP=1.08D-03 DE=-1.99D-07 OVMax= 3.47D-04

 Cycle   6  Pass 1  IDiag  1:
 E= -62.0680742516609     Delta-E=       -0.000000297186 Rises=F Damp=F
 DIIS: error= 5.12D-06 at cycle   6 NSaved=   6.
 NSaved= 6 IEnMin= 6 EnMin= -62.0680742516609     IErMin= 6 ErrMin= 5.12D-06
 ErrMax= 5.12D-06  0.00D+00 EMaxC= 1.00D-01 BMatC= 3.07D-09 BMatP= 4.00D-07
 IDIUse=1 WtCom= 1.00D+00 WtEn= 0.00D+00
 Coeff-Com:  0.129D+00-0.147D+00 0.147D-01 0.342D-01 0.607D-01 0.909D+00
 Coeff:      0.129D+00-0.147D+00 0.147D-01 0.342D-01 0.607D-01 0.909D+00
 Gap=     0.086 Goal=   None    Shift=    0.000
 RMSDP=7.14D-07 MaxDP=7.65D-05 DE=-2.97D-07 OVMax= 9.00D-05

 Cycle   7  Pass 1  IDiag  1:
 E= -62.0680742526042     Delta-E=       -0.000000000943 Rises=F Damp=F
 DIIS: error= 4.22D-06 at cycle   7 NSaved=   7.
 NSaved= 7 IEnMin= 7 EnMin= -62.0680742526042     IErMin= 7 ErrMin= 4.22D-06
 ErrMax= 4.22D-06  0.00D+00 EMaxC= 1.00D-01 BMatC= 1.97D-09 BMatP= 3.07D-09
 IDIUse=1 WtCom= 1.00D+00 WtEn= 0.00D+00
 Coeff-Com:  0.114D+00-0.130D+00 0.219D-01-0.421D-01-0.498D-01 0.922D-01
 Coeff-Com:  0.994D+00
 Coeff:      0.114D+00-0.130D+00 0.219D-01-0.421D-01-0.498D-01 0.922D-01
 Coeff:      0.994D+00
 Gap=     0.086 Goal=   None    Shift=    0.000
 RMSDP=6.78D-07 MaxDP=9.62D-05 DE=-9.43D-10 OVMax= 6.45D-05

 Cycle   8  Pass 1  IDiag  1:
 E= -62.0680742557962     Delta-E=       -0.000000003192 Rises=F Damp=F
 DIIS: error= 3.55D-06 at cycle   8 NSaved=   8.
 NSaved= 8 IEnMin= 8 EnMin= -62.0680742557962     IErMin= 8 ErrMin= 3.55D-06
 ErrMax= 3.55D-06  0.00D+00 EMaxC= 1.00D-01 BMatC= 1.14D-09 BMatP= 1.97D-09
 IDIUse=1 WtCom= 1.00D+00 WtEn= 0.00D+00
 Coeff-Com:  0.853D-01-0.975D-01 0.145D-01-0.184D-02-0.101D-02-0.156D+00
 Coeff-Com: -0.546D-01 0.121D+01
 Coeff:      0.853D-01-0.975D-01 0.145D-01-0.184D-02-0.101D-02-0.156D+00
 Coeff:     -0.546D-01 0.121D+01
 Gap=     0.086 Goal=   None    Shift=    0.000
 RMSDP=1.04D-06 MaxDP=2.46D-04 DE=-3.19D-09 OVMax= 2.81D-05

 Cycle   9  Pass 1  IDiag  1:
 E= -62.0680742569443     Delta-E=       -0.000000001148 Rises=F Damp=F
 DIIS: error= 2.81D-06 at cycle   9 NSaved=   9.
 NSaved= 9 IEnMin= 9 EnMin= -62.0680742569443     IErMin= 9 ErrMin= 2.81D-06
 ErrMax= 2.81D-06  0.00D+00 EMaxC= 1.00D-01 BMatC= 6.97D-10 BMatP= 1.14D-09
 IDIUse=1 WtCom= 1.00D+00 WtEn= 0.00D+00
 Coeff-Com:  0.598D-01-0.683D-01 0.862D-02 0.132D-01 0.178D-01-0.684D-01
 Coeff-Com: -0.341D+00 0.102D+00 0.128D+01
 Coeff:      0.598D-01-0.683D-01 0.862D-02 0.132D-01 0.178D-01-0.684D-01
 Coeff:     -0.341D+00 0.102D+00 0.128D+01
 Gap=     0.086 Goal=   None    Shift=    0.000
 RMSDP=6.34D-07 MaxDP=8.38D-05 DE=-1.15D-09 OVMax= 3.27D-05

 Cycle  10  Pass 1  IDiag  1:
 E= -62.0680742581505     Delta-E=       -0.000000001206 Rises=F Damp=F
 DIIS: error= 1.85D-06 at cycle  10 NSaved=  10.
 NSaved=10 IEnMin=10 EnMin= -62.0680742581505     IErMin=10 ErrMin= 1.85D-06
 ErrMax= 1.85D-06  0.00D+00 EMaxC= 1.00D-01 BMatC= 3.12D-10 BMatP= 6.97D-10
 IDIUse=1 WtCom= 1.00D+00 WtEn= 0.00D+00
 Coeff-Com:  0.447D-01-0.510D-01 0.733D-02-0.210D-02-0.125D-02 0.191D-01
 Coeff-Com:  0.610D-01-0.254D+00 0.289D-01 0.115D+01
 Coeff:      0.447D-01-0.510D-01 0.733D-02-0.210D-02-0.125D-02 0.191D-01
 Coeff:      0.610D-01-0.254D+00 0.289D-01 0.115D+01
 Gap=     0.086 Goal=   None    Shift=    0.000
 RMSDP=4.44D-07 MaxDP=8.30D-05 DE=-1.21D-09 OVMax= 1.44D-05

 Cycle  11  Pass 1  IDiag  1:
 E= -62.0680742585287     Delta-E=       -0.000000000378 Rises=F Damp=F
 DIIS: error= 1.44D-06 at cycle  11 NSaved=  11.
 NSaved=11 IEnMin=11 EnMin= -62.0680742585287     IErMin=11 ErrMin= 1.44D-06
 ErrMax= 1.44D-06  0.00D+00 EMaxC= 1.00D-01 BMatC= 1.75D-10 BMatP= 3.12D-10
 IDIUse=1 WtCom= 1.00D+00 WtEn= 0.00D+00
 Coeff-Com:  0.381D-01-0.435D-01 0.632D-02-0.243D-02-0.194D-02 0.119D-01
 Coeff-Com:  0.649D-01-0.157D+00-0.321D-01 0.400D+00 0.716D+00
 Coeff:      0.381D-01-0.435D-01 0.632D-02-0.243D-02-0.194D-02 0.119D-01
 Coeff:      0.649D-01-0.157D+00-0.321D-01 0.400D+00 0.716D+00
 Gap=     0.086 Goal=   None    Shift=    0.000
 RMSDP=1.60D-07 MaxDP=2.39D-05 DE=-3.78D-10 OVMax= 6.28D-06

 Cycle  12  Pass 1  IDiag  1:
 E= -62.0680742586562     Delta-E=       -0.000000000128 Rises=F Damp=F
 DIIS: error= 1.21D-06 at cycle  12 NSaved=  12.
 NSaved=12 IEnMin=12 EnMin= -62.0680742586562     IErMin=12 ErrMin= 1.21D-06
 ErrMax= 1.21D-06  0.00D+00 EMaxC= 1.00D-01 BMatC= 1.28D-10 BMatP= 1.75D-10
 IDIUse=1 WtCom= 1.00D+00 WtEn= 0.00D+00
 Coeff-Com:  0.263D-01-0.300D-01 0.418D-02 0.908D-03 0.176D-02-0.144D-01
 Coeff-Com: -0.271D-01 0.382D-01 0.171D+00-0.524D+00-0.463D+00 0.182D+01
 Coeff:      0.263D-01-0.300D-01 0.418D-02 0.908D-03 0.176D-02-0.144D-01
 Coeff:     -0.271D-01 0.382D-01 0.171D+00-0.524D+00-0.463D+00 0.182D+01
 Gap=     0.086 Goal=   None    Shift=    0.000
 RMSDP=3.32D-07 MaxDP=5.42D-05 DE=-1.28D-10 OVMax= 1.16D-05

 Cycle  13  Pass 1  IDiag  1:
 E= -62.0680742588454     Delta-E=       -0.000000000189 Rises=F Damp=F
 DIIS: error= 8.35D-07 at cycle  13 NSaved=  13.
 NSaved=13 IEnMin=13 EnMin= -62.0680742588454     IErMin=13 ErrMin= 8.35D-07
 ErrMax= 8.35D-07  0.00D+00 EMaxC= 1.00D-01 BMatC= 6.03D-11 BMatP= 1.28D-10
 IDIUse=1 WtCom= 1.00D+00 WtEn= 0.00D+00
 Coeff-Com:  0.157D-01-0.180D-01 0.248D-02 0.770D-03 0.136D-02-0.705D-02
 Coeff-Com: -0.216D-01 0.349D-02 0.120D+00-0.974D-01-0.603D+00 0.187D+00
 Coeff-Com:  0.142D+01
 Coeff:      0.157D-01-0.180D-01 0.248D-02 0.770D-03 0.136D-02-0.705D-02
 Coeff:     -0.216D-01 0.349D-02 0.120D+00-0.974D-01-0.603D+00 0.187D+00
 Coeff:      0.142D+01
 Gap=     0.086 Goal=   None    Shift=    0.000
 RMSDP=2.76D-07 MaxDP=4.45D-05 DE=-1.89D-10 OVMax= 1.00D-05

 Cycle  14  Pass 1  IDiag  1:
 E= -62.0680742589522     Delta-E=       -0.000000000107 Rises=F Damp=F
 DIIS: error= 5.02D-07 at cycle  14 NSaved=  14.
 NSaved=14 IEnMin=14 EnMin= -62.0680742589522     IErMin=14 ErrMin= 5.02D-07
 ErrMax= 5.02D-07  0.00D+00 EMaxC= 1.00D-01 BMatC= 2.17D-11 BMatP= 6.03D-11
 IDIUse=1 WtCom= 1.00D+00 WtEn= 0.00D+00
 Coeff-Com:  0.963D-03-0.110D-02 0.168D-03-0.221D-03-0.253D-03 0.282D-02
 Coeff-Com:  0.653D-02-0.227D-01-0.121D-01 0.150D+00 0.197D-01-0.429D+00
 Coeff-Com: -0.966D+00 0.225D+01
 Coeff:      0.963D-03-0.110D-02 0.168D-03-0.221D-03-0.253D-03 0.282D-02
 Coeff:      0.653D-02-0.227D-01-0.121D-01 0.150D+00 0.197D-01-0.429D+00
 Coeff:     -0.966D+00 0.225D+01
 Gap=     0.086 Goal=   None    Shift=    0.000
 RMSDP=3.90D-07 MaxDP=6.30D-05 DE=-1.07D-10 OVMax= 1.40D-05

 Cycle  15  Pass 1  IDiag  1:
 E= -62.0680742590120     Delta-E=       -0.000000000060 Rises=F Damp=F
 DIIS: error= 2.98D-08 at cycle  15 NSaved=  15.
 NSaved=15 IEnMin=15 EnMin= -62.0680742590120     IErMin=15 ErrMin= 2.98D-08
 ErrMax= 2.98D-08  0.00D+00 EMaxC= 1.00D-01 BMatC= 8.59D-14 BMatP= 2.17D-11
 IDIUse=1 WtCom= 1.00D+00 WtEn= 0.00D+00
 Coeff-Com:  0.177D-02-0.202D-02 0.292D-03-0.856D-04-0.761D-04 0.178D-04
 Coeff-Com:  0.224D-02-0.283D-02 0.734D-03-0.132D-01 0.542D-01 0.128D+00
 Coeff-Com: -0.504D+00 0.505D+00 0.829D+00
 Coeff:      0.177D-02-0.202D-02 0.292D-03-0.856D-04-0.761D-04 0.178D-04
 Coeff:      0.224D-02-0.283D-02 0.734D-03-0.132D-01 0.542D-01 0.128D+00
 Coeff:     -0.504D+00 0.505D+00 0.829D+00
 Gap=     0.086 Goal=   None    Shift=    0.000
 RMSDP=2.04D-08 MaxDP=3.16D-06 DE=-5.98D-11 OVMax= 7.72D-07

 Cycle  16  Pass 1  IDiag  1:
 E= -62.0680742590112     Delta-E=        0.000000000001 Rises=F Damp=F
 DIIS: error= 5.63D-08 at cycle  16 NSaved=  16.
 NSaved=16 IEnMin=15 EnMin= -62.0680742590120     IErMin=15 ErrMin= 2.98D-08
 ErrMax= 5.63D-08  0.00D+00 EMaxC= 1.00D-01 BMatC= 2.72D-13 BMatP= 8.59D-14
 IDIUse=1 WtCom= 1.00D+00 WtEn= 0.00D+00
 Large coefficients: NSaved= 16 BigCof=    0.00 CofMax=   10.00 Det=-4.81D-16
 Inversion failed.  Reducing to 15 matrices.
 Coeff-Com:  0.211D-10 0.649D-07 0.755D-05 0.177D-05-0.252D-03-0.330D-03
 Coeff-Com:  0.218D-02 0.412D-03-0.181D-01 0.961D-02 0.639D-01-0.101D-01
 Coeff-Com: -0.232D+00 0.211D+00 0.974D+00
 Coeff:      0.211D-10 0.649D-07 0.755D-05 0.177D-05-0.252D-03-0.330D-03
 Coeff:      0.218D-02 0.412D-03-0.181D-01 0.961D-02 0.639D-01-0.101D-01
 Coeff:     -0.232D+00 0.211D+00 0.974D+00
 Gap=     0.086 Goal=   None    Shift=    0.000
 RMSDP=4.67D-08 MaxDP=7.52D-06 DE= 7.39D-13 OVMax= 1.67D-06

 Cycle  17  Pass 1  IDiag  1:
 E= -62.0680742590120     Delta-E=       -0.000000000001 Rises=F Damp=F
 DIIS: error= 3.04D-10 at cycle  17 NSaved=  16.
 NSaved=16 IEnMin=16 EnMin= -62.0680742590120     IErMin=16 ErrMin= 3.04D-10
 ErrMax= 3.04D-10  0.00D+00 EMaxC= 1.00D-01 BMatC= 1.79D-17 BMatP= 8.59D-14
 IDIUse=1 WtCom= 1.00D+00 WtEn= 0.00D+00
 Large coefficients: NSaved= 16 BigCof=    0.00 CofMax=   10.00 Det=-9.03D-17
 Inversion failed.  Reducing to 15 matrices.
 Coeff-Com: -0.119D-05 0.183D-04 0.229D-04-0.135D-03-0.533D-03 0.843D-03
 Coeff-Com:  0.127D-02-0.377D-02-0.968D-02 0.390D-02 0.766D-01-0.106D+00
 Coeff-Com: -0.882D-01 0.806D-01 0.105D+01
 Coeff:     -0.119D-05 0.183D-04 0.229D-04-0.135D-03-0.533D-03 0.843D-03
 Coeff:      0.127D-02-0.377D-02-0.968D-02 0.390D-02 0.766D-01-0.106D+00
 Coeff:     -0.882D-01 0.806D-01 0.105D+01
 Gap=     0.086 Goal=   None    Shift=    0.000
 RMSDP=5.00D-10 MaxDP=1.45D-07 DE=-7.96D-13 OVMax= 1.72D-08

 SCF Done:  E(ROHF) =  -62.0680742590     A.U. after   17 cycles
            NFock= 17  Conv=0.50D-09     -V/T= 3.0190
 <Sx>= 0.0000 <Sy>= 0.0000 <Sz>= 0.5000 <S**2>= 0.7500 S= 0.5000
 <L.S>=  0.00000000000    
 KE= 3.074214555125D+01 PE=-1.783262544335D+02 EE= 6.368747467278D+01
 Annihilation of the first spin contaminant:
 S**2 before annihilation     0.7500,   after     0.7500
 Leave Link  502 at Tue Feb 27 13:09:23 2018, MaxMem= 10737418240 cpu:            1845.2 elap:             129.9
 (Enter /home1/apps/gaussian/16rA.03/g16/l801.exe)
 Windowed orbitals will be sorted by symmetry type.
 GenMOA:  NOpAll=  4 NOp2=4 NOpUse=  4 JSym2X=1
 FoFJK:  IHMeth= 1 ICntrl=       0 DoSepK=F KAlg= 0 I1Cent=           0 FoldK=F
 IRaf=         0 NMat=       1 IRICut=       1 DoRegI=T DoRafI=F ISym2E= 1 IDoP0=0 IntGTp=1.
 FoFCou: FMM=F IPFlag=           8 FMFlag=      100000 FMFlg1=           0
         NFxFlg=           0 DoJE=F BraDBF=F KetDBF=F FulRan=T
         wScrn=  0.000000 ICntrl=         0 IOpCl=  1 I1Cent=           0 NGrid=           0
         NMat0=    1 NMatS0=      1 NMatT0=    0 NMatD0=    1 NMtDS0=    0 NMtDT0=    0
 Petite list used in FoFCou.
 <Sx>= 0.0000 <Sy>= 0.0000 <Sz>= 0.5000 <S**2>= 0.7500 S= 0.5000
 Range of M.O.s used for correlation:     1   383
 NBasis=   384 NAE=     9 NBE=     8 NFC=     0 NFV=     0
 NROrb=    383 NOA=     9 NOB=     8 NVA=   374 NVB=   375

 **** Warning!!: The largest alpha MO coefficient is  0.30943411D+03


 **** Warning!!: The largest beta MO coefficient is  0.30943346D+03

 Singles contribution to E2=   -0.1960648903D-03
 Leave Link  801 at Tue Feb 27 13:09:58 2018, MaxMem= 10737418240 cpu:             551.6 elap:              34.5
 (Enter /home1/apps/gaussian/16rA.03/g16/l804.exe)
 Open-shell transformation, MDV= 10737418240 ITran=4 ISComp=2.
 Unit  1 TFree=       4459702 TCopy=       3230129.
 Semi-Direct transformation.
 ModeAB=           4 MOrb=             9 LenV=   10733047797
 LASXX=     63702177 LTotXX=    63702177 LenRXX=   128059521
 LTotAB=    64357344 MaxLAS=   422943453 LenRXY=           0
 NonZer=   191761698 LenScr=   288771072 LnRSAI=   422943453
 LnScr1=   636903424 LExtra=    17918606 Total=   1494596076
 MaxDsk= 67108864000 SrtSym=           T ITran=            4
 DoSDTr:  NPSUse= 16
 JobTyp=1 Pass  1:  I=   1 to   9.
 (rs|ai) integrals will be sorted in core.
 Complete sort for first half transformation.
 First half transformation complete.
 Complete sort for second half transformation.
 Second half transformation complete.
 ModeAB=           4 MOrb=             8 LenV=   10733047797
 LASXX=     56573606 LTotXX=    56573606 LenRXX=   111007430
 LTotAB=    54433824 MaxLAS=   375949736 LenRXY=           0
 NonZer=   167581036 LenScr=   252357632 LnRSAI=   375949736
 LnScr1=   566136832 LExtra=   145978127 Total=   1451429757
 MaxDsk= 67108864000 SrtSym=           T ITran=            4
 DoSDTr:  NPSUse= 16
 JobTyp=2 Pass  1:  I=   1 to   8.
 (rs|ai) integrals will be sorted in core.
 Complete sort for first half transformation.
 First half transformation complete.
 Complete sort for second half transformation.
 Second half transformation complete.
 Spin components of T(2) and E(2):
     alpha-alpha T2 =       0.2978307907D-01 E2=     -0.9849361476D-01
     alpha-beta  T2 =       0.1264973503D+00 E2=     -0.5196487557D+00
     beta-beta   T2 =       0.2557425198D-01 E2=     -0.8956223522D-01
 ANorm=    0.1087214298D+01
 E2 =    -0.7079006705D+00 EUMP2 =    -0.62775974929557D+02
 (S**2,0)=  0.75000D+00           (S**2,1)=  0.75000D+00
 E(PUHF)=      -0.62068074259D+02        E(PMP2)=      -0.62775974930D+02
 Recovering and transforming amplitudes from chk file.
 B after Tr=     0.000000    0.000000    0.000000
         Rot=    1.000000    0.000000    0.000000    0.000000 Ang=   0.00 deg.
 Alpha occ  Sing. vals= 9.999995D-01 9.999994D-01 9.999994D-01 9.999986D-01 9.999970D-01 9.999964D-01 9.999790D-01 9.999708D-01 9.999708D-01
 Alpha occ  NOrbO=     9 NOrbN=     9 NSVal=     9 ThrEig=  0.900000.
 TrMax= 1.000000D+00 PrMax= 1.000000D+00 Trace(Pr)= 9.000000D+00
 B after Tr=     0.000000    0.000000    0.000000
         Rot=    1.000000    0.000000    0.000000    0.000000 Ang=   0.00 deg.
 Alpha virt Sing. vals= 1.000000D+00 1.000000D+00 1.000000D+00 1.000000D+00 1.000000D+00 1.000000D+00 1.000000D+00 1.000000D+00 1.000000D+00 1.000000D+00
 Alpha virt Sing. vals= 1.000000D+00 1.000000D+00 1.000000D+00 1.000000D+00 1.000000D+00 1.000000D+00 1.000000D+00 1.000000D+00 1.000000D+00 1.000000D+00
 Alpha virt Sing. vals= 1.000000D+00 1.000000D+00 1.000000D+00 1.000000D+00 1.000000D+00 1.000000D+00 1.000000D+00 1.000000D+00 1.000000D+00 1.000000D+00
 Alpha virt Sing. vals= 1.000000D+00 1.000000D+00 1.000000D+00 1.000000D+00 1.000000D+00 1.000000D+00 1.000000D+00 9.999999D-01 9.999999D-01 9.999999D-01
 Alpha virt Sing. vals= 9.999999D-01 9.999999D-01 9.999999D-01 9.999998D-01 9.999997D-01 9.999997D-01 9.999996D-01 9.999994D-01 9.999991D-01 9.999991D-01
 Alpha virt Sing. vals= 9.999991D-01 9.999991D-01 9.999990D-01 9.999990D-01 9.999989D-01 9.999977D-01 9.999975D-01 9.999975D-01 9.999973D-01 9.999970D-01
 Alpha virt Sing. vals= 9.999970D-01 9.999956D-01 9.999950D-01 9.999950D-01 9.999948D-01 9.999929D-01 9.999921D-01 9.999921D-01 9.999915D-01 9.999914D-01
 Alpha virt Sing. vals= 9.999914D-01 9.999905D-01 9.999905D-01 9.999885D-01 9.999878D-01 9.999869D-01 9.999869D-01 9.999864D-01 9.999841D-01 9.999841D-01
 Alpha virt Sing. vals= 9.999805D-01 9.999776D-01 9.999615D-01 9.999613D-01 9.999613D-01 9.999612D-01 9.999612D-01 9.999528D-01 9.999382D-01 9.999382D-01
 Alpha virt Sing. vals= 9.999337D-01 9.999280D-01 9.999221D-01 9.998962D-01 9.998895D-01 9.998895D-01 9.998838D-01 9.998838D-01 9.998388D-01 9.998210D-01
 Alpha virt Sing. vals= 9.998210D-01 9.998149D-01 9.997747D-01 9.997747D-01 9.997694D-01 9.997692D-01 9.997692D-01 9.997407D-01 9.997407D-01 9.997407D-01
 Alpha virt Sing. vals= 9.997151D-01 9.996383D-01 9.996383D-01 9.995990D-01 9.995818D-01 9.995461D-01 9.995422D-01 9.995422D-01 9.994878D-01 9.994878D-01
 Alpha virt Sing. vals= 9.993490D-01 9.992822D-01 9.992822D-01 9.992586D-01 9.992586D-01 9.992090D-01 9.991022D-01 9.991022D-01 9.990727D-01 9.990727D-01
 Alpha virt Sing. vals= 9.990426D-01 9.990426D-01 9.988060D-01 9.987865D-01 9.987865D-01 9.987805D-01 9.987753D-01 9.987753D-01 9.985042D-01 9.985042D-01
 Alpha virt Sing. vals= 9.984246D-01 9.983687D-01 9.983687D-01 9.982017D-01 9.982017D-01 9.981676D-01 9.980524D-01 9.980524D-01 9.979748D-01 9.979748D-01
 Alpha virt Sing. vals= 9.979113D-01 9.976451D-01 9.975171D-01 9.975171D-01 9.969428D-01 9.969428D-01 9.969090D-01 9.967025D-01 9.967025D-01 9.965029D-01
 Alpha virt Sing. vals= 9.959970D-01 9.954044D-01 9.949285D-01 9.949285D-01 9.948522D-01 9.948522D-01 9.947383D-01 9.947380D-01 9.947380D-01 9.946561D-01
 Alpha virt Sing. vals= 9.946561D-01 9.944547D-01 9.944547D-01 9.939993D-01 9.929080D-01 9.929080D-01 9.926659D-01 9.926659D-01 9.926017D-01 9.924043D-01
 Alpha virt Sing. vals= 9.924043D-01 9.916244D-01 9.916244D-01 9.909018D-01 9.892200D-01 9.892200D-01 9.886015D-01 9.849129D-01 9.849129D-01 9.847102D-01
 Alpha virt Sing. vals= 9.842160D-01 9.842160D-01 9.809651D-01 9.800687D-01 9.800643D-01 9.800643D-01 9.779397D-01 9.779397D-01 9.777295D-01 9.777295D-01
 Alpha virt Sing. vals= 9.775724D-01 9.775724D-01 9.771869D-01 9.771869D-01 9.767675D-01 9.767675D-01 9.766931D-01 9.766931D-01 9.747928D-01 9.732819D-01
 Alpha virt Sing. vals= 9.732819D-01 9.602219D-01 9.536079D-01 9.536079D-01 9.535190D-01 9.535190D-01 9.518420D-01 9.430291D-01 9.351497D-01 9.351497D-01
 Alpha virt Sing. vals= 9.350922D-01 9.339599D-01 9.339599D-01 9.338697D-01 9.338697D-01 9.324377D-01 9.324377D-01 9.307548D-01 9.187566D-01 9.187566D-01
 Alpha virt Sing. vals= 9.145918D-01 9.127023D-01 9.127023D-01 9.103435D-01 9.103435D-01 9.069474D-01 9.022615D-01 9.022615D-01 8.951737D-01 8.951737D-01
 Alpha virt Sing. vals= 8.931631D-01 8.902408D-01 8.902408D-01 8.851989D-01 8.851989D-01 8.850090D-01 8.850090D-01 8.483798D-01 5.375652D-01
 Alpha virt NOrbO=   249 NOrbN=   374 NSVal=   238 ThrEig=  0.900000.
 TrMax= 9.991122D-01 PrMax= 9.996092D-01 Trace(Pr)= 2.380000D+02
 B after Tr=     0.000000    0.000000    0.000000
         Rot=    1.000000    0.000000    0.000000    0.000000 Ang=   0.00 deg.
 Beta  occ  Sing. vals= 9.999995D-01 9.999994D-01 9.999994D-01 9.999986D-01 9.999966D-01 9.999790D-01 9.999708D-01 9.999708D-01
 Beta  occ  NOrbO=     8 NOrbN=     8 NSVal=     8 ThrEig=  0.900000.
 TrMax= 1.000000D+00 PrMax= 1.000000D+00 Trace(Pr)= 8.000000D+00
 B after Tr=     0.000000    0.000000    0.000000
         Rot=    1.000000    0.000000    0.000000    0.000000 Ang=   0.00 deg.
 Beta  virt Sing. vals= 1.000000D+00 1.000000D+00 1.000000D+00 1.000000D+00 1.000000D+00 1.000000D+00 1.000000D+00 1.000000D+00 1.000000D+00 1.000000D+00
 Beta  virt Sing. vals= 1.000000D+00 1.000000D+00 1.000000D+00 1.000000D+00 1.000000D+00 1.000000D+00 1.000000D+00 1.000000D+00 1.000000D+00 1.000000D+00
 Beta  virt Sing. vals= 1.000000D+00 1.000000D+00 1.000000D+00 1.000000D+00 1.000000D+00 1.000000D+00 1.000000D+00 1.000000D+00 1.000000D+00 1.000000D+00
 Beta  virt Sing. vals= 1.000000D+00 1.000000D+00 1.000000D+00 1.000000D+00 1.000000D+00 1.000000D+00 1.000000D+00 1.000000D+00 9.999999D-01 9.999999D-01
 Beta  virt Sing. vals= 9.999999D-01 9.999999D-01 9.999999D-01 9.999999D-01 9.999998D-01 9.999997D-01 9.999997D-01 9.999996D-01 9.999994D-01 9.999991D-01
 Beta  virt Sing. vals= 9.999991D-01 9.999991D-01 9.999990D-01 9.999990D-01 9.999990D-01 9.999989D-01 9.999977D-01 9.999975D-01 9.999975D-01 9.999973D-01
 Beta  virt Sing. vals= 9.999970D-01 9.999970D-01 9.999956D-01 9.999950D-01 9.999950D-01 9.999948D-01 9.999929D-01 9.999921D-01 9.999921D-01 9.999915D-01
 Beta  virt Sing. vals= 9.999914D-01 9.999914D-01 9.999905D-01 9.999905D-01 9.999885D-01 9.999878D-01 9.999869D-01 9.999869D-01 9.999864D-01 9.999841D-01
 Beta  virt Sing. vals= 9.999841D-01 9.999805D-01 9.999776D-01 9.999615D-01 9.999613D-01 9.999613D-01 9.999612D-01 9.999612D-01 9.999528D-01 9.999382D-01
 Beta  virt Sing. vals= 9.999382D-01 9.999336D-01 9.999280D-01 9.999221D-01 9.998962D-01 9.998895D-01 9.998895D-01 9.998838D-01 9.998838D-01 9.998388D-01
 Beta  virt Sing. vals= 9.998210D-01 9.998210D-01 9.998148D-01 9.997747D-01 9.997747D-01 9.997694D-01 9.997692D-01 9.997692D-01 9.997407D-01 9.997407D-01
 Beta  virt Sing. vals= 9.997407D-01 9.997149D-01 9.996383D-01 9.996383D-01 9.995990D-01 9.995818D-01 9.995461D-01 9.995422D-01 9.995422D-01 9.994878D-01
 Beta  virt Sing. vals= 9.994878D-01 9.993490D-01 9.992822D-01 9.992822D-01 9.992586D-01 9.992586D-01 9.992091D-01 9.991022D-01 9.991022D-01 9.990727D-01
 Beta  virt Sing. vals= 9.990727D-01 9.990426D-01 9.990426D-01 9.988060D-01 9.987865D-01 9.987865D-01 9.987805D-01 9.987753D-01 9.987753D-01 9.985042D-01
 Beta  virt Sing. vals= 9.985042D-01 9.984245D-01 9.983687D-01 9.983687D-01 9.982017D-01 9.982017D-01 9.981676D-01 9.980524D-01 9.980524D-01 9.979748D-01
 Beta  virt Sing. vals= 9.979748D-01 9.979112D-01 9.976450D-01 9.975171D-01 9.975171D-01 9.969428D-01 9.969428D-01 9.969090D-01 9.967025D-01 9.967025D-01
 Beta  virt Sing. vals= 9.965029D-01 9.959970D-01 9.954043D-01 9.949285D-01 9.949285D-01 9.948522D-01 9.948522D-01 9.947383D-01 9.947380D-01 9.947380D-01
 Beta  virt Sing. vals= 9.946561D-01 9.946561D-01 9.944547D-01 9.944547D-01 9.939992D-01 9.929080D-01 9.929080D-01 9.926659D-01 9.926659D-01 9.926017D-01
 Beta  virt Sing. vals= 9.924043D-01 9.924043D-01 9.916244D-01 9.916244D-01 9.909017D-01 9.892200D-01 9.892200D-01 9.886015D-01 9.849129D-01 9.849129D-01
 Beta  virt Sing. vals= 9.847102D-01 9.842160D-01 9.842160D-01 9.809648D-01 9.800687D-01 9.800643D-01 9.800643D-01 9.779397D-01 9.779397D-01 9.777295D-01
 Beta  virt Sing. vals= 9.777295D-01 9.775724D-01 9.775724D-01 9.771869D-01 9.771869D-01 9.767675D-01 9.767675D-01 9.766931D-01 9.766931D-01 9.747927D-01
 Beta  virt Sing. vals= 9.732819D-01 9.732819D-01 9.602217D-01 9.536079D-01 9.536079D-01 9.535190D-01 9.535190D-01 9.518420D-01 9.430291D-01 9.351497D-01
 Beta  virt Sing. vals= 9.351497D-01 9.350922D-01 9.339599D-01 9.339599D-01 9.338697D-01 9.338697D-01 9.324377D-01 9.324377D-01 9.307548D-01 9.187566D-01
 Beta  virt Sing. vals= 9.187566D-01 9.145917D-01 9.127023D-01 9.127023D-01 9.103435D-01 9.103435D-01 9.069473D-01 9.022615D-01 9.022615D-01 8.951737D-01
 Beta  virt Sing. vals= 8.951737D-01 8.931631D-01 8.902408D-01 8.902408D-01 8.851989D-01 8.851989D-01 8.850090D-01 8.850090D-01 8.483798D-01 5.375654D-01
 Beta  virt NOrbO=   250 NOrbN=   375 NSVal=   239 ThrEig=  0.900000.
 TrMax= 9.998839D-01 PrMax= 9.999623D-01 Trace(Pr)= 2.390000D+02
 Leave Link  804 at Tue Feb 27 13:22:36 2018, MaxMem= 10737418240 cpu:           12120.6 elap:             758.4
 (Enter /home1/apps/gaussian/16rA.03/g16/l913.exe)
 CIDS:  MDV= 10737418240.
 IFCWin=0 IBDFC=1 NFBD=     0     0 NFCmp=     0     0 NFFFC=     0     0
 Amplitudes recovered.
 Using DD4UQ or CC4UQ for all iterations.
 Keep R2 and R3 ints in memory in symmetry-blocked form, NReq=3425131966.
 FoFCou: FMM=F IPFlag=           8 FMFlag=           0 FMFlg1=           0
         NFxFlg=           0 DoJE=F BraDBF=F KetDBF=F FulRan=T
         wScrn=  0.000000 ICntrl=       600 IOpCl=  0 I1Cent=           0 NGrid=           0
         NMat0=    1 NMatS0=  73920 NMatT0=    0 NMatD0=    1 NMtDS0=    0 NMtDT0=    0
 Petite list used in FoFCou.
 CIDS: In Core Option IDoMem=           1.
 CCSD(T)
 =======
 Iterations= 150 Convergence= 0.100D-06
 Produce multiple copies of IABC intergrals
 Iteration Nr.   1
 **********************
 DD1Dir will call FoFMem   1 times, MxPair=       208
 NAB=    72 NAA=    36 NBB=    28.
 Maximum subspace dimension=  5
 A-vector RMS=  1.2647019D-04 Max=  1.0689531D-03 conv= 1.00D-05.
 RLE energy=       -0.6940319402
 DE(Corr)= -0.69383382     E(Corr)=     -62.761908082    
 NORM(A)=   0.10971601D+01
 Iteration Nr.   2
 **********************
 DD1Dir will call FoFMem   1 times, MxPair=       208
 NAB=    72 NAA=    36 NBB=    28.
 A-vector RMS=  7.4395596D-05 Max=  6.7336807D-04 conv= 1.00D-05.
 RLE energy=       -0.6939267191
 DE(Corr)= -0.69393705     E(CORR)=     -62.762011310     Delta=-1.03D-04
 NORM(A)=   0.10974915D+01
 Iteration Nr.   3
 **********************
 DD1Dir will call FoFMem   1 times, MxPair=       208
 NAB=    72 NAA=    36 NBB=    28.
 A-vector RMS=  3.9590881D-05 Max=  4.8245072D-04 conv= 1.00D-05.
 RLE energy=       -0.6943986664
 DE(Corr)= -0.69448022     E(CORR)=     -62.762554475     Delta=-5.43D-04
 NORM(A)=   0.10976055D+01
 Iteration Nr.   4
 **********************
 DD1Dir will call FoFMem   1 times, MxPair=       208
 NAB=    72 NAA=    36 NBB=    28.
 A-vector RMS=  3.1758643D-05 Max=  2.8219694D-04 conv= 1.00D-05.
 RLE energy=       -0.6942966084
 DE(Corr)= -0.69419251     E(CORR)=     -62.762266774     Delta= 2.88D-04
 NORM(A)=   0.10977244D+01
 Iteration Nr.   5
 **********************
 DD1Dir will call FoFMem   1 times, MxPair=       208
 NAB=    72 NAA=    36 NBB=    28.
 A-vector RMS=  8.4462159D-06 Max=  1.9722993D-04 conv= 1.00D-05.
 RLE energy=       -0.6943155764
 DE(Corr)= -0.69432751     E(CORR)=     -62.762401773     Delta=-1.35D-04
 NORM(A)=   0.10978047D+01
 Iteration Nr.   6
 **********************
 DD1Dir will call FoFMem   1 times, MxPair=       208
 NAB=    72 NAA=    36 NBB=    28.
 A-vector RMS=  5.5153206D-06 Max=  9.9695543D-05 conv= 1.00D-05.
 RLE energy=       -0.6943166428
 DE(Corr)= -0.69431295     E(CORR)=     -62.762387205     Delta= 1.46D-05
 NORM(A)=   0.10978588D+01
 Iteration Nr.   7
 **********************
 DD1Dir will call FoFMem   1 times, MxPair=       208
 NAB=    72 NAA=    36 NBB=    28.
 A-vector RMS=  2.0742412D-06 Max=  4.4556409D-05 conv= 1.00D-05.
 RLE energy=       -0.6943234606
 DE(Corr)= -0.69432257     E(CORR)=     -62.762396830     Delta=-9.63D-06
 NORM(A)=   0.10978753D+01
 Iteration Nr.   8
 **********************
 DD1Dir will call FoFMem   1 times, MxPair=       208
 NAB=    72 NAA=    36 NBB=    28.
 A-vector RMS=  9.8458843D-07 Max=  2.0440156D-05 conv= 1.00D-05.
 RLE energy=       -0.6943205019
 DE(Corr)= -0.69432103     E(CORR)=     -62.762395287     Delta= 1.54D-06
 NORM(A)=   0.10978812D+01
 Iteration Nr.   9
 **********************
 DD1Dir will call FoFMem   1 times, MxPair=       208
 NAB=    72 NAA=    36 NBB=    28.
 A-vector RMS=  5.1912526D-07 Max=  7.1037757D-06 conv= 1.00D-05.
 RLE energy=       -0.6943231389
 DE(Corr)= -0.69432313     E(CORR)=     -62.762397391     Delta=-2.10D-06
 NORM(A)=   0.10978835D+01
 Iteration Nr.  10
 **********************
 DD1Dir will call FoFMem   1 times, MxPair=       208
 NAB=    72 NAA=    36 NBB=    28.
 A-vector RMS=  2.2420616D-07 Max=  2.5222635D-06 conv= 1.00D-05.
 RLE energy=       -0.6943220477
 DE(Corr)= -0.69432192     E(CORR)=     -62.762396183     Delta= 1.21D-06
 NORM(A)=   0.10978842D+01
 Iteration Nr.  11
 **********************
 DD1Dir will call FoFMem   1 times, MxPair=       208
 NAB=    72 NAA=    36 NBB=    28.
 A-vector RMS=  1.6381084D-07 Max=  1.8429731D-06 conv= 1.00D-05.
 RLE energy=       -0.6943228181
 DE(Corr)= -0.69432296     E(CORR)=     -62.762397223     Delta=-1.04D-06
 NORM(A)=   0.10978842D+01
 Iteration Nr.  12
 **********************
 DD1Dir will call FoFMem   1 times, MxPair=       208
 NAB=    72 NAA=    36 NBB=    28.
 A-vector RMS=  8.6060121D-08 Max=  9.6182521D-07 conv= 1.00D-05.
 RLE energy=       -0.6943224275
 DE(Corr)= -0.69432226     E(CORR)=     -62.762396520     Delta= 7.02D-07
 NORM(A)=   0.10978844D+01
 Iteration Nr.  13
 **********************
 DD1Dir will call FoFMem   1 times, MxPair=       208
 NAB=    72 NAA=    36 NBB=    28.
 A-vector RMS=  3.5913150D-08 Max=  3.6734507D-07 conv= 1.00D-05.
 RLE energy=       -0.6943225992
 DE(Corr)= -0.69432266     E(CORR)=     -62.762396923     Delta=-4.03D-07
 NORM(A)=   0.10978844D+01
 Iteration Nr.  14
 **********************
 DD1Dir will call FoFMem   1 times, MxPair=       208
 NAB=    72 NAA=    36 NBB=    28.
 A-vector RMS=  1.9313261D-08 Max=  2.1609764D-07 conv= 1.00D-05.
 RLE energy=       -0.6943225561
 DE(Corr)= -0.69432253     E(CORR)=     -62.762396791     Delta= 1.32D-07
 NORM(A)=   0.10978845D+01
 Iteration Nr.  15
 **********************
 DD1Dir will call FoFMem   1 times, MxPair=       208
 NAB=    72 NAA=    36 NBB=    28.
 A-vector RMS=  1.0223488D-08 Max=  1.0416993D-07 conv= 1.00D-05.
 RLE energy=       -0.6943225744
 DE(Corr)= -0.69432257     E(CORR)=     -62.762396827     Delta=-3.62D-08
 NORM(A)=   0.10978845D+01
 CI/CC converged in   15 iterations to DelEn=-3.62D-08 Conv= 1.00D-07 ErrA1= 1.02D-08 Conv= 1.00D-05
 Wavefunction amplitudes converged. E(Corr)=     -62.762396827    
 Largest amplitude= 7.79D-02
 Time for triples=    43465.11 seconds.
 T4(CCSD)= -0.46232766D-01
 T5(CCSD)=  0.68145372D-02
 CCSD(T)= -0.62801815056D+02
 Discarding MO integrals.
 Leave Link  913 at Tue Feb 27 14:20:25 2018, MaxMem= 10737418240 cpu:           55453.2 elap:            3468.6
 (Enter /home1/apps/gaussian/16rA.03/g16/l601.exe)
 Copying SCF densities to generalized density rwf, IOpCl= 0 IROHF=1.

 **********************************************************************

            Population analysis using the SCF density.

 **********************************************************************

 Orbital symmetries:
       Occupied  (SG) (SG) (PI) (PI) (SG) (PI) (PI) (SG) (SG)
       Virtual   (PI) (PI) (SG) (SG) (DLTA) (DLTA) (PI) (PI) (SG)
                 (PI) (PI) (SG) (DLTA) (DLTA) (PI) (PI) (SG) (SG)
                 (PI) (PI) (SG) (PHI) (PHI) (DLTA) (DLTA) (DLTA)
                 (DLTA) (PI) (PI) (SG) (SG) (PI) (PI) (PI) (PI)
                 (DLTA) (DLTA) (SG) (PI) (PI) (SG) (SG) (DLTA)
                 (DLTA) (PI) (PI) (?A) (?A) (PHI) (PHI) (SG) (PI)
                 (PI) (PHI) (PHI) (DLTA) (DLTA) (SG) (SG) (PI)
                 (PI) (SG) (DLTA) (DLTA) (PI) (PI) (?B) (?B) (SG)
                 (DLTA) (DLTA) (PHI) (PHI) (PI) (PI) (?A) (?A)
                 (SG) (PI) (PI) (DLTA) (DLTA) (SG) (SG) (PI) (PI)
                 (SG) (PI) (PI) (?A) (?A) (PHI) (PHI) (DLTA) (DLTA)
                 (SG) (PI) (PI) (PHI) (PHI) (DLTA) (DLTA) (SG)
                 (PI) (PI) (DLTA) (DLTA) (PI) (PI) (SG) (PHI) (PHI)
                 (SG) (DLTA) (DLTA) (PI) (PI) (SG) (DLTA) (DLTA)
                 (SG) (SG) (PI) (PI) (PI) (PI) (SG) (?B) (?B) (?A)
                 (?A) (DLTA) (DLTA) (SG) (PHI) (PHI) (PI) (PI)
                 (PI) (PI) (DLTA) (DLTA) (SG) (PI) (PI) (PHI) (PHI)
                 (DLTA) (DLTA) (PI) (PI) (?A) (?A) (SG) (SG) (PHI)
                 (PHI) (DLTA) (DLTA) (?A) (?A) (SG) (PHI) (PHI)
                 (PI) (PI) (PHI) (PHI) (DLTA) (DLTA) (DLTA) (DLTA)
                 (SG) (SG) (PI) (PI) (PI) (PI) (SG) (DLTA) (DLTA)
                 (SG) (DLTA) (DLTA) (PI) (PI) (SG) (PI) (PI) (PI)
                 (PI) (SG) (SG) (PI) (PI) (PHI) (PHI) (DLTA) (DLTA)
                 (PI) (PI) (SG) (DLTA) (DLTA) (PI) (PI) (SG) (?A)
                 (?A) (SG) (PHI) (PHI) (PI) (PI) (SG) (DLTA) (DLTA)
                 (PI) (PI) (SG) (?B) (?B) (?A) (?A) (PHI) (PHI)
                 (DLTA) (DLTA) (PI) (PI) (?A) (?A) (PHI) (PHI)
                 (DLTA) (DLTA) (SG) (PHI) (PHI) (PI) (PI) (SG)
                 (DLTA) (DLTA) (DLTA) (DLTA) (SG) (PI) (PI) (PI)
                 (PI) (SG) (SG) (SG) (DLTA) (DLTA) (PI) (PI) (SG)
                 (PI) (PI) (SG) (PI) (PI) (SG) (SG) (DLTA) (DLTA)
                 (PI) (PI) (SG) (PI) (PI) (SG) (SG) (DLTA) (DLTA)
                 (PI) (PI) (SG) (SG) (PI) (PI) (SG) (DLTA) (DLTA)
                 (PI) (PI) (SG) (SG) (PI) (PI) (SG) (SG) (PI) (PI)
                 (SG) (PHI) (PHI) (DLTA) (DLTA) (PI) (PI) (SG)
                 (SG) (SG) (PI) (PI) (SG) (DLTA) (DLTA) (PI) (PI)
                 (SG) (PI) (PI) (SG) (DLTA) (DLTA) (PI) (PI) (SG)
                 (SG) (SG) (PI) (PI) (SG) (PI) (PI) (SG) (SG) (DLTA)
                 (DLTA) (PI) (PI) (SG) (SG) (PI) (PI) (SG) (SG)
                 (PI) (PI) (SG) (SG) (SG) (PI) (PI) (SG) (SG) (SG)
                 (PI) (PI) (SG) (SG) (SG) (PI) (PI) (SG) (SG) (PI)
                 (PI) (SG) (SG) (SG) (PI) (PI) (SG) (SG) (SG) (SG)
                 (SG) (SG) (SG)
 The electronic state is 2-SG.
 Alpha  occ. eigenvalues --   -2.66966  -1.66887  -1.60960  -1.60960  -1.12509
 Alpha  occ. eigenvalues --   -0.44066  -0.44066  -0.43809  -0.24109
 Alpha virt. eigenvalues --    0.00306   0.00306   0.01514   0.02096   0.02736
 Alpha virt. eigenvalues --    0.02736   0.03029   0.03029   0.03285   0.03397
 Alpha virt. eigenvalues --    0.03397   0.05165   0.07283   0.07283   0.09318
 Alpha virt. eigenvalues --    0.09318   0.09552   0.09800   0.11426   0.11426
 Alpha virt. eigenvalues --    0.11604   0.12489   0.12489   0.12714   0.12714
 Alpha virt. eigenvalues --    0.12821   0.12821   0.13134   0.13134   0.13726
 Alpha virt. eigenvalues --    0.21781   0.22429   0.22429   0.25718   0.25718
 Alpha virt. eigenvalues --    0.26900   0.26900   0.27555   0.29634   0.29634
 Alpha virt. eigenvalues --    0.30302   0.33202   0.33901   0.33901   0.34021
 Alpha virt. eigenvalues --    0.34021   0.35562   0.35562   0.36319   0.36319
 Alpha virt. eigenvalues --    0.36516   0.44076   0.44076   0.44337   0.44337
 Alpha virt. eigenvalues --    0.44479   0.44479   0.46192   0.56948   0.59417
 Alpha virt. eigenvalues --    0.59417   0.61434   0.61880   0.61880   0.62954
 Alpha virt. eigenvalues --    0.62954   0.72505   0.72505   0.72567   0.72604
 Alpha virt. eigenvalues --    0.72604   0.72859   0.72859   0.73363   0.73363
 Alpha virt. eigenvalues --    0.73659   0.73659   0.75792   0.78553   0.78553
 Alpha virt. eigenvalues --    0.79580   0.79580   0.88197   1.04943   1.16582
 Alpha virt. eigenvalues --    1.16582   1.22064   1.23544   1.23544   1.25934
 Alpha virt. eigenvalues --    1.25934   1.26364   1.26364   1.28354   1.28354
 Alpha virt. eigenvalues --    1.31160   1.38703   1.38703   1.39737   1.39737
 Alpha virt. eigenvalues --    1.40786   1.40786   1.45158   1.47003   1.47003
 Alpha virt. eigenvalues --    1.47215   1.47215   1.58887   1.58887   1.64685
 Alpha virt. eigenvalues --    1.74789   1.74789   1.78057   1.81644   1.81644
 Alpha virt. eigenvalues --    2.01071   2.01071   2.04871   2.16227   2.16227
 Alpha virt. eigenvalues --    2.33214   2.44824   2.54000   2.54000   2.79911
 Alpha virt. eigenvalues --    2.79911   2.84829   2.90527   2.90527   2.91045
 Alpha virt. eigenvalues --    2.91045   2.99513   2.99513   2.99826   2.99927
 Alpha virt. eigenvalues --    2.99927   3.01051   3.01051   3.15053   3.15053
 Alpha virt. eigenvalues --    3.15167   3.15167   3.33260   3.34509   3.34509
 Alpha virt. eigenvalues --    3.78452   3.78452   3.79335   3.79335   3.79758
 Alpha virt. eigenvalues --    3.79758   3.82701   3.82701   3.94439   3.99005
 Alpha virt. eigenvalues --    4.02923   4.02923   4.12813   4.12813   4.19777
 Alpha virt. eigenvalues --    4.19777   4.27022   4.35239   4.35239   4.35468
 Alpha virt. eigenvalues --    4.35468   4.46922   4.46922   4.48396   4.48396
 Alpha virt. eigenvalues --    4.61911   4.61911   4.62760   4.80909   4.82546
 Alpha virt. eigenvalues --    4.82546   5.36647   5.36647   5.42685   5.48765
 Alpha virt. eigenvalues --    5.48765   5.67384   5.74713   5.74713   5.79559
 Alpha virt. eigenvalues --    5.79559   5.88844   5.90639   5.90639   6.24225
 Alpha virt. eigenvalues --    6.24225   6.68229   6.94131   9.74794   9.74794
 Alpha virt. eigenvalues --    9.94986   9.94986  10.11048  10.11048  10.22007
 Alpha virt. eigenvalues --   10.22007  10.24094  10.26086  10.26086  10.44890
 Alpha virt. eigenvalues --   10.44890  10.45811  10.75666  10.75666  10.85630
 Alpha virt. eigenvalues --   10.90545  10.90545  10.94498  10.94498  11.05138
 Alpha virt. eigenvalues --   11.07941  11.07941  11.22888  11.22888  11.37775
 Alpha virt. eigenvalues --   11.41243  11.41243  11.42922  11.42922  11.47298
 Alpha virt. eigenvalues --   11.47298  11.51592  11.51592  11.68758  11.68758
 Alpha virt. eigenvalues --   11.80967  11.80967  11.82810  11.82810  11.91689
 Alpha virt. eigenvalues --   11.91689  11.98973  12.07745  12.07745  12.26808
 Alpha virt. eigenvalues --   12.26808  12.35604  12.38295  12.38295  12.88072
 Alpha virt. eigenvalues --   12.88072  12.91992  13.25600  13.25600  13.37752
 Alpha virt. eigenvalues --   13.37752  13.76878  13.90298  15.46635  17.67434
 Alpha virt. eigenvalues --   17.67434  17.74552  17.74552  17.97945  20.04343
 Alpha virt. eigenvalues --   20.04343  20.39046  28.25606  28.25606  28.29038
 Alpha virt. eigenvalues --   29.19193  31.04548  31.04548  31.09731  31.09731
 Alpha virt. eigenvalues --   31.32334  34.57927  34.57927  34.69054  34.91396
 Alpha virt. eigenvalues --   46.83040  46.83040  47.05790  47.05790  47.50068
 Alpha virt. eigenvalues --   54.60452  58.15502  58.15502  58.37337  62.86568
 Alpha virt. eigenvalues --   62.86568  62.90369  62.90369  63.09027  68.06520
 Alpha virt. eigenvalues --   69.68103  69.68103  70.57193  85.00319  98.20051
 Alpha virt. eigenvalues --   98.20051  98.40101 103.00637 103.00637 103.02124
 Alpha virt. eigenvalues --  103.02124 103.07114 103.07114 103.10723 121.45701
 Alpha virt. eigenvalues --  147.86775 154.45381 154.45381 155.20077 160.35354
 Alpha virt. eigenvalues --  160.35354 160.37981 160.37981 160.52058 171.42203
 Alpha virt. eigenvalues --  171.42203 171.61721 206.79227 206.79227 206.91771
 Alpha virt. eigenvalues --  206.91771 207.11685 209.91971 279.61484 313.28945
 Alpha virt. eigenvalues --  313.28945 313.47204 324.68459 324.68459 325.36208
 Alpha virt. eigenvalues --  357.91229 538.15179 538.15179 538.16790 538.16790
 Alpha virt. eigenvalues --  538.25633 546.39212 603.54348 603.54348 603.71550
 Alpha virt. eigenvalues --  612.06599 690.94148 690.94148 691.565401089.95750
 Alpha virt. eigenvalues -- 1111.975791241.059261241.059261241.216322262.29561
 Alpha virt. eigenvalues -- 2368.862782762.834402762.834402762.974105286.43147
 Alpha virt. eigenvalues -- 6140.973016800.745676800.745676800.86607**********
 Alpha virt. eigenvalues -- **************************************************
 Alpha virt. eigenvalues -- **************************************************
 Alpha virt. eigenvalues -- ****************************************
     Molecular Orbital Coefficients:
                           4         5         6         7         8
                           O         O         O         O         O
     Eigenvalues --    -1.60960  -1.12509  -0.44066  -0.44066  -0.43809
   1 1   Sc 1S          0.00000  -0.00000   0.00000   0.00000  -0.00000
   2        2S          0.00000  -0.00000   0.00000   0.00000  -0.00000
   3        3S          0.00000  -0.00000   0.00000   0.00000  -0.00000
   4        4S          0.00000  -0.00000   0.00000   0.00000  -0.00000
   5        5S          0.00000   0.00000   0.00000   0.00000   0.00000
   6        6S          0.00000  -0.00000   0.00000   0.00000  -0.00000
   7        7S          0.00000   0.00000   0.00000   0.00000   0.00000
   8        8S          0.00000  -0.00002   0.00000   0.00000  -0.00002
   9        9S          0.00000   0.00002   0.00000   0.00000   0.00002
  10       10S          0.00000  -0.00012   0.00000   0.00000  -0.00013
  11       11S          0.00000   0.00019   0.00000   0.00000   0.00022
  12       12S          0.00000  -0.00077   0.00000   0.00000  -0.00086
  13       13S          0.00000   0.00211   0.00000   0.00000   0.00234
  14       14S          0.00000  -0.01106   0.00000   0.00000  -0.01213
  15       15S          0.00000   0.01448   0.00000   0.00000   0.01724
  16       16S          0.00000   0.07782   0.00000   0.00000   0.07203
  17       17S          0.00000  -0.01760   0.00000   0.00000  -0.01965
  18       18S          0.00000  -0.12069   0.00000   0.00000  -0.13787
  19       19S          0.00000  -0.05020   0.00000   0.00000  -0.08401
  20       20S          0.00000  -0.02417   0.00000   0.00000  -0.02495
  21       21S          0.00000  -0.03087   0.00000   0.00000  -0.06328
  22       22S          0.00000   0.00598   0.00000   0.00000   0.02268
  23       23S          0.00000  -0.03226   0.00000   0.00000  -0.02099
  24       24S          0.00000  -0.00965   0.00000   0.00000  -0.01563
  25       25S          0.00000  -0.00060   0.00000   0.00000  -0.00215
  26       26PX         0.00000   0.00000   0.00000  -0.00000   0.00000
  27       26PY         0.00000   0.00000  -0.00000   0.00000   0.00000
  28       26PZ         0.00000   0.00000   0.00000   0.00000   0.00000
  29       27PX         0.00000   0.00000   0.00000  -0.00000   0.00000
  30       27PY         0.00000   0.00000  -0.00000   0.00000   0.00000
  31       27PZ         0.00000   0.00000   0.00000   0.00000   0.00000
  32       28PX         0.00000   0.00000   0.00000  -0.00000   0.00000
  33       28PY         0.00000   0.00000  -0.00000   0.00000   0.00000
  34       28PZ         0.00000   0.00000   0.00000   0.00000   0.00000
  35       29PX         0.00000   0.00000   0.00000  -0.00000   0.00000
  36       29PY         0.00001   0.00000  -0.00000   0.00000   0.00000
  37       29PZ         0.00000   0.00000   0.00000   0.00000   0.00000
  38       30PX         0.00000   0.00000   0.00000  -0.00000   0.00000
  39       30PY         0.00005   0.00000  -0.00000   0.00000   0.00000
  40       30PZ         0.00000   0.00002   0.00000   0.00000   0.00001
  41       31PX         0.00000   0.00000   0.00000  -0.00002   0.00000
  42       31PY         0.00014   0.00000  -0.00002   0.00000   0.00000
  43       31PZ         0.00000   0.00006   0.00000   0.00000   0.00003
  44       32PX         0.00000   0.00000   0.00000  -0.00003   0.00000
  45       32PY         0.00043   0.00000  -0.00003   0.00000   0.00000
  46       32PZ         0.00000   0.00017   0.00000   0.00000   0.00009
  47       33PX         0.00000   0.00000   0.00000  -0.00011   0.00000
  48       33PY         0.00033   0.00000  -0.00011   0.00000   0.00000
  49       33PZ         0.00000   0.00017   0.00000   0.00000   0.00009
  50       34PX         0.00000   0.00000   0.00000  -0.00129   0.00000
  51       34PY         0.01204   0.00000  -0.00129   0.00000   0.00000
  52       34PZ         0.00000   0.00480   0.00000   0.00000   0.00243
  53       35PX         0.00000   0.00000   0.00000   0.00746   0.00000
  54       35PY        -0.06458   0.00000   0.00746   0.00000   0.00000
  55       35PZ         0.00000  -0.02630   0.00000   0.00000  -0.01353
  56       36PX         0.00000   0.00000   0.00000   0.01585   0.00000
  57       36PY        -0.04894   0.00000   0.01585   0.00000   0.00000
  58       36PZ         0.00000  -0.02193   0.00000   0.00000  -0.01472
  59       37PX         0.00000   0.00000   0.00000  -0.01776   0.00000
  60       37PY         0.17660   0.00000  -0.01776   0.00000   0.00000
  61       37PZ         0.00000   0.07252   0.00000   0.00000   0.03259
  62       38PX         0.00000   0.00000   0.00000  -0.07259   0.00000
  63       38PY         0.40993   0.00000  -0.07259   0.00000   0.00000
  64       38PZ         0.00000   0.18244   0.00000   0.00000   0.12922
  65       39PX         0.00000   0.00000   0.00000  -0.06460   0.00000
  66       39PY         0.40056   0.00000  -0.06460   0.00000   0.00000
  67       39PZ         0.00000   0.16936   0.00000   0.00000   0.09974
  68       40PX         0.00000   0.00000   0.00000  -0.01737   0.00000
  69       40PY         0.15686   0.00000  -0.01737   0.00000   0.00000
  70       40PZ         0.00000   0.06790   0.00000   0.00000   0.03602
  71       41PX         0.00000   0.00000   0.00000  -0.00697   0.00000
  72       41PY         0.00934   0.00000  -0.00697   0.00000   0.00000
  73       41PZ         0.00000   0.02644   0.00000   0.00000   0.05396
  74       42PX         0.00000   0.00000   0.00000  -0.00366   0.00000
  75       42PY        -0.00242   0.00000  -0.00366   0.00000   0.00000
  76       42PZ         0.00000   0.01146   0.00000   0.00000   0.02272
  77       43PX         0.00000   0.00000   0.00000  -0.01259   0.00000
  78       43PY        -0.00014   0.00000  -0.01259   0.00000   0.00000
  79       43PZ         0.00000  -0.00264   0.00000   0.00000  -0.01446
  80       44PX         0.00000   0.00000   0.00000  -0.01310   0.00000
  81       44PY         0.00674   0.00000  -0.01310   0.00000   0.00000
  82       44PZ         0.00000   0.00591   0.00000   0.00000   0.00895
  83       45PX         0.00000   0.00000   0.00000   0.02166   0.00000
  84       45PY        -0.00911   0.00000   0.02166   0.00000   0.00000
  85       45PZ         0.00000  -0.01589   0.00000   0.00000  -0.04254
  86       46PX         0.00000   0.00000   0.00000   0.00268   0.00000
  87       46PY         0.00001   0.00000   0.00268   0.00000   0.00000
  88       46PZ         0.00000   0.00011   0.00000   0.00000   0.00151
  89       47D 0        0.00000   0.00003   0.00000   0.00000   0.00009
  90       47D+1        0.00000   0.00000   0.00000  -0.00005   0.00000
  91       47D-1       -0.00000   0.00000  -0.00005   0.00000   0.00000
  92       47D+2        0.00000   0.00000   0.00000   0.00000   0.00000
  93       47D-2        0.00000   0.00000   0.00000   0.00000   0.00000
  94       48D 0        0.00000   0.00031   0.00000   0.00000   0.00101
  95       48D+1        0.00000   0.00000   0.00000  -0.00060   0.00000
  96       48D-1       -0.00001   0.00000  -0.00060   0.00000   0.00000
  97       48D+2        0.00000  -0.00000   0.00000   0.00000  -0.00000
  98       48D-2        0.00000   0.00000   0.00000   0.00000   0.00000
  99       49D 0        0.00000   0.00261   0.00000   0.00000   0.00847
 100       49D+1        0.00000   0.00000   0.00000  -0.00496   0.00000
 101       49D-1       -0.00009   0.00000  -0.00496   0.00000   0.00000
 102       49D+2        0.00000   0.00000   0.00000   0.00000   0.00000
 103       49D-2        0.00000   0.00000   0.00000   0.00000   0.00000
 104       50D 0        0.00000   0.00852   0.00000   0.00000   0.02773
 105       50D+1        0.00000   0.00000   0.00000  -0.01652   0.00000
 106       50D-1       -0.00033   0.00000  -0.01652   0.00000   0.00000
 107       50D+2        0.00000  -0.00000   0.00000   0.00000  -0.00000
 108       50D-2        0.00000   0.00000   0.00000   0.00000   0.00000
 109       51D 0        0.00000   0.01867   0.00000   0.00000   0.06062
 110       51D+1        0.00000   0.00000   0.00000  -0.03401   0.00000
 111       51D-1       -0.00034   0.00000  -0.03401   0.00000   0.00000
 112       51D+2        0.00000   0.00000   0.00000   0.00000   0.00000
 113       51D-2        0.00000   0.00000   0.00000   0.00000   0.00000
 114       52D 0        0.00000   0.03081   0.00000   0.00000   0.09164
 115       52D+1        0.00000   0.00000   0.00000  -0.04947   0.00000
 116       52D-1        0.00200   0.00000  -0.04947   0.00000   0.00000
 117       52D+2        0.00000   0.00000   0.00000   0.00000   0.00000
 118       52D-2        0.00000   0.00000   0.00000   0.00000   0.00000
 119       53D 0        0.00000   0.04479   0.00000   0.00000   0.13125
 120       53D+1        0.00000   0.00000   0.00000  -0.07717   0.00000
 121       53D-1        0.00598   0.00000  -0.07717   0.00000   0.00000
 122       53D+2        0.00000   0.00000   0.00000   0.00000   0.00000
 123       53D-2        0.00000   0.00000   0.00000   0.00000   0.00000
 124       54D 0        0.00000   0.03400   0.00000   0.00000   0.13018
 125       54D+1        0.00000   0.00000   0.00000  -0.08771   0.00000
 126       54D-1        0.00596   0.00000  -0.08771   0.00000   0.00000
 127       54D+2        0.00000  -0.00000   0.00000   0.00000  -0.00000
 128       54D-2        0.00000   0.00000   0.00000   0.00000   0.00000
 129       55D 0        0.00000  -0.00080   0.00000   0.00000   0.04022
 130       55D+1        0.00000   0.00000   0.00000  -0.02034   0.00000
 131       55D-1        0.00345   0.00000  -0.02034   0.00000   0.00000
 132       55D+2        0.00000   0.00000   0.00000   0.00000  -0.00000
 133       55D-2        0.00000   0.00000   0.00000   0.00000   0.00000
 134       56D 0        0.00000  -0.00016   0.00000   0.00000   0.01180
 135       56D+1        0.00000   0.00000   0.00000  -0.00002   0.00000
 136       56D-1        0.00163   0.00000  -0.00002   0.00000   0.00000
 137       56D+2        0.00000   0.00000   0.00000   0.00000   0.00000
 138       56D-2        0.00000   0.00000   0.00000   0.00000   0.00000
 139       57D 0        0.00000   0.00147   0.00000   0.00000   0.00819
 140       57D+1        0.00000   0.00000   0.00000   0.00877   0.00000
 141       57D-1        0.00022   0.00000   0.00877   0.00000   0.00000
 142       57D+2        0.00000  -0.00000   0.00000   0.00000  -0.00000
 143       57D-2        0.00000   0.00000   0.00000   0.00000   0.00000
 144       58D 0        0.00000   0.00055   0.00000   0.00000   0.00636
 145       58D+1        0.00000   0.00000   0.00000  -0.00798   0.00000
 146       58D-1       -0.00282   0.00000  -0.00798   0.00000   0.00000
 147       58D+2        0.00000  -0.00000   0.00000   0.00000  -0.00000
 148       58D-2        0.00000   0.00000   0.00000   0.00000   0.00000
 149       59D 0        0.00000   0.00247   0.00000   0.00000   0.01690
 150       59D+1        0.00000   0.00000   0.00000  -0.01306   0.00000
 151       59D-1       -0.00499   0.00000  -0.01306   0.00000   0.00000
 152       59D+2        0.00000  -0.00000   0.00000   0.00000  -0.00000
 153       59D-2        0.00000   0.00000   0.00000   0.00000   0.00000
 154       60D 0        0.00000  -0.00018   0.00000   0.00000  -0.00134
 155       60D+1        0.00000   0.00000   0.00000  -0.00206   0.00000
 156       60D-1       -0.00004   0.00000  -0.00206   0.00000   0.00000
 157       60D+2        0.00000   0.00000   0.00000   0.00000   0.00000
 158       60D-2        0.00000   0.00000   0.00000   0.00000   0.00000
 159       61F 0        0.00000  -0.00137   0.00000   0.00000  -0.00245
 160       61F+1        0.00000   0.00000   0.00000   0.00192   0.00000
 161       61F-1       -0.00069   0.00000   0.00192   0.00000   0.00000
 162       61F+2        0.00000  -0.00000   0.00000   0.00000  -0.00000
 163       61F-2        0.00000   0.00000   0.00000   0.00000   0.00000
 164       61F+3        0.00000   0.00000   0.00000   0.00000   0.00000
 165       61F-3       -0.00000   0.00000   0.00000   0.00000   0.00000
 166       62F 0        0.00000  -0.00657   0.00000   0.00000  -0.01166
 167       62F+1        0.00000   0.00000   0.00000   0.00847   0.00000
 168       62F-1       -0.00290   0.00000   0.00847   0.00000   0.00000
 169       62F+2        0.00000   0.00000   0.00000   0.00000   0.00000
 170       62F-2        0.00000   0.00000   0.00000   0.00000   0.00000
 171       62F+3        0.00000   0.00000   0.00000  -0.00000   0.00000
 172       62F-3       -0.00000   0.00000  -0.00000   0.00000   0.00000
 173       63F 0        0.00000  -0.00759   0.00000   0.00000  -0.01594
 174       63F+1        0.00000   0.00000   0.00000   0.01535   0.00000
 175       63F-1       -0.00414   0.00000   0.01535   0.00000   0.00000
 176       63F+2        0.00000  -0.00000   0.00000   0.00000  -0.00000
 177       63F-2        0.00000   0.00000   0.00000   0.00000   0.00000
 178       63F+3        0.00000   0.00000   0.00000  -0.00000   0.00000
 179       63F-3        0.00000   0.00000  -0.00000   0.00000   0.00000
 180       64F 0        0.00000  -0.00059   0.00000   0.00000  -0.00735
 181       64F+1        0.00000   0.00000   0.00000  -0.00556   0.00000
 182       64F-1       -0.00170   0.00000  -0.00556   0.00000   0.00000
 183       64F+2        0.00000  -0.00000   0.00000   0.00000   0.00000
 184       64F-2        0.00000   0.00000   0.00000   0.00000   0.00000
 185       64F+3        0.00000   0.00000   0.00000   0.00000   0.00000
 186       64F-3       -0.00000   0.00000   0.00000   0.00000   0.00000
 187       65F 0        0.00000  -0.00104   0.00000   0.00000  -0.00504
 188       65F+1        0.00000   0.00000   0.00000  -0.00403   0.00000
 189       65F-1       -0.00028   0.00000  -0.00403   0.00000   0.00000
 190       65F+2        0.00000  -0.00000   0.00000   0.00000   0.00000
 191       65F-2        0.00000   0.00000   0.00000   0.00000   0.00000
 192       65F+3        0.00000   0.00000   0.00000   0.00000   0.00000
 193       65F-3        0.00000   0.00000   0.00000   0.00000   0.00000
 194       66G 0        0.00000   0.00020   0.00000   0.00000   0.00022
 195       66G+1        0.00000   0.00000   0.00000  -0.00020   0.00000
 196       66G-1       -0.00012   0.00000  -0.00020   0.00000   0.00000
 197       66G+2        0.00000   0.00000   0.00000   0.00000   0.00000
 198       66G-2        0.00000   0.00000   0.00000   0.00000   0.00000
 199       66G+3        0.00000   0.00000   0.00000   0.00000   0.00000
 200       66G-3        0.00000   0.00000   0.00000   0.00000   0.00000
 201       66G+4        0.00000   0.00000   0.00000   0.00000   0.00000
 202       66G-4        0.00000   0.00000   0.00000   0.00000   0.00000
 203       67G 0        0.00000   0.00107   0.00000   0.00000   0.00321
 204       67G+1        0.00000   0.00000   0.00000  -0.00253   0.00000
 205       67G-1       -0.00007   0.00000  -0.00253   0.00000   0.00000
 206       67G+2        0.00000  -0.00000   0.00000   0.00000  -0.00000
 207       67G-2        0.00000   0.00000   0.00000   0.00000   0.00000
 208       67G+3        0.00000   0.00000   0.00000   0.00000   0.00000
 209       67G-3        0.00000   0.00000   0.00000   0.00000   0.00000
 210       67G+4        0.00000  -0.00000   0.00000   0.00000  -0.00000
 211       67G-4        0.00000   0.00000   0.00000   0.00000   0.00000
 212       68G 0        0.00000   0.00052   0.00000   0.00000   0.00077
[...]
 163       61F-2       -0.00000  -0.00000  -0.00000  -0.00000
 164       61F+3       -0.00000  -0.00000  -0.00000   0.00000
 165       61F-3        0.00000   0.00000   0.00000   0.00000
 166       62F 0        0.00344   0.00173   0.00172   0.00001
 167       62F+1        0.00152   0.00076   0.00076   0.00000
 168       62F-1        0.00152   0.00076   0.00076   0.00000
 169       62F+2        0.00000   0.00000   0.00000  -0.00000
 170       62F-2        0.00000   0.00000   0.00000   0.00000
 171       62F+3       -0.00000  -0.00000  -0.00000   0.00000
 172       62F-3       -0.00000  -0.00000  -0.00000   0.00000
 173       63F 0        0.00809   0.00403   0.00406  -0.00004
 174       63F+1        0.00933   0.00466   0.00466   0.00000
 175       63F-1        0.00933   0.00466   0.00466   0.00000
 176       63F+2       -0.00000  -0.00000  -0.00000  -0.00000
 177       63F-2       -0.00000  -0.00000  -0.00000   0.00000
 178       63F+3        0.00000   0.00000  -0.00000   0.00000
 179       63F-3       -0.00000  -0.00000  -0.00000  -0.00000
 180       64F 0       -0.00310  -0.00156  -0.00153  -0.00003
 181       64F+1       -0.00376  -0.00188  -0.00188   0.00000
 182       64F-1       -0.00376  -0.00188  -0.00188   0.00000
 183       64F+2        0.00000   0.00000   0.00000  -0.00000
 184       64F-2        0.00000   0.00000   0.00000  -0.00000
 185       64F+3       -0.00000  -0.00000  -0.00000   0.00000
 186       64F-3       -0.00000  -0.00000  -0.00000  -0.00000
 187       65F 0       -0.00080  -0.00040  -0.00040   0.00000
 188       65F+1       -0.00068  -0.00034  -0.00034   0.00000
 189       65F-1       -0.00068  -0.00034  -0.00034   0.00000
 190       65F+2        0.00000   0.00000   0.00000   0.00000
 191       65F-2        0.00000   0.00000   0.00000   0.00000
 192       65F+3        0.00000   0.00000   0.00000  -0.00000
 193       65F-3        0.00000   0.00000   0.00000  -0.00000
 194       66G 0        0.00001   0.00001   0.00001   0.00000
 195       66G+1        0.00000   0.00000   0.00000   0.00000
 196       66G-1        0.00000   0.00000   0.00000   0.00000
 197       66G+2       -0.00000  -0.00000  -0.00000  -0.00000
 198       66G-2       -0.00000  -0.00000  -0.00000  -0.00000
 199       66G+3        0.00000   0.00000   0.00000   0.00000
 200       66G-3        0.00000   0.00000   0.00000   0.00000
 201       66G+4        0.00000   0.00000   0.00000  -0.00000
 202       66G-4        0.00000   0.00000   0.00000  -0.00000
 203       67G 0        0.00078   0.00039   0.00039  -0.00000
 204       67G+1        0.00046   0.00023   0.00023  -0.00000
 205       67G-1        0.00046   0.00023   0.00023   0.00000
 206       67G+2        0.00000   0.00000   0.00000  -0.00000
 207       67G-2        0.00000   0.00000   0.00000  -0.00000
 208       67G+3        0.00000   0.00000   0.00000  -0.00000
 209       67G-3        0.00000   0.00000   0.00000  -0.00000
 210       67G+4        0.00000   0.00000   0.00000  -0.00000
 211       67G-4        0.00000   0.00000   0.00000   0.00000
 212       68G 0        0.00016   0.00008   0.00008   0.00001
 213       68G+1        0.00030   0.00015   0.00015   0.00000
 214       68G-1        0.00030   0.00015   0.00015   0.00000
 215       68G+2       -0.00000  -0.00000  -0.00000  -0.00000
 216       68G-2       -0.00000  -0.00000  -0.00000  -0.00000
 217       68G+3        0.00000   0.00000   0.00000   0.00000
 218       68G-3        0.00000   0.00000  -0.00000   0.00000
 219       68G+4        0.00000   0.00000  -0.00000   0.00000
 220       68G-4        0.00000   0.00000  -0.00000   0.00000
 221       69G 0       -0.00081  -0.00040  -0.00041   0.00001
 222       69G+1       -0.00070  -0.00035  -0.00035   0.00000
 223       69G-1       -0.00070  -0.00035  -0.00035   0.00000
 224       69G+2        0.00000   0.00000   0.00000  -0.00000
 225       69G-2        0.00000   0.00000   0.00000  -0.00000
 226       69G+3        0.00000   0.00000   0.00000   0.00000
 227       69G-3        0.00000   0.00000   0.00000   0.00000
 228       69G+4       -0.00000  -0.00000  -0.00000   0.00000
 229       69G-4       -0.00000   0.00000  -0.00000   0.00000
 230       70H 0        0.00003   0.00001   0.00001   0.00000
 231       70H+1        0.00001   0.00001   0.00001   0.00000
 232       70H-1        0.00001   0.00001   0.00001  -0.00000
 233       70H+2       -0.00000  -0.00000  -0.00000   0.00000
 234       70H-2       -0.00000  -0.00000  -0.00000   0.00000
 235       70H+3       -0.00000  -0.00000  -0.00000   0.00000
 236       70H-3        0.00000  -0.00000   0.00000  -0.00000
 237       70H+4        0.00000   0.00000   0.00000   0.00000
 238       70H-4        0.00000   0.00000   0.00000  -0.00000
 239       70H+5        0.00000   0.00000   0.00000  -0.00000
 240       70H-5        0.00000   0.00000  -0.00000   0.00000
 241       71H 0        0.00013   0.00007   0.00006   0.00000
 242       71H+1        0.00010   0.00005   0.00005   0.00000
 243       71H-1        0.00010   0.00005   0.00005   0.00000
 244       71H+2        0.00000   0.00000   0.00000   0.00000
 245       71H-2        0.00000   0.00000   0.00000   0.00000
 246       71H+3        0.00000   0.00000   0.00000  -0.00000
 247       71H-3        0.00000  -0.00000   0.00000  -0.00000
 248       71H+4        0.00000   0.00000   0.00000  -0.00000
 249       71H-4        0.00000   0.00000   0.00000  -0.00000
 250       71H+5        0.00000   0.00000   0.00000  -0.00000
 251       71H-5        0.00000   0.00000   0.00000   0.00000
 252       72H 0       -0.00008  -0.00004  -0.00004   0.00000
 253       72H+1        0.00028   0.00014   0.00014   0.00000
 254       72H-1        0.00028   0.00014   0.00014   0.00000
 255       72H+2       -0.00000  -0.00000  -0.00000  -0.00000
 256       72H-2       -0.00000  -0.00000  -0.00000  -0.00000
 257       72H+3        0.00000  -0.00000   0.00000  -0.00000
 258       72H-3        0.00000   0.00000   0.00000   0.00000
 259       72H+4       -0.00000  -0.00000  -0.00000  -0.00000
 260       72H-4       -0.00000  -0.00000  -0.00000  -0.00000
 261       72H+5        0.00000   0.00000   0.00000  -0.00000
 262       72H-5        0.00000   0.00000   0.00000   0.00000
 263 2   O  1S         -0.00000  -0.00000  -0.00000  -0.00000
 264        2S          0.00000   0.00000   0.00000   0.00000
 265        3S         -0.00000  -0.00000  -0.00000  -0.00000
 266        4S          0.00000   0.00000   0.00000   0.00000
 267        5S         -0.00000  -0.00000  -0.00000  -0.00000
 268        6S         -0.00008  -0.00004  -0.00004  -0.00000
 269        7S         -0.00073  -0.00036  -0.00036  -0.00000
 270        8S         -0.09232  -0.04624  -0.04607  -0.00017
 271        9S         -0.07587  -0.03800  -0.03787  -0.00014
 272       10S          0.42877   0.21474   0.21403   0.00071
 273       11S          1.05714   0.52904   0.52810   0.00093
 274       12S          0.59561   0.29737   0.29823  -0.00086
 275       13S          0.05597   0.02804   0.02794   0.00010
 276       14S          0.00043   0.00022   0.00021   0.00000
 277       15S          0.00003   0.00002   0.00002   0.00000
 278       16S          0.09281   0.05323   0.03958   0.01365
 279       17PX        -0.00015  -0.00007  -0.00007   0.00000
 280       17PY        -0.00015  -0.00007  -0.00007   0.00000
 281       17PZ        -0.00018  -0.00009  -0.00009  -0.00000
 282       18PX        -0.10810  -0.05405  -0.05405   0.00000
 283       18PY        -0.10810  -0.05405  -0.05405  -0.00000
 284       18PZ        -0.12805  -0.06404  -0.06401  -0.00003
 285       19PX         0.12687   0.06344   0.06344   0.00000
 286       19PY         0.12687   0.06344   0.06344   0.00000
 287       19PZ         0.13910   0.06957   0.06953   0.00004
 288       20PX         0.43408   0.21704   0.21704   0.00000
 289       20PY         0.43408   0.21704   0.21704   0.00000
 290       20PZ         0.47690   0.23850   0.23840   0.00010
 291       21PX         0.66903   0.33451   0.33451   0.00000
 292       21PY         0.66903   0.33451   0.33451   0.00000
 293       21PZ         0.65755   0.32873   0.32882  -0.00009
 294       22PX         0.46674   0.23337   0.23337   0.00000
 295       22PY         0.46674   0.23337   0.23337   0.00000
 296       22PZ         0.28956   0.14397   0.14558  -0.00161
 297       23PX         0.12435   0.06217   0.06217  -0.00000
 298       23PY         0.12435   0.06217   0.06217  -0.00000
 299       23PZ         0.14614   0.07309   0.07305   0.00003
 300       24PX         0.00057   0.00029   0.00029   0.00000
 301       24PY         0.00057   0.00029   0.00029   0.00000
 302       24PZ         0.00067   0.00034   0.00034   0.00000
 303       25PX         0.00001   0.00000   0.00000   0.00000
 304       25PY         0.00001   0.00000   0.00000   0.00000
 305       25PZ         0.00001   0.00000   0.00000   0.00000
 306       26PX         0.05510   0.02755   0.02755   0.00000
 307       26PY         0.05510   0.02755   0.02755   0.00000
 308       26PZ         0.03509   0.01621   0.01888  -0.00267
 309       27D 0        0.00010   0.00005   0.00005   0.00000
 310       27D+1        0.00007   0.00003   0.00003   0.00000
 311       27D-1        0.00007   0.00003   0.00003   0.00000
 312       27D+2        0.00000   0.00000   0.00000  -0.00000
 313       27D-2        0.00000   0.00000   0.00000  -0.00000
 314       28D 0        0.00259   0.00131   0.00128   0.00003
 315       28D+1        0.00135   0.00068   0.00068   0.00000
 316       28D-1        0.00135   0.00068   0.00068   0.00000
 317       28D+2        0.00000   0.00000   0.00000  -0.00000
 318       28D-2        0.00000   0.00000   0.00000   0.00000
 319       29D 0        0.00604   0.00315   0.00289   0.00026
 320       29D+1        0.00982   0.00491   0.00491   0.00000
 321       29D-1        0.00982   0.00491   0.00491   0.00000
 322       29D+2        0.00000   0.00000   0.00000  -0.00000
 323       29D-2        0.00000   0.00000   0.00000   0.00000
 324       30D 0        0.00000   0.00000   0.00000   0.00000
 325       30D+1        0.00000   0.00000   0.00000   0.00000
 326       30D-1        0.00000   0.00000   0.00000   0.00000
 327       30D+2        0.00000   0.00000   0.00000  -0.00000
 328       30D-2        0.00000   0.00000   0.00000  -0.00000
 329       31D 0       -0.00000  -0.00000  -0.00000  -0.00000
 330       31D+1       -0.00000  -0.00000  -0.00000   0.00000
 331       31D-1       -0.00000  -0.00000  -0.00000   0.00000
 332       31D+2       -0.00000  -0.00000  -0.00000  -0.00000
 333       31D-2       -0.00000  -0.00000  -0.00000   0.00000
 334       32D 0       -0.00360  -0.00198  -0.00162  -0.00036
 335       32D+1        0.00658   0.00329   0.00329   0.00000
 336       32D-1        0.00658   0.00329   0.00329   0.00000
 337       32D+2       -0.00000  -0.00000  -0.00000  -0.00000
 338       32D-2       -0.00000  -0.00000  -0.00000  -0.00000
 339       33F 0        0.00004   0.00002   0.00002   0.00000
 340       33F+1        0.00001   0.00000   0.00000   0.00000
 341       33F-1        0.00001   0.00000   0.00000   0.00000
 342       33F+2       -0.00000  -0.00000  -0.00000   0.00000
 343       33F-2       -0.00000  -0.00000  -0.00000   0.00000
 344       33F+3        0.00000   0.00000   0.00000  -0.00000
 345       33F-3       -0.00000  -0.00000  -0.00000   0.00000
 346       34F 0        0.00136   0.00070   0.00066   0.00005
 347       34F+1        0.00084   0.00042   0.00042   0.00000
 348       34F-1        0.00084   0.00042   0.00042   0.00000
 349       34F+2        0.00000   0.00000   0.00000   0.00000
 350       34F-2        0.00000   0.00000   0.00000  -0.00000
 351       34F+3        0.00000   0.00000  -0.00000   0.00000
 352       34F-3        0.00000   0.00000   0.00000   0.00000
 353       35F 0        0.00000   0.00000   0.00000   0.00000
 354       35F+1        0.00000   0.00000   0.00000   0.00000
 355       35F-1        0.00000   0.00000   0.00000  -0.00000
 356       35F+2        0.00000   0.00000   0.00000   0.00000
 357       35F-2        0.00000   0.00000   0.00000   0.00000
 358       35F+3        0.00000   0.00000   0.00000  -0.00000
 359       35F-3       -0.00000  -0.00000   0.00000  -0.00000
 360       36F 0        0.00018   0.00023  -0.00005   0.00028
 361       36F+1        0.00110   0.00055   0.00055   0.00000
 362       36F-1        0.00110   0.00055   0.00055   0.00000
 363       36F+2        0.00000   0.00000   0.00000  -0.00000
 364       36F-2        0.00000   0.00000   0.00000  -0.00000
 365       36F+3        0.00000   0.00000   0.00000   0.00000
 366       36F-3       -0.00000  -0.00000  -0.00000   0.00000
 367       37G 0        0.00004   0.00002   0.00002   0.00000
 368       37G+1        0.00002   0.00001   0.00001   0.00000
 369       37G-1        0.00002   0.00001   0.00001   0.00000
 370       37G+2        0.00000   0.00000   0.00000  -0.00000
 371       37G-2        0.00000   0.00000   0.00000   0.00000
 372       37G+3       -0.00000  -0.00000  -0.00000  -0.00000
 373       37G-3        0.00000   0.00000   0.00000  -0.00000
 374       37G+4        0.00000   0.00000   0.00000   0.00000
 375       37G-4        0.00000   0.00000   0.00000  -0.00000
 376       38G 0        0.00032   0.00017   0.00015   0.00002
 377       38G+1        0.00028   0.00014   0.00014   0.00000
 378       38G-1        0.00028   0.00014   0.00014   0.00000
 379       38G+2        0.00000   0.00000   0.00000   0.00000
 380       38G-2        0.00000   0.00000   0.00000   0.00000
 381       38G+3        0.00000   0.00000   0.00000  -0.00000
 382       38G-3       -0.00000  -0.00000  -0.00000   0.00000
 383       38G+4        0.00000   0.00000   0.00000  -0.00000
 384       38G-4        0.00000   0.00000   0.00000  -0.00000
          Condensed to atoms (all electrons):
               1          2
     1  Sc   9.813541  -0.076290
     2  O   -0.076290   7.339040
          Atomic-Atomic Spin Densities.
               1          2
     1  Sc   0.982644   0.007061
     2  O    0.007061   0.003235
 Mulliken charges and spin densities:
               1          2
     1  Sc   1.262750   0.989705
     2  O   -1.262750   0.010295
 Sum of Mulliken charges =  -0.00000   1.00000
 Mulliken charges and spin densities with hydrogens summed into heavy atoms:
               1          2
     1  Sc   1.262750   0.989705
     2  O   -1.262750   0.010295
 Electronic spatial extent (au):  <R**2>=             92.3367
 Charge=             -0.0000 electrons
 Dipole moment (field-independent basis, Debye):
    X=              0.0000    Y=              0.0000    Z=              3.9364  Tot=              3.9364
 Quadrupole moment (field-independent basis, Debye-Ang):
   XX=            -21.8151   YY=            -21.8151   ZZ=            -31.5857
   XY=              0.0000   XZ=              0.0000   YZ=              0.0000
 Traceless Quadrupole moment (field-independent basis, Debye-Ang):
   XX=              3.2569   YY=              3.2569   ZZ=             -6.5138
   XY=              0.0000   XZ=              0.0000   YZ=              0.0000
 Octapole moment (field-independent basis, Debye-Ang**2):
  XXX=              0.0000  YYY=              0.0000  ZZZ=            -10.3910  XYY=              0.0000
  XXY=              0.0000  XXZ=             -3.4525  XZZ=              0.0000  YZZ=              0.0000
  YYZ=             -3.4525  XYZ=              0.0000
 Hexadecapole moment (field-independent basis, Debye-Ang**3):
 XXXX=            -47.2460 YYYY=            -47.2460 ZZZZ=           -168.9506 XXXY=              0.0000
 XXXZ=              0.0000 YYYX=              0.0000 YYYZ=              0.0000 ZZZX=              0.0000
 ZZZY=              0.0000 XXYY=            -15.7487 XXZZ=            -35.2204 YYZZ=            -35.2204
 XXYZ=              0.0000 YYXZ=              0.0000 ZZXY=              0.0000
 N-N= 2.182855995045D+01 E-N=-1.783262544415D+02  KE= 3.074214555125D+01
 Symmetry A1   KE= 1.424543740148D+01
 Symmetry A2   KE= 1.879186093997D-49
 Symmetry B1   KE= 8.248354074897D+00
 Symmetry B2   KE= 8.248354075067D+00
 Symmetry A1   SP= 1.000000000000D+00
 Symmetry A2   SP=-4.251427087325D-50
 Symmetry B1   SP=-1.790678091868D-17
 Symmetry B2   SP= 5.616904258554D-17
 Orbital energies and kinetic energies (alpha):
                                 1                 2
   4         O                -1.609597          2.112557
   5         O                -1.125087          1.241399
   6         O                -0.440661          2.011620
   7         O                -0.440661          2.011620
   8         O                -0.438089          2.570022
   9         O                -0.241085          0.315887
  10         V                 0.003062          0.076269
  11         V                 0.003062          0.076269
  12         V                 0.015137          0.043795
  13         V                 0.020963          0.031650
  14         V                 0.027359          0.032888
 Total kinetic energy from orbitals= 3.105803234946D+01
                          Isotropic Fermi Contact Couplings
        Atom                 a.u.       MegaHertz       Gauss      10(-4) cm-1
     1  Sc(45)             0.00058       0.63395       0.22621       0.21146
     2  O(17)              0.00005      -0.02739      -0.00977      -0.00914
 --------------------------------------------------------
       Center         ----  Spin Dipole Couplings  ----
                      3XX-RR        3YY-RR        3ZZ-RR
 --------------------------------------------------------
     1   Atom       -0.043795     -0.043795      0.087590
     2   Atom       -0.004887     -0.004887      0.009773
 --------------------------------------------------------
                        XY            XZ            YZ
 --------------------------------------------------------
     1   Atom        0.000000      0.000000      0.000000
     2   Atom        0.000000      0.000000      0.000000
 --------------------------------------------------------


 ---------------------------------------------------------------------------------
              Anisotropic Spin Dipole Couplings in Principal Axis System
 ---------------------------------------------------------------------------------

       Atom             a.u.   MegaHertz   Gauss  10(-4) cm-1        Axes

              Baa    -0.0438    -5.685    -2.029    -1.896 -0.0000  1.0000  0.0000
     1 Sc(45) Bbb    -0.0438    -5.685    -2.029    -1.896  1.0000  0.0000  0.0000
              Bcc     0.0876    11.370     4.057     3.793  0.0000  0.0000  1.0000
 
              Baa    -0.0049     0.354     0.126     0.118  1.0000  0.0000  0.0000
     2 O(17)  Bbb    -0.0049     0.354     0.126     0.118 -0.0000  1.0000  0.0000
              Bcc     0.0098    -0.707    -0.252    -0.236  0.0000  0.0000  1.0000
 

 ---------------------------------------------------------------------------------

 No NMR shielding tensors so no spin-rotation constants.
 Leave Link  601 at Tue Feb 27 14:20:33 2018, MaxMem= 10737418240 cpu:             115.6 elap:               7.5
 (Enter /home1/apps/gaussian/16rA.03/g16/l9999.exe)
 1\1\GINC-C465-131\SP\ROCCSD(T)-Full\Gen\O1Sc1(2)\AANNABE\27-Feb-2018\0
 \\#P ROCCSD(T)=(maxcyc=150, Full, SaveAmplitudes, ReadAmplitudes)/Gen 
 5d 7f SCF=(maxcycles=300) Integral(NoXCTest) MaxDisk=500GB Pop=Regular
  Pseudo=Read Guess=Read\\ScO\\0,2\Sc,0,0.,0.,0.\O,0,0.,0.,1.6\\Version
 =ES64L-G16RevA.03\State=2-SG\HF=-62.0680743\MP2=-62.7759749\PUHF=-62.0
 680743\PMP2-0=-62.7759749\CCSD=-62.7623968\CCSD(T)=-62.8018151\RMSD=5.
 000e-10\PG=C*V [C*(O1Sc1)]\\@


 WISDOM IS KNOWING WHAT TO DO,
 SKILL IS KNOWING HOW TO DO IT,
 AND VIRTUE IS NOT DOING IT.
 Job cpu time:       0 days 19 hours 29 minutes 27.2 seconds.
 Elapsed time:       0 days  1 hours 13 minutes 24.2 seconds.
 File lengths (MBytes):  RWF=  11408 Int=      0 D2E=      0 Chk=     61 Scr=      1
 Normal termination of Gaussian 16 at Tue Feb 27 14:20:34 2018.
