 Entering Gaussian System, Link 0=g16
 Initial command:
 /home1/apps/gaussian/16rA.03/g16/l1.exe "/tmp/Gau-74776.inp" -scrdir="/tmp/"
 Entering Link 1 = /home1/apps/gaussian/16rA.03/g16/l1.exe PID=     74777.
  
 Copyright (c) 1988,1990,1992,1993,1995,1998,2003,2009,2016,
            Gaussian, Inc.  All Rights Reserved.
  
 This is part of the Gaussian(R) 16 program.  It is based on
 the Gaussian(R) 09 system (copyright 2009, Gaussian, Inc.),
 the Gaussian(R) 03 system (copyright 2003, Gaussian, Inc.),
 the Gaussian(R) 98 system (copyright 1998, Gaussian, Inc.),
 the Gaussian(R) 94 system (copyright 1995, Gaussian, Inc.),
 the Gaussian 92(TM) system (copyright 1992, Gaussian, Inc.),
 the Gaussian 90(TM) system (copyright 1990, Gaussian, Inc.),
 the Gaussian 88(TM) system (copyright 1988, Gaussian, Inc.),
 the Gaussian 86(TM) system (copyright 1986, Carnegie Mellon
 University), and the Gaussian 82(TM) system (copyright 1983,
 Carnegie Mellon University). Gaussian is a federally registered
 trademark of Gaussian, Inc.
  
 This software contains proprietary and confidential information,
 including trade secrets, belonging to Gaussian, Inc.
  
 This software is provided under written license and may be
 used, copied, transmitted, or stored only in accord with that
 written license.
  
 The following legend is applicable only to US Government
 contracts under FAR:
  
                    RESTRICTED RIGHTS LEGEND
  
 Use, reproduction and disclosure by the US Government is
 subject to restrictions as set forth in subparagraphs (a)
 and (c) of the Commercial Computer Software - Restricted
 Rights clause in FAR 52.227-19.
  
 Gaussian, Inc.
 340 Quinnipiac St., Bldg. 40, Wallingford CT 06492
  
  
 ---------------------------------------------------------------
 Warning -- This program may not be used in any manner that
 competes with the business of Gaussian, Inc. or will provide
 assistance to any competitor of Gaussian, Inc.  The licensee
 of this program is prohibited from giving any competitor of
 Gaussian, Inc. access to this program.  By using this program,
 the user acknowledges that Gaussian, Inc. is engaged in the
 business of creating and licensing software in the field of
 computational chemistry and represents and warrants to the
 licensee that it is not a competitor of Gaussian, Inc. and that
 it will not use this program in any manner prohibited above.
 ---------------------------------------------------------------
  

 Cite this work as:
 Gaussian 16, Revision A.03,
 M. J. Frisch, G. W. Trucks, H. B. Schlegel, G. E. Scuseria, 
 M. A. Robb, J. R. Cheeseman, G. Scalmani, V. Barone, 
 G. A. Petersson, H. Nakatsuji, X. Li, M. Caricato, A. V. Marenich, 
 J. Bloino, B. G. Janesko, R. Gomperts, B. Mennucci, H. P. Hratchian, 
 J. V. Ortiz, A. F. Izmaylov, J. L. Sonnenberg, D. Williams-Young, 
 F. Ding, F. Lipparini, F. Egidi, J. Goings, B. Peng, A. Petrone, 
 T. Henderson, D. Ranasinghe, V. G. Zakrzewski, J. Gao, N. Rega, 
 G. Zheng, W. Liang, M. Hada, M. Ehara, K. Toyota, R. Fukuda, 
 J. Hasegawa, M. Ishida, T. Nakajima, Y. Honda, O. Kitao, H. Nakai, 
 T. Vreven, K. Throssell, J. A. Montgomery, Jr., J. E. Peralta, 
 F. Ogliaro, M. J. Bearpark, J. J. Heyd, E. N. Brothers, K. N. Kudin, 
 V. N. Staroverov, T. A. Keith, R. Kobayashi, J. Normand, 
 K. Raghavachari, A. P. Rendell, J. C. Burant, S. S. Iyengar, 
 J. Tomasi, M. Cossi, J. M. Millam, M. Klene, C. Adamo, R. Cammi, 
 J. W. Ochterski, R. L. Martin, K. Morokuma, O. Farkas, 
 J. B. Foresman, and D. J. Fox, Gaussian, Inc., Wallingford CT, 2016.
 
 ******************************************
 Gaussian 16:  ES64L-G16RevA.03 25-Dec-2016
                21-Feb-2018 
 ******************************************
 %mem=80GB
 %cpu=0-31
 SetSPE:  set environment variable "MP_BIND" = "yes"
 SetSPE:  set environment variable "MP_BLIST" = "0,1,2,3,4,5,6,7,8,9,10,11,12,13,14,15,16,17,18,19,20,21,22,23,24,25,26,27,28,29,30,31"
 Will use up to   32 processors via shared memory.
 %chk=ScO
 %rwf=/scratch/04843/aannabe/gaussian/
 ----------------------------------------------------------------------
 #P ROCCSD(T)=(maxcyc=150, Full, SaveAmplitudes, ReadAmplitudes)/Gen 5d
  7f SCF=(maxcycles=300) Integral(NoXCTest) MaxDisk=500GB Pop=Regular P
 seudo=Read Guess=Read
 ----------------------------------------------------------------------
 1/38=1,172=1/1;
 2/12=2,17=6,18=5,40=1/2;
 3/5=7,8=11,11=2,16=1,17=8,25=1,30=1,47=8,116=101/1,2,3;
 4/5=1/1;
 5/5=2,7=300,38=6/2;
 8/5=-1,6=4,9=120000,10=90,24=1/1,4;
 9/5=7,6=150,14=2,77=1/13;
 6//1;
 99/5=1,9=1/99;
 Leave Link    1 at Wed Feb 21 03:56:53 2018, MaxMem= 10737418240 cpu:               7.0 elap:               0.2
 (Enter /home1/apps/gaussian/16rA.03/g16/l101.exe)
 ---
 ScO
 ---
 Symbolic Z-matrix:
 Charge =  0 Multiplicity = 2
 Sc                    0.        0.        0. 
 O                     0.        0.        1.7 
 
 ITRead=  0  0
 MicOpt= -1 -1
 NAtoms=      2 NQM=        2 NQMF=       0 NMMI=      0 NMMIF=      0
                NMic=       0 NMicF=      0.
                    Isotopes and Nuclear Properties:
 (Nuclear quadrupole moments (NQMom) in fm**2, nuclear magnetic moments (NMagM)
  in nuclear magnetons)

  Atom         1           2
 IAtWgt=          45          16
 AtmWgt=  44.9559136  15.9949146
 NucSpn=           7           0
 AtZEff=  -0.0000000  -0.0000000
 NQMom=  -22.0000000   0.0000000
 NMagM=    4.7564830   0.0000000
 AtZNuc=  21.0000000   8.0000000
 Leave Link  101 at Wed Feb 21 03:56:53 2018, MaxMem= 10737418240 cpu:               2.9 elap:               0.1
 (Enter /home1/apps/gaussian/16rA.03/g16/l202.exe)
                          Input orientation:                          
 ---------------------------------------------------------------------
 Center     Atomic      Atomic             Coordinates (Angstroms)
 Number     Number       Type             X           Y           Z
 ---------------------------------------------------------------------
      1         21           0        0.000000    0.000000    0.000000
      2          8           0        0.000000    0.000000    1.700000
 ---------------------------------------------------------------------
 Stoichiometry    OSc(2)
 Framework group  C*V[C*(OSc)]
 Deg. of freedom     1
 Full point group                 C*V     NOp   4
 Largest Abelian subgroup         C2V     NOp   4
 Largest concise Abelian subgroup C1      NOp   1
                         Standard orientation:                         
 ---------------------------------------------------------------------
 Center     Atomic      Atomic             Coordinates (Angstroms)
 Number     Number       Type             X           Y           Z
 ---------------------------------------------------------------------
      1         21           0        0.000000    0.000000    0.468966
      2          8           0        0.000000    0.000000   -1.231034
 ---------------------------------------------------------------------
 Rotational constants (GHZ):           0.0000000          14.8227988          14.8227988
 Leave Link  202 at Wed Feb 21 03:56:53 2018, MaxMem= 10737418240 cpu:               0.7 elap:               0.1
 (Enter /home1/apps/gaussian/16rA.03/g16/l301.exe)
 General basis read from cards:  (5D, 7F)
 Centers:       1
 S 1 1.00
     Exponent=  8.4179090000D+06 Coefficients=  1.0000000000D+00
 S 1 1.00
     Exponent=  1.2603120000D+06 Coefficients=  1.0000000000D+00
 S 1 1.00
     Exponent=  2.8679840000D+05 Coefficients=  1.0000000000D+00
 S 1 1.00
     Exponent=  8.1234690000D+04 Coefficients=  1.0000000000D+00
 S 1 1.00
     Exponent=  2.6503110000D+04 Coefficients=  1.0000000000D+00
 S 1 1.00
     Exponent=  9.5687010000D+03 Coefficients=  1.0000000000D+00
 S 1 1.00
     Exponent=  3.7324970000D+03 Coefficients=  1.0000000000D+00
 S 1 1.00
     Exponent=  1.5484220000D+03 Coefficients=  1.0000000000D+00
 S 1 1.00
     Exponent=  6.7554200000D+02 Coefficients=  1.0000000000D+00
 S 1 1.00
     Exponent=  3.0725220000D+02 Coefficients=  1.0000000000D+00
 S 1 1.00
     Exponent=  1.4466720000D+02 Coefficients=  1.0000000000D+00
 S 1 1.00
     Exponent=  7.0043870000D+01 Coefficients=  1.0000000000D+00
 S 1 1.00
     Exponent=  3.4322500000D+01 Coefficients=  1.0000000000D+00
 S 1 1.00
     Exponent=  1.5612240000D+01 Coefficients=  1.0000000000D+00
 S 1 1.00
     Exponent=  7.7437220000D+00 Coefficients=  1.0000000000D+00
 S 1 1.00
     Exponent=  3.8442600000D+00 Coefficients=  1.0000000000D+00
 S 1 1.00
     Exponent=  1.7197660000D+00 Coefficients=  1.0000000000D+00
 S 1 1.00
     Exponent=  8.3252300000D-01 Coefficients=  1.0000000000D+00
 S 1 1.00
     Exponent=  3.8556400000D-01 Coefficients=  1.0000000000D+00
 S 1 1.00
     Exponent=  9.6700000000D-02 Coefficients=  1.0000000000D+00
 S 1 1.00
     Exponent=  4.7778000000D-02 Coefficients=  1.0000000000D+00
 S 1 1.00
     Exponent=  2.2363000000D-02 Coefficients=  1.0000000000D+00
 S 1 1.00
     Exponent=  3.1672000000D+00 Coefficients=  1.0000000000D+00
 S 1 1.00
     Exponent=  1.6879000000D+00 Coefficients=  1.0000000000D+00
 S 1 1.00
     Exponent=  1.0470000000D-02 Coefficients=  1.0000000000D+00
 P 1 1.00
     Exponent=  2.2640970000D+04 Coefficients=  1.0000000000D+00
 P 1 1.00
     Exponent=  5.3575450000D+03 Coefficients=  1.0000000000D+00
 P 1 1.00
     Exponent=  1.7403730000D+03 Coefficients=  1.0000000000D+00
 P 1 1.00
     Exponent=  6.6661630000D+02 Coefficients=  1.0000000000D+00
 P 1 1.00
     Exponent=  2.8363840000D+02 Coefficients=  1.0000000000D+00
 P 1 1.00
     Exponent=  1.2979760000D+02 Coefficients=  1.0000000000D+00
 P 1 1.00
     Exponent=  6.2679560000D+01 Coefficients=  1.0000000000D+00
 P 1 1.00
     Exponent=  3.1504410000D+01 Coefficients=  1.0000000000D+00
 P 1 1.00
     Exponent=  1.6235250000D+01 Coefficients=  1.0000000000D+00
 P 1 1.00
     Exponent=  8.5183240000D+00 Coefficients=  1.0000000000D+00
 P 1 1.00
     Exponent=  4.5190050000D+00 Coefficients=  1.0000000000D+00
 P 1 1.00
     Exponent=  2.3665910000D+00 Coefficients=  1.0000000000D+00
 P 1 1.00
     Exponent=  1.2152350000D+00 Coefficients=  1.0000000000D+00
 P 1 1.00
     Exponent=  6.1434800000D-01 Coefficients=  1.0000000000D+00
 P 1 1.00
     Exponent=  3.0074500000D-01 Coefficients=  1.0000000000D+00
 P 1 1.00
     Exponent=  1.2583400000D-01 Coefficients=  1.0000000000D+00
 P 1 1.00
     Exponent=  5.4719000000D-02 Coefficients=  1.0000000000D+00
 P 1 1.00
     Exponent=  2.3488000000D-02 Coefficients=  1.0000000000D+00
 P 1 1.00
     Exponent=  4.0719000000D+00 Coefficients=  1.0000000000D+00
 P 1 1.00
     Exponent=  9.9940000000D-01 Coefficients=  1.0000000000D+00
 P 1 1.00
     Exponent=  1.0080000000D-02 Coefficients=  1.0000000000D+00
 D 1 1.00
     Exponent=  1.4802800000D+02 Coefficients=  1.0000000000D+00
 D 1 1.00
     Exponent=  4.3852800000D+01 Coefficients=  1.0000000000D+00
 D 1 1.00
     Exponent=  1.6664600000D+01 Coefficients=  1.0000000000D+00
 D 1 1.00
     Exponent=  6.9789300000D+00 Coefficients=  1.0000000000D+00
 D 1 1.00
     Exponent=  3.1236900000D+00 Coefficients=  1.0000000000D+00
 D 1 1.00
     Exponent=  1.4468700000D+00 Coefficients=  1.0000000000D+00
 D 1 1.00
     Exponent=  6.6740700000D-01 Coefficients=  1.0000000000D+00
 D 1 1.00
     Exponent=  3.0163300000D-01 Coefficients=  1.0000000000D+00
 D 1 1.00
     Exponent=  1.3267400000D-01 Coefficients=  1.0000000000D+00
 D 1 1.00
     Exponent=  5.6739000000D-02 Coefficients=  1.0000000000D+00
 D 1 1.00
     Exponent=  2.3175000000D-02 Coefficients=  1.0000000000D+00
 D 1 1.00
     Exponent=  2.1282000000D+00 Coefficients=  1.0000000000D+00
 D 1 1.00
     Exponent=  9.6910000000D-01 Coefficients=  1.0000000000D+00
 D 1 1.00
     Exponent=  9.4700000000D-03 Coefficients=  1.0000000000D+00
 F 1 1.00
     Exponent=  2.7590000000D+00 Coefficients=  1.0000000000D+00
 F 1 1.00
     Exponent=  1.0490000000D+00 Coefficients=  1.0000000000D+00
 F 1 1.00
     Exponent=  3.9890000000D-01 Coefficients=  1.0000000000D+00
 F 1 1.00
     Exponent=  1.1060000000D-01 Coefficients=  1.0000000000D+00
 F 1 1.00
     Exponent=  3.0670000000D-02 Coefficients=  1.0000000000D+00
 G 1 1.00
     Exponent=  2.4852000000D+00 Coefficients=  1.0000000000D+00
 G 1 1.00
     Exponent=  9.0670000000D-01 Coefficients=  1.0000000000D+00
 G 1 1.00
     Exponent=  2.5300000000D-01 Coefficients=  1.0000000000D+00
 G 1 1.00
     Exponent=  7.0600000000D-02 Coefficients=  1.0000000000D+00
 H 1 1.00
     Exponent=  2.0405000000D+00 Coefficients=  1.0000000000D+00
 H 1 1.00
     Exponent=  4.9340000000D-01 Coefficients=  1.0000000000D+00
 H 1 1.00
     Exponent=  1.1931000000D-01 Coefficients=  1.0000000000D+00
 ****
 Centers:       2
 S 1 1.00
     Exponent=  6.1420000000D+04 Coefficients=  1.0000000000D+00
 S 1 1.00
     Exponent=  9.1990000000D+03 Coefficients=  1.0000000000D+00
 S 1 1.00
     Exponent=  2.0910000000D+03 Coefficients=  1.0000000000D+00
 S 1 1.00
     Exponent=  5.9090000000D+02 Coefficients=  1.0000000000D+00
 S 1 1.00
     Exponent=  1.9230000000D+02 Coefficients=  1.0000000000D+00
 S 1 1.00
     Exponent=  6.9320000000D+01 Coefficients=  1.0000000000D+00
 S 1 1.00
     Exponent=  2.6970000000D+01 Coefficients=  1.0000000000D+00
 S 1 1.00
     Exponent=  1.1100000000D+01 Coefficients=  1.0000000000D+00
 S 1 1.00
     Exponent=  4.6820000000D+00 Coefficients=  1.0000000000D+00
 S 1 1.00
     Exponent=  1.4280000000D+00 Coefficients=  1.0000000000D+00
 S 1 1.00
     Exponent=  5.5470000000D-01 Coefficients=  1.0000000000D+00
 S 1 1.00
     Exponent=  2.0670000000D-01 Coefficients=  1.0000000000D+00
 S 1 1.00
     Exponent=  1.2974000000D+01 Coefficients=  1.0000000000D+00
 S 1 1.00
     Exponent=  3.4900000000D+01 Coefficients=  1.0000000000D+00
 S 1 1.00
     Exponent=  9.3881000000D+01 Coefficients=  1.0000000000D+00
 S 1 1.00
     Exponent=  6.9590000000D-02 Coefficients=  1.0000000000D+00
 P 1 1.00
     Exponent=  6.3420000000D+01 Coefficients=  1.0000000000D+00
 P 1 1.00
     Exponent=  1.4660000000D+01 Coefficients=  1.0000000000D+00
 P 1 1.00
     Exponent=  4.4590000000D+00 Coefficients=  1.0000000000D+00
 P 1 1.00
     Exponent=  1.5310000000D+00 Coefficients=  1.0000000000D+00
 P 1 1.00
     Exponent=  5.3020000000D-01 Coefficients=  1.0000000000D+00
 P 1 1.00
     Exponent=  1.7500000000D-01 Coefficients=  1.0000000000D+00
 P 1 1.00
     Exponent=  1.4475000000D+01 Coefficients=  1.0000000000D+00
 P 1 1.00
     Exponent=  4.2730000000D+01 Coefficients=  1.0000000000D+00
 P 1 1.00
     Exponent=  1.2614000000D+02 Coefficients=  1.0000000000D+00
 P 1 1.00
     Exponent=  5.3480000000D-02 Coefficients=  1.0000000000D+00
 D 1 1.00
     Exponent=  3.7750000000D+00 Coefficients=  1.0000000000D+00
 D 1 1.00
     Exponent=  1.3000000000D+00 Coefficients=  1.0000000000D+00
 D 1 1.00
     Exponent=  4.4400000000D-01 Coefficients=  1.0000000000D+00
 D 1 1.00
     Exponent=  1.4927000000D+01 Coefficients=  1.0000000000D+00
 D 1 1.00
     Exponent=  5.7544000000D+01 Coefficients=  1.0000000000D+00
 D 1 1.00
     Exponent=  1.5400000000D-01 Coefficients=  1.0000000000D+00
 F 1 1.00
     Exponent=  2.6660000000D+00 Coefficients=  1.0000000000D+00
 F 1 1.00
     Exponent=  8.5900000000D-01 Coefficients=  1.0000000000D+00
 F 1 1.00
     Exponent=  2.6483000000D+01 Coefficients=  1.0000000000D+00
 F 1 1.00
     Exponent=  3.2400000000D-01 Coefficients=  1.0000000000D+00
 G 1 1.00
     Exponent=  1.8460000000D+00 Coefficients=  1.0000000000D+00
 G 1 1.00
     Exponent=  7.1400000000D-01 Coefficients=  1.0000000000D+00
 ****
 ======================================================================================================
                                       Pseudopotential Parameters
 ======================================================================================================
  Center     Atomic      Valence      Angular      Power
  Number     Number     Electrons     Momentum     of R      Exponent        Coefficient   SO-Coeffient
 ======================================================================================================
    1         21           11
                                      F and up 
                                                     1        8.6843244       11.00000000    0.00000000
                                                     2       12.9608105     1293.12711495    0.00000000
                                                     2        3.4272602      -59.34807006    0.00000000
                                                     2       13.9264987    -6626.33658022    0.00000000
                                                     2       14.1135521     5365.41708240    0.00000000
                                                     3        3.8783422       95.52756785    0.00000000
                                      S - F
                                                     2       14.1143229    -1492.86349923    0.00000000
                                                     2        4.4283560     1499.37242000    0.00000000
                                                     2        7.4604557     1088.20049735    0.00000000
                                                     2       10.2353388    -1981.91696501    0.00000000
                                                     2        4.5248959    -1710.45115474    0.00000000
                                                     2       13.0788594     2625.43810581    0.00000000
                                      P - F
                                                     2        9.8399764    -2070.12504374    0.00000000
                                                     2        7.2507207     5801.02991534    0.00000000
                                                     2       11.8197475     1554.97375552    0.00000000
                                                     2       14.0743327     -853.69420879    0.00000000
                                                     2        7.0846032    -4878.01776292    0.00000000
                                                     2       14.0716643      462.12967346    0.00000000
                                      D - F
                                                     2       11.2984945     -570.27953430    0.00000000
                                                     2        5.7211985     -549.43824610    0.00000000
                                                     2        6.5323409     1672.92599442    0.00000000
                                                     2        8.1143102    -2704.80905453    0.00000000
                                                     2        9.9572828     4666.19773963    0.00000000
                                                     2       10.2402945    -2524.96335631    0.00000000
    2          8            6
                                      D and up 
                                                     1       10.2771775        6.00000000    0.00000000
                                                     2       15.9956675     1232.50197768    0.00000000
                                                     2       10.4690178     -696.47008301    0.00000000
                                                     2       14.6384801    -2654.22657081    0.00000000
                                                     2       12.5759118     2101.67732548    0.00000000
                                                     3        7.7773910       61.66306486    0.00000000
                                      S - D
                                                     2       12.3942607    **************    0.00000000
                                                     2       12.3812617    **************    0.00000000
                                                     2        8.5767103      511.50098405    0.00000000
                                                     2        9.8925651    -2579.54665641    0.00000000
                                                     2       28.0564160      -57.68129584    0.00000000
                                                     2       17.2475361      970.30940152    0.00000000
                                      P - D
                                                     2       14.7891891    **************    0.00000000
                                                     2       14.8201402    **************    0.00000000
                                                     2       22.8962222    -1300.20069256    0.00000000
                                                     2        8.5133189     -181.96869573    0.00000000
                                                     2       11.4860976     2194.87589959    0.00000000
                                                     2       27.2201752      451.19906206    0.00000000
 ======================================================================================================
 Ernie: Thresh=  0.10000D-02 Tol=  0.10000D-05 Strict=F.
 There are   213 symmetry adapted cartesian basis functions of A1  symmetry.
 There are    56 symmetry adapted cartesian basis functions of A2  symmetry.
 There are   114 symmetry adapted cartesian basis functions of B1  symmetry.
 There are   114 symmetry adapted cartesian basis functions of B2  symmetry.
 There are   157 symmetry adapted basis functions of A1  symmetry.
 There are    47 symmetry adapted basis functions of A2  symmetry.
 There are    90 symmetry adapted basis functions of B1  symmetry.
 There are    90 symmetry adapted basis functions of B2  symmetry.
   384 basis functions,   497 primitive gaussians,   497 cartesian basis functions
     9 alpha electrons        8 beta electrons
       nuclear repulsion energy        20.5445270122 Hartrees.
 IExCor=    0 DFT=F Ex=HF Corr=None ExCW=0 ScaHFX=  1.000000
 ScaDFX=  1.000000  1.000000  1.000000  1.000000 ScalE2=  1.000000  1.000000
 IRadAn=      5 IRanWt=     -1 IRanGd=            0 ICorTp=0 IEmpDi=  4
 NAtoms=    2 NActive=    2 NUniq=    2 SFac= 1.00D+00 NAtFMM=   60 NAOKFM=F Big=F
 Integral buffers will be    131072 words long.
 Raffenetti 2 integral format.
 Two-electron integral symmetry is turned on.
 Leave Link  301 at Wed Feb 21 03:56:53 2018, MaxMem= 10737418240 cpu:              10.8 elap:               0.4
 (Enter /home1/apps/gaussian/16rA.03/g16/l302.exe)
 NPDir=0 NMtPBC=     1 NCelOv=     1 NCel=       1 NClECP=     1 NCelD=      1
         NCelK=      1 NCelE2=     1 NClLst=     1 CellRange=     0.0.
 One-electron integrals computed using PRISM.
 One-electron integral symmetry used in STVInt
   4 Symmetry operations used in ECPInt.
 ECPInt:  NShTT=    6105 NPrTT=    6105 LenC2=    5599 LenP2D=    5598.
 LDataN:  DoStor=T MaxTD1=10 Len=  848
 NBasis=   384 RedAO= T EigKep=  1.25D-06  NBF=   157    47    90    90
 NBsUse=   383 1.00D-06 EigRej=  8.44D-09 NBFU=   156    47    90    90
 Leave Link  302 at Wed Feb 21 03:56:57 2018, MaxMem= 10737418240 cpu:             107.4 elap:               3.4
 (Enter /home1/apps/gaussian/16rA.03/g16/l303.exe)
 DipDrv:  MaxL=1.
 Leave Link  303 at Wed Feb 21 03:56:57 2018, MaxMem= 10737418240 cpu:               3.8 elap:               0.2
 (Enter /home1/apps/gaussian/16rA.03/g16/l401.exe)
 Initial guess from the checkpoint file:  "ScO.chk"
 B after Tr=     0.000000    0.000000    0.000000
         Rot=    1.000000    0.000000    0.000000    0.000000 Ang=   0.00 deg.
 Guess basis will be translated and rotated to current coordinates.
 JPrj=2 DoOrth=T DoCkMO=T.
 Initial guess orbital symmetries:
       Occupied  (SG) (SG) (PI) (PI) (SG) (SG) (PI) (PI) (SG)
       Virtual   (PI) (PI) (SG) (SG) (DLTA) (DLTA) (PI) (PI) (PI)
                 (PI) (SG) (SG) (DLTA) (DLTA) (SG) (PI) (PI) (SG)
                 (PI) (PI) (SG) (PI) (PI) (PHI) (PHI) (DLTA) (DLTA)
                 (SG) (DLTA) (DLTA) (PI) (PI) (SG) (PI) (PI) (SG)
                 (SG) (SG) (DLTA) (DLTA) (PI) (PI) (DLTA) (DLTA)
                 (?A) (?A) (PHI) (PHI) (SG) (PI) (PI) (PI) (PI)
                 (SG) (PHI) (PHI) (DLTA) (DLTA) (SG) (PI) (PI)
                 (SG) (PI) (PI) (DLTA) (DLTA) (SG) (SG) (DLTA)
                 (DLTA) (PI) (PI) (SG) (SG) (PI) (PI) (PI) (PI)
                 (SG) (DLTA) (DLTA) (PHI) (PHI) (?A) (?A) (PI)
                 (PI) (SG) (SG) (DLTA) (DLTA) (PHI) (PHI) (PI)
                 (PI) (PHI) (PHI) (DLTA) (DLTA) (SG) (PI) (PI)
                 (DLTA) (DLTA) (SG) (DLTA) (DLTA) (SG) (PI) (PI)
                 (PI) (PI) (SG) (SG) (PI) (PI) (SG) (PI) (PI) (SG)
                 (SG) (DLTA) (DLTA) (PI) (PI) (SG) (PHI) (PHI)
                 (PHI) (PHI) (DLTA) (DLTA) (DLTA) (DLTA) (PI) (PI)
                 (PI) (PI) (SG) (DLTA) (DLTA) (SG) (PI) (PI) (SG)
                 (?A) (?A) (PHI) (PHI) (DLTA) (DLTA) (PI) (PI)
                 (SG) (SG) (PI) (PI) (SG) (DLTA) (DLTA) (PI) (PI)
                 (SG) (SG) (PI) (PI) (SG) (SG) (PI) (PI) (SG) (DLTA)
                 (DLTA) (PI) (PI) (SG) (SG) (SG) (PI) (PI) (SG)
                 (PI) (PI) (SG) (SG) (DLTA) (DLTA) (PI) (PI) (SG)
                 (DLTA) (DLTA) (PI) (PI) (SG) (SG) (PI) (PI) (SG)
                 (SG) (PI) (PI) (SG) (SG) (PI) (PI) (SG) (SG) (DLTA)
                 (DLTA) (PI) (PI) (SG) (SG) (PI) (PI) (SG) (PI)
                 (PI) (SG) (SG) (SG) (PI) (PI) (SG) (SG) (PI) (PI)
                 (SG) (SG) (SG) (PI) (PI) (SG) (SG) (SG) (PI) (PI)
                 (SG) (SG) (SG) (SG) (PI) (PI) (SG) (SG) (SG) (SG)
                 (SG) (DLTA) (SG) (SG) (SG) (DLTA) (SG) (SG) (SG)
                 (SG) (SG) (DLTA) (DLTA) (SG) (SG) (DLTA) (SG)
                 (SG) (SG) (DLTA) (SG) (SG) (DLTA) (SG) (?A) (DLTA)
                 (SG) (?A) (DLTA) (SG) (DLTA) (DLTA) (SG) (SG)
                 (?A) (DLTA) (?A) (DLTA) (SG) (DLTA) (SG) (?A)
                 (SG) (?A) (DLTA) (DLTA) (DLTA) (DLTA) (DLTA) (DLTA)
                 (DLTA) (?A) (DLTA) (?A) (DLTA) (DLTA) (DLTA) (?A)
                 (DLTA) (?A) (DLTA) (DLTA) (?A) (?A) (PI) (PI)
                 (PI) (PI) (PI) (PI) (PI) (PI) (PHI) (PI) (PI)
                 (PHI) (PI) (PI) (PI) (PHI) (PI) (PHI) (PHI) (PI)
                 (PI) (?B) (PHI) (PHI) (PI) (PI) (PHI) (PI) (?B)
                 (PHI) (?B) (PI) (PI) (PI) (PI) (PI) (PI) (PI)
                 (PI) (PHI) (PI) (PI) (PHI) (PI) (PI) (PI) (PHI)
                 (PI) (PHI) (PHI) (PI) (PI) (?B) (PHI) (PHI) (PI)
                 (PI) (PHI) (PI) (?B) (PHI) (?B)
 The electronic state of the initial guess is 2-SG.
 Leave Link  401 at Wed Feb 21 03:56:58 2018, MaxMem= 10737418240 cpu:              24.4 elap:               0.9
 (Enter /home1/apps/gaussian/16rA.03/g16/l502.exe)
 Keep R1 and R2 ints in memory in symmetry-blocked form, NReq=3425113631.
 FoFCou: FMM=F IPFlag=           8 FMFlag=           0 FMFlg1=           0
         NFxFlg=           0 DoJE=F BraDBF=F KetDBF=F FulRan=T
         wScrn=  0.000000 ICntrl=       600 IOpCl=  0 I1Cent=           0 NGrid=           0
         NMat0=    1 NMatS0=  73920 NMatT0=    0 NMatD0=    1 NMtDS0=    0 NMtDT0=    0
 Petite list used in FoFCou.
 Restricted open shell SCF:
 Using DIIS extrapolation, IDIIS=  1040.
 NGot= 10737418240 LenX=  9351085953 LenY=  9350838447
 Requested convergence on RMS density matrix=1.00D-08 within 300 cycles.
 Requested convergence on MAX density matrix=1.00D-06.
 Requested convergence on             energy=1.00D-06.
 No special actions if energy rises.

 Cycle   1  Pass 1  IDiag  1:
 E= -61.8292459852174    
 DIIS: error= 2.00D+00 at cycle   1 NSaved=   1.
 NSaved= 1 IEnMin= 1 EnMin= -61.8292459852174     IErMin= 1 ErrMin= 2.00D+00
 ErrMax= 2.00D+00  0.00D+00 EMaxC= 1.00D-01 BMatC= 7.04D+02 BMatP= 7.04D+02
 IDIUse=3 WtCom= 0.00D+00 WtEn= 1.00D+00
 Coeff-Com:  0.100D+01
 Coeff-En:   0.100D+01
 Coeff:      0.100D+01
 Gap=     0.089 Goal=   None    Shift=    0.000
 GapD=    0.089 DampG=0.500 DampE=0.125 DampFc=0.1250 IDamp=-1.
 Damping current iteration by 1.25D-01
 RMSDP=9.68D-03 MaxDP=1.28D+00              OVMax= 3.69D-03

 Cycle   2  Pass 1  IDiag  1:
 E= -61.8296262782654     Delta-E=       -0.000380293048 Rises=F Damp=T
 DIIS: error= 1.75D+00 at cycle   2 NSaved=   2.
 NSaved= 2 IEnMin= 2 EnMin= -61.8296262782654     IErMin= 2 ErrMin= 1.75D+00
 ErrMax= 1.75D+00  0.00D+00 EMaxC= 1.00D-01 BMatC= 5.39D+02 BMatP= 7.04D+02
 IDIUse=3 WtCom= 0.00D+00 WtEn= 1.00D+00
 Coeff-Com: -0.700D+01 0.800D+01
 Coeff-En:   0.000D+00 0.100D+01
 Coeff:      0.000D+00 0.100D+01
 Gap=     0.089 Goal=   None    Shift=    0.000
 RMSDP=8.49D-03 MaxDP=1.12D+00 DE=-3.80D-04 OVMax= 1.22D-03

 Cycle   3  Pass 1  IDiag  1:
 E= -61.8323270476571     Delta-E=       -0.002700769392 Rises=F Damp=F
 DIIS: error= 3.84D-04 at cycle   3 NSaved=   3.
 NSaved= 3 IEnMin= 3 EnMin= -61.8323270476571     IErMin= 3 ErrMin= 3.84D-04
 ErrMax= 3.84D-04  0.00D+00 EMaxC= 1.00D-01 BMatC= 9.73D-06 BMatP= 5.39D+02
 IDIUse=3 WtCom= 9.96D-01 WtEn= 3.84D-03
 Coeff-Com:  0.247D+00-0.282D+00 0.104D+01
 Coeff-En:   0.000D+00 0.000D+00 0.100D+01
 Coeff:      0.246D+00-0.281D+00 0.104D+01
 Gap=     0.089 Goal=   None    Shift=    0.000
 RMSDP=2.23D-04 MaxDP=2.91D-02 DE=-2.70D-03 OVMax= 1.72D-03

 Cycle   4  Pass 1  IDiag  1:
 E= -61.8323293117628     Delta-E=       -0.000002264106 Rises=F Damp=F
 DIIS: error= 1.85D-05 at cycle   4 NSaved=   4.
 NSaved= 4 IEnMin= 4 EnMin= -61.8323293117628     IErMin= 4 ErrMin= 1.85D-05
 ErrMax= 1.85D-05  0.00D+00 EMaxC= 1.00D-01 BMatC= 1.04D-07 BMatP= 9.73D-06
 IDIUse=1 WtCom= 1.00D+00 WtEn= 0.00D+00
 Coeff-Com:  0.504D+00-0.576D+00 0.469D-01 0.103D+01
 Coeff:      0.504D+00-0.576D+00 0.469D-01 0.103D+01
 Gap=     0.089 Goal=   None    Shift=    0.000
 RMSDP=2.43D-05 MaxDP=3.14D-03 DE=-2.26D-06 OVMax= 1.20D-03

 Cycle   5  Pass 1  IDiag  1:
 E= -61.8323295339458     Delta-E=       -0.000000222183 Rises=F Damp=F
 DIIS: error= 1.39D-05 at cycle   5 NSaved=   5.
 NSaved= 5 IEnMin= 5 EnMin= -61.8323295339458     IErMin= 5 ErrMin= 1.39D-05
 ErrMax= 1.39D-05  0.00D+00 EMaxC= 1.00D-01 BMatC= 3.40D-08 BMatP= 1.04D-07
 IDIUse=1 WtCom= 1.00D+00 WtEn= 0.00D+00
 Coeff-Com:  0.356D+00-0.407D+00 0.420D-01 0.346D+00 0.663D+00
 Coeff:      0.356D+00-0.407D+00 0.420D-01 0.346D+00 0.663D+00
 Gap=     0.089 Goal=   None    Shift=    0.000
 RMSDP=7.54D-06 MaxDP=1.39D-03 DE=-2.22D-07 OVMax= 5.73D-04

 Cycle   6  Pass 1  IDiag  1:
 E= -61.8323295550920     Delta-E=       -0.000000021146 Rises=F Damp=F
 DIIS: error= 1.10D-05 at cycle   6 NSaved=   6.
 NSaved= 6 IEnMin= 6 EnMin= -61.8323295550920     IErMin= 6 ErrMin= 1.10D-05
 ErrMax= 1.10D-05  0.00D+00 EMaxC= 1.00D-01 BMatC= 1.71D-08 BMatP= 3.40D-08
 IDIUse=1 WtCom= 1.00D+00 WtEn= 0.00D+00
 Coeff-Com:  0.301D+00-0.344D+00 0.497D-01-0.560D-01 0.131D+00 0.918D+00
 Coeff:      0.301D+00-0.344D+00 0.497D-01-0.560D-01 0.131D+00 0.918D+00
 Gap=     0.089 Goal=   None    Shift=    0.000
 RMSDP=1.24D-06 MaxDP=1.24D-04 DE=-2.11D-08 OVMax= 9.79D-05

 Cycle   7  Pass 1  IDiag  1:
 E= -61.8323295715682     Delta-E=       -0.000000016476 Rises=F Damp=F
 DIIS: error= 9.88D-06 at cycle   7 NSaved=   7.
 NSaved= 7 IEnMin= 7 EnMin= -61.8323295715682     IErMin= 7 ErrMin= 9.88D-06
 ErrMax= 9.88D-06  0.00D+00 EMaxC= 1.00D-01 BMatC= 1.09D-08 BMatP= 1.71D-08
 IDIUse=1 WtCom= 1.00D+00 WtEn= 0.00D+00
 Coeff-Com:  0.260D+00-0.297D+00 0.450D-01-0.749D-01-0.887D-01 0.307D+00
 Coeff-Com:  0.849D+00
 Coeff:      0.260D+00-0.297D+00 0.450D-01-0.749D-01-0.887D-01 0.307D+00
 Coeff:      0.849D+00
 Gap=     0.089 Goal=   None    Shift=    0.000
 RMSDP=1.36D-06 MaxDP=1.60D-04 DE=-1.65D-08 OVMax= 8.45D-05

 Cycle   8  Pass 1  IDiag  1:
 E= -61.8323295819705     Delta-E=       -0.000000010402 Rises=F Damp=F
 DIIS: error= 8.34D-06 at cycle   8 NSaved=   8.
 NSaved= 8 IEnMin= 8 EnMin= -61.8323295819705     IErMin= 8 ErrMin= 8.34D-06
 ErrMax= 8.34D-06  0.00D+00 EMaxC= 1.00D-01 BMatC= 6.93D-09 BMatP= 1.09D-08
 IDIUse=1 WtCom= 1.00D+00 WtEn= 0.00D+00
 Coeff-Com:  0.188D+00-0.215D+00 0.307D-01 0.136D-01-0.784D-01-0.317D+00
 Coeff-Com:  0.135D+00 0.124D+01
 Coeff:      0.188D+00-0.215D+00 0.307D-01 0.136D-01-0.784D-01-0.317D+00
 Coeff:      0.135D+00 0.124D+01
 Gap=     0.089 Goal=   None    Shift=    0.000
 RMSDP=1.53D-06 MaxDP=1.49D-04 DE=-1.04D-08 OVMax= 5.13D-05

 Cycle   9  Pass 1  IDiag  1:
 E= -61.8323295876988     Delta-E=       -0.000000005728 Rises=F Damp=F
 DIIS: error= 5.96D-06 at cycle   9 NSaved=   9.
 NSaved= 9 IEnMin= 9 EnMin= -61.8323295876988     IErMin= 9 ErrMin= 5.96D-06
 ErrMax= 5.96D-06  0.00D+00 EMaxC= 1.00D-01 BMatC= 3.78D-09 BMatP= 6.93D-09
 IDIUse=1 WtCom= 1.00D+00 WtEn= 0.00D+00
 Coeff-Com:  0.137D+00-0.157D+00 0.217D-01 0.176D-01 0.105D-02-0.876D-01
 Coeff-Com: -0.224D+00 0.103D+00 0.119D+01
 Coeff:      0.137D+00-0.157D+00 0.217D-01 0.176D-01 0.105D-02-0.876D-01
 Coeff:     -0.224D+00 0.103D+00 0.119D+01
 Gap=     0.089 Goal=   None    Shift=    0.000
 RMSDP=1.04D-06 MaxDP=1.26D-04 DE=-5.73D-09 OVMax= 5.08D-05

 Cycle  10  Pass 1  IDiag  1:
 E= -61.8323295916547     Delta-E=       -0.000000003956 Rises=F Damp=F
 DIIS: error= 4.42D-06 at cycle  10 NSaved=  10.
 NSaved=10 IEnMin=10 EnMin= -61.8323295916547     IErMin=10 ErrMin= 4.42D-06
 ErrMax= 4.42D-06  0.00D+00 EMaxC= 1.00D-01 BMatC= 1.94D-09 BMatP= 3.78D-09
 IDIUse=1 WtCom= 1.00D+00 WtEn= 0.00D+00
 Coeff-Com:  0.107D+00-0.122D+00 0.176D-01-0.758D-02 0.395D-02 0.930D-01
 Coeff-Com:  0.924D-02-0.295D+00 0.414D-01 0.115D+01
 Coeff:      0.107D+00-0.122D+00 0.176D-01-0.758D-02 0.395D-02 0.930D-01
 Coeff:      0.924D-02-0.295D+00 0.414D-01 0.115D+01
 Gap=     0.089 Goal=   None    Shift=    0.000
 RMSDP=6.79D-07 MaxDP=9.49D-05 DE=-3.96D-09 OVMax= 2.77D-05

 Cycle  11  Pass 1  IDiag  1:
 E= -61.8323295931386     Delta-E=       -0.000000001484 Rises=F Damp=F
 DIIS: error= 3.42D-06 at cycle  11 NSaved=  11.
 NSaved=11 IEnMin=11 EnMin= -61.8323295931386     IErMin=11 ErrMin= 3.42D-06
 ErrMax= 3.42D-06  0.00D+00 EMaxC= 1.00D-01 BMatC= 1.19D-09 BMatP= 1.94D-09
 IDIUse=1 WtCom= 1.00D+00 WtEn= 0.00D+00
 Coeff-Com:  0.850D-01-0.972D-01 0.140D-01-0.592D-02-0.417D-02 0.461D-01
 Coeff-Com:  0.560D-01-0.128D+00-0.914D-01-0.372D-01 0.116D+01
 Coeff:      0.850D-01-0.972D-01 0.140D-01-0.592D-02-0.417D-02 0.461D-01
 Coeff:      0.560D-01-0.128D+00-0.914D-01-0.372D-01 0.116D+01
 Gap=     0.089 Goal=   None    Shift=    0.000
 RMSDP=4.40D-07 MaxDP=4.25D-05 DE=-1.48D-09 OVMax= 2.16D-05

 Cycle  12  Pass 1  IDiag  1:
 E= -61.8323295940265     Delta-E=       -0.000000000888 Rises=F Damp=F
 DIIS: error= 2.76D-06 at cycle  12 NSaved=  12.
 NSaved=12 IEnMin=12 EnMin= -61.8323295940265     IErMin=12 ErrMin= 2.76D-06
 ErrMax= 2.76D-06  0.00D+00 EMaxC= 1.00D-01 BMatC= 7.49D-10 BMatP= 1.19D-09
 IDIUse=1 WtCom= 1.00D+00 WtEn= 0.00D+00
 Coeff-Com:  0.587D-01-0.671D-01 0.951D-02 0.212D-02-0.819D-02-0.310D-01
 Coeff-Com:  0.126D-01 0.805D-01 0.108D+00-0.796D+00 0.321D+00 0.131D+01
 Coeff:      0.587D-01-0.671D-01 0.951D-02 0.212D-02-0.819D-02-0.310D-01
 Coeff:      0.126D-01 0.805D-01 0.108D+00-0.796D+00 0.321D+00 0.131D+01
 Gap=     0.089 Goal=   None    Shift=    0.000
 RMSDP=5.94D-07 MaxDP=7.52D-05 DE=-8.88D-10 OVMax= 2.48D-05

 Cycle  13  Pass 1  IDiag  1:
 E= -61.8323295948168     Delta-E=       -0.000000000790 Rises=F Damp=F
 DIIS: error= 1.87D-06 at cycle  13 NSaved=  13.
 NSaved=13 IEnMin=13 EnMin= -61.8323295948168     IErMin=13 ErrMin= 1.87D-06
 ErrMax= 1.87D-06  0.00D+00 EMaxC= 1.00D-01 BMatC= 3.54D-10 BMatP= 7.49D-10
 IDIUse=1 WtCom= 1.00D+00 WtEn= 0.00D+00
 Coeff-Com:  0.362D-01-0.413D-01 0.583D-02 0.216D-02-0.389D-02-0.213D-01
 Coeff-Com: -0.572D-02 0.437D-01 0.107D+00-0.314D+00-0.207D+00 0.154D+00
 Coeff-Com:  0.124D+01
 Coeff:      0.362D-01-0.413D-01 0.583D-02 0.216D-02-0.389D-02-0.213D-01
 Coeff:     -0.572D-02 0.437D-01 0.107D+00-0.314D+00-0.207D+00 0.154D+00
 Coeff:      0.124D+01
 Gap=     0.089 Goal=   None    Shift=    0.000
 RMSDP=4.64D-07 MaxDP=4.96D-05 DE=-7.90D-10 OVMax= 2.01D-05

 Cycle  14  Pass 1  IDiag  1:
 E= -61.8323295952459     Delta-E=       -0.000000000429 Rises=F Damp=F
 DIIS: error= 1.16D-06 at cycle  14 NSaved=  14.
 NSaved=14 IEnMin=14 EnMin= -61.8323295952459     IErMin=14 ErrMin= 1.16D-06
 ErrMax= 1.16D-06  0.00D+00 EMaxC= 1.00D-01 BMatC= 1.34D-10 BMatP= 3.54D-10
 IDIUse=1 WtCom= 1.00D+00 WtEn= 0.00D+00
 Coeff-Com:  0.934D-02-0.107D-01 0.153D-02-0.595D-03-0.243D-03 0.592D-02
 Coeff-Com:  0.434D-02-0.186D-01-0.553D-02 0.615D-01 0.565D-01-0.135D+00
 Coeff-Com: -0.119D+01 0.222D+01
 Coeff:      0.934D-02-0.107D-01 0.153D-02-0.595D-03-0.243D-03 0.592D-02
 Coeff:      0.434D-02-0.186D-01-0.553D-02 0.615D-01 0.565D-01-0.135D+00
 Coeff:     -0.119D+01 0.222D+01
 Gap=     0.089 Goal=   None    Shift=    0.000
 RMSDP=5.64D-07 MaxDP=6.10D-05 DE=-4.29D-10 OVMax= 2.38D-05

 Cycle  15  Pass 1  IDiag  1:
 E= -61.8323295954914     Delta-E=       -0.000000000246 Rises=F Damp=F
 DIIS: error= 2.96D-07 at cycle  15 NSaved=  15.
 NSaved=15 IEnMin=15 EnMin= -61.8323295954914     IErMin=15 ErrMin= 2.96D-07
 ErrMax= 2.96D-07  0.00D+00 EMaxC= 1.00D-01 BMatC= 8.94D-12 BMatP= 1.34D-10
 IDIUse=1 WtCom= 1.00D+00 WtEn= 0.00D+00
 Coeff-Com:  0.414D-02-0.473D-02 0.682D-03-0.323D-03-0.282D-03 0.261D-02
 Coeff-Com:  0.287D-02-0.639D-02-0.620D-02 0.431D-02 0.638D-01 0.169D-01
 Coeff-Com: -0.627D+00 0.726D+00 0.823D+00
 Coeff:      0.414D-02-0.473D-02 0.682D-03-0.323D-03-0.282D-03 0.261D-02
 Coeff:      0.287D-02-0.639D-02-0.620D-02 0.431D-02 0.638D-01 0.169D-01
 Coeff:     -0.627D+00 0.726D+00 0.823D+00
 Gap=     0.089 Goal=   None    Shift=    0.000
 RMSDP=1.07D-07 MaxDP=1.15D-05 DE=-2.46D-10 OVMax= 4.57D-06

 Cycle  16  Pass 1  IDiag  1:
 E= -61.8323295955054     Delta-E=       -0.000000000014 Rises=F Damp=F
 DIIS: error= 1.32D-07 at cycle  16 NSaved=  16.
 NSaved=16 IEnMin=16 EnMin= -61.8323295955054     IErMin=16 ErrMin= 1.32D-07
 ErrMax= 1.32D-07  0.00D+00 EMaxC= 1.00D-01 BMatC= 1.75D-12 BMatP= 8.94D-12
 IDIUse=1 WtCom= 1.00D+00 WtEn= 0.00D+00
 Large coefficients: NSaved= 16 BigCof=    0.00 CofMax=   10.00 Det=-1.68D-15
 Inversion failed.  Reducing to 15 matrices.
 Coeff-Com:  0.189D-10-0.140D-05 0.928D-04-0.163D-03-0.116D-02-0.435D-03
 Coeff-Com:  0.411D-02 0.169D-02-0.248D-01 0.517D-02 0.515D-01 0.937D-01
 Coeff-Com: -0.377D+00 0.128D+00 0.112D+01
 Coeff:      0.189D-10-0.140D-05 0.928D-04-0.163D-03-0.116D-02-0.435D-03
 Coeff:      0.411D-02 0.169D-02-0.248D-01 0.517D-02 0.515D-01 0.937D-01
 Coeff:     -0.377D+00 0.128D+00 0.112D+01
 Gap=     0.089 Goal=   None    Shift=    0.000
 RMSDP=8.63D-08 MaxDP=9.27D-06 DE=-1.39D-11 OVMax= 3.62D-06

 Cycle  17  Pass 1  IDiag  1:
 E= -61.8323295955092     Delta-E=       -0.000000000004 Rises=F Damp=F
 DIIS: error= 7.65D-10 at cycle  17 NSaved=  16.
 NSaved=16 IEnMin=16 EnMin= -61.8323295955092     IErMin=16 ErrMin= 7.65D-10
 ErrMax= 7.65D-10  0.00D+00 EMaxC= 1.00D-01 BMatC= 8.40D-17 BMatP= 1.75D-12
 IDIUse=1 WtCom= 1.00D+00 WtEn= 0.00D+00
 Large coefficients: NSaved= 16 BigCof=    0.00 CofMax=   10.00 Det=-3.68D-16
 Inversion failed.  Reducing to 15 matrices.
 Coeff-Com: -0.980D-06 0.414D-04-0.194D-04-0.400D-03-0.304D-03 0.109D-02
 Coeff-Com:  0.138D-02-0.472D-02-0.408D-02 0.456D-02 0.584D-01-0.686D-01
 Coeff-Com: -0.888D-01 0.649D-01 0.104D+01
 Coeff:     -0.980D-06 0.414D-04-0.194D-04-0.400D-03-0.304D-03 0.109D-02
 Coeff:      0.138D-02-0.472D-02-0.408D-02 0.456D-02 0.584D-01-0.686D-01
 Coeff:     -0.888D-01 0.649D-01 0.104D+01
 Gap=     0.089 Goal=   None    Shift=    0.000
 RMSDP=4.16D-10 MaxDP=6.14D-08 DE=-3.81D-12 OVMax= 3.78D-08

 SCF Done:  E(ROHF) =  -61.8323295955     A.U. after   17 cycles
            NFock= 17  Conv=0.42D-09     -V/T= 3.0968
 <Sx>= 0.0000 <Sy>= 0.0000 <Sz>= 0.5000 <S**2>= 0.7500 S= 0.5000
 <L.S>=  0.00000000000    
 KE= 2.948892433057D+01 PE=-1.740738274901D+02 EE= 6.220804655179D+01
 Annihilation of the first spin contaminant:
 S**2 before annihilation     0.7500,   after     0.7500
 Leave Link  502 at Wed Feb 21 03:58:25 2018, MaxMem= 10737418240 cpu:            2280.6 elap:              86.6
 (Enter /home1/apps/gaussian/16rA.03/g16/l801.exe)
 Windowed orbitals will be sorted by symmetry type.
 GenMOA:  NOpAll=  4 NOp2=4 NOpUse=  4 JSym2X=1
 FoFJK:  IHMeth= 1 ICntrl=       0 DoSepK=F KAlg= 0 I1Cent=           0 FoldK=F
 IRaf=         0 NMat=       1 IRICut=       1 DoRegI=T DoRafI=F ISym2E= 1 IDoP0=0 IntGTp=1.
 FoFCou: FMM=F IPFlag=           8 FMFlag=      100000 FMFlg1=           0
         NFxFlg=           0 DoJE=F BraDBF=F KetDBF=F FulRan=T
         wScrn=  0.000000 ICntrl=         0 IOpCl=  1 I1Cent=           0 NGrid=           0
         NMat0=    1 NMatS0=      1 NMatT0=    0 NMatD0=    1 NMtDS0=    0 NMtDT0=    0
 Petite list used in FoFCou.
 <Sx>= 0.0000 <Sy>= 0.0000 <Sz>= 0.5000 <S**2>= 0.7500 S= 0.5000
 Range of M.O.s used for correlation:     1   383
 NBasis=   384 NAE=     9 NBE=     8 NFC=     0 NFV=     0
 NROrb=    383 NOA=     9 NOB=     8 NVA=   374 NVB=   375

 **** Warning!!: The largest alpha MO coefficient is  0.31314951D+03


 **** Warning!!: The largest beta MO coefficient is  0.31314815D+03

 Singles contribution to E2=   -0.2018478278D-03
 Leave Link  801 at Wed Feb 21 03:58:46 2018, MaxMem= 10737418240 cpu:             662.6 elap:              20.8
 (Enter /home1/apps/gaussian/16rA.03/g16/l804.exe)
 Open-shell transformation, MDV= 10737418240 ITran=4 ISComp=2.
 Unit  1 TFree=       4459792 TCopy=       3230343.
 Semi-Direct transformation.
 ModeAB=           4 MOrb=             9 LenV=   10733048763
 LASXX=     63702177 LTotXX=    63702177 LenRXX=   128059521
 LTotAB=    64357344 MaxLAS=   422478108 LenRXY=           0
 NonZer=   191761698 LenScr=   288771072 LnRSAI=   422478108
 LnScr1=   636203008 LExtra=    17918730 Total=   1493430439
 MaxDsk= 67108864000 SrtSym=           T ITran=            4
 DoSDTr:  NPSUse= 32
 JobTyp=1 Pass  1:  I=   1 to   9.
 (rs|ai) integrals will be sorted in core.
 Complete sort for first half transformation.
 First half transformation complete.
 Complete sort for second half transformation.
 Second half transformation complete.
 ModeAB=           4 MOrb=             8 LenV=   10733048763
 LASXX=     56573606 LTotXX=    56573606 LenRXX=   111007430
 LTotAB=    54433824 MaxLAS=   375536096 LenRXY=           0
 NonZer=   167581036 LenScr=   252357632 LnRSAI=   375536096
 LnScr1=   565513216 LExtra=   145978251 Total=   1450392625
 MaxDsk= 67108864000 SrtSym=           T ITran=            4
 DoSDTr:  NPSUse= 32
 JobTyp=2 Pass  1:  I=   1 to   8.
 (rs|ai) integrals will be sorted in core.
 Complete sort for first half transformation.
 First half transformation complete.
 Complete sort for second half transformation.
 Second half transformation complete.
 Spin components of T(2) and E(2):
     alpha-alpha T2 =       0.3123470555D-01 E2=     -0.9862364113D-01
     alpha-beta  T2 =       0.1329175565D+00 E2=     -0.5214635370D+00
     beta-beta   T2 =       0.2695042503D-01 E2=     -0.8966311504D-01
 ANorm=    0.1091463179D+01
 E2 =    -0.7099521410D+00 EUMP2 =    -0.62542281736485D+02
 (S**2,0)=  0.75000D+00           (S**2,1)=  0.75000D+00
 E(PUHF)=      -0.61832329596D+02        E(PMP2)=      -0.62542281736D+02
 Recovering and transforming amplitudes from chk file.
 B after Tr=     0.000000    0.000000    0.000000
         Rot=    1.000000    0.000000    0.000000    0.000000 Ang=   0.00 deg.
 Alpha occ  Sing. vals= 9.999981D-01 9.999976D-01 9.999975D-01 9.999975D-01 9.999962D-01 9.999954D-01 9.999780D-01 9.999728D-01 9.999728D-01
 Alpha occ  NOrbO=     9 NOrbN=     9 NSVal=     9 ThrEig=  0.900000.
 TrMax= 1.000000D+00 PrMax= 1.000000D+00 Trace(Pr)= 9.000000D+00
 B after Tr=     0.000000    0.000000    0.000000
         Rot=    1.000000    0.000000    0.000000    0.000000 Ang=   0.00 deg.
 Alpha virt Sing. vals= 1.000000D+00 1.000000D+00 1.000000D+00 1.000000D+00 1.000000D+00 1.000000D+00 1.000000D+00 1.000000D+00 1.000000D+00 1.000000D+00
 Alpha virt Sing. vals= 1.000000D+00 1.000000D+00 1.000000D+00 1.000000D+00 1.000000D+00 1.000000D+00 1.000000D+00 1.000000D+00 1.000000D+00 1.000000D+00
 Alpha virt Sing. vals= 1.000000D+00 1.000000D+00 1.000000D+00 1.000000D+00 1.000000D+00 1.000000D+00 1.000000D+00 1.000000D+00 1.000000D+00 1.000000D+00
 Alpha virt Sing. vals= 1.000000D+00 1.000000D+00 1.000000D+00 1.000000D+00 9.999999D-01 9.999999D-01 9.999999D-01 9.999999D-01 9.999999D-01 9.999999D-01
 Alpha virt Sing. vals= 9.999999D-01 9.999999D-01 9.999998D-01 9.999997D-01 9.999997D-01 9.999997D-01 9.999996D-01 9.999994D-01 9.999991D-01 9.999991D-01
 Alpha virt Sing. vals= 9.999991D-01 9.999990D-01 9.999990D-01 9.999990D-01 9.999988D-01 9.999977D-01 9.999975D-01 9.999975D-01 9.999972D-01 9.999972D-01
 Alpha virt Sing. vals= 9.999972D-01 9.999954D-01 9.999950D-01 9.999950D-01 9.999948D-01 9.999927D-01 9.999921D-01 9.999921D-01 9.999911D-01 9.999910D-01
 Alpha virt Sing. vals= 9.999910D-01 9.999905D-01 9.999905D-01 9.999888D-01 9.999871D-01 9.999866D-01 9.999866D-01 9.999865D-01 9.999821D-01 9.999821D-01
 Alpha virt Sing. vals= 9.999804D-01 9.999743D-01 9.999609D-01 9.999609D-01 9.999603D-01 9.999547D-01 9.999547D-01 9.999500D-01 9.999343D-01 9.999343D-01
 Alpha virt Sing. vals= 9.999281D-01 9.999240D-01 9.999221D-01 9.998959D-01 9.998887D-01 9.998887D-01 9.998835D-01 9.998835D-01 9.998423D-01 9.998226D-01
 Alpha virt Sing. vals= 9.998226D-01 9.998055D-01 9.997675D-01 9.997651D-01 9.997651D-01 9.997613D-01 9.997613D-01 9.997407D-01 9.997407D-01 9.997407D-01
 Alpha virt Sing. vals= 9.996943D-01 9.996307D-01 9.996307D-01 9.996117D-01 9.995815D-01 9.995590D-01 9.995382D-01 9.995382D-01 9.994786D-01 9.994786D-01
 Alpha virt Sing. vals= 9.993154D-01 9.992810D-01 9.992810D-01 9.992170D-01 9.992170D-01 9.991005D-01 9.990979D-01 9.990979D-01 9.990380D-01 9.990380D-01
 Alpha virt Sing. vals= 9.990083D-01 9.990083D-01 9.987828D-01 9.987828D-01 9.987773D-01 9.987751D-01 9.987751D-01 9.987513D-01 9.984218D-01 9.983704D-01
 Alpha virt Sing. vals= 9.983704D-01 9.983664D-01 9.983664D-01 9.982423D-01 9.982013D-01 9.982013D-01 9.979871D-01 9.979871D-01 9.979357D-01 9.979271D-01
 Alpha virt Sing. vals= 9.979271D-01 9.976533D-01 9.974618D-01 9.974618D-01 9.969505D-01 9.965212D-01 9.965212D-01 9.965028D-01 9.964973D-01 9.964973D-01
 Alpha virt Sing. vals= 9.956152D-01 9.953156D-01 9.948016D-01 9.948016D-01 9.947870D-01 9.947870D-01 9.947382D-01 9.947380D-01 9.947380D-01 9.946615D-01
 Alpha virt Sing. vals= 9.946615D-01 9.944547D-01 9.944547D-01 9.937718D-01 9.933471D-01 9.933471D-01 9.926660D-01 9.926660D-01 9.924542D-01 9.924542D-01
 Alpha virt Sing. vals= 9.922469D-01 9.908090D-01 9.908090D-01 9.900516D-01 9.894798D-01 9.894798D-01 9.886844D-01 9.857246D-01 9.836123D-01 9.836123D-01
 Alpha virt Sing. vals= 9.834165D-01 9.834165D-01 9.800669D-01 9.788688D-01 9.787625D-01 9.787625D-01 9.777727D-01 9.777727D-01 9.776239D-01 9.776239D-01
 Alpha virt Sing. vals= 9.771864D-01 9.771864D-01 9.771265D-01 9.771265D-01 9.767578D-01 9.767578D-01 9.766509D-01 9.766509D-01 9.740391D-01 9.722015D-01
 Alpha virt Sing. vals= 9.722015D-01 9.576256D-01 9.526270D-01 9.507422D-01 9.507422D-01 9.500408D-01 9.500408D-01 9.430290D-01 9.351134D-01 9.351134D-01
 Alpha virt Sing. vals= 9.350908D-01 9.322886D-01 9.322886D-01 9.317165D-01 9.317165D-01 9.311983D-01 9.311983D-01 9.308094D-01 9.200380D-01 9.182449D-01
 Alpha virt Sing. vals= 9.182449D-01 9.101758D-01 9.101758D-01 9.096831D-01 9.096831D-01 9.096362D-01 9.012616D-01 9.012616D-01 8.962109D-01 8.962109D-01
 Alpha virt Sing. vals= 8.938133D-01 8.888611D-01 8.888611D-01 8.852015D-01 8.852015D-01 8.801984D-01 8.801984D-01 8.427309D-01 5.293448D-01
 Alpha virt NOrbO=   249 NOrbN=   374 NSVal=   238 ThrEig=  0.900000.
 TrMax= 9.994540D-01 PrMax= 9.997292D-01 Trace(Pr)= 2.380000D+02
 B after Tr=     0.000000    0.000000    0.000000
         Rot=    1.000000    0.000000    0.000000    0.000000 Ang=   0.00 deg.
 Beta  occ  Sing. vals= 9.999980D-01 9.999975D-01 9.999975D-01 9.999972D-01 9.999960D-01 9.999780D-01 9.999728D-01 9.999728D-01
 Beta  occ  NOrbO=     8 NOrbN=     8 NSVal=     8 ThrEig=  0.900000.
 TrMax= 1.000000D+00 PrMax= 1.000000D+00 Trace(Pr)= 8.000000D+00
 B after Tr=     0.000000    0.000000    0.000000
         Rot=    1.000000    0.000000    0.000000    0.000000 Ang=   0.00 deg.
 Beta  virt Sing. vals= 1.000000D+00 1.000000D+00 1.000000D+00 1.000000D+00 1.000000D+00 1.000000D+00 1.000000D+00 1.000000D+00 1.000000D+00 1.000000D+00
 Beta  virt Sing. vals= 1.000000D+00 1.000000D+00 1.000000D+00 1.000000D+00 1.000000D+00 1.000000D+00 1.000000D+00 1.000000D+00 1.000000D+00 1.000000D+00
 Beta  virt Sing. vals= 1.000000D+00 1.000000D+00 1.000000D+00 1.000000D+00 1.000000D+00 1.000000D+00 1.000000D+00 1.000000D+00 1.000000D+00 1.000000D+00
 Beta  virt Sing. vals= 1.000000D+00 1.000000D+00 1.000000D+00 1.000000D+00 1.000000D+00 9.999999D-01 9.999999D-01 9.999999D-01 9.999999D-01 9.999999D-01
 Beta  virt Sing. vals= 9.999999D-01 9.999999D-01 9.999999D-01 9.999998D-01 9.999997D-01 9.999997D-01 9.999997D-01 9.999996D-01 9.999994D-01 9.999991D-01
 Beta  virt Sing. vals= 9.999991D-01 9.999991D-01 9.999990D-01 9.999990D-01 9.999990D-01 9.999988D-01 9.999977D-01 9.999975D-01 9.999975D-01 9.999972D-01
 Beta  virt Sing. vals= 9.999972D-01 9.999972D-01 9.999954D-01 9.999950D-01 9.999950D-01 9.999948D-01 9.999927D-01 9.999921D-01 9.999921D-01 9.999911D-01
 Beta  virt Sing. vals= 9.999910D-01 9.999910D-01 9.999905D-01 9.999905D-01 9.999888D-01 9.999871D-01 9.999866D-01 9.999866D-01 9.999865D-01 9.999821D-01
 Beta  virt Sing. vals= 9.999821D-01 9.999804D-01 9.999743D-01 9.999609D-01 9.999609D-01 9.999603D-01 9.999547D-01 9.999547D-01 9.999500D-01 9.999343D-01
 Beta  virt Sing. vals= 9.999343D-01 9.999281D-01 9.999239D-01 9.999221D-01 9.998959D-01 9.998887D-01 9.998887D-01 9.998835D-01 9.998835D-01 9.998422D-01
 Beta  virt Sing. vals= 9.998226D-01 9.998226D-01 9.998055D-01 9.997675D-01 9.997651D-01 9.997651D-01 9.997613D-01 9.997613D-01 9.997407D-01 9.997407D-01
 Beta  virt Sing. vals= 9.997407D-01 9.996941D-01 9.996307D-01 9.996307D-01 9.996117D-01 9.995815D-01 9.995590D-01 9.995382D-01 9.995382D-01 9.994786D-01
 Beta  virt Sing. vals= 9.994786D-01 9.993154D-01 9.992810D-01 9.992810D-01 9.992170D-01 9.992170D-01 9.991005D-01 9.990979D-01 9.990979D-01 9.990380D-01
 Beta  virt Sing. vals= 9.990380D-01 9.990083D-01 9.990083D-01 9.987828D-01 9.987828D-01 9.987774D-01 9.987751D-01 9.987751D-01 9.987513D-01 9.984218D-01
 Beta  virt Sing. vals= 9.983704D-01 9.983704D-01 9.983664D-01 9.983664D-01 9.982423D-01 9.982013D-01 9.982013D-01 9.979871D-01 9.979871D-01 9.979357D-01
 Beta  virt Sing. vals= 9.979271D-01 9.979271D-01 9.976531D-01 9.974618D-01 9.974618D-01 9.969504D-01 9.965212D-01 9.965212D-01 9.965028D-01 9.964973D-01
 Beta  virt Sing. vals= 9.964973D-01 9.956152D-01 9.953155D-01 9.948016D-01 9.948016D-01 9.947870D-01 9.947870D-01 9.947382D-01 9.947380D-01 9.947380D-01
 Beta  virt Sing. vals= 9.946615D-01 9.946615D-01 9.944547D-01 9.944547D-01 9.937718D-01 9.933471D-01 9.933471D-01 9.926660D-01 9.926660D-01 9.924542D-01
 Beta  virt Sing. vals= 9.924542D-01 9.922469D-01 9.908090D-01 9.908090D-01 9.900514D-01 9.894798D-01 9.894798D-01 9.886844D-01 9.857245D-01 9.836123D-01
 Beta  virt Sing. vals= 9.836123D-01 9.834165D-01 9.834165D-01 9.800669D-01 9.788687D-01 9.787625D-01 9.787625D-01 9.777727D-01 9.777727D-01 9.776239D-01
 Beta  virt Sing. vals= 9.776239D-01 9.771864D-01 9.771864D-01 9.771265D-01 9.771265D-01 9.767578D-01 9.767578D-01 9.766509D-01 9.766509D-01 9.740390D-01
 Beta  virt Sing. vals= 9.722015D-01 9.722015D-01 9.576255D-01 9.526270D-01 9.507422D-01 9.507422D-01 9.500408D-01 9.500408D-01 9.430290D-01 9.351134D-01
 Beta  virt Sing. vals= 9.351134D-01 9.350908D-01 9.322886D-01 9.322886D-01 9.317165D-01 9.317165D-01 9.311983D-01 9.311983D-01 9.308094D-01 9.200379D-01
 Beta  virt Sing. vals= 9.182449D-01 9.182449D-01 9.101758D-01 9.101758D-01 9.096831D-01 9.096831D-01 9.096362D-01 9.012616D-01 9.012616D-01 8.962109D-01
 Beta  virt Sing. vals= 8.962109D-01 8.938133D-01 8.888611D-01 8.888611D-01 8.852015D-01 8.852015D-01 8.801984D-01 8.801984D-01 8.427309D-01 5.293449D-01
 Beta  virt NOrbO=   250 NOrbN=   375 NSVal=   239 ThrEig=  0.900000.
 TrMax= 9.999374D-01 PrMax= 9.999796D-01 Trace(Pr)= 2.390000D+02
 Leave Link  804 at Wed Feb 21 04:10:05 2018, MaxMem= 10737418240 cpu:           21702.5 elap:             679.0
 (Enter /home1/apps/gaussian/16rA.03/g16/l913.exe)
 CIDS:  MDV= 10737418240.
 IFCWin=0 IBDFC=1 NFBD=     0     0 NFCmp=     0     0 NFFFC=     0     0
 Amplitudes recovered.
 Using DD4UQ or CC4UQ for all iterations.
 Keep R2 and R3 ints in memory in symmetry-blocked form, NReq=3425131966.
 FoFCou: FMM=F IPFlag=           8 FMFlag=           0 FMFlg1=           0
         NFxFlg=           0 DoJE=F BraDBF=F KetDBF=F FulRan=T
         wScrn=  0.000000 ICntrl=       600 IOpCl=  0 I1Cent=           0 NGrid=           0
         NMat0=    1 NMatS0=  73920 NMatT0=    0 NMatD0=    1 NMtDS0=    0 NMtDT0=    0
 Petite list used in FoFCou.
 CIDS: In Core Option IDoMem=           1.
 CCSD(T)
 =======
 Iterations= 150 Convergence= 0.100D-06
 Produce multiple copies of IABC intergrals
 Iteration Nr.   1
 **********************
 DD1Dir will call FoFMem   1 times, MxPair=       208
 NAB=    72 NAA=    36 NBB=    28.
 Maximum subspace dimension=  5
 A-vector RMS=  1.3038529D-04 Max=  9.4494025D-04 conv= 1.00D-05.
 RLE energy=       -0.6943986972
 DE(Corr)= -0.69418542     E(Corr)=     -62.526515020    
 NORM(A)=   0.11054624D+01
 Iteration Nr.   2
 **********************
 DD1Dir will call FoFMem   1 times, MxPair=       208
 NAB=    72 NAA=    36 NBB=    28.
 A-vector RMS=  9.3056033D-05 Max=  8.9195823D-04 conv= 1.00D-05.
 RLE energy=       -0.6942070696
 DE(Corr)= -0.69422191     E(CORR)=     -62.526551504     Delta=-3.65D-05
 NORM(A)=   0.11059734D+01
 Iteration Nr.   3
 **********************
 DD1Dir will call FoFMem   1 times, MxPair=       208
 NAB=    72 NAA=    36 NBB=    28.
 A-vector RMS=  5.4124937D-05 Max=  6.6066204D-04 conv= 1.00D-05.
 RLE energy=       -0.6947846996
 DE(Corr)= -0.69493870     E(CORR)=     -62.527268297     Delta=-7.17D-04
 NORM(A)=   0.11060772D+01
 Iteration Nr.   4
 **********************
 DD1Dir will call FoFMem   1 times, MxPair=       208
 NAB=    72 NAA=    36 NBB=    28.
 A-vector RMS=  4.4052640D-05 Max=  4.2353129D-04 conv= 1.00D-05.
 RLE energy=       -0.6946611371
 DE(Corr)= -0.69450349     E(CORR)=     -62.526833089     Delta= 4.35D-04
 NORM(A)=   0.11062771D+01
 Iteration Nr.   5
 **********************
 DD1Dir will call FoFMem   1 times, MxPair=       208
 NAB=    72 NAA=    36 NBB=    28.
 A-vector RMS=  1.0866370D-05 Max=  2.4823573D-04 conv= 1.00D-05.
 RLE energy=       -0.6946795675
 DE(Corr)= -0.69469524     E(CORR)=     -62.527024840     Delta=-1.92D-04
 NORM(A)=   0.11064133D+01
 Iteration Nr.   6
 **********************
 DD1Dir will call FoFMem   1 times, MxPair=       208
 NAB=    72 NAA=    36 NBB=    28.
 A-vector RMS=  7.5723949D-06 Max=  1.3080653D-04 conv= 1.00D-05.
 RLE energy=       -0.6946843977
 DE(Corr)= -0.69468017     E(CORR)=     -62.527009766     Delta= 1.51D-05
 NORM(A)=   0.11065002D+01
 Iteration Nr.   7
 **********************
 DD1Dir will call FoFMem   1 times, MxPair=       208
 NAB=    72 NAA=    36 NBB=    28.
 A-vector RMS=  3.2398270D-06 Max=  6.2320297D-05 conv= 1.00D-05.
 RLE energy=       -0.6946922684
 DE(Corr)= -0.69469072     E(CORR)=     -62.527020318     Delta=-1.06D-05
 NORM(A)=   0.11065271D+01
 Iteration Nr.   8
 **********************
 DD1Dir will call FoFMem   1 times, MxPair=       208
 NAB=    72 NAA=    36 NBB=    28.
 A-vector RMS=  1.6237374D-06 Max=  3.0641677D-05 conv= 1.00D-05.
 RLE energy=       -0.6946880599
 DE(Corr)= -0.69468939     E(CORR)=     -62.527018985     Delta= 1.33D-06
 NORM(A)=   0.11065374D+01
 Iteration Nr.   9
 **********************
 DD1Dir will call FoFMem   1 times, MxPair=       208
 NAB=    72 NAA=    36 NBB=    28.
 A-vector RMS=  1.0072199D-06 Max=  1.1877528D-05 conv= 1.00D-05.
 RLE energy=       -0.6946927576
 DE(Corr)= -0.69469250     E(CORR)=     -62.527022097     Delta=-3.11D-06
 NORM(A)=   0.11065403D+01
 Iteration Nr.  10
 **********************
 DD1Dir will call FoFMem   1 times, MxPair=       208
 NAB=    72 NAA=    36 NBB=    28.
 A-vector RMS=  4.5953206D-07 Max=  4.6963594D-06 conv= 1.00D-05.
 RLE energy=       -0.6946898868
 DE(Corr)= -0.69468949     E(CORR)=     -62.527019089     Delta= 3.01D-06
 NORM(A)=   0.11065420D+01
 Iteration Nr.  11
 **********************
 DD1Dir will call FoFMem   1 times, MxPair=       208
 NAB=    72 NAA=    36 NBB=    28.
 A-vector RMS=  4.0545826D-07 Max=  4.6172745D-06 conv= 1.00D-05.
 RLE energy=       -0.6946918448
 DE(Corr)= -0.69469258     E(CORR)=     -62.527022172     Delta=-3.08D-06
 NORM(A)=   0.11065417D+01
 Iteration Nr.  12
 **********************
 DD1Dir will call FoFMem   1 times, MxPair=       208
 NAB=    72 NAA=    36 NBB=    28.
 A-vector RMS=  1.8990292D-07 Max=  2.2117070D-06 conv= 1.00D-05.
 RLE energy=       -0.6946910717
 DE(Corr)= -0.69469053     E(CORR)=     -62.527020127     Delta= 2.05D-06
 NORM(A)=   0.11065420D+01
 Iteration Nr.  13
 **********************
 DD1Dir will call FoFMem   1 times, MxPair=       208
 NAB=    72 NAA=    36 NBB=    28.
 A-vector RMS=  8.8074663D-08 Max=  8.3035100D-07 conv= 1.00D-05.
 RLE energy=       -0.6946912963
 DE(Corr)= -0.69469142     E(CORR)=     -62.527021013     Delta=-8.86D-07
 NORM(A)=   0.11065421D+01
 Iteration Nr.  14
 **********************
 DD1Dir will call FoFMem   1 times, MxPair=       208
 NAB=    72 NAA=    36 NBB=    28.
 A-vector RMS=  3.9494738D-08 Max=  3.9966518D-07 conv= 1.00D-05.
 RLE energy=       -0.6946912669
 DE(Corr)= -0.69469123     E(CORR)=     -62.527020828     Delta= 1.85D-07
 NORM(A)=   0.11065422D+01
 Iteration Nr.  15
 **********************
 DD1Dir will call FoFMem   1 times, MxPair=       208
 NAB=    72 NAA=    36 NBB=    28.
 A-vector RMS=  3.0014419D-08 Max=  3.2425142D-07 conv= 1.00D-05.
 RLE energy=       -0.6946913003
 DE(Corr)= -0.69469126     E(CORR)=     -62.527020854     Delta=-2.61D-08
 NORM(A)=   0.11065422D+01
 CI/CC converged in   15 iterations to DelEn=-2.61D-08 Conv= 1.00D-07 ErrA1= 3.00D-08 Conv= 1.00D-05
 Wavefunction amplitudes converged. E(Corr)=     -62.527020854    
 Largest amplitude= 8.80D-02
 Time for triples=    77302.76 seconds.
 T4(CCSD)= -0.51042727D-01
 T5(CCSD)=  0.89256239D-02
 CCSD(T)= -0.62569137957D+02
 Discarding MO integrals.
 Leave Link  913 at Wed Feb 21 05:01:13 2018, MaxMem= 10737418240 cpu:           98127.8 elap:            3068.2
 (Enter /home1/apps/gaussian/16rA.03/g16/l601.exe)
 Copying SCF densities to generalized density rwf, IOpCl= 0 IROHF=1.

 **********************************************************************

            Population analysis using the SCF density.

 **********************************************************************

 Orbital symmetries:
       Occupied  (SG) (SG) (PI) (PI) (SG) (SG) (PI) (PI) (SG)
       Virtual   (PI) (PI) (SG) (SG) (DLTA) (DLTA) (PI) (PI) (SG)
                 (PI) (PI) (SG) (DLTA) (DLTA) (PI) (PI) (SG) (SG)
                 (PI) (PI) (SG) (DLTA) (DLTA) (PHI) (PHI) (PI)
                 (PI) (DLTA) (DLTA) (SG) (PI) (PI) (SG) (PI) (PI)
                 (DLTA) (DLTA) (SG) (PI) (PI) (SG) (SG) (DLTA)
                 (DLTA) (PI) (PI) (?A) (?A) (SG) (PHI) (PHI) (PI)
                 (PI) (PHI) (PHI) (DLTA) (DLTA) (SG) (SG) (SG)
                 (PI) (PI) (DLTA) (DLTA) (PI) (PI) (SG) (?B) (?B)
                 (DLTA) (DLTA) (PHI) (PHI) (PI) (PI) (?A) (?A)
                 (SG) (PI) (PI) (DLTA) (DLTA) (SG) (SG) (PI) (PI)
                 (SG) (PI) (PI) (?A) (?A) (PHI) (PHI) (DLTA) (DLTA)
                 (SG) (PI) (PI) (PHI) (PHI) (DLTA) (DLTA) (SG)
                 (DLTA) (DLTA) (PI) (PI) (PI) (PI) (SG) (PHI) (PHI)
                 (SG) (DLTA) (DLTA) (PI) (PI) (SG) (DLTA) (DLTA)
                 (SG) (SG) (PI) (PI) (PI) (PI) (SG) (?B) (?B) (?A)
                 (?A) (PHI) (PHI) (SG) (DLTA) (DLTA) (PI) (PI)
                 (PI) (PI) (DLTA) (DLTA) (SG) (PI) (PI) (PHI) (PHI)
                 (PI) (PI) (DLTA) (DLTA) (?A) (?A) (SG) (SG) (DLTA)
                 (DLTA) (PHI) (PHI) (?A) (?A) (SG) (PHI) (PHI)
                 (PI) (PI) (PHI) (PHI) (SG) (DLTA) (DLTA) (DLTA)
                 (DLTA) (SG) (PI) (PI) (PI) (PI) (DLTA) (DLTA)
                 (SG) (SG) (DLTA) (DLTA) (PI) (PI) (SG) (PI) (PI)
                 (PI) (PI) (SG) (SG) (PI) (PI) (PHI) (PHI) (DLTA)
                 (DLTA) (SG) (PI) (PI) (SG) (PI) (PI) (DLTA) (DLTA)
                 (SG) (?A) (?A) (PI) (PI) (SG) (PHI) (PHI) (DLTA)
                 (DLTA) (PI) (PI) (?B) (?B) (?A) (?A) (SG) (PHI)
                 (PHI) (DLTA) (DLTA) (PI) (PI) (?A) (?A) (PHI)
                 (PHI) (DLTA) (DLTA) (SG) (SG) (PHI) (PHI) (PI)
                 (PI) (DLTA) (DLTA) (SG) (DLTA) (DLTA) (PI) (PI)
                 (SG) (PI) (PI) (SG) (SG) (DLTA) (DLTA) (PI) (PI)
                 (SG) (PI) (PI) (SG) (SG) (PI) (PI) (SG) (SG) (PI)
                 (PI) (SG) (DLTA) (DLTA) (PI) (PI) (SG) (SG) (DLTA)
                 (DLTA) (PI) (PI) (SG) (PI) (PI) (SG) (SG) (DLTA)
                 (DLTA) (PI) (PI) (SG) (PI) (PI) (SG) (SG) (PI)
                 (PI) (SG) (PHI) (PHI) (DLTA) (DLTA) (PI) (PI)
                 (SG) (SG) (SG) (PI) (PI) (SG) (PI) (PI) (SG) (DLTA)
                 (DLTA) (PI) (PI) (SG) (SG) (DLTA) (DLTA) (PI)
                 (PI) (SG) (SG) (PI) (PI) (SG) (PI) (PI) (SG) (SG)
                 (SG) (SG) (DLTA) (DLTA) (PI) (PI) (SG) (PI) (PI)
                 (SG) (PI) (PI) (SG) (SG) (SG) (PI) (PI) (SG) (SG)
                 (SG) (PI) (PI) (SG) (SG) (SG) (PI) (PI) (SG) (SG)
                 (PI) (PI) (SG) (SG) (SG) (PI) (PI) (SG) (SG) (SG)
                 (SG) (SG) (SG) (SG)
 The electronic state is 2-SG.
 Alpha  occ. eigenvalues --   -2.66356  -1.66770  -1.63794  -1.63794  -1.11785
 Alpha  occ. eigenvalues --   -0.42765  -0.41223  -0.41223  -0.25180
 Alpha virt. eigenvalues --   -0.00044  -0.00044   0.01312   0.02041   0.02701
 Alpha virt. eigenvalues --    0.02701   0.02978   0.02978   0.03232   0.03232
 Alpha virt. eigenvalues --    0.03450   0.04613   0.06745   0.06745   0.09309
 Alpha virt. eigenvalues --    0.09309   0.09388   0.10016   0.11502   0.11502
 Alpha virt. eigenvalues --    0.11662   0.11662   0.11754   0.12047   0.12047
 Alpha virt. eigenvalues --    0.12391   0.12391   0.12816   0.13151   0.13151
 Alpha virt. eigenvalues --    0.20399   0.20399   0.22115   0.25835   0.25835
 Alpha virt. eigenvalues --    0.25999   0.25999   0.27247   0.28929   0.28929
 Alpha virt. eigenvalues --    0.29421   0.33070   0.33971   0.33971   0.34097
 Alpha virt. eigenvalues --    0.34097   0.35034   0.35339   0.35339   0.36149
 Alpha virt. eigenvalues --    0.36149   0.42986   0.42986   0.43884   0.43884
 Alpha virt. eigenvalues --    0.44427   0.44427   0.47039   0.56268   0.58561
 Alpha virt. eigenvalues --    0.58861   0.58861   0.60912   0.60912   0.63675
 Alpha virt. eigenvalues --    0.63675   0.71580   0.72162   0.72162   0.72605
 Alpha virt. eigenvalues --    0.72605   0.72868   0.72868   0.72975   0.72975
 Alpha virt. eigenvalues --    0.73438   0.73438   0.75920   0.78520   0.78520
 Alpha virt. eigenvalues --    0.79667   0.79667   0.87806   1.06468   1.15341
 Alpha virt. eigenvalues --    1.15341   1.20791   1.23514   1.23514   1.24972
 Alpha virt. eigenvalues --    1.24972   1.25589   1.25589   1.29440   1.29440
 Alpha virt. eigenvalues --    1.30042   1.36009   1.36009   1.38478   1.38478
 Alpha virt. eigenvalues --    1.39664   1.39664   1.41684   1.44364   1.44364
 Alpha virt. eigenvalues --    1.45438   1.45438   1.58350   1.58350   1.63734
 Alpha virt. eigenvalues --    1.72546   1.72546   1.74788   1.82252   1.82252
 Alpha virt. eigenvalues --    1.98609   1.98609   2.01944   2.10525   2.10525
 Alpha virt. eigenvalues --    2.27260   2.42009   2.52007   2.52007   2.78290
 Alpha virt. eigenvalues --    2.78290   2.83974   2.88980   2.88980   2.89993
 Alpha virt. eigenvalues --    2.89993   2.95627   2.95627   2.96186   2.98863
 Alpha virt. eigenvalues --    2.98863   3.00392   3.00392   3.07336   3.07336
 Alpha virt. eigenvalues --    3.15605   3.15605   3.28231   3.33792   3.33792
 Alpha virt. eigenvalues --    3.74258   3.74258   3.78270   3.78270   3.78391
 Alpha virt. eigenvalues --    3.78391   3.81608   3.81608   3.89081   3.96262
 Alpha virt. eigenvalues --    4.05413   4.05413   4.05819   4.05819   4.17011
 Alpha virt. eigenvalues --    4.17011   4.29484   4.33193   4.33193   4.34089
 Alpha virt. eigenvalues --    4.34089   4.35393   4.35393   4.47277   4.49666
 Alpha virt. eigenvalues --    4.49666   4.56130   4.56130   4.70653   4.72712
 Alpha virt. eigenvalues --    4.72712   5.16650   5.16650   5.26937   5.26937
 Alpha virt. eigenvalues --    5.43168   5.60441   5.77115   5.77115   5.77231
 Alpha virt. eigenvalues --    5.77231   5.82781   5.85578   5.85578   6.13017
 Alpha virt. eigenvalues --    6.13017   6.29866   6.78881   9.70301   9.70301
 Alpha virt. eigenvalues --    9.76848   9.76848   9.90892   9.90892  10.16963
 Alpha virt. eigenvalues --   10.20996  10.20996  10.39716  10.41366  10.41366
 Alpha virt. eigenvalues --   10.41727  10.41727  10.73185  10.75319  10.75319
 Alpha virt. eigenvalues --   10.82505  10.82505  10.86873  10.87805  10.87805
 Alpha virt. eigenvalues --   11.06252  11.06252  11.18955  11.18955  11.36690
 Alpha virt. eigenvalues --   11.36690  11.38273  11.38273  11.40316  11.42805
 Alpha virt. eigenvalues --   11.42805  11.48378  11.48378  11.49628  11.49628
 Alpha virt. eigenvalues --   11.70144  11.70144  11.71697  11.71697  11.80168
 Alpha virt. eigenvalues --   11.80168  11.82687  11.89105  11.98067  11.98067
 Alpha virt. eigenvalues --   12.00786  12.00786  12.17705  12.17705  12.53449
 Alpha virt. eigenvalues --   12.91368  12.91368  12.96673  12.96673  13.00034
 Alpha virt. eigenvalues --   13.34582  13.34582  13.54673  14.69899  18.37510
 Alpha virt. eigenvalues --   18.37510  18.43402  18.43402  18.59431  19.00151
 Alpha virt. eigenvalues --   19.00151  19.35233  22.63701  29.10368  29.10368
 Alpha virt. eigenvalues --   29.59901  30.40960  32.11902  32.11902  32.29911
 Alpha virt. eigenvalues --   33.19829  33.19829  33.24369  33.24369  33.47817
 Alpha virt. eigenvalues --   40.93067  52.17241  52.17241  52.37285  52.37285
 Alpha virt. eigenvalues --   52.63141  54.23785  54.23785  54.43365  59.76840
 Alpha virt. eigenvalues --   71.61849  71.61849  71.64924  71.64924  71.79886
 Alpha virt. eigenvalues --   72.10266  72.10266  72.91748  76.01678  93.89410
 Alpha virt. eigenvalues --   93.89410  94.06375 111.15963 111.15963 111.17095
 Alpha virt. eigenvalues --  111.17095 111.21213 111.21213 111.23191 111.61910
 Alpha virt. eigenvalues --  144.82901 159.15418 159.15418 159.88526 169.16651
 Alpha virt. eigenvalues --  169.16651 169.31972 191.93374 191.93374 191.95535
 Alpha virt. eigenvalues --  191.95535 192.07111 197.79715 224.54880 224.54880
 Alpha virt. eigenvalues --  224.65600 224.65600 224.79681 284.98725 318.81429
 Alpha virt. eigenvalues --  318.81429 318.95535 332.90858 332.90858 333.56299
 Alpha virt. eigenvalues --  342.07917 576.33440 591.21940 627.81368 627.81368
 Alpha virt. eigenvalues --  627.82707 627.82707 627.89654 629.90438 629.90438
 Alpha virt. eigenvalues --  630.03767 704.14036 704.14036 704.754981063.60919
 Alpha virt. eigenvalues -- 1195.051111312.293091312.293091312.409112231.27176
 Alpha virt. eigenvalues -- 2549.759722921.018972921.018972921.122065635.46813
 Alpha virt. eigenvalues -- 6107.411037127.034337127.034337127.12342**********
 Alpha virt. eigenvalues -- **************************************************
 Alpha virt. eigenvalues -- **************************************************
 Alpha virt. eigenvalues -- ****************************************
     Molecular Orbital Coefficients:
                           4         5         6         7         8
                           O         O         O         O         O
     Eigenvalues --    -1.63794  -1.11785  -0.42765  -0.41223  -0.41223
   1 1   Sc 1S          0.00000  -0.00000   0.00000   0.00000   0.00000
   2        2S          0.00000   0.00000  -0.00000   0.00000   0.00000
   3        3S          0.00000  -0.00000   0.00000   0.00000   0.00000
   4        4S          0.00000   0.00000  -0.00000   0.00000   0.00000
   5        5S          0.00000  -0.00000   0.00000   0.00000   0.00000
   6        6S          0.00000   0.00000  -0.00000   0.00000   0.00000
   7        7S          0.00000  -0.00000   0.00000   0.00000   0.00000
   8        8S          0.00000   0.00001  -0.00001   0.00000   0.00000
   9        9S          0.00000  -0.00003   0.00003   0.00000   0.00000
  10       10S          0.00000   0.00007  -0.00009   0.00000   0.00000
  11       11S          0.00000  -0.00018   0.00024   0.00000   0.00000
  12       12S          0.00000   0.00040  -0.00054   0.00000   0.00000
  13       13S          0.00000  -0.00061   0.00088   0.00000   0.00000
  14       14S          0.00000  -0.00163   0.00132   0.00000   0.00000
  15       15S          0.00000   0.02840  -0.03161   0.00000   0.00000
  16       16S          0.00000  -0.18702   0.21968   0.00000   0.00000
  17       17S          0.00000   0.01202  -0.00830   0.00000   0.00000
  18       18S          0.00000   0.11919  -0.16202   0.00000   0.00000
  19       19S          0.00000   0.03682  -0.06597   0.00000   0.00000
  20       20S          0.00000   0.00818   0.02559   0.00000   0.00000
  21       21S          0.00000   0.02660  -0.04960   0.00000   0.00000
  22       22S          0.00000  -0.00604   0.02454   0.00000   0.00000
  23       23S          0.00000   0.13780  -0.16519   0.00000   0.00000
  24       24S          0.00000  -0.01556   0.01841   0.00000   0.00000
  25       25S          0.00000   0.00072  -0.00272   0.00000   0.00000
  26       26PX        -0.00000   0.00000   0.00000  -0.00000   0.00000
  27       26PY         0.00000   0.00000   0.00000   0.00000  -0.00000
  28       26PZ         0.00000  -0.00000   0.00000   0.00000   0.00000
  29       27PX         0.00000   0.00000   0.00000   0.00000   0.00000
  30       27PY         0.00000   0.00000   0.00000   0.00000   0.00000
  31       27PZ         0.00000   0.00000  -0.00000   0.00000   0.00000
  32       28PX        -0.00000   0.00000   0.00000  -0.00000   0.00000
  33       28PY         0.00000   0.00000   0.00000   0.00000  -0.00000
  34       28PZ         0.00000  -0.00000   0.00000   0.00000   0.00000
  35       29PX         0.00001   0.00000   0.00000   0.00000   0.00000
  36       29PY         0.00000   0.00000   0.00000   0.00000   0.00000
  37       29PZ         0.00000   0.00000  -0.00000   0.00000   0.00000
  38       30PX        -0.00004   0.00000   0.00000  -0.00000   0.00000
  39       30PY         0.00000   0.00000   0.00000   0.00000  -0.00000
  40       30PZ         0.00000  -0.00001   0.00001   0.00000   0.00000
  41       31PX         0.00014   0.00000   0.00000   0.00001   0.00000
  42       31PY         0.00000   0.00000   0.00000   0.00000   0.00001
  43       31PZ         0.00000   0.00005  -0.00002   0.00000   0.00000
  44       32PX        -0.00039   0.00000   0.00000  -0.00004   0.00000
  45       32PY         0.00000   0.00000   0.00000   0.00000  -0.00004
  46       32PZ         0.00000  -0.00013   0.00005   0.00000   0.00000
  47       33PX         0.00081   0.00000   0.00000   0.00008   0.00000
  48       33PY         0.00000   0.00000   0.00000   0.00000   0.00008
  49       33PZ         0.00000   0.00029  -0.00009   0.00000   0.00000
  50       34PX         0.00114   0.00000   0.00000   0.00013   0.00000
  51       34PY         0.00000   0.00000   0.00000   0.00000   0.00013
  52       34PZ         0.00000   0.00027  -0.00035   0.00000   0.00000
  53       35PX        -0.03854   0.00000   0.00000  -0.00415   0.00000
  54       35PY         0.00000   0.00000   0.00000   0.00000  -0.00415
  55       35PZ         0.00000  -0.01224   0.00778   0.00000   0.00000
  56       36PX         0.56659   0.00000   0.00000   0.06794   0.00000
  57       36PY         0.00000   0.00000   0.00000   0.00000   0.06794
  58       36PZ         0.00000   0.19001  -0.13102   0.00000   0.00000
  59       37PX        -0.08803   0.00000   0.00000  -0.00592   0.00000
  60       37PY         0.00000   0.00000   0.00000   0.00000  -0.00592
  61       37PZ         0.00000  -0.02711   0.00251   0.00000   0.00000
  62       38PX        -0.53488   0.00000   0.00000  -0.07458   0.00000
  63       38PY         0.00000   0.00000   0.00000   0.00000  -0.07458
  64       38PZ         0.00000  -0.19458   0.15075   0.00000   0.00000
  65       39PX        -0.42941   0.00000   0.00000  -0.06041   0.00000
  66       39PY         0.00000   0.00000   0.00000   0.00000  -0.06041
  67       39PZ         0.00000  -0.14831   0.09672   0.00000   0.00000
  68       40PX        -0.15008   0.00000   0.00000  -0.00954   0.00000
  69       40PY         0.00000   0.00000   0.00000   0.00000  -0.00954
  70       40PZ         0.00000  -0.04626   0.01649   0.00000   0.00000
  71       41PX        -0.01138   0.00000   0.00000   0.00885   0.00000
  72       41PY         0.00000   0.00000   0.00000   0.00000   0.00885
  73       41PZ         0.00000  -0.01628   0.02722   0.00000   0.00000
  74       42PX         0.00331   0.00000   0.00000   0.00287   0.00000
  75       42PY         0.00000   0.00000   0.00000   0.00000   0.00287
  76       42PZ         0.00000  -0.00781   0.00892   0.00000   0.00000
  77       43PX        -0.00028   0.00000   0.00000  -0.01245   0.00000
  78       43PY         0.00000   0.00000   0.00000   0.00000  -0.01245
  79       43PZ         0.00000   0.00202  -0.01354   0.00000   0.00000
  80       44PX        -0.50005   0.00000   0.00000  -0.06359   0.00000
  81       44PY         0.00000   0.00000   0.00000   0.00000  -0.06359
  82       44PZ         0.00000  -0.17089   0.12694   0.00000   0.00000
  83       45PX         0.12006   0.00000   0.00000   0.02914   0.00000
  84       45PY         0.00000   0.00000   0.00000   0.00000   0.02914
  85       45PZ         0.00000   0.05556  -0.06642   0.00000   0.00000
  86       46PX         0.00013   0.00000   0.00000   0.00263   0.00000
  87       46PY         0.00000   0.00000   0.00000   0.00000   0.00263
  88       46PZ         0.00000   0.00003   0.00102   0.00000   0.00000
  89       47D 0        0.00000  -0.00000   0.00000   0.00000   0.00000
  90       47D+1        0.00000   0.00000   0.00000  -0.00000   0.00000
  91       47D-1        0.00000   0.00000   0.00000   0.00000  -0.00000
  92       47D+2        0.00000  -0.00000  -0.00000   0.00000   0.00000
  93       47D-2        0.00000   0.00000   0.00000   0.00000   0.00000
  94       48D 0        0.00000  -0.00000   0.00000   0.00000   0.00000
  95       48D+1       -0.00000   0.00000   0.00000  -0.00000   0.00000
  96       48D-1        0.00000   0.00000   0.00000   0.00000  -0.00000
  97       48D+2        0.00000  -0.00000   0.00000   0.00000   0.00000
  98       48D-2        0.00000   0.00000   0.00000   0.00000   0.00000
  99       49D 0        0.00000   0.00038  -0.00125   0.00000   0.00000
 100       49D+1       -0.00000   0.00000   0.00000   0.00081   0.00000
 101       49D-1        0.00000   0.00000   0.00000   0.00000   0.00081
 102       49D+2        0.00000   0.00000  -0.00000   0.00000   0.00000
 103       49D-2        0.00000   0.00000   0.00000   0.00000   0.00000
 104       50D 0        0.00000  -0.00981   0.03355   0.00000   0.00000
 105       50D+1        0.00004   0.00000   0.00000  -0.02133   0.00000
 106       50D-1        0.00000   0.00000   0.00000   0.00000  -0.02133
 107       50D+2        0.00000   0.00000   0.00000   0.00000   0.00000
 108       50D-2        0.00000   0.00000   0.00000   0.00000   0.00000
 109       51D 0        0.00000  -0.01138   0.03722   0.00000   0.00000
 110       51D+1       -0.00031   0.00000   0.00000  -0.02374   0.00000
 111       51D-1        0.00000   0.00000   0.00000   0.00000  -0.02374
 112       51D+2        0.00000  -0.00000  -0.00000   0.00000   0.00000
 113       51D-2        0.00000   0.00000   0.00000   0.00000   0.00000
 114       52D 0        0.00000  -0.01988   0.05412   0.00000   0.00000
 115       52D+1       -0.00217   0.00000   0.00000  -0.03765   0.00000
 116       52D-1        0.00000   0.00000   0.00000   0.00000  -0.03765
 117       52D+2        0.00000  -0.00000  -0.00000   0.00000   0.00000
 118       52D-2        0.00000   0.00000   0.00000   0.00000   0.00000
 119       53D 0        0.00000  -0.03792   0.11483   0.00000   0.00000
 120       53D+1       -0.00659   0.00000   0.00000  -0.07351   0.00000
 121       53D-1        0.00000   0.00000   0.00000   0.00000  -0.07351
 122       53D+2        0.00000  -0.00000  -0.00000   0.00000   0.00000
 123       53D-2        0.00000   0.00000   0.00000   0.00000   0.00000
 124       54D 0        0.00000  -0.03224   0.12812   0.00000   0.00000
 125       54D+1       -0.00650   0.00000   0.00000  -0.09010   0.00000
 126       54D-1        0.00000   0.00000   0.00000   0.00000  -0.09010
 127       54D+2        0.00000  -0.00000  -0.00000   0.00000   0.00000
 128       54D-2        0.00000   0.00000   0.00000   0.00000   0.00000
 129       55D 0        0.00000  -0.00168   0.04485   0.00000   0.00000
 130       55D+1       -0.00296   0.00000   0.00000  -0.03014   0.00000
 131       55D-1        0.00000   0.00000   0.00000   0.00000  -0.03014
 132       55D+2        0.00000   0.00000   0.00000   0.00000   0.00000
 133       55D-2        0.00000   0.00000   0.00000   0.00000   0.00000
 134       56D 0        0.00000  -0.00083   0.01677   0.00000   0.00000
 135       56D+1       -0.00162   0.00000   0.00000  -0.00314   0.00000
 136       56D-1        0.00000   0.00000   0.00000   0.00000  -0.00314
 137       56D+2        0.00000  -0.00000  -0.00000   0.00000   0.00000
 138       56D-2        0.00000   0.00000   0.00000   0.00000   0.00000
 139       57D 0        0.00000  -0.00124   0.00793   0.00000   0.00000
 140       57D+1       -0.00025   0.00000   0.00000   0.00919   0.00000
 141       57D-1        0.00000   0.00000   0.00000   0.00000   0.00919
 142       57D+2        0.00000   0.00000   0.00000   0.00000   0.00000
 143       57D-2        0.00000   0.00000   0.00000   0.00000   0.00000
 144       58D 0        0.00000  -0.00718   0.03412   0.00000   0.00000
 145       58D+1        0.00230   0.00000   0.00000  -0.02023   0.00000
 146       58D-1        0.00000   0.00000   0.00000   0.00000  -0.02023
 147       58D+2        0.00000   0.00000   0.00000   0.00000   0.00000
 148       58D-2        0.00000   0.00000   0.00000   0.00000   0.00000
 149       59D 0        0.00000  -0.00653   0.03283   0.00000   0.00000
 150       59D+1        0.00329   0.00000   0.00000  -0.01805   0.00000
 151       59D-1        0.00000   0.00000   0.00000   0.00000  -0.01805
 152       59D+2        0.00000   0.00000   0.00000   0.00000   0.00000
 153       59D-2        0.00000   0.00000   0.00000   0.00000   0.00000
 154       60D 0        0.00000   0.00011  -0.00112   0.00000   0.00000
 155       60D+1        0.00004   0.00000   0.00000  -0.00214   0.00000
 156       60D-1        0.00000   0.00000   0.00000   0.00000  -0.00214
 157       60D+2        0.00000  -0.00000  -0.00000   0.00000   0.00000
 158       60D-2        0.00000   0.00000   0.00000   0.00000   0.00000
 159       61F 0        0.00000   0.00118  -0.00209   0.00000   0.00000
 160       61F+1        0.00063   0.00000   0.00000   0.00168   0.00000
 161       61F-1        0.00000   0.00000   0.00000   0.00000   0.00168
 162       61F+2        0.00000  -0.00000  -0.00000   0.00000   0.00000
 163       61F-2        0.00000   0.00000   0.00000   0.00000   0.00000
 164       61F+3       -0.00000   0.00000   0.00000  -0.00000   0.00000
 165       61F-3        0.00000   0.00000   0.00000   0.00000  -0.00000
 166       62F 0        0.00000   0.00564  -0.00888   0.00000   0.00000
 167       62F+1        0.00295   0.00000   0.00000   0.00654   0.00000
[...]
 164       61F+3       -0.00000  -0.00000  -0.00000   0.00000
 165       61F-3       -0.00000  -0.00000  -0.00000   0.00000
 166       62F 0        0.00221   0.00111   0.00110   0.00001
 167       62F+1        0.00095   0.00047   0.00047  -0.00000
 168       62F-1        0.00095   0.00047   0.00047  -0.00000
 169       62F+2        0.00000   0.00000   0.00000  -0.00000
 170       62F-2        0.00000   0.00000   0.00000  -0.00000
 171       62F+3       -0.00000  -0.00000  -0.00000   0.00000
 172       62F-3       -0.00000  -0.00000  -0.00000  -0.00000
 173       63F 0        0.00852   0.00424   0.00429  -0.00005
 174       63F+1        0.00841   0.00420   0.00420   0.00000
 175       63F-1        0.00841   0.00420   0.00420   0.00000
 176       63F+2       -0.00000  -0.00000  -0.00000   0.00000
 177       63F-2       -0.00000  -0.00000  -0.00000  -0.00000
 178       63F+3       -0.00000  -0.00000  -0.00000   0.00000
 179       63F-3        0.00000   0.00000   0.00000   0.00000
 180       64F 0       -0.00349  -0.00174  -0.00174   0.00000
 181       64F+1       -0.00251  -0.00125  -0.00125   0.00000
 182       64F-1       -0.00251  -0.00125  -0.00125  -0.00000
 183       64F+2        0.00000   0.00000  -0.00000   0.00000
 184       64F-2        0.00000   0.00000  -0.00000   0.00000
 185       64F+3       -0.00000  -0.00000  -0.00000  -0.00000
 186       64F-3       -0.00000  -0.00000  -0.00000   0.00000
 187       65F 0       -0.00106  -0.00053  -0.00053  -0.00000
 188       65F+1       -0.00083  -0.00042  -0.00042   0.00000
 189       65F-1       -0.00083  -0.00042  -0.00042   0.00000
 190       65F+2        0.00000   0.00000  -0.00000   0.00000
 191       65F-2        0.00000   0.00000  -0.00000   0.00000
 192       65F+3        0.00000   0.00000   0.00000  -0.00000
 193       65F-3       -0.00000  -0.00000  -0.00000   0.00000
 194       66G 0        0.00000   0.00000   0.00000   0.00000
 195       66G+1        0.00000   0.00000   0.00000  -0.00000
 196       66G-1        0.00000   0.00000   0.00000   0.00000
 197       66G+2        0.00000   0.00000   0.00000   0.00000
 198       66G-2        0.00000   0.00000   0.00000   0.00000
 199       66G+3        0.00000   0.00000   0.00000   0.00000
 200       66G-3       -0.00000  -0.00000  -0.00000  -0.00000
 201       66G+4        0.00000   0.00000   0.00000   0.00000
 202       66G-4        0.00000   0.00000   0.00000   0.00000
 203       67G 0        0.00054   0.00027   0.00027  -0.00000
 204       67G+1        0.00032   0.00016   0.00016   0.00000
 205       67G-1        0.00032   0.00016   0.00016   0.00000
 206       67G+2        0.00000   0.00000   0.00000  -0.00000
 207       67G-2        0.00000   0.00000   0.00000   0.00000
 208       67G+3        0.00000   0.00000   0.00000  -0.00000
 209       67G-3       -0.00000  -0.00000  -0.00000   0.00000
 210       67G+4        0.00000   0.00000   0.00000   0.00000
 211       67G-4        0.00000   0.00000   0.00000   0.00000
 212       68G 0        0.00008   0.00004   0.00004   0.00001
 213       68G+1        0.00080   0.00040   0.00040   0.00000
 214       68G-1        0.00080   0.00040   0.00040   0.00000
 215       68G+2        0.00000   0.00000   0.00000   0.00000
 216       68G-2        0.00000   0.00000   0.00000   0.00000
 217       68G+3        0.00000   0.00000   0.00000   0.00000
 218       68G-3       -0.00000  -0.00000  -0.00000  -0.00000
 219       68G+4       -0.00000  -0.00000  -0.00000   0.00000
 220       68G-4       -0.00000  -0.00000  -0.00000   0.00000
 221       69G 0       -0.00112  -0.00056  -0.00056   0.00000
 222       69G+1       -0.00088  -0.00044  -0.00044   0.00000
 223       69G-1       -0.00088  -0.00044  -0.00044   0.00000
 224       69G+2        0.00000   0.00000   0.00000  -0.00000
 225       69G-2        0.00000   0.00000   0.00000   0.00000
 226       69G+3        0.00000   0.00000   0.00000  -0.00000
 227       69G-3        0.00000   0.00000   0.00000   0.00000
 228       69G+4       -0.00000  -0.00000   0.00000  -0.00000
 229       69G-4       -0.00000  -0.00000   0.00000  -0.00000
 230       70H 0        0.00001   0.00001   0.00001   0.00000
 231       70H+1        0.00001   0.00000   0.00000   0.00000
 232       70H-1        0.00001   0.00000   0.00000   0.00000
 233       70H+2        0.00000  -0.00000   0.00000  -0.00000
 234       70H-2       -0.00000  -0.00000   0.00000  -0.00000
 235       70H+3       -0.00000  -0.00000  -0.00000  -0.00000
 236       70H-3       -0.00000  -0.00000  -0.00000  -0.00000
 237       70H+4        0.00000   0.00000   0.00000   0.00000
 238       70H-4       -0.00000   0.00000  -0.00000   0.00000
 239       70H+5       -0.00000  -0.00000  -0.00000   0.00000
 240       70H-5        0.00000   0.00000  -0.00000   0.00000
 241       71H 0        0.00013   0.00007   0.00007   0.00000
 242       71H+1        0.00016   0.00008   0.00008   0.00000
 243       71H-1        0.00016   0.00008   0.00008   0.00000
 244       71H+2        0.00000   0.00000   0.00000   0.00000
 245       71H-2        0.00000   0.00000   0.00000   0.00000
 246       71H+3        0.00000   0.00000   0.00000   0.00000
 247       71H-3        0.00000   0.00000   0.00000   0.00000
 248       71H+4        0.00000   0.00000   0.00000   0.00000
 249       71H-4        0.00000   0.00000   0.00000   0.00000
 250       71H+5       -0.00000  -0.00000  -0.00000   0.00000
 251       71H-5       -0.00000  -0.00000  -0.00000   0.00000
 252       72H 0       -0.00021  -0.00010  -0.00010   0.00000
 253       72H+1        0.00036   0.00018   0.00018   0.00000
 254       72H-1        0.00036   0.00018   0.00018   0.00000
 255       72H+2       -0.00000  -0.00000  -0.00000  -0.00000
 256       72H-2       -0.00000  -0.00000  -0.00000  -0.00000
 257       72H+3       -0.00000   0.00000  -0.00000   0.00000
 258       72H-3       -0.00000  -0.00000  -0.00000  -0.00000
 259       72H+4        0.00000   0.00000   0.00000  -0.00000
 260       72H-4       -0.00000  -0.00000  -0.00000   0.00000
 261       72H+5       -0.00000   0.00000  -0.00000   0.00000
 262       72H-5       -0.00000  -0.00000  -0.00000  -0.00000
 263 2   O  1S         -0.00000  -0.00000  -0.00000  -0.00000
 264        2S          0.00000   0.00000   0.00000   0.00000
 265        3S         -0.00000  -0.00000  -0.00000  -0.00000
 266        4S          0.00000   0.00000   0.00000   0.00000
 267        5S         -0.00001  -0.00001  -0.00001  -0.00000
 268        6S         -0.00096  -0.00048  -0.00048  -0.00000
 269        7S         -0.02097  -0.01050  -0.01047  -0.00003
 270        8S         -0.23012  -0.11523  -0.11489  -0.00034
 271        9S         -0.06594  -0.03302  -0.03292  -0.00010
 272       10S          0.41699   0.20878   0.20822   0.00056
 273       11S          1.06353   0.53217   0.53136   0.00082
 274       12S          0.59228   0.29590   0.29637  -0.00047
 275       13S          0.19457   0.09743   0.09714   0.00029
 276       14S          0.00960   0.00481   0.00479   0.00001
 277       15S          0.00034   0.00017   0.00017   0.00000
 278       16S          0.09556   0.05426   0.04130   0.01296
 279       17PX         0.00014   0.00007   0.00007   0.00000
 280       17PY         0.00014   0.00007   0.00007   0.00000
 281       17PZ         0.00014   0.00007   0.00007   0.00000
 282       18PX        -0.42288  -0.21144  -0.21144   0.00000
 283       18PY        -0.42288  -0.21144  -0.21144   0.00000
 284       18PZ        -0.47776  -0.23914  -0.23862  -0.00051
 285       19PX         0.11747   0.05873   0.05873  -0.00000
 286       19PY         0.11747   0.05873   0.05873   0.00000
 287       19PZ         0.12940   0.06478   0.06463   0.00015
 288       20PX         0.43123   0.21562   0.21562   0.00000
 289       20PY         0.43123   0.21562   0.21562   0.00000
 290       20PZ         0.47768   0.23908   0.23860   0.00048
 291       21PX         0.65178   0.32589   0.32589   0.00000
 292       21PY         0.65178   0.32589   0.32589   0.00000
 293       21PZ         0.66079   0.33053   0.33026   0.00028
 294       22PX         0.47363   0.23682   0.23682  -0.00000
 295       22PY         0.47363   0.23682   0.23682   0.00000
 296       22PZ         0.33052   0.16409   0.16643  -0.00234
 297       23PX         0.44394   0.22197   0.22197   0.00000
 298       23PY         0.44394   0.22197   0.22197   0.00000
 299       23PZ         0.50127   0.25090   0.25036   0.00054
 300       24PX        -0.00023  -0.00011  -0.00011   0.00000
 301       24PY        -0.00023  -0.00011  -0.00011   0.00000
 302       24PZ        -0.00021  -0.00011  -0.00011  -0.00000
 303       25PX        -0.00001  -0.00001  -0.00001  -0.00000
 304       25PY        -0.00001  -0.00001  -0.00001   0.00000
 305       25PZ        -0.00001  -0.00001  -0.00001  -0.00000
 306       26PX         0.06137   0.03068   0.03068   0.00000
 307       26PY         0.06137   0.03068   0.03068   0.00000
 308       26PZ         0.04324   0.02001   0.02324  -0.00323
 309       27D 0        0.00008   0.00004   0.00004   0.00000
 310       27D+1        0.00006   0.00003   0.00003   0.00000
 311       27D-1        0.00006   0.00003   0.00003   0.00000
 312       27D+2        0.00000   0.00000   0.00000   0.00000
 313       27D-2        0.00000   0.00000   0.00000   0.00000
 314       28D 0        0.00173   0.00087   0.00086   0.00002
 315       28D+1        0.00097   0.00049   0.00049   0.00000
 316       28D-1        0.00097   0.00049   0.00049  -0.00000
 317       28D+2        0.00000   0.00000   0.00000  -0.00000
 318       28D-2        0.00000   0.00000   0.00000   0.00000
 319       29D 0        0.00760   0.00389   0.00371   0.00018
 320       29D+1        0.00828   0.00414   0.00414   0.00000
 321       29D-1        0.00828   0.00414   0.00414   0.00000
 322       29D+2        0.00000   0.00000   0.00000  -0.00000
 323       29D-2        0.00000   0.00000   0.00000  -0.00000
 324       30D 0        0.00000   0.00000   0.00000   0.00000
 325       30D+1        0.00000   0.00000   0.00000   0.00000
 326       30D-1        0.00000   0.00000   0.00000   0.00000
 327       30D+2       -0.00000  -0.00000  -0.00000  -0.00000
 328       30D-2       -0.00000  -0.00000  -0.00000   0.00000
 329       31D 0       -0.00000  -0.00000  -0.00000  -0.00000
 330       31D+1       -0.00000  -0.00000  -0.00000   0.00000
 331       31D-1       -0.00000  -0.00000  -0.00000  -0.00000
 332       31D+2        0.00000   0.00000   0.00000   0.00000
 333       31D-2        0.00000   0.00000   0.00000   0.00000
 334       32D 0        0.00221   0.00085   0.00136  -0.00051
 335       32D+1        0.00827   0.00414   0.00414   0.00000
 336       32D-1        0.00827   0.00414   0.00414   0.00000
 337       32D+2        0.00000   0.00000  -0.00000   0.00000
 338       32D-2       -0.00000   0.00000  -0.00000   0.00000
 339       33F 0        0.00002   0.00001   0.00001   0.00000
 340       33F+1        0.00000   0.00000   0.00000   0.00000
 341       33F-1        0.00000   0.00000   0.00000   0.00000
 342       33F+2       -0.00000  -0.00000  -0.00000   0.00000
 343       33F-2       -0.00000  -0.00000  -0.00000   0.00000
 344       33F+3        0.00000   0.00000   0.00000   0.00000
 345       33F-3       -0.00000  -0.00000  -0.00000   0.00000
 346       34F 0        0.00097   0.00050   0.00047   0.00003
 347       34F+1        0.00055   0.00027   0.00027   0.00000
 348       34F-1        0.00055   0.00027   0.00027   0.00000
 349       34F+2        0.00000   0.00000  -0.00000   0.00000
 350       34F-2       -0.00000  -0.00000  -0.00000  -0.00000
 351       34F+3       -0.00000  -0.00000  -0.00000  -0.00000
 352       34F-3       -0.00000  -0.00000   0.00000  -0.00000
 353       35F 0       -0.00000  -0.00000  -0.00000   0.00000
 354       35F+1        0.00000   0.00000   0.00000   0.00000
 355       35F-1        0.00000   0.00000   0.00000   0.00000
 356       35F+2        0.00000   0.00000   0.00000   0.00000
 357       35F-2        0.00000   0.00000   0.00000   0.00000
 358       35F+3        0.00000   0.00000  -0.00000   0.00000
 359       35F-3       -0.00000  -0.00000  -0.00000   0.00000
 360       36F 0        0.00166   0.00098   0.00068   0.00030
 361       36F+1        0.00137   0.00068   0.00068   0.00000
 362       36F-1        0.00137   0.00068   0.00068  -0.00000
 363       36F+2        0.00000   0.00000  -0.00000   0.00000
 364       36F-2       -0.00000  -0.00000  -0.00000   0.00000
 365       36F+3       -0.00000  -0.00000  -0.00000   0.00000
 366       36F-3        0.00000   0.00000   0.00000  -0.00000
 367       37G 0        0.00002   0.00001   0.00001   0.00000
 368       37G+1        0.00001   0.00000   0.00000   0.00000
 369       37G-1        0.00001   0.00000   0.00000   0.00000
 370       37G+2       -0.00000  -0.00000  -0.00000   0.00000
 371       37G-2       -0.00000  -0.00000  -0.00000  -0.00000
 372       37G+3        0.00000   0.00000   0.00000  -0.00000
 373       37G-3       -0.00000   0.00000  -0.00000   0.00000
 374       37G+4       -0.00000  -0.00000  -0.00000  -0.00000
 375       37G-4       -0.00000  -0.00000  -0.00000  -0.00000
 376       38G 0        0.00023   0.00012   0.00011   0.00002
 377       38G+1        0.00023   0.00011   0.00011   0.00000
 378       38G-1        0.00023   0.00011   0.00011   0.00000
 379       38G+2        0.00000   0.00000  -0.00000   0.00000
 380       38G-2        0.00000   0.00000  -0.00000   0.00000
 381       38G+3        0.00000   0.00000   0.00000  -0.00000
 382       38G-3        0.00000  -0.00000   0.00000  -0.00000
 383       38G+4        0.00000   0.00000   0.00000   0.00000
 384       38G-4        0.00000   0.00000   0.00000   0.00000
          Condensed to atoms (all electrons):
               1          2
     1  Sc   9.601164   0.112017
     2  O    0.112017   7.174801
          Atomic-Atomic Spin Densities.
               1          2
     1  Sc   0.986253   0.004640
     2  O    0.004640   0.004468
 Mulliken charges and spin densities:
               1          2
     1  Sc   1.286818   0.990893
     2  O   -1.286818   0.009107
 Sum of Mulliken charges =  -0.00000   1.00000
 Mulliken charges and spin densities with hydrogens summed into heavy atoms:
               1          2
     1  Sc   1.286818   0.990893
     2  O   -1.286818   0.009107
 Electronic spatial extent (au):  <R**2>=             97.9918
 Charge=             -0.0000 electrons
 Dipole moment (field-independent basis, Debye):
    X=              0.0000    Y=              0.0000    Z=              4.8348  Tot=              4.8348
 Quadrupole moment (field-independent basis, Debye-Ang):
   XX=            -21.9389   YY=            -21.9389   ZZ=            -32.6306
   XY=              0.0000   XZ=              0.0000   YZ=              0.0000
 Traceless Quadrupole moment (field-independent basis, Debye-Ang):
   XX=              3.5639   YY=              3.5639   ZZ=             -7.1278
   XY=              0.0000   XZ=              0.0000   YZ=              0.0000
 Octapole moment (field-independent basis, Debye-Ang**2):
  XXX=              0.0000  YYY=              0.0000  ZZZ=             -7.9761  XYY=              0.0000
  XXY=              0.0000  XXZ=             -2.6831  XZZ=              0.0000  YZZ=              0.0000
  YYZ=             -2.6831  XYZ=              0.0000
 Hexadecapole moment (field-independent basis, Debye-Ang**3):
 XXXX=            -45.6147 YYYY=            -45.6147 ZZZZ=           -182.4008 XXXY=              0.0000
 XXXZ=              0.0000 YYYX=              0.0000 YYYZ=              0.0000 ZZZX=              0.0000
 ZZZY=              0.0000 XXYY=            -15.2049 XXZZ=            -36.8119 YYZZ=            -36.8119
 XXYZ=              0.0000 YYXZ=              0.0000 ZZXY=              0.0000
 N-N= 2.054452701219D+01 E-N=-1.740738275067D+02  KE= 2.948892433057D+01
 Symmetry A1   KE= 1.339912125245D+01
 Symmetry A2   KE= 8.434515632308D-50
 Symmetry B1   KE= 8.044901538694D+00
 Symmetry B2   KE= 8.044901539737D+00
 Symmetry A1   SP= 1.000000000000D+00
 Symmetry A2   SP=-2.227114740275D-50
 Symmetry B1   SP= 5.798373226768D-17
 Symmetry B2   SP=-2.460969559615D-17
 Orbital energies and kinetic energies (alpha):
                                 1                 2
   4         O                -1.637944          2.076336
   5         O                -1.117845          1.058574
   6         O                -0.427646          2.426733
   7         O                -0.412225          1.946115
   8         O                -0.412225          1.946115
   9         O                -0.251799          0.321050
  10         V                -0.000441          0.098359
  11         V                -0.000441          0.098359
  12         V                 0.013121          0.048994
  13         V                 0.020412          0.035888
  14         V                 0.027006          0.035595
 Total kinetic energy from orbitals= 2.980997445237D+01
                          Isotropic Fermi Contact Couplings
        Atom                 a.u.       MegaHertz       Gauss      10(-4) cm-1
     1  Sc(45)             0.00132       1.43151       0.51080       0.47750
     2  O(17)              0.00013      -0.07940      -0.02833      -0.02649
 --------------------------------------------------------
       Center         ----  Spin Dipole Couplings  ----
                      3XX-RR        3YY-RR        3ZZ-RR
 --------------------------------------------------------
     1   Atom       -0.049781     -0.049781      0.099561
     2   Atom       -0.006752     -0.006752      0.013503
 --------------------------------------------------------
                        XY            XZ            YZ
 --------------------------------------------------------
     1   Atom        0.000000      0.000000      0.000000
     2   Atom        0.000000      0.000000      0.000000
 --------------------------------------------------------


 ---------------------------------------------------------------------------------
              Anisotropic Spin Dipole Couplings in Principal Axis System
 ---------------------------------------------------------------------------------

       Atom             a.u.   MegaHertz   Gauss  10(-4) cm-1        Axes

              Baa    -0.0498    -6.462    -2.306    -2.156  1.0000  0.0000  0.0000
     1 Sc(45) Bbb    -0.0498    -6.462    -2.306    -2.156 -0.0000  1.0000  0.0000
              Bcc     0.0996    12.924     4.612     4.311  0.0000  0.0000  1.0000
 
              Baa    -0.0068     0.489     0.174     0.163  1.0000  0.0000  0.0000
     2 O(17)  Bbb    -0.0068     0.489     0.174     0.163 -0.0000  1.0000  0.0000
              Bcc     0.0135    -0.977    -0.349    -0.326  0.0000  0.0000  1.0000
 

 ---------------------------------------------------------------------------------

 No NMR shielding tensors so no spin-rotation constants.
 Leave Link  601 at Wed Feb 21 05:01:21 2018, MaxMem= 10737418240 cpu:             227.5 elap:               7.4
 (Enter /home1/apps/gaussian/16rA.03/g16/l9999.exe)
 1\1\GINC-C426-041\SP\ROCCSD(T)-Full\Gen\O1Sc1(2)\AANNABE\21-Feb-2018\0
 \\#P ROCCSD(T)=(maxcyc=150, Full, SaveAmplitudes, ReadAmplitudes)/Gen 
 5d 7f SCF=(maxcycles=300) Integral(NoXCTest) MaxDisk=500GB Pop=Regular
  Pseudo=Read Guess=Read\\ScO\\0,2\Sc,0,0.,0.,0.\O,0,0.,0.,1.7\\Version
 =ES64L-G16RevA.03\State=2-SG\HF=-61.8323296\MP2=-62.5422817\PUHF=-61.8
 323296\PMP2-0=-62.5422817\CCSD=-62.5270209\CCSD(T)=-62.569138\RMSD=4.1
 56e-10\PG=C*V [C*(O1Sc1)]\\@


 We're simply so accustomed to the marvels of everyday thought
 that we never wonder about it.
 -- Marvin Minsky in "Why people think computers are smart"
 Job cpu time:       1 days 10 hours 12 minutes 46.0 seconds.
 Elapsed time:       0 days  1 hours  4 minutes 27.5 seconds.
 File lengths (MBytes):  RWF=  11399 Int=      0 D2E=      0 Chk=     61 Scr=      1
 Normal termination of Gaussian 16 at Wed Feb 21 05:01:22 2018.
