 Entering Gaussian System, Link 0=g16
 Initial command:
 /home1/apps/gaussian/16rA.03/g16/l1.exe "/tmp/Gau-202515.inp" -scrdir="/tmp/"
 Entering Link 1 = /home1/apps/gaussian/16rA.03/g16/l1.exe PID=    202516.
  
 Copyright (c) 1988,1990,1992,1993,1995,1998,2003,2009,2016,
            Gaussian, Inc.  All Rights Reserved.
  
 This is part of the Gaussian(R) 16 program.  It is based on
 the Gaussian(R) 09 system (copyright 2009, Gaussian, Inc.),
 the Gaussian(R) 03 system (copyright 2003, Gaussian, Inc.),
 the Gaussian(R) 98 system (copyright 1998, Gaussian, Inc.),
 the Gaussian(R) 94 system (copyright 1995, Gaussian, Inc.),
 the Gaussian 92(TM) system (copyright 1992, Gaussian, Inc.),
 the Gaussian 90(TM) system (copyright 1990, Gaussian, Inc.),
 the Gaussian 88(TM) system (copyright 1988, Gaussian, Inc.),
 the Gaussian 86(TM) system (copyright 1986, Carnegie Mellon
 University), and the Gaussian 82(TM) system (copyright 1983,
 Carnegie Mellon University). Gaussian is a federally registered
 trademark of Gaussian, Inc.
  
 This software contains proprietary and confidential information,
 including trade secrets, belonging to Gaussian, Inc.
  
 This software is provided under written license and may be
 used, copied, transmitted, or stored only in accord with that
 written license.
  
 The following legend is applicable only to US Government
 contracts under FAR:
  
                    RESTRICTED RIGHTS LEGEND
  
 Use, reproduction and disclosure by the US Government is
 subject to restrictions as set forth in subparagraphs (a)
 and (c) of the Commercial Computer Software - Restricted
 Rights clause in FAR 52.227-19.
  
 Gaussian, Inc.
 340 Quinnipiac St., Bldg. 40, Wallingford CT 06492
  
  
 ---------------------------------------------------------------
 Warning -- This program may not be used in any manner that
 competes with the business of Gaussian, Inc. or will provide
 assistance to any competitor of Gaussian, Inc.  The licensee
 of this program is prohibited from giving any competitor of
 Gaussian, Inc. access to this program.  By using this program,
 the user acknowledges that Gaussian, Inc. is engaged in the
 business of creating and licensing software in the field of
 computational chemistry and represents and warrants to the
 licensee that it is not a competitor of Gaussian, Inc. and that
 it will not use this program in any manner prohibited above.
 ---------------------------------------------------------------
  

 Cite this work as:
 Gaussian 16, Revision A.03,
 M. J. Frisch, G. W. Trucks, H. B. Schlegel, G. E. Scuseria, 
 M. A. Robb, J. R. Cheeseman, G. Scalmani, V. Barone, 
 G. A. Petersson, H. Nakatsuji, X. Li, M. Caricato, A. V. Marenich, 
 J. Bloino, B. G. Janesko, R. Gomperts, B. Mennucci, H. P. Hratchian, 
 J. V. Ortiz, A. F. Izmaylov, J. L. Sonnenberg, D. Williams-Young, 
 F. Ding, F. Lipparini, F. Egidi, J. Goings, B. Peng, A. Petrone, 
 T. Henderson, D. Ranasinghe, V. G. Zakrzewski, J. Gao, N. Rega, 
 G. Zheng, W. Liang, M. Hada, M. Ehara, K. Toyota, R. Fukuda, 
 J. Hasegawa, M. Ishida, T. Nakajima, Y. Honda, O. Kitao, H. Nakai, 
 T. Vreven, K. Throssell, J. A. Montgomery, Jr., J. E. Peralta, 
 F. Ogliaro, M. J. Bearpark, J. J. Heyd, E. N. Brothers, K. N. Kudin, 
 V. N. Staroverov, T. A. Keith, R. Kobayashi, J. Normand, 
 K. Raghavachari, A. P. Rendell, J. C. Burant, S. S. Iyengar, 
 J. Tomasi, M. Cossi, J. M. Millam, M. Klene, C. Adamo, R. Cammi, 
 J. W. Ochterski, R. L. Martin, K. Morokuma, O. Farkas, 
 J. B. Foresman, and D. J. Fox, Gaussian, Inc., Wallingford CT, 2016.
 
 ******************************************
 Gaussian 16:  ES64L-G16RevA.03 25-Dec-2016
                 5-May-2018 
 ******************************************
 %MEM=160GB
 %CPU=0-31
 SetSPE:  set environment variable "MP_BIND" = "yes"
 SetSPE:  set environment variable "MP_BLIST" = "0,1,2,3,4,5,6,7,8,9,10,11,12,13,14,15,16,17,18,19,20,21,22,23,24,25,26,27,28,29,30,31"
 Will use up to   32 processors via shared memory.
 %RWF=/scratch/04843/aannabe/gaussian/
 %Int=/scratch/04843/aannabe/gaussian/
 %D2E=/scratch/04843/aannabe/gaussian/
 %NoSave
 %CHK=MnO
 ----------------------------------------------------------------------
 #P ROCCSD(T)=(maxcyc=150, Full, SaveAmplitudes, ReadAmplitudes)/Gen 5d
  7f SCF=(maxcycles=300, VShift=400) Integral(NoXCTest) MaxDisk=500GB P
 op=Full Pseudo=Read Guess=Read IOp(5/15=2)
 ----------------------------------------------------------------------
 1/38=1,172=1/1;
 2/12=2,17=6,18=5,40=1/2;
 3/5=7,8=11,11=2,16=1,17=8,25=1,30=1,47=8,116=101/1,2,3;
 4/5=1/1;
 5/5=2,7=300,10=400,15=2,38=6/2;
 8/5=-1,6=4,9=120000,10=90,24=1/1,4;
 9/5=7,6=150,14=2,77=1/13;
 6/7=3/1;
 99/5=1,9=1/99;
 Leave Link    1 at Sat May  5 07:01:06 2018, MaxMem= 21474836480 cpu:               3.4 elap:               0.1
 (Enter /home1/apps/gaussian/16rA.03/g16/l101.exe)
 ---
 MnO
 ---
 Symbolic Z-matrix:
 Charge =  0 Multiplicity = 6
 Mn                    0.        0.        0. 
 O                     0.        0.        1.3 
 
 ITRead=  0  0
 MicOpt= -1 -1
 NAtoms=      2 NQM=        2 NQMF=       0 NMMI=      0 NMMIF=      0
                NMic=       0 NMicF=      0.
                    Isotopes and Nuclear Properties:
 (Nuclear quadrupole moments (NQMom) in fm**2, nuclear magnetic moments (NMagM)
  in nuclear magnetons)

  Atom         1           2
 IAtWgt=          55          16
 AtmWgt=  54.9380463  15.9949146
 NucSpn=           5           0
 AtZEff=  -0.0000000  -0.0000000
 NQMom=   33.0000000   0.0000000
 NMagM=    3.4532000   0.0000000
 AtZNuc=  25.0000000   8.0000000
 Leave Link  101 at Sat May  5 07:01:06 2018, MaxMem= 21474836480 cpu:               2.8 elap:               0.1
 (Enter /home1/apps/gaussian/16rA.03/g16/l202.exe)
                          Input orientation:                          
 ---------------------------------------------------------------------
 Center     Atomic      Atomic             Coordinates (Angstroms)
 Number     Number       Type             X           Y           Z
 ---------------------------------------------------------------------
      1         25           0        0.000000    0.000000    0.000000
      2          8           0        0.000000    0.000000    1.300000
 ---------------------------------------------------------------------
 Stoichiometry    MnO(6)
 Framework group  C*V[C*(OMn)]
 Deg. of freedom     1
 Full point group                 C*V     NOp   4
 Largest Abelian subgroup         C2V     NOp   4
 Largest concise Abelian subgroup C1      NOp   1
                         Standard orientation:                         
 ---------------------------------------------------------------------
 Center     Atomic      Atomic             Coordinates (Angstroms)
 Number     Number       Type             X           Y           Z
 ---------------------------------------------------------------------
      1         25           0        0.000000    0.000000    0.315152
      2          8           0        0.000000    0.000000   -0.984848
 ---------------------------------------------------------------------
 Rotational constants (GHZ):           0.0000000          24.1392319          24.1392319
 Leave Link  202 at Sat May  5 07:01:06 2018, MaxMem= 21474836480 cpu:               0.5 elap:               0.0
 (Enter /home1/apps/gaussian/16rA.03/g16/l301.exe)
 General basis read from cards:  (5D, 7F)
 Centers:       1
 S 1 1.00
     Exponent=  1.2471540000D+04 Coefficients=  1.0000000000D+00
 S 1 1.00
     Exponent=  4.5017430000D+03 Coefficients=  1.0000000000D+00
 S 1 1.00
     Exponent=  1.7552120000D+03 Coefficients=  1.0000000000D+00
 S 1 1.00
     Exponent=  7.2730390000D+02 Coefficients=  1.0000000000D+00
 S 1 1.00
     Exponent=  3.1636780000D+02 Coefficients=  1.0000000000D+00
 S 1 1.00
     Exponent=  1.4300980000D+02 Coefficients=  1.0000000000D+00
 S 1 1.00
     Exponent=  6.6218050000D+01 Coefficients=  1.0000000000D+00
 S 1 1.00
     Exponent=  2.9918960000D+01 Coefficients=  1.0000000000D+00
 S 1 1.00
     Exponent=  1.4303180000D+01 Coefficients=  1.0000000000D+00
 S 1 1.00
     Exponent=  6.8394510000D+00 Coefficients=  1.0000000000D+00
 S 1 1.00
     Exponent=  3.0123740000D+00 Coefficients=  1.0000000000D+00
 S 1 1.00
     Exponent=  1.4188080000D+00 Coefficients=  1.0000000000D+00
 S 1 1.00
     Exponent=  6.2362400000D-01 Coefficients=  1.0000000000D+00
 S 1 1.00
     Exponent=  1.3409800000D-01 Coefficients=  1.0000000000D+00
 S 1 1.00
     Exponent=  6.5548000000D-02 Coefficients=  1.0000000000D+00
 S 1 1.00
     Exponent=  2.9584000000D-02 Coefficients=  1.0000000000D+00
 S 1 1.00
     Exponent=  4.1714000000D+00 Coefficients=  1.0000000000D+00
 S 1 1.00
     Exponent=  1.0701000000D+00 Coefficients=  1.0000000000D+00
 S 1 1.00
     Exponent=  1.3350000000D-02 Coefficients=  1.0000000000D+00
 P 1 1.00
     Exponent=  3.8362740000D+03 Coefficients=  1.0000000000D+00
 P 1 1.00
     Exponent=  1.2460480000D+03 Coefficients=  1.0000000000D+00
 P 1 1.00
     Exponent=  4.7675350000D+02 Coefficients=  1.0000000000D+00
 P 1 1.00
     Exponent=  2.0218950000D+02 Coefficients=  1.0000000000D+00
 P 1 1.00
     Exponent=  9.2094870000D+01 Coefficients=  1.0000000000D+00
 P 1 1.00
     Exponent=  4.4147200000D+01 Coefficients=  1.0000000000D+00
 P 1 1.00
     Exponent=  2.1854680000D+01 Coefficients=  1.0000000000D+00
 P 1 1.00
     Exponent=  1.1085960000D+01 Coefficients=  1.0000000000D+00
 P 1 1.00
     Exponent=  5.6741080000D+00 Coefficients=  1.0000000000D+00
 P 1 1.00
     Exponent=  2.8231700000D+00 Coefficients=  1.0000000000D+00
 P 1 1.00
     Exponent=  1.3686210000D+00 Coefficients=  1.0000000000D+00
 P 1 1.00
     Exponent=  6.4443100000D-01 Coefficients=  1.0000000000D+00
 P 1 1.00
     Exponent=  2.4834600000D-01 Coefficients=  1.0000000000D+00
 P 1 1.00
     Exponent=  9.7175000000D-02 Coefficients=  1.0000000000D+00
 P 1 1.00
     Exponent=  3.6565000000D-02 Coefficients=  1.0000000000D+00
 P 1 1.00
     Exponent=  6.0568000000D+00 Coefficients=  1.0000000000D+00
 P 1 1.00
     Exponent=  1.3911000000D+00 Coefficients=  1.0000000000D+00
 P 1 1.00
     Exponent=  1.3760000000D-02 Coefficients=  1.0000000000D+00
 D 1 1.00
     Exponent=  1.0190400000D+02 Coefficients=  1.0000000000D+00
 D 1 1.00
     Exponent=  3.0033700000D+01 Coefficients=  1.0000000000D+00
 D 1 1.00
     Exponent=  1.0923800000D+01 Coefficients=  1.0000000000D+00
 D 1 1.00
     Exponent=  4.3974000000D+00 Coefficients=  1.0000000000D+00
 D 1 1.00
     Exponent=  1.8159500000D+00 Coefficients=  1.0000000000D+00
 D 1 1.00
     Exponent=  7.2573100000D-01 Coefficients=  1.0000000000D+00
 D 1 1.00
     Exponent=  2.6996100000D-01 Coefficients=  1.0000000000D+00
 D 1 1.00
     Exponent=  8.7760000000D-02 Coefficients=  1.0000000000D+00
 D 1 1.00
     Exponent=  3.9511000000D+00 Coefficients=  1.0000000000D+00
 D 1 1.00
     Exponent=  1.8488000000D+00 Coefficients=  1.0000000000D+00
 D 1 1.00
     Exponent=  2.8530000000D-02 Coefficients=  1.0000000000D+00
 F 1 1.00
     Exponent=  5.1541000000D+00 Coefficients=  1.0000000000D+00
 F 1 1.00
     Exponent=  1.9044000000D+00 Coefficients=  1.0000000000D+00
 F 1 1.00
     Exponent=  6.4380000000D-01 Coefficients=  1.0000000000D+00
 F 1 1.00
     Exponent=  2.1764000000D-01 Coefficients=  1.0000000000D+00
 G 1 1.00
     Exponent=  4.7163000000D+00 Coefficients=  1.0000000000D+00
 G 1 1.00
     Exponent=  1.7022000000D+00 Coefficients=  1.0000000000D+00
 G 1 1.00
     Exponent=  6.1436000000D-01 Coefficients=  1.0000000000D+00
 ****
 Centers:       2
 S 1 1.00
     Exponent=  1.5330000000D+04 Coefficients=  1.0000000000D+00
 S 1 1.00
     Exponent=  2.2990000000D+03 Coefficients=  1.0000000000D+00
 S 1 1.00
     Exponent=  5.2240000000D+02 Coefficients=  1.0000000000D+00
 S 1 1.00
     Exponent=  1.4730000000D+02 Coefficients=  1.0000000000D+00
 S 1 1.00
     Exponent=  4.7550000000D+01 Coefficients=  1.0000000000D+00
 S 1 1.00
     Exponent=  1.6760000000D+01 Coefficients=  1.0000000000D+00
 S 1 1.00
     Exponent=  6.2070000000D+00 Coefficients=  1.0000000000D+00
 S 1 1.00
     Exponent=  6.8820000000D-01 Coefficients=  1.0000000000D+00
 S 1 1.00
     Exponent=  1.7520000000D+00 Coefficients=  1.0000000000D+00
 S 1 1.00
     Exponent=  2.3840000000D-01 Coefficients=  1.0000000000D+00
 S 1 1.00
     Exponent=  7.8450000000D+00 Coefficients=  1.0000000000D+00
 S 1 1.00
     Exponent=  2.1032000000D+01 Coefficients=  1.0000000000D+00
 S 1 1.00
     Exponent=  7.3760000000D-02 Coefficients=  1.0000000000D+00
 P 1 1.00
     Exponent=  3.4460000000D+01 Coefficients=  1.0000000000D+00
 P 1 1.00
     Exponent=  7.7490000000D+00 Coefficients=  1.0000000000D+00
 P 1 1.00
     Exponent=  2.2800000000D+00 Coefficients=  1.0000000000D+00
 P 1 1.00
     Exponent=  7.1560000000D-01 Coefficients=  1.0000000000D+00
 P 1 1.00
     Exponent=  2.1400000000D-01 Coefficients=  1.0000000000D+00
 P 1 1.00
     Exponent=  1.5159000000D+01 Coefficients=  1.0000000000D+00
 P 1 1.00
     Exponent=  5.7437000000D+01 Coefficients=  1.0000000000D+00
 P 1 1.00
     Exponent=  5.9740000000D-02 Coefficients=  1.0000000000D+00
 D 1 1.00
     Exponent=  2.3140000000D+00 Coefficients=  1.0000000000D+00
 D 1 1.00
     Exponent=  6.4500000000D-01 Coefficients=  1.0000000000D+00
 D 1 1.00
     Exponent=  1.5858000000D+01 Coefficients=  1.0000000000D+00
 D 1 1.00
     Exponent=  2.1400000000D-01 Coefficients=  1.0000000000D+00
 F 1 1.00
     Exponent=  1.4280000000D+00 Coefficients=  1.0000000000D+00
 F 1 1.00
     Exponent=  5.0000000000D-01 Coefficients=  1.0000000000D+00
 ****
 ======================================================================================================
                                       Pseudopotential Parameters
 ======================================================================================================
  Center     Atomic      Valence      Angular      Power
  Number     Number     Electrons     Momentum     of R      Exponent        Coefficient   SO-Coeffient
 ======================================================================================================
    1         25           15
                                      D and up 
                                                     1       21.9193743       15.00000000    0.00000000
                                                     3       21.3552713      328.79061500    0.00000000
                                                     2       21.2716265     -162.05172805    0.00000000
                                                     2        7.9391396       -1.82694273    0.00000000
                                      S - D
                                                     2       18.9204497      244.66870493    0.00000000
                                                     2        8.3276476       33.54162717    0.00000000
                                      P - D
                                                     2       20.1734702      162.35033686    0.00000000
                                                     2        7.8004787       24.17956695    0.00000000
    2          8            6
                                      P and up 
                                                     1       12.3099700        6.00000000    0.00000000
                                                     3       14.7696200       73.85984000    0.00000000
                                                     2       13.7141900      -47.87600000    0.00000000
                                      S - P
                                                     2       13.6551200       85.86406000    0.00000000
 ======================================================================================================
 Ernie: Thresh=  0.10000D-02 Tol=  0.10000D-05 Strict=F.
 There are   139 symmetry adapted cartesian basis functions of A1  symmetry.
 There are    30 symmetry adapted cartesian basis functions of A2  symmetry.
 There are    68 symmetry adapted cartesian basis functions of B1  symmetry.
 There are    68 symmetry adapted cartesian basis functions of B2  symmetry.
 There are   109 symmetry adapted basis functions of A1  symmetry.
 There are    27 symmetry adapted basis functions of A2  symmetry.
 There are    59 symmetry adapted basis functions of B1  symmetry.
 There are    59 symmetry adapted basis functions of B2  symmetry.
   254 basis functions,   305 primitive gaussians,   305 cartesian basis functions
    13 alpha electrons        8 beta electrons
       nuclear repulsion energy        36.6353453714 Hartrees.
 IExCor=    0 DFT=F Ex=HF Corr=None ExCW=0 ScaHFX=  1.000000
 ScaDFX=  1.000000  1.000000  1.000000  1.000000 ScalE2=  1.000000  1.000000
 IRadAn=      5 IRanWt=     -1 IRanGd=            0 ICorTp=0 IEmpDi=  4
 NAtoms=    2 NActive=    2 NUniq=    2 SFac= 1.00D+00 NAtFMM=   60 NAOKFM=F Big=F
 Integral buffers will be    131072 words long.
 Raffenetti 2 integral format.
 Two-electron integral symmetry is turned on.
 Leave Link  301 at Sat May  5 07:01:07 2018, MaxMem= 21474836480 cpu:               3.2 elap:               0.1
 (Enter /home1/apps/gaussian/16rA.03/g16/l302.exe)
 NPDir=0 NMtPBC=     1 NCelOv=     1 NCel=       1 NClECP=     1 NCelD=      1
         NCelK=      1 NCelE2=     1 NClLst=     1 CellRange=     0.0.
 One-electron integrals computed using PRISM.
 One-electron integral symmetry used in STVInt
   4 Symmetry operations used in ECPInt.
 ECPInt:  NShTT=    3403 NPrTT=    3403 LenC2=    3222 LenP2D=    3221.
 LDataN:  DoStor=T MaxTD1= 8 Len=  415
 NBasis=   254 RedAO= T EigKep=  1.05D-06  NBF=   109    27    59    59
 NBsUse=   251 1.00D-06 EigRej=  1.68D-07 NBFU=   108    27    58    58
 Leave Link  302 at Sat May  5 07:01:12 2018, MaxMem= 21474836480 cpu:               7.1 elap:               0.3
 (Enter /home1/apps/gaussian/16rA.03/g16/l303.exe)
 DipDrv:  MaxL=1.
 Leave Link  303 at Sat May  5 07:01:12 2018, MaxMem= 21474836480 cpu:               1.1 elap:               0.1
 (Enter /home1/apps/gaussian/16rA.03/g16/l401.exe)
 Initial guess from the checkpoint file:  "MnO.chk"
 B after Tr=     0.000000    0.000000    0.000000
         Rot=    1.000000    0.000000    0.000000    0.000000 Ang=   0.00 deg.
 Guess basis will be translated and rotated to current coordinates.
 JPrj=2 DoOrth=T DoCkMO=T.
 Initial guess orbital symmetries:
       Occupied  (SG) (SG) (PI) (PI) (SG) (SG) (PI) (PI) (DLTA)
                 (DLTA) (SG) (PI) (PI)
       Virtual   (SG) (PI) (PI) (SG) (SG) (PI) (PI) (SG) (DLTA)
                 (DLTA) (PI) (PI) (SG) (SG) (PI) (PI) (SG) (PI)
                 (PI) (SG) (DLTA) (DLTA) (PI) (PI) (SG) (SG) (SG)
                 (DLTA) (DLTA) (PHI) (PHI) (PI) (PI) (PI) (PI)
                 (SG) (SG) (DLTA) (DLTA) (PI) (PI) (SG) (DLTA)
                 (DLTA) (PI) (PI) (SG) (PI) (PI) (SG) (SG) (SG)
                 (DLTA) (DLTA) (PHI) (PHI) (PI) (PI) (SG) (PHI)
                 (PHI) (DLTA) (DLTA) (PI) (PI) (DLTA) (DLTA) (PI)
                 (PI) (SG) (?A) (?A) (PI) (PI) (PHI) (PHI) (SG)
                 (DLTA) (DLTA) (SG) (PI) (PI) (DLTA) (DLTA) (SG)
                 (PI) (PI) (SG) (PI) (PI) (SG) (SG) (SG) (PHI)
                 (PHI) (DLTA) (DLTA) (PI) (PI) (PHI) (PHI) (SG)
                 (DLTA) (DLTA) (PI) (PI) (DLTA) (DLTA) (SG) (PI)
                 (PI) (DLTA) (DLTA) (SG) (PI) (PI) (SG) (PI) (PI)
                 (?A) (?A) (PHI) (PHI) (DLTA) (DLTA) (PI) (PI)
                 (SG) (SG) (SG) (DLTA) (DLTA) (PI) (PI) (SG) (PI)
                 (PI) (SG) (SG) (PHI) (PHI) (DLTA) (DLTA) (PI)
                 (PI) (SG) (PI) (PI) (SG) (?A) (?A) (PHI) (PHI)
                 (DLTA) (DLTA) (PI) (PI) (SG) (DLTA) (DLTA) (PI)
                 (PI) (SG) (SG) (PI) (PI) (SG) (SG) (DLTA) (DLTA)
                 (PI) (PI) (SG) (PI) (PI) (DLTA) (DLTA) (SG) (PI)
                 (PI) (SG) (SG) (PI) (PI) (SG) (SG) (DLTA) (DLTA)
                 (PI) (PI) (SG) (SG) (PI) (PI) (SG) (PI) (PI) (SG)
                 (SG) (SG) (PI) (PI) (SG) (SG) (PI) (PI) (SG) (SG)
                 (DLTA) (DLTA) (PI) (PI) (SG) (PI) (PI) (SG) (SG)
                 (SG) (PI) (PI) (SG) (SG) (SG) (PI) (PI) (SG) (SG)
                 (PI) (PI) (SG) (SG) (SG) (PI) (PI) (SG) (SG) (SG)
                 (SG)
 The electronic state of the initial guess is 6-SG.
 Leave Link  401 at Sat May  5 07:01:12 2018, MaxMem= 21474836480 cpu:               5.2 elap:               0.2
 (Enter /home1/apps/gaussian/16rA.03/g16/l502.exe)
 Keep R1 and R2 ints in memory in symmetry-blocked form, NReq=658655674.
 FoFCou: FMM=F IPFlag=           8 FMFlag=           0 FMFlg1=           0
         NFxFlg=           0 DoJE=F BraDBF=F KetDBF=F FulRan=T
         wScrn=  0.000000 ICntrl=       600 IOpCl=  0 I1Cent=           0 NGrid=           0
         NMat0=    1 NMatS0=  32385 NMatT0=    0 NMatD0=    1 NMtDS0=    0 NMtDT0=    0
 Petite list used in FoFCou.
 Restricted open shell SCF:
 Using DIIS extrapolation, IDIIS=  1040.
 NGot= 21474836480 LenX= 21206225805 LenY= 21206132339
 Requested convergence on RMS density matrix=1.00D-08 within 300 cycles.
 Requested convergence on MAX density matrix=1.00D-06.
 Requested convergence on             energy=1.00D-06.
 Virtual orbitals will be shifted by   0.400 hartree.
 No special actions if energy rises.

 Cycle   1  Pass 1  IDiag  1:
 E= -118.565695101967    
 DIIS: error= 1.05D-01 at cycle   1 NSaved=   1.
 NSaved= 1 IEnMin= 1 EnMin= -118.565695101967     IErMin= 1 ErrMin= 1.05D-01
 ErrMax= 1.05D-01  0.00D+00 EMaxC= 1.00D-01 BMatC= 1.81D+00 BMatP= 1.81D+00
 IDIUse=3 WtCom= 0.00D+00 WtEn= 1.00D+00
 Coeff-Com:  0.100D+01
 Coeff-En:   0.100D+01
 Coeff:      0.100D+01
 Gap=     0.080 Goal=   None    Shift=    0.400
 GapD=    0.080 DampG=0.500 DampE=0.125 DampFc=0.1250 IDamp=-1.
 Damping current iteration by 1.25D-01
 RMSDP=8.09D-03 MaxDP=9.29D-01              OVMax= 8.34D-02

 Cycle   2  Pass 1  IDiag  1:
 E= -118.578220448545     Delta-E=       -0.012525346578 Rises=F Damp=T
 DIIS: error= 9.18D-02 at cycle   2 NSaved=   2.
 NSaved= 2 IEnMin= 2 EnMin= -118.578220448545     IErMin= 2 ErrMin= 9.18D-02
 ErrMax= 9.18D-02  0.00D+00 EMaxC= 1.00D-01 BMatC= 1.38D+00 BMatP= 1.81D+00
 IDIUse=3 WtCom= 8.16D-02 WtEn= 9.18D-01
 Coeff-Com: -0.632D+01 0.732D+01
 Coeff-En:   0.000D+00 0.100D+01
 Coeff:     -0.516D+00 0.152D+01
 Gap=     0.028 Goal=   None    Shift=    0.400
 RMSDP=6.81D-03 MaxDP=7.81D-01 DE=-1.25D-02 OVMax= 2.55D-02

 Cycle   3  Pass 1  IDiag  1:
 E= -118.661698836101     Delta-E=       -0.083478387557 Rises=F Damp=F
 DIIS: error= 1.14D-02 at cycle   3 NSaved=   3.
 NSaved= 3 IEnMin= 3 EnMin= -118.661698836101     IErMin= 3 ErrMin= 1.14D-02
 ErrMax= 1.14D-02  0.00D+00 EMaxC= 1.00D-01 BMatC= 1.63D-02 BMatP= 1.38D+00
 IDIUse=3 WtCom= 8.86D-01 WtEn= 1.14D-01
 Coeff-Com: -0.143D+01 0.163D+01 0.802D+00
 Coeff-En:   0.000D+00 0.000D+00 0.100D+01
 Coeff:     -0.127D+01 0.144D+01 0.824D+00
 Gap=     0.040 Goal=   None    Shift=    0.400
 RMSDP=7.41D-04 MaxDP=1.09D-01 DE=-8.35D-02 OVMax= 3.10D-02

 Cycle   4  Pass 1  IDiag  1:
 E= -118.687885972361     Delta-E=       -0.026187136260 Rises=F Damp=F
 DIIS: error= 9.84D-03 at cycle   4 NSaved=   4.
 NSaved= 4 IEnMin= 4 EnMin= -118.687885972361     IErMin= 4 ErrMin= 9.84D-03
 ErrMax= 9.84D-03  0.00D+00 EMaxC= 1.00D-01 BMatC= 7.97D-03 BMatP= 1.63D-02
 IDIUse=3 WtCom= 9.02D-01 WtEn= 9.84D-02
 Coeff-Com: -0.101D+01 0.115D+01 0.321D+00 0.543D+00
 Coeff-En:   0.000D+00 0.000D+00 0.000D+00 0.100D+01
 Coeff:     -0.912D+00 0.104D+01 0.289D+00 0.588D+00
 Gap=     0.034 Goal=   None    Shift=    0.400
 RMSDP=3.91D-04 MaxDP=4.39D-02 DE=-2.62D-02 OVMax= 3.97D-02

 Cycle   5  Pass 1  IDiag  1:
 E= -118.700501642079     Delta-E=       -0.012615669717 Rises=F Damp=F
 DIIS: error= 8.06D-03 at cycle   5 NSaved=   5.
 NSaved= 5 IEnMin= 5 EnMin= -118.700501642079     IErMin= 5 ErrMin= 8.06D-03
 ErrMax= 8.06D-03  0.00D+00 EMaxC= 1.00D-01 BMatC= 4.73D-03 BMatP= 7.97D-03
 IDIUse=3 WtCom= 9.19D-01 WtEn= 8.06D-02
 Coeff-Com: -0.864D+00 0.983D+00 0.185D-01-0.446D+00 0.131D+01
 Coeff-En:   0.000D+00 0.000D+00 0.000D+00 0.000D+00 0.100D+01
 Coeff:     -0.794D+00 0.904D+00 0.170D-01-0.410D+00 0.128D+01
 Gap=     0.039 Goal=   None    Shift=    0.400
 RMSDP=3.55D-04 MaxDP=4.66D-02 DE=-1.26D-02 OVMax= 4.32D-02

 Cycle   6  Pass 1  IDiag  1:
 E= -118.710340123239     Delta-E=       -0.009838481161 Rises=F Damp=F
 DIIS: error= 6.41D-03 at cycle   6 NSaved=   6.
 NSaved= 6 IEnMin= 6 EnMin= -118.710340123239     IErMin= 6 ErrMin= 6.41D-03
 ErrMax= 6.41D-03  0.00D+00 EMaxC= 1.00D-01 BMatC= 3.55D-03 BMatP= 4.73D-03
 IDIUse=3 WtCom= 9.36D-01 WtEn= 6.41D-02
 Coeff-Com: -0.591D+00 0.679D+00-0.337D+00-0.320D+00-0.752D+00 0.232D+01
 Coeff-En:   0.000D+00 0.000D+00 0.000D+00 0.000D+00 0.000D+00 0.100D+01
 Coeff:     -0.553D+00 0.635D+00-0.316D+00-0.299D+00-0.704D+00 0.224D+01
 Gap=     0.049 Goal=   None    Shift=    0.400
 RMSDP=6.37D-04 MaxDP=8.66D-02 DE=-9.84D-03 OVMax= 6.52D-02

 Cycle   7  Pass 1  IDiag  1:
 E= -118.725834404444     Delta-E=       -0.015494281205 Rises=F Damp=F
 DIIS: error= 5.47D-03 at cycle   7 NSaved=   7.
 NSaved= 7 IEnMin= 7 EnMin= -118.725834404444     IErMin= 7 ErrMin= 5.47D-03
 ErrMax= 5.47D-03  0.00D+00 EMaxC= 1.00D-01 BMatC= 2.43D-03 BMatP= 3.55D-03
 IDIUse=3 WtCom= 9.45D-01 WtEn= 5.47D-02
 Coeff-Com: -0.564D+00 0.647D+00-0.229D+00-0.341D+00-0.275D+00 0.118D+01
 Coeff-Com:  0.584D+00
 Coeff-En:   0.000D+00 0.000D+00 0.000D+00 0.000D+00 0.000D+00 0.000D+00
 Coeff-En:   0.100D+01
 Coeff:     -0.533D+00 0.612D+00-0.216D+00-0.322D+00-0.260D+00 0.111D+01
 Coeff:      0.606D+00
 Gap=     0.048 Goal=   None    Shift=    0.400
 RMSDP=2.25D-04 MaxDP=1.90D-02 DE=-1.55D-02 OVMax= 4.58D-02

 Cycle   8  Pass 1  IDiag  1:
 E= -118.729836127347     Delta-E=       -0.004001722903 Rises=F Damp=F
 DIIS: error= 5.09D-03 at cycle   8 NSaved=   8.
 NSaved= 8 IEnMin= 8 EnMin= -118.729836127347     IErMin= 8 ErrMin= 5.09D-03
 ErrMax= 5.09D-03  0.00D+00 EMaxC= 1.00D-01 BMatC= 2.30D-03 BMatP= 2.43D-03
 IDIUse=3 WtCom= 9.49D-01 WtEn= 5.09D-02
 Coeff-Com: -0.588D+00 0.670D+00-0.133D-01 0.302D+00-0.372D-01-0.920D+00
 Coeff-Com:  0.103D+00 0.148D+01
 Coeff-En:   0.000D+00 0.000D+00 0.000D+00 0.000D+00 0.000D+00 0.000D+00
 Coeff-En:   0.000D+00 0.100D+01
 Coeff:     -0.558D+00 0.636D+00-0.126D-01 0.287D+00-0.353D-01-0.873D+00
 Coeff:      0.979D-01 0.146D+01
 Gap=     0.055 Goal=   None    Shift=    0.400
 RMSDP=2.44D-04 MaxDP=2.35D-02 DE=-4.00D-03 OVMax= 3.98D-02

 Cycle   9  Pass 1  IDiag  1:
 E= -118.733381606697     Delta-E=       -0.003545479350 Rises=F Damp=F
 DIIS: error= 4.14D-03 at cycle   9 NSaved=   9.
 NSaved= 9 IEnMin= 9 EnMin= -118.733381606697     IErMin= 9 ErrMin= 4.14D-03
 ErrMax= 4.14D-03  0.00D+00 EMaxC= 1.00D-01 BMatC= 1.81D-03 BMatP= 2.30D-03
 IDIUse=3 WtCom= 9.59D-01 WtEn= 4.14D-02
 Coeff-Com: -0.445D+00 0.507D+00-0.845D-01-0.208D+00 0.110D+01-0.128D+01
 Coeff-Com: -0.564D+00-0.408D+00 0.238D+01
 Coeff-En:   0.000D+00 0.000D+00 0.000D+00 0.000D+00 0.000D+00 0.000D+00
 Coeff-En:   0.000D+00 0.000D+00 0.100D+01
 Coeff:     -0.426D+00 0.486D+00-0.810D-01-0.199D+00 0.105D+01-0.123D+01
 Coeff:     -0.541D+00-0.391D+00 0.233D+01
 Gap=     0.064 Goal=   None    Shift=    0.400
 RMSDP=3.46D-04 MaxDP=3.81D-02 DE=-3.55D-03 OVMax= 4.92D-02

 Cycle  10  Pass 1  IDiag  1:
 E= -118.738701631923     Delta-E=       -0.005320025226 Rises=F Damp=F
 DIIS: error= 3.33D-03 at cycle  10 NSaved=  10.
 NSaved=10 IEnMin=10 EnMin= -118.738701631923     IErMin=10 ErrMin= 3.33D-03
 ErrMax= 3.33D-03  0.00D+00 EMaxC= 1.00D-01 BMatC= 1.21D-03 BMatP= 1.81D-03
 IDIUse=3 WtCom= 9.67D-01 WtEn= 3.33D-02
 Coeff-Com: -0.373D+00 0.427D+00-0.137D+00-0.142D+00 0.438D+00 0.599D+00
 Coeff-Com: -0.194D+01 0.108D+01-0.104D+01 0.208D+01
 Coeff-En:   0.000D+00 0.000D+00 0.000D+00 0.000D+00 0.000D+00 0.000D+00
 Coeff-En:   0.000D+00 0.000D+00 0.000D+00 0.100D+01
 Coeff:     -0.361D+00 0.412D+00-0.132D+00-0.137D+00 0.423D+00 0.579D+00
 Coeff:     -0.187D+01 0.105D+01-0.100D+01 0.204D+01
 Gap=     0.066 Goal=   None    Shift=    0.400
 RMSDP=1.61D-04 MaxDP=1.45D-02 DE=-5.32D-03 OVMax= 3.59D-02

 Cycle  11  Pass 1  IDiag  1:
 E= -118.740957913827     Delta-E=       -0.002256281905 Rises=F Damp=F
 DIIS: error= 2.69D-03 at cycle  11 NSaved=  11.
 NSaved=11 IEnMin=11 EnMin= -118.740957913827     IErMin=11 ErrMin= 2.69D-03
 ErrMax= 2.69D-03  0.00D+00 EMaxC= 1.00D-01 BMatC= 7.81D-04 BMatP= 1.21D-03
 IDIUse=3 WtCom= 9.73D-01 WtEn= 2.69D-02
 Coeff-Com: -0.106D+00 0.120D+00 0.415D-01 0.586D-01-0.813D-01-0.575D+00
 Coeff-Com:  0.223D+00 0.498D+00-0.157D+00-0.219D+01 0.317D+01
 Coeff-En:   0.000D+00 0.000D+00 0.000D+00 0.000D+00 0.000D+00 0.000D+00
 Coeff-En:   0.000D+00 0.000D+00 0.000D+00 0.000D+00 0.100D+01
 Coeff:     -0.103D+00 0.117D+00 0.404D-01 0.570D-01-0.792D-01-0.559D+00
 Coeff:      0.217D+00 0.485D+00-0.153D+00-0.213D+01 0.311D+01
 Gap=     0.072 Goal=   None    Shift=    0.400
 RMSDP=3.11D-04 MaxDP=3.06D-02 DE=-2.26D-03 OVMax= 4.56D-02

 Cycle  12  Pass 1  IDiag  1:
 E= -118.744627974781     Delta-E=       -0.003670060954 Rises=F Damp=F
 DIIS: error= 2.40D-03 at cycle  12 NSaved=  12.
 NSaved=12 IEnMin=12 EnMin= -118.744627974781     IErMin=12 ErrMin= 2.40D-03
 ErrMax= 2.40D-03  0.00D+00 EMaxC= 1.00D-01 BMatC= 6.99D-04 BMatP= 7.81D-04
 IDIUse=3 WtCom= 9.76D-01 WtEn= 2.40D-02
 Coeff-Com: -0.359D-01 0.403D-01 0.618D-01 0.107D+00-0.149D+00-0.295D-01
 Coeff-Com: -0.915D+00 0.487D+00 0.157D+01-0.244D+01 0.575D+00 0.173D+01
 Coeff-En:   0.000D+00 0.000D+00 0.000D+00 0.000D+00 0.000D+00 0.000D+00
 Coeff-En:   0.000D+00 0.000D+00 0.000D+00 0.000D+00 0.000D+00 0.100D+01
 Coeff:     -0.350D-01 0.393D-01 0.603D-01 0.104D+00-0.145D+00-0.288D-01
 Coeff:     -0.894D+00 0.475D+00 0.153D+01-0.238D+01 0.561D+00 0.172D+01
 Gap=     0.072 Goal=   None    Shift=    0.400
 RMSDP=1.61D-04 MaxDP=2.05D-02 DE=-3.67D-03 OVMax= 3.24D-02

 Cycle  13  Pass 1  IDiag  1:
 E= -118.745779565411     Delta-E=       -0.001151590630 Rises=F Damp=F
 DIIS: error= 1.66D-03 at cycle  13 NSaved=  13.
 NSaved=13 IEnMin=13 EnMin= -118.745779565411     IErMin=13 ErrMin= 1.66D-03
 ErrMax= 1.66D-03  0.00D+00 EMaxC= 1.00D-01 BMatC= 3.36D-04 BMatP= 6.99D-04
 IDIUse=3 WtCom= 9.83D-01 WtEn= 1.66D-02
 Coeff-Com:  0.675D-02-0.824D-02 0.406D-01 0.679D-01 0.252D+00-0.637D+00
 Coeff-Com: -0.386D+00 0.130D+00 0.161D+01-0.165D+01 0.585D-01 0.157D+00
 Coeff-Com:  0.137D+01
 Coeff-En:   0.000D+00 0.000D+00 0.000D+00 0.000D+00 0.000D+00 0.000D+00
 Coeff-En:   0.000D+00 0.000D+00 0.000D+00 0.000D+00 0.000D+00 0.000D+00
 Coeff-En:   0.100D+01
 Coeff:      0.664D-02-0.810D-02 0.399D-01 0.668D-01 0.248D+00-0.626D+00
 Coeff:     -0.380D+00 0.128D+00 0.158D+01-0.163D+01 0.575D-01 0.154D+00
 Coeff:      0.136D+01
 Gap=     0.072 Goal=   None    Shift=    0.400
 RMSDP=1.36D-04 MaxDP=1.39D-02 DE=-1.15D-03 OVMax= 2.52D-02

 Cycle  14  Pass 1  IDiag  1:
 E= -118.746373763981     Delta-E=       -0.000594198570 Rises=F Damp=F
 DIIS: error= 1.00D-03 at cycle  14 NSaved=  14.
 NSaved=14 IEnMin=14 EnMin= -118.746373763981     IErMin=14 ErrMin= 1.00D-03
 ErrMax= 1.00D-03  0.00D+00 EMaxC= 1.00D-01 BMatC= 1.49D-04 BMatP= 3.36D-04
 IDIUse=3 WtCom= 9.90D-01 WtEn= 1.00D-02
 Coeff-Com:  0.504D-01-0.574D-01 0.890D-02 0.588D-01-0.167D+00 0.133D+00
 Coeff-Com:  0.341D+00-0.448D+00 0.580D-01-0.107D+01 0.127D+01 0.968D+00
 Coeff-Com: -0.416D+01 0.402D+01
 Coeff-En:   0.000D+00 0.000D+00 0.000D+00 0.000D+00 0.000D+00 0.000D+00
 Coeff-En:   0.000D+00 0.000D+00 0.000D+00 0.000D+00 0.000D+00 0.000D+00
 Coeff-En:   0.000D+00 0.100D+01
 Coeff:      0.499D-01-0.568D-01 0.881D-02 0.582D-01-0.166D+00 0.132D+00
 Coeff:      0.338D+00-0.444D+00 0.574D-01-0.106D+01 0.126D+01 0.959D+00
 Coeff:     -0.412D+01 0.398D+01
 Gap=     0.076 Goal=   None    Shift=    0.400
 RMSDP=1.32D-04 MaxDP=1.40D-02 DE=-5.94D-04 OVMax= 2.28D-02

 Cycle  15  Pass 1  IDiag  1:
 E= -118.746633165180     Delta-E=       -0.000259401199 Rises=F Damp=F
 DIIS: error= 1.17D-03 at cycle  15 NSaved=  15.
 NSaved=15 IEnMin=15 EnMin= -118.746633165180     IErMin=14 ErrMin= 1.00D-03
 ErrMax= 1.17D-03  0.00D+00 EMaxC= 1.00D-01 BMatC= 1.29D-04 BMatP= 1.49D-04
 IDIUse=3 WtCom= 9.90D-01 WtEn= 1.00D-02
 Coeff-Com:  0.453D-01-0.517D-01 0.175D-01 0.334D-01-0.890D-01 0.301D-01
 Coeff-Com:  0.232D+00-0.262D+00 0.765D-01-0.683D+00 0.900D+00 0.793D+00
 Coeff-Com: -0.346D+01 0.212D+01 0.131D+01
 Coeff-En:   0.000D+00 0.000D+00 0.000D+00 0.000D+00 0.000D+00 0.000D+00
 Coeff-En:   0.000D+00 0.000D+00 0.000D+00 0.000D+00 0.000D+00 0.000D+00
 Coeff-En:   0.000D+00 0.000D+00 0.100D+01
 Coeff:      0.448D-01-0.512D-01 0.173D-01 0.331D-01-0.881D-01 0.298D-01
 Coeff:      0.230D+00-0.260D+00 0.757D-01-0.676D+00 0.891D+00 0.785D+00
 Coeff:     -0.343D+01 0.209D+01 0.130D+01
 Gap=     0.075 Goal=   None    Shift=    0.400
 RMSDP=7.95D-05 MaxDP=9.32D-03 DE=-2.59D-04 OVMax= 1.60D-02

 Cycle  16  Pass 1  IDiag  1:
 E= -118.746808025351     Delta-E=       -0.000174860171 Rises=F Damp=F
 DIIS: error= 8.73D-04 at cycle  16 NSaved=  16.
 NSaved=16 IEnMin=16 EnMin= -118.746808025351     IErMin=16 ErrMin= 8.73D-04
 ErrMax= 8.73D-04  0.00D+00 EMaxC= 1.00D-01 BMatC= 6.01D-05 BMatP= 1.29D-04
 IDIUse=3 WtCom= 9.91D-01 WtEn= 8.73D-03
 Coeff-Com:  0.245D-01-0.281D-01 0.226D-01 0.343D-01-0.145D+00 0.469D-01
 Coeff-Com:  0.227D+00-0.208D+00 0.714D-01-0.439D+00 0.346D+00 0.561D+00
 Coeff-Com: -0.688D+00 0.747D+00-0.337D+01 0.380D+01
 Coeff-En:   0.000D+00 0.000D+00 0.000D+00 0.000D+00 0.000D+00 0.000D+00
 Coeff-En:   0.000D+00 0.000D+00 0.000D+00 0.000D+00 0.000D+00 0.000D+00
 Coeff-En:   0.000D+00 0.000D+00 0.000D+00 0.100D+01
 Coeff:      0.243D-01-0.279D-01 0.224D-01 0.340D-01-0.143D+00 0.465D-01
 Coeff:      0.225D+00-0.206D+00 0.708D-01-0.435D+00 0.343D+00 0.556D+00
 Coeff:     -0.682D+00 0.741D+00-0.334D+01 0.377D+01
 Gap=     0.076 Goal=   None    Shift=    0.400
 RMSDP=5.98D-05 MaxDP=6.08D-03 DE=-1.75D-04 OVMax= 1.12D-02

 Cycle  17  Pass 1  IDiag  1:
 E= -118.746931227081     Delta-E=       -0.000123201730 Rises=F Damp=F
 DIIS: error= 5.59D-04 at cycle  17 NSaved=  17.
 NSaved=17 IEnMin=17 EnMin= -118.746931227081     IErMin=17 ErrMin= 5.59D-04
 ErrMax= 5.59D-04  0.00D+00 EMaxC= 1.00D-01 BMatC= 2.66D-05 BMatP= 6.01D-05
 IDIUse=3 WtCom= 9.94D-01 WtEn= 5.59D-03
 Coeff-Com:  0.319D-03-0.363D-03-0.621D-02 0.281D-01-0.137D+00 0.166D+00
 Coeff-Com:  0.969D-01-0.205D+00 0.159D+00-0.244D+00-0.259D-01 0.707D-01
 Coeff-Com:  0.802D+00 0.167D+00-0.323D+01 0.162D+01 0.174D+01
 Coeff-En:   0.000D+00 0.000D+00 0.000D+00 0.000D+00 0.000D+00 0.000D+00
 Coeff-En:   0.000D+00 0.000D+00 0.000D+00 0.000D+00 0.000D+00 0.000D+00
 Coeff-En:   0.000D+00 0.000D+00 0.000D+00 0.000D+00 0.100D+01
 Coeff:      0.317D-03-0.361D-03-0.617D-02 0.279D-01-0.136D+00 0.165D+00
 Coeff:      0.963D-01-0.204D+00 0.158D+00-0.243D+00-0.257D-01 0.703D-01
 Coeff:      0.798D+00 0.166D+00-0.321D+01 0.161D+01 0.174D+01
 Gap=     0.077 Goal=   None    Shift=    0.400
 RMSDP=5.32D-05 MaxDP=3.37D-03 DE=-1.23D-04 OVMax= 6.84D-03

 Cycle  18  Pass 1  IDiag  1:
 E= -118.746992889991     Delta-E=       -0.000061662910 Rises=F Damp=F
 DIIS: error= 3.37D-04 at cycle  18 NSaved=  18.
 NSaved=18 IEnMin=18 EnMin= -118.746992889991     IErMin=18 ErrMin= 3.37D-04
 ErrMax= 3.37D-04  0.00D+00 EMaxC= 1.00D-01 BMatC= 1.22D-05 BMatP= 2.66D-05
 IDIUse=3 WtCom= 9.97D-01 WtEn= 3.37D-03
 Coeff-Com:  0.534D-02-0.608D-02-0.936D-02-0.109D-01-0.241D-01 0.457D-01
 Coeff-Com:  0.121D+00-0.203D+00 0.104D+00 0.660D-01-0.137D+00-0.173D+00
 Coeff-Com:  0.339D+00 0.391D+00-0.149D+01 0.764D+00-0.329D+00 0.154D+01
 Coeff-En:   0.000D+00 0.000D+00 0.000D+00 0.000D+00 0.000D+00 0.000D+00
 Coeff-En:   0.000D+00 0.000D+00 0.000D+00 0.000D+00 0.000D+00 0.000D+00
 Coeff-En:   0.000D+00 0.000D+00 0.000D+00 0.000D+00 0.000D+00 0.100D+01
 Coeff:      0.532D-02-0.606D-02-0.933D-02-0.108D-01-0.241D-01 0.455D-01
 Coeff:      0.121D+00-0.203D+00 0.104D+00 0.658D-01-0.136D+00-0.173D+00
 Coeff:      0.338D+00 0.390D+00-0.148D+01 0.761D+00-0.328D+00 0.154D+01
 Gap=     0.077 Goal=   None    Shift=    0.400
 RMSDP=2.03D-05 MaxDP=1.58D-03 DE=-6.17D-05 OVMax= 4.77D-03

 Cycle  19  Pass 1  IDiag  1:
 E= -118.747008696033     Delta-E=       -0.000015806041 Rises=F Damp=F
 DIIS: error= 3.51D-04 at cycle  19 NSaved=  19.
 NSaved=19 IEnMin=19 EnMin= -118.747008696033     IErMin=18 ErrMin= 3.37D-04
 ErrMax= 3.51D-04  0.00D+00 EMaxC= 1.00D-01 BMatC= 1.57D-05 BMatP= 1.22D-05
 IDIUse=3 WtCom= 9.97D-01 WtEn= 3.37D-03
 Coeff-Com: -0.105D-01 0.121D-01-0.940D-02-0.180D-03-0.754D-01 0.174D+00
 Coeff-Com: -0.615D-01 0.239D-01-0.255D+00 0.195D+00 0.225D+00-0.204D+00
 Coeff-Com: -0.500D+00 0.788D+00-0.314D+00 0.122D+00-0.255D+00-0.131D+01
 Coeff-Com:  0.246D+01
 Coeff-En:   0.000D+00 0.000D+00 0.000D+00 0.000D+00 0.000D+00 0.000D+00
 Coeff-En:   0.000D+00 0.000D+00 0.000D+00 0.000D+00 0.000D+00 0.000D+00
 Coeff-En:   0.000D+00 0.000D+00 0.000D+00 0.000D+00 0.000D+00 0.000D+00
 Coeff-En:   0.100D+01
 Coeff:     -0.105D-01 0.120D-01-0.937D-02-0.179D-03-0.752D-01 0.174D+00
 Coeff:     -0.613D-01 0.238D-01-0.254D+00 0.194D+00 0.224D+00-0.203D+00
 Coeff:     -0.498D+00 0.785D+00-0.313D+00 0.122D+00-0.254D+00-0.131D+01
 Coeff:      0.245D+01
 Gap=     0.076 Goal=   None    Shift=    0.400
 RMSDP=2.50D-05 MaxDP=2.41D-03 DE=-1.58D-05 OVMax= 2.79D-03

 Cycle  20  Pass 1  IDiag  1:
 E= -118.747019514767     Delta-E=       -0.000010818735 Rises=F Damp=F
 DIIS: error= 1.93D-04 at cycle  20 NSaved=  20.
 NSaved=20 IEnMin=20 EnMin= -118.747019514767     IErMin=20 ErrMin= 1.93D-04
 ErrMax= 1.93D-04  0.00D+00 EMaxC= 1.00D-01 BMatC= 4.62D-06 BMatP= 1.22D-05
 IDIUse=3 WtCom= 9.98D-01 WtEn= 1.93D-03
 Coeff-Com: -0.132D-01 0.151D-01-0.375D-02 0.893D-02-0.502D-01 0.838D-01
 Coeff-Com: -0.694D-01 0.884D-01-0.128D+00 0.342D-01 0.838D-01 0.468D-01
 Coeff-Com: -0.184D+00 0.803D-01-0.172D+00 0.190D+00 0.377D+00-0.141D+01
 Coeff-Com:  0.141D+00 0.188D+01
 Coeff-En:   0.000D+00 0.000D+00 0.000D+00 0.000D+00 0.000D+00 0.000D+00
 Coeff-En:   0.000D+00 0.000D+00 0.000D+00 0.000D+00 0.000D+00 0.000D+00
 Coeff-En:   0.000D+00 0.000D+00 0.000D+00 0.000D+00 0.000D+00 0.000D+00
 Coeff-En:   0.000D+00 0.100D+01
 Coeff:     -0.132D-01 0.151D-01-0.375D-02 0.891D-02-0.501D-01 0.837D-01
 Coeff:     -0.692D-01 0.882D-01-0.128D+00 0.342D-01 0.837D-01 0.467D-01
 Coeff:     -0.184D+00 0.801D-01-0.171D+00 0.190D+00 0.376D+00-0.140D+01
 Coeff:      0.141D+00 0.188D+01
 Gap=     0.076 Goal=   None    Shift=    0.400
 RMSDP=1.26D-05 MaxDP=1.21D-03 DE=-1.08D-05 OVMax= 2.15D-03

 Cycle  21  Pass 1  IDiag  1:
 E= -118.747025317824     Delta-E=       -0.000005803056 Rises=F Damp=F
 DIIS: error= 1.14D-04 at cycle  21 NSaved=  20.
 NSaved=20 IEnMin=20 EnMin= -118.747025317824     IErMin=20 ErrMin= 1.14D-04
 ErrMax= 1.14D-04  0.00D+00 EMaxC= 1.00D-01 BMatC= 1.79D-06 BMatP= 4.62D-06
 IDIUse=3 WtCom= 9.99D-01 WtEn= 1.14D-03
 Coeff-Com:  0.112D-04-0.889D-04-0.238D-02 0.225D-02-0.114D-01 0.917D-02
 Coeff-Com:  0.440D-03 0.192D-01-0.440D-01 0.169D-01 0.212D-01-0.688D-01
 Coeff-Com:  0.479D-01-0.208D+00 0.364D+00-0.122D+00-0.547D+00 0.586D+00
 Coeff-Com: -0.688D+00 0.162D+01
 Coeff-En:   0.000D+00 0.000D+00 0.000D+00 0.000D+00 0.000D+00 0.000D+00
 Coeff-En:   0.000D+00 0.000D+00 0.000D+00 0.000D+00 0.000D+00 0.000D+00
 Coeff-En:   0.000D+00 0.000D+00 0.000D+00 0.000D+00 0.000D+00 0.000D+00
 Coeff-En:   0.000D+00 0.100D+01
 Coeff:      0.112D-04-0.888D-04-0.238D-02 0.224D-02-0.114D-01 0.916D-02
 Coeff:      0.439D-03 0.192D-01-0.439D-01 0.168D-01 0.212D-01-0.687D-01
 Coeff:      0.478D-01-0.208D+00 0.363D+00-0.122D+00-0.546D+00 0.586D+00
 Coeff:     -0.687D+00 0.162D+01
 Gap=     0.077 Goal=   None    Shift=    0.400
 RMSDP=1.86D-05 MaxDP=1.43D-03 DE=-5.80D-06 OVMax= 2.36D-03

 Cycle  22  Pass 1  IDiag  1:
 E= -118.747031960316     Delta-E=       -0.000006642492 Rises=F Damp=F
 DIIS: error= 1.46D-04 at cycle  22 NSaved=  20.
 NSaved=20 IEnMin=20 EnMin= -118.747031960316     IErMin=19 ErrMin= 1.14D-04
 ErrMax= 1.46D-04  0.00D+00 EMaxC= 1.00D-01 BMatC= 1.83D-06 BMatP= 1.79D-06
 IDIUse=3 WtCom= 9.99D-01 WtEn= 1.14D-03
 Coeff-Com:  0.113D-02-0.950D-03 0.196D-01-0.493D-01 0.442D-01-0.251D-01
 Coeff-Com:  0.281D-01-0.567D-01 0.111D+00-0.865D-01-0.934D-01 0.166D+00
 Coeff-Com: -0.932D-01 0.144D+00-0.515D+00 0.367D+00 0.218D+00-0.316D+00
 Coeff-Com: -0.141D+01 0.255D+01
 Coeff-En:   0.000D+00 0.000D+00 0.000D+00 0.000D+00 0.000D+00 0.000D+00
 Coeff-En:   0.000D+00 0.000D+00 0.000D+00 0.000D+00 0.000D+00 0.000D+00
 Coeff-En:   0.000D+00 0.000D+00 0.000D+00 0.000D+00 0.000D+00 0.000D+00
 Coeff-En:   0.000D+00 0.100D+01
 Coeff:      0.113D-02-0.949D-03 0.195D-01-0.493D-01 0.442D-01-0.251D-01
 Coeff:      0.281D-01-0.566D-01 0.110D+00-0.864D-01-0.932D-01 0.166D+00
 Coeff:     -0.930D-01 0.144D+00-0.514D+00 0.366D+00 0.218D+00-0.315D+00
 Coeff:     -0.141D+01 0.255D+01
 Gap=     0.077 Goal=   None    Shift=    0.400
 RMSDP=7.78D-06 MaxDP=6.16D-04 DE=-6.64D-06 OVMax= 1.68D-03

 Cycle  23  Pass 1  IDiag  1:
 E= -118.747034116592     Delta-E=       -0.000002156277 Rises=F Damp=F
 DIIS: error= 7.76D-05 at cycle  23 NSaved=  20.
 NSaved=20 IEnMin=20 EnMin= -118.747034116592     IErMin=20 ErrMin= 7.76D-05
 ErrMax= 7.76D-05  0.00D+00 EMaxC= 1.00D-01 BMatC= 7.23D-07 BMatP= 1.79D-06
 IDIUse=1 WtCom= 1.00D+00 WtEn= 0.00D+00
 Coeff-Com:  0.165D-02-0.192D-02-0.726D-02 0.268D-01-0.886D-02-0.372D-01
 Coeff-Com: -0.846D-03 0.971D-01-0.490D-01-0.152D+00 0.157D+00 0.487D-01
 Coeff-Com:  0.264D-01-0.392D+00 0.416D-01 0.262D+00 0.303D+00-0.128D+01
 Coeff-Com:  0.369D+00 0.160D+01
 Coeff:      0.165D-02-0.192D-02-0.726D-02 0.268D-01-0.886D-02-0.372D-01
 Coeff:     -0.846D-03 0.971D-01-0.490D-01-0.152D+00 0.157D+00 0.487D-01
 Coeff:      0.264D-01-0.392D+00 0.416D-01 0.262D+00 0.303D+00-0.128D+01
 Coeff:      0.369D+00 0.160D+01
 Gap=     0.077 Goal=   None    Shift=    0.400
 RMSDP=4.97D-06 MaxDP=4.10D-04 DE=-2.16D-06 OVMax= 1.16D-03

 Cycle  24  Pass 1  IDiag  1:
 E= -118.747035303085     Delta-E=       -0.000001186492 Rises=F Damp=F
 DIIS: error= 5.67D-05 at cycle  24 NSaved=  20.
 NSaved=20 IEnMin=20 EnMin= -118.747035303085     IErMin=20 ErrMin= 5.67D-05
 ErrMax= 5.67D-05  0.00D+00 EMaxC= 1.00D-01 BMatC= 3.72D-07 BMatP= 7.23D-07
 IDIUse=1 WtCom= 1.00D+00 WtEn= 0.00D+00
 Coeff-Com:  0.108D-02 0.210D-02-0.378D-02 0.592D-02-0.197D-01 0.247D-01
 Coeff-Com:  0.365D-03-0.561D-02-0.898D-03-0.186D-02-0.247D-01 0.101D+00
 Coeff-Com: -0.367D-01-0.265D+00 0.173D+00 0.164D+00-0.264D+00 0.472D+00
 Coeff-Com: -0.310D+01 0.378D+01
 Coeff:      0.108D-02 0.210D-02-0.378D-02 0.592D-02-0.197D-01 0.247D-01
 Coeff:      0.365D-03-0.561D-02-0.898D-03-0.186D-02-0.247D-01 0.101D+00
 Coeff:     -0.367D-01-0.265D+00 0.173D+00 0.164D+00-0.264D+00 0.472D+00
 Coeff:     -0.310D+01 0.378D+01
 Gap=     0.077 Goal=   None    Shift=    0.400
 RMSDP=4.35D-06 MaxDP=2.78D-04 DE=-1.19D-06 OVMax= 7.44D-04

 Cycle  25  Pass 1  IDiag  1:
 E= -118.747035879926     Delta-E=       -0.000000576841 Rises=F Damp=F
 DIIS: error= 3.48D-05 at cycle  25 NSaved=  20.
 NSaved=20 IEnMin=20 EnMin= -118.747035879926     IErMin=20 ErrMin= 3.48D-05
 ErrMax= 3.48D-05  0.00D+00 EMaxC= 1.00D-01 BMatC= 1.95D-07 BMatP= 3.72D-07
 IDIUse=1 WtCom= 1.00D+00 WtEn= 0.00D+00
 Coeff-Com:  0.230D-02 0.425D-04 0.300D-02-0.168D-01 0.138D-01 0.985D-02
 Coeff-Com: -0.453D-02-0.850D-02 0.145D-01-0.164D-01 0.168D-01-0.108D-01
 Coeff-Com: -0.115D+00 0.107D+00 0.145D+00-0.487D+00 0.537D+00-0.164D+01
 Coeff-Com:  0.107D+01 0.138D+01
 Coeff:      0.230D-02 0.425D-04 0.300D-02-0.168D-01 0.138D-01 0.985D-02
 Coeff:     -0.453D-02-0.850D-02 0.145D-01-0.164D-01 0.168D-01-0.108D-01
 Coeff:     -0.115D+00 0.107D+00 0.145D+00-0.487D+00 0.537D+00-0.164D+01
 Coeff:      0.107D+01 0.138D+01
 Gap=     0.077 Goal=   None    Shift=    0.400
 RMSDP=2.65D-06 MaxDP=3.56D-04 DE=-5.77D-07 OVMax= 5.34D-04

 Cycle  26  Pass 1  IDiag  1:
 E= -118.747036168474     Delta-E=       -0.000000288548 Rises=F Damp=F
 DIIS: error= 2.62D-05 at cycle  26 NSaved=  20.
 NSaved=20 IEnMin=20 EnMin= -118.747036168474     IErMin=20 ErrMin= 2.62D-05
 ErrMax= 2.62D-05  0.00D+00 EMaxC= 1.00D-01 BMatC= 1.09D-07 BMatP= 1.95D-07
 IDIUse=1 WtCom= 1.00D+00 WtEn= 0.00D+00
 Coeff-Com:  0.470D-03 0.372D-02-0.133D-01 0.773D-02 0.176D-01-0.230D-01
 Coeff-Com:  0.509D-02 0.128D-01 0.129D-01-0.539D-01-0.101D-01-0.131D-02
 Coeff-Com:  0.430D-01 0.192D+00-0.535D+00 0.265D+00 0.536D+00-0.484D+00
 Coeff-Com: -0.229D+01 0.332D+01
 Coeff:      0.470D-03 0.372D-02-0.133D-01 0.773D-02 0.176D-01-0.230D-01
 Coeff:      0.509D-02 0.128D-01 0.129D-01-0.539D-01-0.101D-01-0.131D-02
 Coeff:      0.430D-01 0.192D+00-0.535D+00 0.265D+00 0.536D+00-0.484D+00
 Coeff:     -0.229D+01 0.332D+01
 Gap=     0.077 Goal=   None    Shift=    0.400
 RMSDP=2.46D-06 MaxDP=3.35D-04 DE=-2.89D-07 OVMax= 3.66D-04

 Cycle  27  Pass 1  IDiag  1:
 E= -118.747036338115     Delta-E=       -0.000000169641 Rises=F Damp=F
 DIIS: error= 1.90D-05 at cycle  27 NSaved=  20.
 NSaved=20 IEnMin=20 EnMin= -118.747036338115     IErMin=20 ErrMin= 1.90D-05
 ErrMax= 1.90D-05  0.00D+00 EMaxC= 1.00D-01 BMatC= 4.73D-08 BMatP= 1.09D-07
 IDIUse=1 WtCom= 1.00D+00 WtEn= 0.00D+00
 Coeff-Com:  0.455D-02-0.109D-01 0.434D-02 0.147D-01-0.176D-01-0.797D-02
 Coeff-Com:  0.131D-01 0.413D-01-0.459D-01-0.195D-01-0.367D-01 0.309D-01
 Coeff-Com:  0.145D+00-0.298D+00 0.134D+00 0.781D-01 0.232D+00-0.161D+01
 Coeff-Com:  0.103D+01 0.133D+01
 Coeff:      0.455D-02-0.109D-01 0.434D-02 0.147D-01-0.176D-01-0.797D-02
 Coeff:      0.131D-01 0.413D-01-0.459D-01-0.195D-01-0.367D-01 0.309D-01
 Coeff:      0.145D+00-0.298D+00 0.134D+00 0.781D-01 0.232D+00-0.161D+01
 Coeff:      0.103D+01 0.133D+01
 Gap=     0.077 Goal=   None    Shift=    0.400
 RMSDP=1.59D-06 MaxDP=3.06D-04 DE=-1.70D-07 OVMax= 2.68D-04

 Cycle  28  Pass 1  IDiag  1:
 E= -118.747036421187     Delta-E=       -0.000000083072 Rises=F Damp=F
 DIIS: error= 1.35D-05 at cycle  28 NSaved=  20.
 NSaved=20 IEnMin=20 EnMin= -118.747036421187     IErMin=20 ErrMin= 1.35D-05
 ErrMax= 1.35D-05  0.00D+00 EMaxC= 1.00D-01 BMatC= 2.24D-08 BMatP= 4.73D-08
 IDIUse=1 WtCom= 1.00D+00 WtEn= 0.00D+00
 Coeff-Com: -0.224D-02 0.625D-02-0.532D-03-0.643D-02-0.139D-03 0.388D-02
 Coeff-Com:  0.127D-01-0.119D-01-0.479D-02 0.826D-03 0.293D-01-0.710D-01
 Coeff-Com:  0.194D-01 0.425D-01-0.308D+00 0.264D+00 0.382D+00-0.693D-02
 Coeff-Com: -0.340D+01 0.406D+01
 Coeff:     -0.224D-02 0.625D-02-0.532D-03-0.643D-02-0.139D-03 0.388D-02
 Coeff:      0.127D-01-0.119D-01-0.479D-02 0.826D-03 0.293D-01-0.710D-01
 Coeff:      0.194D-01 0.425D-01-0.308D+00 0.264D+00 0.382D+00-0.693D-02
 Coeff:     -0.340D+01 0.406D+01
 Gap=     0.077 Goal=   None    Shift=    0.400
 RMSDP=1.24D-06 MaxDP=2.40D-04 DE=-8.31D-08 OVMax= 1.89D-04

 Cycle  29  Pass 1  IDiag  1:
 E= -118.747036462928     Delta-E=       -0.000000041741 Rises=F Damp=F
 DIIS: error= 9.54D-06 at cycle  29 NSaved=  20.
 NSaved=20 IEnMin=20 EnMin= -118.747036462928     IErMin=20 ErrMin= 9.54D-06
 ErrMax= 9.54D-06  0.00D+00 EMaxC= 1.00D-01 BMatC= 1.27D-08 BMatP= 2.24D-08
 IDIUse=1 WtCom= 1.00D+00 WtEn= 0.00D+00
 Coeff-Com:  0.194D-02-0.127D-02-0.375D-02 0.808D-02-0.310D-02 0.323D-02
 Coeff-Com: -0.123D-01 0.445D-02 0.244D-01 0.348D-02-0.660D-01 0.625D-02
 Coeff-Com:  0.746D-01-0.230D+00 0.835D-01 0.316D+00 0.128D+00-0.234D+01
 Coeff-Com:  0.150D+01 0.150D+01
 Coeff:      0.194D-02-0.127D-02-0.375D-02 0.808D-02-0.310D-02 0.323D-02
 Coeff:     -0.123D-01 0.445D-02 0.244D-01 0.348D-02-0.660D-01 0.625D-02
 Coeff:      0.746D-01-0.230D+00 0.835D-01 0.316D+00 0.128D+00-0.234D+01
 Coeff:      0.150D+01 0.150D+01
 Gap=     0.077 Goal=   None    Shift=    0.400
 RMSDP=8.41D-07 MaxDP=1.62D-04 DE=-4.17D-08 OVMax= 1.41D-04

 Cycle  30  Pass 1  IDiag  1:
 E= -118.747036486435     Delta-E=       -0.000000023507 Rises=F Damp=F
 DIIS: error= 6.64D-06 at cycle  30 NSaved=  20.
 NSaved=20 IEnMin=20 EnMin= -118.747036486435     IErMin=20 ErrMin= 6.64D-06
 ErrMax= 6.64D-06  0.00D+00 EMaxC= 1.00D-01 BMatC= 6.57D-09 BMatP= 1.27D-08
 IDIUse=1 WtCom= 1.00D+00 WtEn= 0.00D+00
 Coeff-Com:  0.612D-03-0.802D-04-0.290D-02 0.387D-02 0.421D-02-0.119D-01
 Coeff-Com:  0.117D-01 0.577D-02-0.144D-01-0.190D-01-0.994D-02 0.498D-01
 Coeff-Com: -0.299D-01-0.263D-02-0.151D-02 0.386D-01-0.271D+00 0.295D+00
 Coeff-Com: -0.240D+01 0.335D+01
 Coeff:      0.612D-03-0.802D-04-0.290D-02 0.387D-02 0.421D-02-0.119D-01
 Coeff:      0.117D-01 0.577D-02-0.144D-01-0.190D-01-0.994D-02 0.498D-01
 Coeff:     -0.299D-01-0.263D-02-0.151D-02 0.386D-01-0.271D+00 0.295D+00
 Coeff:     -0.240D+01 0.335D+01
 Gap=     0.077 Goal=   None    Shift=    0.400
 RMSDP=6.73D-07 MaxDP=1.23D-04 DE=-2.35D-08 OVMax= 1.04D-04

 Cycle  31  Pass 1  IDiag  1:
 E= -118.747036498748     Delta-E=       -0.000000012313 Rises=F Damp=F
 DIIS: error= 4.82D-06 at cycle  31 NSaved=  20.
 NSaved=20 IEnMin=20 EnMin= -118.747036498748     IErMin=20 ErrMin= 4.82D-06
 ErrMax= 4.82D-06  0.00D+00 EMaxC= 1.00D-01 BMatC= 3.84D-09 BMatP= 6.57D-09
 IDIUse=1 WtCom= 1.00D+00 WtEn= 0.00D+00
 Coeff-Com:  0.129D-02-0.377D-02 0.179D-02 0.748D-02-0.869D-02 0.825D-02
 Coeff-Com: -0.201D-02-0.102D-01-0.124D-01 0.127D-01 0.468D-02-0.474D-01
 Coeff-Com:  0.282D-01 0.633D-01-0.632D-01-0.231D+00 0.721D+00-0.173D+01
 Coeff-Com: -0.222D-01 0.228D+01
 Coeff:      0.129D-02-0.377D-02 0.179D-02 0.748D-02-0.869D-02 0.825D-02
 Coeff:     -0.201D-02-0.102D-01-0.124D-01 0.127D-01 0.468D-02-0.474D-01
 Coeff:      0.282D-01 0.633D-01-0.632D-01-0.231D+00 0.721D+00-0.173D+01
 Coeff:     -0.222D-01 0.228D+01
 Gap=     0.077 Goal=   None    Shift=    0.400
 RMSDP=4.98D-07 MaxDP=8.90D-05 DE=-1.23D-08 OVMax= 8.01D-05

 Cycle  32  Pass 1  IDiag  1:
 E= -118.747036505551     Delta-E=       -0.000000006803 Rises=F Damp=F
 DIIS: error= 3.63D-06 at cycle  32 NSaved=  20.
 NSaved=20 IEnMin=20 EnMin= -118.747036505551     IErMin=20 ErrMin= 3.63D-06
 ErrMax= 3.63D-06  0.00D+00 EMaxC= 1.00D-01 BMatC= 2.23D-09 BMatP= 3.84D-09
 IDIUse=1 WtCom= 1.00D+00 WtEn= 0.00D+00
 Coeff-Com: -0.113D-02-0.176D-02 0.142D-01-0.105D-01-0.416D-02 0.277D-02
 Coeff-Com:  0.680D-02-0.181D-01 0.254D-01-0.158D-01-0.445D-01-0.690D-02
 Coeff-Com:  0.960D-01-0.545D-01-0.521D+00 0.758D+00 0.575D+00-0.704D+00
 Coeff-Com: -0.333D+01 0.423D+01
 Coeff:     -0.113D-02-0.176D-02 0.142D-01-0.105D-01-0.416D-02 0.277D-02
 Coeff:      0.680D-02-0.181D-01 0.254D-01-0.158D-01-0.445D-01-0.690D-02
 Coeff:      0.960D-01-0.545D-01-0.521D+00 0.758D+00 0.575D+00-0.704D+00
 Coeff:     -0.333D+01 0.423D+01
 Gap=     0.077 Goal=   None    Shift=    0.400
 RMSDP=3.48D-07 MaxDP=6.16D-05 DE=-6.80D-09 OVMax= 5.95D-05

 Cycle  33  Pass 1  IDiag  1:
 E= -118.747036509532     Delta-E=       -0.000000003981 Rises=F Damp=F
 DIIS: error= 2.72D-06 at cycle  33 NSaved=  20.
 NSaved=20 IEnMin=20 EnMin= -118.747036509532     IErMin=20 ErrMin= 2.72D-06
 ErrMax= 2.72D-06  0.00D+00 EMaxC= 1.00D-01 BMatC= 1.34D-09 BMatP= 2.23D-09
 IDIUse=1 WtCom= 1.00D+00 WtEn= 0.00D+00
 Coeff-Com: -0.131D-02 0.573D-02-0.378D-02-0.103D-02 0.347D-02 0.186D-03
 Coeff-Com: -0.132D-01 0.150D-01-0.124D-01-0.387D-02 0.169D-01-0.496D-01
 Coeff-Com:  0.387D-01-0.189D+00 0.371D+00-0.401D+00 0.335D+00-0.514D+00
 Coeff-Com: -0.146D+01 0.286D+01
 Coeff:     -0.131D-02 0.573D-02-0.378D-02-0.103D-02 0.347D-02 0.186D-03
 Coeff:     -0.132D-01 0.150D-01-0.124D-01-0.387D-02 0.169D-01-0.496D-01
 Coeff:      0.387D-01-0.189D+00 0.371D+00-0.401D+00 0.335D+00-0.514D+00
 Coeff:     -0.146D+01 0.286D+01
 Gap=     0.077 Goal=   None    Shift=    0.400
 RMSDP=2.79D-07 MaxDP=4.84D-05 DE=-3.98D-09 OVMax= 4.41D-05

 Cycle  34  Pass 1  IDiag  1:
 E= -118.747036511975     Delta-E=       -0.000000002443 Rises=F Damp=F
 DIIS: error= 1.97D-06 at cycle  34 NSaved=  20.
 NSaved=20 IEnMin=20 EnMin= -118.747036511975     IErMin=20 ErrMin= 1.97D-06
 ErrMax= 1.97D-06  0.00D+00 EMaxC= 1.00D-01 BMatC= 7.65D-10 BMatP= 1.34D-09
 IDIUse=1 WtCom= 1.00D+00 WtEn= 0.00D+00
 Coeff-Com:  0.112D-04-0.388D-03 0.291D-02 0.754D-03-0.516D-02-0.188D-02
 Coeff-Com:  0.310D-02-0.137D-01 0.574D-01-0.167D-01-0.117D+00 0.893D-01
 Coeff-Com:  0.171D-01 0.136D+00-0.519D+00-0.144D+00 0.144D+01-0.137D+01
 Coeff-Com: -0.220D+01 0.365D+01
 Coeff:      0.112D-04-0.388D-03 0.291D-02 0.754D-03-0.516D-02-0.188D-02
 Coeff:      0.310D-02-0.137D-01 0.574D-01-0.167D-01-0.117D+00 0.893D-01
 Coeff:      0.171D-01 0.136D+00-0.519D+00-0.144D+00 0.144D+01-0.137D+01
 Coeff:     -0.220D+01 0.365D+01
 Gap=     0.077 Goal=   None    Shift=    0.400
 RMSDP=2.41D-07 MaxDP=4.36D-05 DE=-2.44D-09 OVMax= 3.22D-05

 Cycle  35  Pass 1  IDiag  1:
 E= -118.747036513334     Delta-E=       -0.000000001358 Rises=F Damp=F
 DIIS: error= 1.45D-06 at cycle  35 NSaved=  20.
 NSaved=20 IEnMin=20 EnMin= -118.747036513334     IErMin=20 ErrMin= 1.45D-06
 ErrMax= 1.45D-06  0.00D+00 EMaxC= 1.00D-01 BMatC= 4.44D-10 BMatP= 7.65D-10
 IDIUse=1 WtCom= 1.00D+00 WtEn= 0.00D+00
 Coeff-Com: -0.462D-03 0.272D-02-0.299D-03-0.402D-02 0.386D-02 0.516D-03
 Coeff-Com: -0.121D-01 0.393D-01-0.251D-01-0.427D-01 0.404D-01 0.593D-02
 Coeff-Com:  0.263D-01 0.534D-01-0.743D+00 0.103D+01-0.158D-01-0.223D+01
 Coeff-Com:  0.607D+00 0.227D+01
 Coeff:     -0.462D-03 0.272D-02-0.299D-03-0.402D-02 0.386D-02 0.516D-03
 Coeff:     -0.121D-01 0.393D-01-0.251D-01-0.427D-01 0.404D-01 0.593D-02
 Coeff:      0.263D-01 0.534D-01-0.743D+00 0.103D+01-0.158D-01-0.223D+01
 Coeff:      0.607D+00 0.227D+01
 Gap=     0.077 Goal=   None    Shift=    0.400
 RMSDP=1.67D-07 MaxDP=2.90D-05 DE=-1.36D-09 OVMax= 2.41D-05

 Cycle  36  Pass 1  IDiag  1:
 E= -118.747036514127     Delta-E=       -0.000000000793 Rises=F Damp=F
 DIIS: error= 1.12D-06 at cycle  36 NSaved=  20.
 NSaved=20 IEnMin=20 EnMin= -118.747036514127     IErMin=20 ErrMin= 1.12D-06
 ErrMax= 1.12D-06  0.00D+00 EMaxC= 1.00D-01 BMatC= 2.59D-10 BMatP= 4.44D-10
 IDIUse=1 WtCom= 1.00D+00 WtEn= 0.00D+00
 Coeff-Com:  0.832D-04 0.292D-02-0.200D-02-0.316D-02 0.252D-02-0.128D-03
 Coeff-Com:  0.429D-02-0.131D-02-0.136D-01 0.359D-01-0.675D-01 0.914D-01
 Coeff-Com:  0.186D-01-0.315D+00 0.427D+00-0.789D+00 0.367D+00 0.129D+01
 Coeff-Com: -0.442D+01 0.437D+01
 Coeff:      0.832D-04 0.292D-02-0.200D-02-0.316D-02 0.252D-02-0.128D-03
 Coeff:      0.429D-02-0.131D-02-0.136D-01 0.359D-01-0.675D-01 0.914D-01
 Coeff:      0.186D-01-0.315D+00 0.427D+00-0.789D+00 0.367D+00 0.129D+01
 Coeff:     -0.442D+01 0.437D+01
 Gap=     0.077 Goal=   None    Shift=    0.400
 RMSDP=1.37D-07 MaxDP=2.46D-05 DE=-7.93D-10 OVMax= 1.80D-05

 Cycle  37  Pass 1  IDiag  1:
 E= -118.747036514584     Delta-E=       -0.000000000457 Rises=F Damp=F
 DIIS: error= 8.75D-07 at cycle  37 NSaved=  20.
 NSaved=20 IEnMin=20 EnMin= -118.747036514584     IErMin=20 ErrMin= 8.75D-07
 ErrMax= 8.75D-07  0.00D+00 EMaxC= 1.00D-01 BMatC= 1.55D-10 BMatP= 2.59D-10
 IDIUse=1 WtCom= 1.00D+00 WtEn= 0.00D+00
 Coeff-Com:  0.248D-02-0.854D-03-0.488D-02 0.290D-02 0.238D-02-0.607D-03
 Coeff-Com:  0.208D-02-0.159D-01 0.360D-01-0.539D-01 0.103D+00-0.853D-01
 Coeff-Com: -0.837D-01 0.194D+00-0.723D+00 0.624D+00 0.137D+01-0.405D+01
 Coeff-Com:  0.168D+01 0.200D+01
 Coeff:      0.248D-02-0.854D-03-0.488D-02 0.290D-02 0.238D-02-0.607D-03
 Coeff:      0.208D-02-0.159D-01 0.360D-01-0.539D-01 0.103D+00-0.853D-01
 Coeff:     -0.837D-01 0.194D+00-0.723D+00 0.624D+00 0.137D+01-0.405D+01
 Coeff:      0.168D+01 0.200D+01
 Gap=     0.077 Goal=   None    Shift=    0.400
 RMSDP=1.00D-07 MaxDP=1.58D-05 DE=-4.57D-10 OVMax= 1.36D-05

 Cycle  38  Pass 1  IDiag  1:
 E= -118.747036514852     Delta-E=       -0.000000000268 Rises=F Damp=F
 DIIS: error= 6.87D-07 at cycle  38 NSaved=  20.
 NSaved=20 IEnMin=20 EnMin= -118.747036514852     IErMin=20 ErrMin= 6.87D-07
 ErrMax= 6.87D-07  0.00D+00 EMaxC= 1.00D-01 BMatC= 9.14D-11 BMatP= 1.55D-10
 IDIUse=1 WtCom= 1.00D+00 WtEn= 0.00D+00
 Coeff-Com:  0.141D-02-0.184D-02 0.109D-02-0.412D-03 0.133D-02 0.108D-02
 Coeff-Com: -0.161D-02 0.344D-03 0.169D-01 0.338D-01-0.771D-01-0.239D-01
 Coeff-Com:  0.488D-01-0.163D+00-0.478D-03 0.544D+00-0.791D+00-0.798D+00
 Coeff-Com: -0.403D+00 0.261D+01
 Coeff:      0.141D-02-0.184D-02 0.109D-02-0.412D-03 0.133D-02 0.108D-02
 Coeff:     -0.161D-02 0.344D-03 0.169D-01 0.338D-01-0.771D-01-0.239D-01
 Coeff:      0.488D-01-0.163D+00-0.478D-03 0.544D+00-0.791D+00-0.798D+00
 Coeff:     -0.403D+00 0.261D+01
 Gap=     0.077 Goal=   None    Shift=    0.400
 RMSDP=7.84D-08 MaxDP=1.09D-05 DE=-2.68D-10 OVMax= 1.03D-05

 Cycle  39  Pass 1  IDiag  1:
 E= -118.747036515012     Delta-E=       -0.000000000160 Rises=F Damp=F
 DIIS: error= 5.34D-07 at cycle  39 NSaved=  20.
 NSaved=20 IEnMin=20 EnMin= -118.747036515012     IErMin=20 ErrMin= 5.34D-07
 ErrMax= 5.34D-07  0.00D+00 EMaxC= 1.00D-01 BMatC= 5.61D-11 BMatP= 9.14D-11
 IDIUse=1 WtCom= 1.00D+00 WtEn= 0.00D+00
 Coeff-Com:  0.168D-02-0.125D-02-0.284D-02 0.863D-02-0.267D-02 0.134D-02
 Coeff-Com: -0.169D-01 0.423D-01 0.166D-02-0.854D-01-0.165D-01 0.158D+00
 Coeff-Com: -0.111D+00-0.330D+00 0.347D+00 0.220D+00-0.824D+00-0.775D+00
 Coeff-Com:  0.848D+00 0.154D+01
 Coeff:      0.168D-02-0.125D-02-0.284D-02 0.863D-02-0.267D-02 0.134D-02
 Coeff:     -0.169D-01 0.423D-01 0.166D-02-0.854D-01-0.165D-01 0.158D+00
 Coeff:     -0.111D+00-0.330D+00 0.347D+00 0.220D+00-0.824D+00-0.775D+00
 Coeff:      0.848D+00 0.154D+01
 Gap=     0.077 Goal=   None    Shift=    0.400
 RMSDP=6.03D-08 MaxDP=6.94D-06 DE=-1.60D-10 OVMax= 7.91D-06

 Cycle  40  Pass 1  IDiag  1:
 E= -118.747036515109     Delta-E=       -0.000000000097 Rises=F Damp=F
 DIIS: error= 4.12D-07 at cycle  40 NSaved=  20.
 NSaved=20 IEnMin=20 EnMin= -118.747036515109     IErMin=20 ErrMin= 4.12D-07
 ErrMax= 4.12D-07  0.00D+00 EMaxC= 1.00D-01 BMatC= 3.28D-11 BMatP= 5.61D-11
 IDIUse=1 WtCom= 1.00D+00 WtEn= 0.00D+00
 Coeff-Com:  0.217D-04 0.177D-03 0.165D-02-0.108D-01 0.309D-01-0.229D-01
 Coeff-Com: -0.274D-01 0.290D-01 0.970D-01-0.112D+00-0.167D+00 0.326D+00
 Coeff-Com: -0.236D+00 0.267D-01 0.250D+00-0.277D+00-0.336D+00 0.661D-01
 Coeff-Com: -0.213D+01 0.349D+01
 Coeff:      0.217D-04 0.177D-03 0.165D-02-0.108D-01 0.309D-01-0.229D-01
 Coeff:     -0.274D-01 0.290D-01 0.970D-01-0.112D+00-0.167D+00 0.326D+00
 Coeff:     -0.236D+00 0.267D-01 0.250D+00-0.277D+00-0.336D+00 0.661D-01
 Coeff:     -0.213D+01 0.349D+01
 Gap=     0.077 Goal=   None    Shift=    0.400
 RMSDP=4.98D-08 MaxDP=6.61D-06 DE=-9.70D-11 OVMax= 6.04D-06

 Cycle  41  Pass 1  IDiag  1:
 E= -118.747036515164     Delta-E=       -0.000000000056 Rises=F Damp=F
 DIIS: error= 3.25D-07 at cycle  41 NSaved=  20.
 NSaved=20 IEnMin=20 EnMin= -118.747036515164     IErMin=20 ErrMin= 3.25D-07
 ErrMax= 3.25D-07  0.00D+00 EMaxC= 1.00D-01 BMatC= 2.02D-11 BMatP= 3.28D-11
 IDIUse=1 WtCom= 1.00D+00 WtEn= 0.00D+00
 Coeff-Com: -0.515D-03-0.234D-03-0.402D-02 0.203D-01-0.177D-01 0.937D-02
 Coeff-Com: -0.105D-01 0.614D-01-0.687D-01-0.107D+00 0.124D+00 0.745D-01
 Coeff-Com:  0.304D-01-0.478D+00 0.376D+00 0.365D-01 0.221D-01-0.208D+01
 Coeff-Com:  0.908D+00 0.210D+01
 Coeff:     -0.515D-03-0.234D-03-0.402D-02 0.203D-01-0.177D-01 0.937D-02
 Coeff:     -0.105D-01 0.614D-01-0.687D-01-0.107D+00 0.124D+00 0.745D-01
 Coeff:      0.304D-01-0.478D+00 0.376D+00 0.365D-01 0.221D-01-0.208D+01
 Coeff:      0.908D+00 0.210D+01
 Gap=     0.077 Goal=   None    Shift=    0.400
 RMSDP=3.44D-08 MaxDP=4.02D-06 DE=-5.58D-11 OVMax= 4.69D-06

 Cycle  42  Pass 1  IDiag  1:
 E= -118.747036515198     Delta-E=       -0.000000000034 Rises=F Damp=F
 DIIS: error= 2.59D-07 at cycle  42 NSaved=  20.
 NSaved=20 IEnMin=20 EnMin= -118.747036515198     IErMin=20 ErrMin= 2.59D-07
 ErrMax= 2.59D-07  0.00D+00 EMaxC= 1.00D-01 BMatC= 1.24D-11 BMatP= 2.02D-11
 IDIUse=1 WtCom= 1.00D+00 WtEn= 0.00D+00
 Large coefficients: NSaved= 20 BigCof=    0.00 CofMax=   10.00 Det=-8.99D-15
 Inversion failed.  Reducing to 19 matrices.
 Large coefficients: NSaved= 19 BigCof=    0.00 CofMax=   10.00 Det=-9.18D-15
 Inversion failed.  Reducing to 18 matrices.
 Coeff-Com:  0.393D-02-0.774D-02 0.199D-01-0.199D-01-0.405D-02 0.284D-01
 Coeff-Com: -0.160D-01-0.619D-01 0.801D-01 0.197D-01-0.996D-01-0.249D-01
 Coeff-Com: -0.113D+00 0.276D+00-0.570D+00 0.242D+00-0.208D+01 0.333D+01
 Coeff:      0.393D-02-0.774D-02 0.199D-01-0.199D-01-0.405D-02 0.284D-01
 Coeff:     -0.160D-01-0.619D-01 0.801D-01 0.197D-01-0.996D-01-0.249D-01
 Coeff:     -0.113D+00 0.276D+00-0.570D+00 0.242D+00-0.208D+01 0.333D+01
 Gap=     0.077 Goal=   None    Shift=    0.400
 RMSDP=2.75D-08 MaxDP=2.54D-06 DE=-3.39D-11 OVMax= 3.69D-06

 Cycle  43  Pass 1  IDiag  1:
 E= -118.747036515219     Delta-E=       -0.000000000021 Rises=F Damp=F
 DIIS: error= 2.05D-07 at cycle  43 NSaved=  19.
 NSaved=19 IEnMin=19 EnMin= -118.747036515219     IErMin=19 ErrMin= 2.05D-07
 ErrMax= 2.05D-07  0.00D+00 EMaxC= 1.00D-01 BMatC= 7.64D-12 BMatP= 1.24D-11
 IDIUse=1 WtCom= 1.00D+00 WtEn= 0.00D+00
 Large coefficients: NSaved= 19 BigCof=    0.00 CofMax=   10.00 Det=-6.40D-15
 Inversion failed.  Reducing to 18 matrices.
 Large coefficients: NSaved= 18 BigCof=    0.00 CofMax=   10.00 Det=-6.52D-15
 Inversion failed.  Reducing to 17 matrices.
 Large coefficients: NSaved= 17 BigCof=    0.00 CofMax=   10.00 Det=-7.73D-15
 Inversion failed.  Reducing to 16 matrices.
 Large coefficients: NSaved= 16 BigCof=    0.00 CofMax=   10.00 Det=-7.84D-15
 Inversion failed.  Reducing to 15 matrices.
 Coeff-Com:  0.105D-01 0.465D-02 0.901D-02-0.912D-01 0.118D+00 0.249D-01
 Coeff-Com: -0.227D+00 0.177D+00 0.176D-02-0.122D+00-0.113D+00 0.366D+00
 Coeff-Com: -0.211D+01 0.677D+00 0.227D+01
 Coeff:      0.105D-01 0.465D-02 0.901D-02-0.912D-01 0.118D+00 0.249D-01
 Coeff:     -0.227D+00 0.177D+00 0.176D-02-0.122D+00-0.113D+00 0.366D+00
 Coeff:     -0.211D+01 0.677D+00 0.227D+01
 Gap=     0.077 Goal=   None    Shift=    0.400
 RMSDP=2.29D-08 MaxDP=2.01D-06 DE=-2.06D-11 OVMax= 2.89D-06

 Cycle  44  Pass 1  IDiag  1:
 E= -118.747036515232     Delta-E=       -0.000000000013 Rises=F Damp=F
 DIIS: error= 1.61D-07 at cycle  44 NSaved=  16.
 NSaved=16 IEnMin=16 EnMin= -118.747036515232     IErMin=16 ErrMin= 1.61D-07
 ErrMax= 1.61D-07  0.00D+00 EMaxC= 1.00D-01 BMatC= 4.74D-12 BMatP= 7.64D-12
 IDIUse=1 WtCom= 1.00D+00 WtEn= 0.00D+00
 Large coefficients: NSaved= 16 BigCof=    0.00 CofMax=   10.00 Det=-6.97D-15
 Inversion failed.  Reducing to 15 matrices.
 Coeff-Com:  0.414D-02 0.189D-01-0.336D-01 0.847D-02 0.639D-02 0.680D-01
 Coeff-Com: -0.573D-01-0.221D-01-0.227D+00 0.347D-01 0.470D+00-0.121D+01
 Coeff-Com: -0.332D+00 0.580D+00 0.169D+01
 Coeff:      0.414D-02 0.189D-01-0.336D-01 0.847D-02 0.639D-02 0.680D-01
 Coeff:     -0.573D-01-0.221D-01-0.227D+00 0.347D-01 0.470D+00-0.121D+01
 Coeff:     -0.332D+00 0.580D+00 0.169D+01
 Gap=     0.077 Goal=   None    Shift=    0.400
 RMSDP=1.73D-08 MaxDP=1.63D-06 DE=-1.31D-11 OVMax= 2.25D-06

 Cycle  45  Pass 1  IDiag  1:
 E= -118.747036515240     Delta-E=       -0.000000000008 Rises=F Damp=F
 DIIS: error= 1.27D-07 at cycle  45 NSaved=  16.
 NSaved=16 IEnMin=16 EnMin= -118.747036515240     IErMin=16 ErrMin= 1.27D-07
 ErrMax= 1.27D-07  0.00D+00 EMaxC= 1.00D-01 BMatC= 2.94D-12 BMatP= 4.74D-12
 IDIUse=1 WtCom= 1.00D+00 WtEn= 0.00D+00
 Large coefficients: NSaved= 16 BigCof=    0.00 CofMax=   10.00 Det=-2.55D-15
 Inversion failed.  Reducing to 15 matrices.
 Coeff-Com:  0.260D-02 0.347D-01-0.642D-01-0.510D-01 0.255D+00-0.206D+00
 Coeff-Com:  0.941D-02-0.183D+00 0.245D+00 0.735D-01-0.993D-01-0.190D+00
 Coeff-Com: -0.315D+00-0.262D+01 0.411D+01
 Coeff:      0.260D-02 0.347D-01-0.642D-01-0.510D-01 0.255D+00-0.206D+00
 Coeff:      0.941D-02-0.183D+00 0.245D+00 0.735D-01-0.993D-01-0.190D+00
 Coeff:     -0.315D+00-0.262D+01 0.411D+01
 Gap=     0.077 Goal=   None    Shift=    0.400
 RMSDP=1.33D-08 MaxDP=1.26D-06 DE=-8.27D-12 OVMax= 1.74D-06

 Cycle  46  Pass 1  IDiag  1:
 E= -118.747036515245     Delta-E=       -0.000000000005 Rises=F Damp=F
 DIIS: error= 1.00D-07 at cycle  46 NSaved=  16.
 NSaved=16 IEnMin=16 EnMin= -118.747036515245     IErMin=16 ErrMin= 1.00D-07
 ErrMax= 1.00D-07  0.00D+00 EMaxC= 1.00D-01 BMatC= 1.81D-12 BMatP= 2.94D-12
 IDIUse=1 WtCom= 1.00D+00 WtEn= 0.00D+00
 Large coefficients: NSaved= 16 BigCof=    0.00 CofMax=   10.00 Det=-1.12D-15
 Inversion failed.  Reducing to 15 matrices.
 Coeff-Com:  0.211D-01-0.194D-01-0.584D-01 0.128D+00-0.704D-01 0.542D-01
 Coeff-Com: -0.163D+00 0.210D+00-0.122D+00-0.594D-01 0.535D-01-0.135D+00
 Coeff-Com: -0.179D+01 0.537D+00 0.242D+01
 Coeff:      0.211D-01-0.194D-01-0.584D-01 0.128D+00-0.704D-01 0.542D-01
 Coeff:     -0.163D+00 0.210D+00-0.122D+00-0.594D-01 0.535D-01-0.135D+00
 Coeff:     -0.179D+01 0.537D+00 0.242D+01
 Gap=     0.077 Goal=   None    Shift=    0.400
 RMSDP=1.03D-08 MaxDP=1.01D-06 DE=-5.00D-12 OVMax= 1.35D-06

 Cycle  47  Pass 1  IDiag  1:
 E= -118.747036515248     Delta-E=       -0.000000000003 Rises=F Damp=F
 DIIS: error= 7.96D-08 at cycle  47 NSaved=  16.
 NSaved=16 IEnMin=16 EnMin= -118.747036515248     IErMin=16 ErrMin= 7.96D-08
 ErrMax= 7.96D-08  0.00D+00 EMaxC= 1.00D-01 BMatC= 1.14D-12 BMatP= 1.81D-12
 IDIUse=1 WtCom= 1.00D+00 WtEn= 0.00D+00
 Large coefficients: NSaved= 16 BigCof=    0.00 CofMax=   10.00 Det=-3.23D-16
 Inversion failed.  Reducing to 15 matrices.
 Coeff-Com:  0.813D-02-0.263D-01 0.719D-01-0.493D-01 0.332D-02-0.745D-01
 Coeff-Com:  0.294D-01 0.662D-01 0.175D+00-0.717D+00-0.974D-01 0.886D+00
 Coeff-Com:  0.135D+00-0.344D+01 0.403D+01
 Coeff:      0.813D-02-0.263D-01 0.719D-01-0.493D-01 0.332D-02-0.745D-01
 Coeff:      0.294D-01 0.662D-01 0.175D+00-0.717D+00-0.974D-01 0.886D+00
 Coeff:      0.135D+00-0.344D+01 0.403D+01
 Gap=     0.077 Goal=   None    Shift=    0.400
 RMSDP=8.42D-09 MaxDP=8.11D-07 DE=-2.59D-12 OVMax= 1.07D-06

 SCF Done:  E(ROHF) =  -118.747036515     A.U. after   47 cycles
            NFock= 47  Conv=0.84D-08     -V/T= 2.6962
 <Sx>= 0.0000 <Sy>= 0.0000 <Sz>= 2.5000 <S**2>= 8.7500 S= 2.5000
 <L.S>=  0.00000000000    
 KE= 7.000695072829D+01 PE=-3.491002781219D+02 EE= 1.237109455069D+02
 Annihilation of the first spin contaminant:
 S**2 before annihilation     8.7500,   after     8.7500
 Leave Link  502 at Sat May  5 07:01:31 2018, MaxMem= 21474836480 cpu:             226.2 elap:              13.9
 (Enter /home1/apps/gaussian/16rA.03/g16/l801.exe)
 Windowed orbitals will be sorted by symmetry type.
 GenMOA:  NOpAll=  4 NOp2=4 NOpUse=  4 JSym2X=1
 FoFJK:  IHMeth= 1 ICntrl=       0 DoSepK=F KAlg= 0 I1Cent=           0 FoldK=F
 IRaf=         0 NMat=       1 IRICut=       1 DoRegI=T DoRafI=F ISym2E= 1 IDoP0=0 IntGTp=1.
 FoFCou: FMM=F IPFlag=           8 FMFlag=      100000 FMFlg1=           0
         NFxFlg=           0 DoJE=F BraDBF=F KetDBF=F FulRan=T
         wScrn=  0.000000 ICntrl=         0 IOpCl=  1 I1Cent=           0 NGrid=           0
         NMat0=    1 NMatS0=      1 NMatT0=    0 NMatD0=    1 NMtDS0=    0 NMtDT0=    0
 Petite list used in FoFCou.
 <Sx>= 0.0000 <Sy>= 0.0000 <Sz>= 2.5000 <S**2>= 8.7500 S= 2.5000
 Range of M.O.s used for correlation:     1   251
 NBasis=   254 NAE=    13 NBE=     8 NFC=     0 NFV=     0
 NROrb=    251 NOA=    13 NOB=     8 NVA=   238 NVB=   243

 **** Warning!!: The largest alpha MO coefficient is  0.33737076D+03


 **** Warning!!: The largest beta MO coefficient is  0.33676799D+03

 Singles contribution to E2=   -0.8278958881D-02
 Leave Link  801 at Sat May  5 07:01:32 2018, MaxMem= 21474836480 cpu:              32.3 elap:               1.1
 (Enter /home1/apps/gaussian/16rA.03/g16/l804.exe)
 Open-shell transformation, MDV= 21474836480 ITran=4 ISComp=2.
 Unit  1 TFree=       1945012 TCopy=       1474264.
 Semi-Direct transformation.
 ModeAB=           4 MOrb=            13 LenV=   21472866082
 LASXX=     25427274 LTotXX=    25427274 LenRXX=    51290886
 LTotAB=    25863612 MaxLAS=   151856757 LenRXY=           0
 NonZer=    76718160 LenScr=   115827712 LnRSAI=   151856757
 LnScr1=   228678656 LExtra=    10625530 Total=    558279541
 MaxDsk= 67108864000 SrtSym=           T ITran=            4
 DoSDTr:  NPSUse= 32
 JobTyp=1 Pass  1:  I=   1 to  13.
 (rs|ai) integrals will be sorted in core.
 Complete sort for first half transformation.
 First half transformation complete.
 Begin second half transformation for I=  10.
 Complete sort for second half transformation.
 Second half transformation complete.
 ModeAB=           4 MOrb=             8 LenV=   21472866082
 LASXX=     15945686 LTotXX=    15945686 LenRXX=    30505382
 LTotAB=    14559696 MaxLAS=    93450312 LenRXY=           0
 NonZer=    46451068 LenScr=    70456320 LnRSAI=    93450312
 LnScr1=   140954112 LExtra=    61916416 Total=    397282542
 MaxDsk= 67108864000 SrtSym=           T ITran=            4
 DoSDTr:  NPSUse= 32
 JobTyp=2 Pass  1:  I=   1 to   8.
 (rs|ai) integrals will be sorted in core.
 Complete sort for first half transformation.
 First half transformation complete.
 Complete sort for second half transformation.
 Second half transformation complete.
 Spin components of T(2) and E(2):
     alpha-alpha T2 =       0.4100615080D-01 E2=     -0.1958031435D+00
     alpha-beta  T2 =       0.1163852390D+00 E2=     -0.6308051798D+00
     beta-beta   T2 =       0.2369908046D-01 E2=     -0.1001149845D+00
 ANorm=    0.1089362870D+01
 E2 =    -0.9350022666D+00 EUMP2 =    -0.11968203878188D+03
 (S**2,0)=  0.87500D+01           (S**2,1)=  0.87500D+01
 E(PUHF)=      -0.11874703652D+03        E(PMP2)=      -0.11968203878D+03
 Leave Link  804 at Sat May  5 07:02:07 2018, MaxMem= 21474836480 cpu:            1121.4 elap:              35.2
 (Enter /home1/apps/gaussian/16rA.03/g16/l913.exe)
 CIDS:  MDV= 21474836480.
 IFCWin=0 IBDFC=1 NFBD=     0     0 NFCmp=     0     0 NFFFC=     0     0
 Using original routines for 1st iteration.
 Using DD4UQ or CC4UQ for 2nd and later iterations.
 Keep R2 and R3 ints in memory in symmetry-blocked form, NReq=658670518.
 FoFCou: FMM=F IPFlag=           8 FMFlag=           0 FMFlg1=           0
         NFxFlg=           0 DoJE=F BraDBF=F KetDBF=F FulRan=T
         wScrn=  0.000000 ICntrl=       600 IOpCl=  0 I1Cent=           0 NGrid=           0
         NMat0=    1 NMatS0=  32385 NMatT0=    0 NMatD0=    1 NMtDS0=    0 NMtDT0=    0
 Petite list used in FoFCou.
 CIDS: In Core Option IDoMem=           1.
 CCSD(T)
 =======
 Iterations= 150 Convergence= 0.100D-06
 Produce multiple copies of IABC intergrals
 Iteration Nr.   1
 **********************
 DD1Dir will call FoFMem   1 times, MxPair=       314
 NAB=   104 NAA=    78 NBB=    28.
 DD1Dir will call FoFMem   1 times, MxPair=       314
 NAB=   104 NAA=    78 NBB=    28.
 MP4(R+Q)= -0.47794926D-01
 Maximum subspace dimension=  5
 A-vector RMS=  4.1679982D-04 Max=  3.2452052D-03 conv= 1.00D-05.
 RLE energy=       -0.9188225414
 E3=        0.63549421D-01        EROMP3=      -0.11961848936D+03
 E4(SDQ)=  -0.44898358D-01        ROMP4(SDQ)=  -0.11966338772D+03
 VARIATIONAL ENERGIES WITH THE FIRST-ORDER WAVEFUNCTION:
 DE(Corr)= -0.91853282     E(Corr)=     -119.66556934    
 NORM(A)=   0.10838801D+01
 Iteration Nr.   2
 **********************
 DD1Dir will call FoFMem   1 times, MxPair=       314
 NAB=   104 NAA=    78 NBB=    28.
 A-vector RMS=  4.6703999D-03 Max=  5.4281782D-02 conv= 1.00D-05.
 RLE energy=       -0.9005535268
 DE(Corr)= -0.85373355     E(CORR)=     -119.60077007     Delta= 6.48D-02
 NORM(A)=   0.10800403D+01
 Iteration Nr.   3
 **********************
 DD1Dir will call FoFMem   1 times, MxPair=       314
 NAB=   104 NAA=    78 NBB=    28.
 A-vector RMS=  3.0719434D-03 Max=  3.3604508D-02 conv= 1.00D-05.
 RLE energy=       -0.9035086078
 DE(Corr)= -0.86856265     E(CORR)=     -119.61559916     Delta=-1.48D-02
 NORM(A)=   0.10845905D+01
 Iteration Nr.   4
 **********************
 DD1Dir will call FoFMem   1 times, MxPair=       314
 NAB=   104 NAA=    78 NBB=    28.
 A-vector RMS=  2.6410263D-03 Max=  3.0292423D-02 conv= 1.00D-05.
 RLE energy=       -0.8944134413
 DE(Corr)= -0.87680941     E(CORR)=     -119.62384593     Delta=-8.25D-03
 NORM(A)=   0.11131701D+01
 Iteration Nr.   5
 **********************
 DD1Dir will call FoFMem   1 times, MxPair=       314
 NAB=   104 NAA=    78 NBB=    28.
 A-vector RMS=  1.1416010D-03 Max=  1.2523775D-02 conv= 1.00D-05.
 RLE energy=       -0.8999825181
 DE(Corr)= -0.91043949     E(CORR)=     -119.65747600     Delta=-3.36D-02
 NORM(A)=   0.11196667D+01
 Iteration Nr.   6
 **********************
 DD1Dir will call FoFMem   1 times, MxPair=       314
 NAB=   104 NAA=    78 NBB=    28.
 A-vector RMS=  4.8169342D-04 Max=  4.7869332D-03 conv= 1.00D-05.
 RLE energy=       -0.9016761665
 DE(Corr)= -0.90730763     E(CORR)=     -119.65434414     Delta= 3.13D-03
 NORM(A)=   0.11145076D+01
 Iteration Nr.   7
 **********************
 DD1Dir will call FoFMem   1 times, MxPair=       314
 NAB=   104 NAA=    78 NBB=    28.
 A-vector RMS=  9.9136600D-05 Max=  1.4553697D-03 conv= 1.00D-05.
 RLE energy=       -0.9013799938
 DE(Corr)= -0.90134972     E(CORR)=     -119.64838624     Delta= 5.96D-03
 NORM(A)=   0.11151403D+01
 Iteration Nr.   8
 **********************
 DD1Dir will call FoFMem   1 times, MxPair=       314
 NAB=   104 NAA=    78 NBB=    28.
 A-vector RMS=  5.2968443D-05 Max=  7.5543124D-04 conv= 1.00D-05.
 RLE energy=       -0.9014890456
 DE(Corr)= -0.90160545     E(CORR)=     -119.64864196     Delta=-2.56D-04
 NORM(A)=   0.11155300D+01
 Iteration Nr.   9
 **********************
 DD1Dir will call FoFMem   1 times, MxPair=       314
 NAB=   104 NAA=    78 NBB=    28.
 A-vector RMS=  2.7973852D-05 Max=  3.5454709D-04 conv= 1.00D-05.
 RLE energy=       -0.9015675451
 DE(Corr)= -0.90148625     E(CORR)=     -119.64852276     Delta= 1.19D-04
 NORM(A)=   0.11158112D+01
 Iteration Nr.  10
 **********************
 DD1Dir will call FoFMem   1 times, MxPair=       314
 NAB=   104 NAA=    78 NBB=    28.
 A-vector RMS=  1.2970710D-05 Max=  1.4387039D-04 conv= 1.00D-05.
 RLE energy=       -0.9015542443
 DE(Corr)= -0.90153124     E(CORR)=     -119.64856776     Delta=-4.50D-05
 NORM(A)=   0.11158645D+01
 Iteration Nr.  11
 **********************
 DD1Dir will call FoFMem   1 times, MxPair=       314
 NAB=   104 NAA=    78 NBB=    28.
 A-vector RMS=  6.5762826D-06 Max=  6.2716859D-05 conv= 1.00D-05.
 RLE energy=       -0.9015491058
 DE(Corr)= -0.90154714     E(CORR)=     -119.64858365     Delta=-1.59D-05
 NORM(A)=   0.11158573D+01
 Iteration Nr.  12
 **********************
 DD1Dir will call FoFMem   1 times, MxPair=       314
 NAB=   104 NAA=    78 NBB=    28.
 A-vector RMS=  2.7374279D-06 Max=  3.2787585D-05 conv= 1.00D-05.
 RLE energy=       -0.9015483354
 DE(Corr)= -0.90154644     E(CORR)=     -119.64858295     Delta= 7.01D-07
 NORM(A)=   0.11158589D+01
 Iteration Nr.  13
 **********************
 DD1Dir will call FoFMem   1 times, MxPair=       314
 NAB=   104 NAA=    78 NBB=    28.
 A-vector RMS=  1.4572065D-06 Max=  1.8216570D-05 conv= 1.00D-05.
 RLE energy=       -0.9015428178
 DE(Corr)= -0.90154446     E(CORR)=     -119.64858098     Delta= 1.97D-06
 NORM(A)=   0.11158538D+01
 Iteration Nr.  14
 **********************
 DD1Dir will call FoFMem   1 times, MxPair=       314
 NAB=   104 NAA=    78 NBB=    28.
 A-vector RMS=  7.3937714D-07 Max=  1.2906915D-05 conv= 1.00D-05.
 RLE energy=       -0.9015428179
 DE(Corr)= -0.90154385     E(CORR)=     -119.64858037     Delta= 6.14D-07
 NORM(A)=   0.11158556D+01
 Iteration Nr.  15
 **********************
 DD1Dir will call FoFMem   1 times, MxPair=       314
 NAB=   104 NAA=    78 NBB=    28.
 A-vector RMS=  3.3983641D-07 Max=  6.8159760D-06 conv= 1.00D-05.
 RLE energy=       -0.9015439067
 DE(Corr)= -0.90154401     E(CORR)=     -119.64858052     Delta=-1.56D-07
 NORM(A)=   0.11158576D+01
 Iteration Nr.  16
 **********************
 DD1Dir will call FoFMem   1 times, MxPair=       314
 NAB=   104 NAA=    78 NBB=    28.
 A-vector RMS=  2.0684934D-07 Max=  3.7706663D-06 conv= 1.00D-05.
 RLE energy=       -0.9015438329
 DE(Corr)= -0.90154383     E(CORR)=     -119.64858035     Delta= 1.73D-07
 NORM(A)=   0.11158599D+01
 Iteration Nr.  17
 **********************
 DD1Dir will call FoFMem   1 times, MxPair=       314
 NAB=   104 NAA=    78 NBB=    28.
 A-vector RMS=  1.4428616D-07 Max=  2.4484272D-06 conv= 1.00D-05.
 RLE energy=       -0.9015447547
 DE(Corr)= -0.90154457     E(CORR)=     -119.64858108     Delta=-7.35D-07
 NORM(A)=   0.11158616D+01
 Iteration Nr.  18
 **********************
 DD1Dir will call FoFMem   1 times, MxPair=       314
 NAB=   104 NAA=    78 NBB=    28.
 A-vector RMS=  7.8617142D-08 Max=  1.0293372D-06 conv= 1.00D-05.
 RLE energy=       -0.9015446512
 DE(Corr)= -0.90154448     E(CORR)=     -119.64858100     Delta= 8.47D-08
 NORM(A)=   0.11158626D+01
 CI/CC converged in   18 iterations to DelEn= 8.47D-08 Conv= 1.00D-07 ErrA1= 7.86D-08 Conv= 1.00D-05
 Wavefunction amplitudes converged. E(Corr)=     -119.64858100    
 Largest amplitude= 7.27D-02
 Time for triples=    11372.53 seconds.
 T4(CCSD)= -0.47822762D-01
 T5(CCSD)=  0.81269423D-02
 CCSD(T)= -0.11968827682D+03
 Discarding MO integrals.
 Leave Link  913 at Sat May  5 07:10:18 2018, MaxMem= 21474836480 cpu:           15556.2 elap:             490.1
 (Enter /home1/apps/gaussian/16rA.03/g16/l601.exe)
 Copying SCF densities to generalized density rwf, IOpCl= 0 IROHF=1.

 **********************************************************************

            Population analysis using the SCF density.

 **********************************************************************

 Orbital symmetries:
       Occupied  (SG) (SG) (PI) (PI) (SG) (PI) (PI) (SG) (DLTA)
                 (DLTA) (SG) (PI) (PI)
       Virtual   (SG) (PI) (PI) (SG) (SG) (PI) (PI) (DLTA) (DLTA)
                 (PI) (PI) (SG) (SG) (SG) (PI) (PI) (SG) (PI) (PI)
                 (DLTA) (DLTA) (SG) (PI) (PI) (SG) (SG) (SG) (DLTA)
                 (DLTA) (PI) (PI) (PHI) (PHI) (SG) (PI) (PI) (SG)
                 (DLTA) (DLTA) (PI) (PI) (SG) (DLTA) (DLTA) (PI)
                 (PI) (SG) (PI) (PI) (SG) (SG) (DLTA) (DLTA) (PHI)
                 (PHI) (SG) (PI) (PI) (PHI) (PHI) (DLTA) (DLTA)
                 (SG) (PI) (PI) (DLTA) (DLTA) (PI) (PI) (SG) (?A)
                 (?A) (SG) (DLTA) (DLTA) (PHI) (PHI) (PI) (PI)
                 (SG) (PI) (PI) (PI) (PI) (SG) (DLTA) (DLTA) (SG)
                 (SG) (PI) (PI) (SG) (SG) (SG) (PHI) (PHI) (PHI)
                 (PHI) (DLTA) (DLTA) (DLTA) (DLTA) (PI) (PI) (DLTA)
                 (DLTA) (PI) (PI) (SG) (DLTA) (DLTA) (PI) (PI)
                 (PI) (PI) (SG) (PI) (PI) (SG) (?A) (?A) (PHI)
                 (PHI) (DLTA) (DLTA) (PI) (PI) (SG) (SG) (SG) (DLTA)
                 (DLTA) (PI) (PI) (SG) (PI) (PI) (SG) (SG) (PHI)
                 (PHI) (DLTA) (DLTA) (PI) (PI) (PI) (PI) (SG) (SG)
                 (?A) (?A) (PHI) (PHI) (DLTA) (DLTA) (PI) (PI)
                 (SG) (DLTA) (DLTA) (PI) (PI) (SG) (SG) (PI) (PI)
                 (SG) (SG) (DLTA) (DLTA) (PI) (PI) (SG) (PI) (PI)
                 (DLTA) (DLTA) (SG) (PI) (PI) (SG) (SG) (PI) (PI)
                 (SG) (SG) (DLTA) (DLTA) (PI) (PI) (SG) (SG) (PI)
                 (PI) (SG) (PI) (PI) (SG) (SG) (SG) (PI) (PI) (SG)
                 (SG) (PI) (PI) (SG) (SG) (DLTA) (DLTA) (PI) (PI)
                 (SG) (PI) (PI) (SG) (SG) (SG) (PI) (PI) (SG) (SG)
                 (SG) (PI) (PI) (SG) (SG) (PI) (PI) (SG) (SG) (SG)
                 (PI) (PI) (SG) (SG) (SG) (SG)
 The electronic state is 6-SG.
 Alpha  occ. eigenvalues --   -4.12374  -2.74093  -2.73906  -2.73906  -1.27511
 Alpha  occ. eigenvalues --   -0.73380  -0.73380  -0.61372  -0.61372  -0.60107
 Alpha  occ. eigenvalues --   -0.40669  -0.40669  -0.30142
 Alpha virt. eigenvalues --    0.01909   0.02422   0.02422   0.03170   0.06417
 Alpha virt. eigenvalues --    0.07600   0.07600   0.08765   0.08765   0.09365
 Alpha virt. eigenvalues --    0.09365   0.10264   0.12082   0.16448   0.24590
 Alpha virt. eigenvalues --    0.24590   0.26262   0.26605   0.26605   0.30129
 Alpha virt. eigenvalues --    0.30129   0.32840   0.34455   0.34455   0.38240
 Alpha virt. eigenvalues --    0.43715   0.63694   0.70277   0.70277   0.75075
 Alpha virt. eigenvalues --    0.75075   0.77800   0.77800   0.85893   0.87761
 Alpha virt. eigenvalues --    0.87761   0.92001   0.92384   0.92384   0.94045
 Alpha virt. eigenvalues --    0.94045   1.02988   1.05781   1.05781   1.11083
 Alpha virt. eigenvalues --    1.11083   1.15753   1.47138   1.47138   1.52086
[...]
 Mulliken charges and spin densities with hydrogens summed into heavy atoms:
               1          2
     1  Mn   0.802329   4.760055
     2  O   -0.802329   0.239945
 Electronic spatial extent (au):  <R**2>=             72.6418
 Charge=             -0.0000 electrons
 Dipole moment (field-independent basis, Debye):
    X=              0.0000    Y=              0.0000    Z=              2.7372  Tot=              2.7372
 Quadrupole moment (field-independent basis, Debye-Ang):
   XX=            -19.8436   YY=            -19.8436   ZZ=            -22.9102
   XY=              0.0000   XZ=              0.0000   YZ=              0.0000
 Traceless Quadrupole moment (field-independent basis, Debye-Ang):
   XX=              1.0222   YY=              1.0222   ZZ=             -2.0444
   XY=              0.0000   XZ=              0.0000   YZ=              0.0000
 Octapole moment (field-independent basis, Debye-Ang**2):
  XXX=              0.0000  YYY=              0.0000  ZZZ=              2.6044  XYY=              0.0000
  XXY=              0.0000  XXZ=              0.0471  XZZ=              0.0000  YZZ=              0.0000
  YYZ=              0.0471  XYZ=              0.0000
 Hexadecapole moment (field-independent basis, Debye-Ang**3):
 XXXX=            -28.4721 YYYY=            -28.4721 ZZZZ=            -75.7602 XXXY=              0.0000
 XXXZ=              0.0000 YYYX=              0.0000 YYYZ=              0.0000 ZZZX=              0.0000
 ZZZY=              0.0000 XXYY=             -9.4907 XXZZ=            -18.0023 YYZZ=            -18.0023
 XXYZ=              0.0000 YYXZ=              0.0000 ZZXY=              0.0000
 N-N= 3.663534537138D+01 E-N=-3.491002766936D+02  KE= 7.000695072829D+01
 Symmetry A1   KE= 2.810917024539D+01
 Symmetry A2   KE= 6.288281784951D+00
 Symmetry B1   KE= 1.780474935162D+01
 Symmetry B2   KE= 1.780474934798D+01
 Symmetry A1   SP= 2.000000000000D+00
 Symmetry A2   SP= 1.000000000000D+00
 Symmetry B1   SP= 1.000000000000D+00
 Symmetry B2   SP= 1.000000000000D+00
 Orbital energies and kinetic energies (alpha):
                                 1                 2
   1         O                -4.123740          2.047282
   2         O                -2.740931          3.218582
   3         O                -2.739063          3.452188
   4         O                -2.739063          3.452188
   5         O                -1.275109          1.573723
   6         O                -0.733803          2.458548
   7         O                -0.733803          2.458548
   8         O                -0.613719          3.662935
   9         O                -0.613719          6.288282
  10         O                -0.601066          6.288282
  11         O                -0.406690          0.815845
  12         O                -0.406690          5.983276
  13         O                -0.301420          5.983276
  14         V                 0.019091          0.083561
  15         V                 0.024224          0.078997
  16         V                 0.024224          0.078997
  17         V                 0.031704          0.038823
  18         V                 0.064170          0.286829
  19         V                 0.076004          0.168009
  20         V                 0.076004          0.168009
  21         V                 0.087645          0.108291
  22         V                 0.087645          0.108291
  23         V                 0.093651          0.346681
  24         V                 0.093651          0.346681
  25         V                 0.102641          0.462701
  26         V                 0.120821          0.272580
  27         V                 0.164477          0.690816
  28         V                 0.245901          0.418499
  29         V                 0.245901          0.418499
  30         V                 0.262619          0.604799
  31         V                 0.266045          0.748148
  32         V                 0.266045          0.748148
  33         V                 0.301289          0.632105
  34         V                 0.301289          0.632105
  35         V                 0.328400          1.290020
  36         V                 0.344553          0.551005
  37         V                 0.344553          0.551005
  38         V                 0.382402          0.898801
  39         V                 0.437148          0.668280
  40         V                 0.636936          2.461406
  41         V                 0.702770          0.856039
  42         V                 0.702770          0.856039
  43         V                 0.750747          1.164015
  44         V                 0.750747          1.164015
  45         V                 0.777996          0.948186
  46         V                 0.777996          0.948186
  47         V                 0.858931          1.347013
  48         V                 0.877610          1.842220
  49         V                 0.877610          1.842220
  50         V                 0.920006          1.175646
  51         V                 0.923841          1.537922
  52         V                 0.923841          1.537922
  53         V                 0.940448          1.232487
  54         V                 0.940448          1.232487
  55         V                 1.029878          1.556405
  56         V                 1.057813          2.184448
  57         V                 1.057813          2.184448
  58         V                 1.110826          2.045061
  59         V                 1.110826          2.045061
  60         V                 1.157529          3.426219
  61         V                 1.471382          2.680323
  62         V                 1.471382          2.680323
  63         V                 1.520861          2.205891
  64         V                 1.707805          2.387804
  65         V                 2.031127          2.750049
  66         V                 2.031127          2.750049
  67         V                 2.091921          2.261278
  68         V                 2.091921          2.261278
  69         V                 2.158363          3.084651
  70         V                 2.176660          3.023675
  71         V                 2.176660          3.023675
  72         V                 2.346491          3.306569
  73         V                 2.346491          3.306569
  74         V                 2.382534          2.791526
  75         V                 2.382534          2.791526
  76         V                 2.446787          3.073854
  77         V                 2.538521          3.142070
  78         V                 2.538521          3.142070
  79         V                 2.661484          3.533055
  80         V                 2.661484          3.533055
  81         V                 2.662174          4.324333
  82         V                 2.662174          4.324333
  83         V                 2.755060          4.029956
  84         V                 2.790285          3.254951
  85         V                 2.790285          3.254951
  86         V                 2.830042          4.924885
  87         V                 2.922350          6.565335
  88         V                 2.922350          6.565335
  89         V                 2.998760          3.435700
  90         V                 2.998760          3.435700
  91         V                 3.004625          5.434738
  92         V                 3.004625          5.434738
  93         V                 3.222316          4.691141
  94         V                 3.454955          5.362242
  95         V                 3.454955          5.362242
  96         V                 3.492488          5.596688
  97         V                 3.492488          5.596688
  98         V                 3.548496          4.855666
  99         V                 3.593612          4.232573
 100         V                 3.593612          4.232573
 101         V                 4.070302          7.283161
 102         V                 4.846163          6.718970
 103         V                 4.924545          7.497235
 104         V                 4.924545          7.497235
 105         V                 5.633827          7.114234
 106         V                 6.270988          8.815024
 107         V                 6.354648          8.493246
 108         V                 6.374849          9.716403
 109         V                 6.374849          9.716403
 110         V                 6.497494          7.705783
 111         V                 6.497494          7.705783
 112         V                 6.526591         10.106353
 113         V                 6.526591         10.106353
 114         V                 6.598933          7.827796
 115         V                 6.598933          7.827796
 116         V                 6.766183         11.261113
 117         V                 6.766183         11.261113
 118         V                 6.792626         13.003068
 119         V                 6.792626         13.003068
 120         V                 6.838590          8.930775
 121         V                 6.838590          8.930775
 122         V                 6.924555         11.887690
 123         V                 7.149856          9.729220
 124         V                 7.149856          9.729220
 125         V                 7.167556         11.156301
 126         V                 7.167556         11.156301
 127         V                 7.517928         10.139743
 128         V                 7.517928         10.139743
 129         V                 7.700654         10.345399
 130         V                 7.716653         11.074565
 131         V                 7.716653         11.074565
 132         V                 7.872476         10.942592
 133         V                 8.173151         10.189017
 134         V                 8.173151         10.189017
 135         V                 8.232158         10.253497
 136         V                 8.232158         10.253497
 137         V                 8.461136         10.497791
 138         V                 8.461136         10.497791
 139         V                 8.924144         10.933966
 140         V                 8.924144         10.933966
 141         V                 9.365326         12.819586
 142         V                10.042114         12.607132
 143         V                12.608233         14.718374
 144         V                13.596518         23.009987
 145         V                13.596518         23.009987
 146         V                13.810409         23.111673
 147         V                13.810409         23.111673
 148         V                13.928711         22.809911
 149         V                15.189323         23.161669
 150         V                15.189323         23.161669
 151         V                15.698176         19.049835
 152         V                16.854898         20.791491
 153         V                17.412670         27.618415
 154         V                17.412670         27.618415
 155         V                17.492929         27.690028
 156         V                17.492929         27.690028
 157         V                17.632271         24.075167
 158         V                17.632271         24.075168
 159         V                17.840854         25.116606
 160         V                17.840854         25.116605
 161         V                18.411754         27.850804
 162         V                19.039849         23.030346
 163         V                22.073057         29.430824
 164         V                22.073057         29.430824
 165         V                22.092302         29.460433
 166         V                22.092302         29.460433
 167         V                22.193747         29.562161
 168         V                22.193747         29.562161
 169         V                22.307347         29.670186
 170         V                22.307347         29.670186
 171         V                22.604016         29.977473
 172         V                25.156256         38.418684
 173         V                25.156256         38.418684
 174         V                25.391229         38.598339
 175         V                25.391229         38.598339
 176         V                25.543074         36.115789
 177         V                26.186331         29.533956
 178         V                36.387649         39.434607
 179         V                36.387649         39.434607
 180         V                37.123216         38.799251
 181         V                38.768898         34.021631
 182         V                43.708988         58.209959
 183         V                43.708988         58.209959
 184         V                43.831564         58.347714
 185         V                43.831564         58.347714
 186         V                44.280324         58.836601
 187         V                45.691181         60.724468
 188         V                45.691181         60.724468
 189         V                45.913393         68.106553
 190         V                45.913393         68.106553
 191         V                46.177887         66.296776
 192         V                46.236882         66.763564
 193         V                46.236882         66.763564
 194         V                47.191455         61.713284
 195         V                52.747061         46.352297
 196         V                69.148711         68.786106
 197         V                69.148711         68.786106
 198         V                70.213379         69.661322
 199         V                74.818334         61.721229
 200         V               101.961097        150.370366
 201         V               101.961097        150.370366
 202         V               102.135329        150.514251
 203         V               102.135329        150.514251
 204         V               102.285018        150.264723
 205         V               105.014928         69.692876
 206         V               119.130629        139.178961
 207         V               119.130629        139.178961
 208         V               120.104147        139.910053
 209         V               128.896858        121.054966
 210         V               128.896858        121.054966
 211         V               129.982007        122.223729
 212         V               137.030539        118.828341
 213         V               187.580341        120.846161
 214         V               242.744824        226.133981
 215         V               242.744824        226.133981
 216         V               243.758964        227.206164
 217         V               257.747935        232.004826
 218         V               286.402613        314.662995
 219         V               286.402613        314.662995
 220         V               287.318598        315.522873
 221         V               336.113666        254.426457
 222         V               354.491876        452.573209
 223         V               354.491876        452.573209
 224         V               354.607630        452.682943
 225         V               354.607630        452.682943
 226         V               354.717017        452.767116
 227         V               471.887908        446.659710
 228         V               471.887908        446.659710
 229         V               472.869091        447.678338
 230         V               555.229941        520.484230
 231         V               638.681994        540.976635
 232         V               964.874910        932.761660
 233         V               964.874910        932.761660
 234         V               965.777220        933.678968
 235         V              1284.937929       1173.241599
 236         V              1529.744028       1488.741242
 237         V              2120.527512       2084.245013
 238         V              2120.527512       2084.245013
 239         V              2121.334445       2085.057319
 240         V              2744.930773       2623.800662
 241         V              5154.597845       5116.346324
 242         V              5154.597845       5116.346324
 243         V              5155.295141       5117.045384
 244         V              5659.886563       5616.199471
 245         V              6247.362641       6120.924091
 246         V             14770.719740      14731.709668
 247         V             14770.719740      14731.709668
 248         V             14771.289566      14732.279989
 249         V             15305.818630      15176.735739
 250         V             31586.440142      31541.930331
 251         V             42071.351319      41941.053766
 Total kinetic energy from orbitals= 9.536591189158D+01
                          Isotropic Fermi Contact Couplings
        Atom                 a.u.       MegaHertz       Gauss      10(-4) cm-1
     1  Mn(55)             0.00009       0.02004       0.00715       0.00669
     2  O(17)              0.00007      -0.00825      -0.00294      -0.00275
 --------------------------------------------------------
       Center         ----  Spin Dipole Couplings  ----
                      3XX-RR        3YY-RR        3ZZ-RR
 --------------------------------------------------------
     1   Atom        1.032624      1.032625     -2.065249
     2   Atom       -0.051407     -0.051407      0.102815
 --------------------------------------------------------
                        XY            XZ            YZ
 --------------------------------------------------------
     1   Atom        0.000000      0.000000      0.000000
     2   Atom        0.000000      0.000000      0.000000
 --------------------------------------------------------


 ---------------------------------------------------------------------------------
              Anisotropic Spin Dipole Couplings in Principal Axis System
 ---------------------------------------------------------------------------------

       Atom             a.u.   MegaHertz   Gauss  10(-4) cm-1        Axes

              Baa    -2.0652  -272.492   -97.232   -90.894  0.0000  0.0000  1.0000
     1 Mn(55) Bbb     1.0326   136.246    48.616    45.447  1.0000  0.0000  0.0000
              Bcc     1.0326   136.246    48.616    45.447 -0.0000  1.0000  0.0000
 
              Baa    -0.0514     3.720     1.327     1.241  1.0000  0.0000  0.0000
     2 O(17)  Bbb    -0.0514     3.720     1.327     1.241 -0.0000  1.0000  0.0000
              Bcc     0.1028    -7.440    -2.655    -2.482  0.0000  0.0000  1.0000
 

 ---------------------------------------------------------------------------------

 No NMR shielding tensors so no spin-rotation constants.
 Leave Link  601 at Sat May  5 07:10:20 2018, MaxMem= 21474836480 cpu:              22.8 elap:               0.8
 (Enter /home1/apps/gaussian/16rA.03/g16/l9999.exe)

 Test job not archived.
 1\1\GINC-C497-093\SP\ROCCSD(T)-Full\Gen\Mn1O1(6)\AANNABE\05-May-2018\0
 \\#P ROCCSD(T)=(maxcyc=150, Full, SaveAmplitudes, ReadAmplitudes)/Gen 
 5d 7f SCF=(maxcycles=300, VShift=400) Integral(NoXCTest) MaxDisk=500GB
  Pop=Full Pseudo=Read Guess=Read IOp(5/15=2)\\MnO\\0,6\Mn,0,0.,0.,0.\O
 ,0,0.,0.,1.3\\Version=ES64L-G16RevA.03\State=6-SG\HF=-118.7470365\MP2=
 -119.6820388\MP3=-119.6184894\PUHF=-118.7470365\PMP2-0=-119.6820388\MP
 4SDQ=-119.6633877\CCSD=-119.648581\CCSD(T)=-119.6882768\RMSD=8.420e-09
 \PG=C*V [C*(O1Mn1)]\\@


 "WOULD YOU TELL ME PLEASE, WHICH WAY I OUGHT TO WALK FROM HERE?"
 "THAT DEPENDS A GREAT DEAL ON WHERE YOU WANT TO GO," SAID THE CAT.
 "I DON'T MUCH CARE WHERE -- ", SAID ALICE.
 "THEN IT DOESN'T MATTER WHICH WAY YOU WALK," SAID THE CAT.

                                      -- LEWIS CARROLL
 Job cpu time:       0 days  4 hours 43 minutes  5.0 seconds.
 Elapsed time:       0 days  0 hours  9 minutes  2.1 seconds.
 File lengths (MBytes):  RWF=   4264 Int=      0 D2E=      0 Chk=     26 Scr=      1
 Normal termination of Gaussian 16 at Sat May  5 07:10:21 2018.
