 Entering Gaussian System, Link 0=g16
 Initial command:
 /home1/apps/gaussian/16rA.03/g16/l1.exe "/tmp/Gau-181593.inp" -scrdir="/tmp/"
 Entering Link 1 = /home1/apps/gaussian/16rA.03/g16/l1.exe PID=    181594.
  
 Copyright (c) 1988,1990,1992,1993,1995,1998,2003,2009,2016,
            Gaussian, Inc.  All Rights Reserved.
  
 This is part of the Gaussian(R) 16 program.  It is based on
 the Gaussian(R) 09 system (copyright 2009, Gaussian, Inc.),
 the Gaussian(R) 03 system (copyright 2003, Gaussian, Inc.),
 the Gaussian(R) 98 system (copyright 1998, Gaussian, Inc.),
 the Gaussian(R) 94 system (copyright 1995, Gaussian, Inc.),
 the Gaussian 92(TM) system (copyright 1992, Gaussian, Inc.),
 the Gaussian 90(TM) system (copyright 1990, Gaussian, Inc.),
 the Gaussian 88(TM) system (copyright 1988, Gaussian, Inc.),
 the Gaussian 86(TM) system (copyright 1986, Carnegie Mellon
 University), and the Gaussian 82(TM) system (copyright 1983,
 Carnegie Mellon University). Gaussian is a federally registered
 trademark of Gaussian, Inc.
  
 This software contains proprietary and confidential information,
 including trade secrets, belonging to Gaussian, Inc.
  
 This software is provided under written license and may be
 used, copied, transmitted, or stored only in accord with that
 written license.
  
 The following legend is applicable only to US Government
 contracts under FAR:
  
                    RESTRICTED RIGHTS LEGEND
  
 Use, reproduction and disclosure by the US Government is
 subject to restrictions as set forth in subparagraphs (a)
 and (c) of the Commercial Computer Software - Restricted
 Rights clause in FAR 52.227-19.
  
 Gaussian, Inc.
 340 Quinnipiac St., Bldg. 40, Wallingford CT 06492
  
  
 ---------------------------------------------------------------
 Warning -- This program may not be used in any manner that
 competes with the business of Gaussian, Inc. or will provide
 assistance to any competitor of Gaussian, Inc.  The licensee
 of this program is prohibited from giving any competitor of
 Gaussian, Inc. access to this program.  By using this program,
 the user acknowledges that Gaussian, Inc. is engaged in the
 business of creating and licensing software in the field of
 computational chemistry and represents and warrants to the
 licensee that it is not a competitor of Gaussian, Inc. and that
 it will not use this program in any manner prohibited above.
 ---------------------------------------------------------------
  

 Cite this work as:
 Gaussian 16, Revision A.03,
 M. J. Frisch, G. W. Trucks, H. B. Schlegel, G. E. Scuseria, 
 M. A. Robb, J. R. Cheeseman, G. Scalmani, V. Barone, 
 G. A. Petersson, H. Nakatsuji, X. Li, M. Caricato, A. V. Marenich, 
 J. Bloino, B. G. Janesko, R. Gomperts, B. Mennucci, H. P. Hratchian, 
 J. V. Ortiz, A. F. Izmaylov, J. L. Sonnenberg, D. Williams-Young, 
 F. Ding, F. Lipparini, F. Egidi, J. Goings, B. Peng, A. Petrone, 
 T. Henderson, D. Ranasinghe, V. G. Zakrzewski, J. Gao, N. Rega, 
 G. Zheng, W. Liang, M. Hada, M. Ehara, K. Toyota, R. Fukuda, 
 J. Hasegawa, M. Ishida, T. Nakajima, Y. Honda, O. Kitao, H. Nakai, 
 T. Vreven, K. Throssell, J. A. Montgomery, Jr., J. E. Peralta, 
 F. Ogliaro, M. J. Bearpark, J. J. Heyd, E. N. Brothers, K. N. Kudin, 
 V. N. Staroverov, T. A. Keith, R. Kobayashi, J. Normand, 
 K. Raghavachari, A. P. Rendell, J. C. Burant, S. S. Iyengar, 
 J. Tomasi, M. Cossi, J. M. Millam, M. Klene, C. Adamo, R. Cammi, 
 J. W. Ochterski, R. L. Martin, K. Morokuma, O. Farkas, 
 J. B. Foresman, and D. J. Fox, Gaussian, Inc., Wallingford CT, 2016.
 
 ******************************************
 Gaussian 16:  ES64L-G16RevA.03 25-Dec-2016
                 4-Apr-2018 
 ******************************************
 %MEM=80GB
 %CPU=0-19
 SetSPE:  set environment variable "MP_BIND" = "yes"
 SetSPE:  set environment variable "MP_BLIST" = "0,1,2,3,4,5,6,7,8,9,10,11,12,13,14,15,16,17,18,19"
 Will use up to   20 processors via shared memory.
 %RWF=/scratch/04843/aannabe/gaussian/
 %Int=/scratch/04843/aannabe/gaussian/
 %D2E=/scratch/04843/aannabe/gaussian/
 %NoSave
 %CHK=CrO
 ----------------------------------------------------------------------
 #P ROCCSD(T)=(maxcyc=150, Full, SaveAmplitudes, ReadAmplitudes)/Gen 5d
  7f SCF=(maxcycles=300, VShift=400) Integral(NoXCTest) MaxDisk=500GB P
 op=Full Pseudo=Read Guess=Read IOp(5/15=2)
 ----------------------------------------------------------------------
 1/38=1,172=1/1;
 2/12=2,17=6,18=5,40=1/2;
 3/5=7,8=11,11=2,16=1,17=8,25=1,30=1,47=8,116=101/1,2,3;
 4/5=1/1;
 5/5=2,7=300,10=400,15=2,38=6/2;
 8/5=-1,6=4,9=120000,10=90,24=1/1,4;
 9/5=7,6=150,14=2,77=1/13;
 6/7=3/1;
 99/5=1,9=1/99;
 Leave Link    1 at Wed Apr  4 07:32:06 2018, MaxMem= 10737418240 cpu:               6.4 elap:               0.3
 (Enter /home1/apps/gaussian/16rA.03/g16/l101.exe)
 ---
 CrO
 ---
 Symbolic Z-matrix:
 Charge =  0 Multiplicity = 5
 Cr                    0.        0.        0. 
 O                     0.        0.        1.3 
 
 ITRead=  0  0
 MicOpt= -1 -1
 NAtoms=      2 NQM=        2 NQMF=       0 NMMI=      0 NMMIF=      0
                NMic=       0 NMicF=      0.
                    Isotopes and Nuclear Properties:
 (Nuclear quadrupole moments (NQMom) in fm**2, nuclear magnetic moments (NMagM)
  in nuclear magnetons)

  Atom         1           2
 IAtWgt=          52          16
 AtmWgt=  51.9405097  15.9949146
 NucSpn=           0           0
 AtZEff=  -0.0000000  -0.0000000
 NQMom=    0.0000000   0.0000000
 NMagM=    0.0000000   0.0000000
 AtZNuc=  24.0000000   8.0000000
 Leave Link  101 at Wed Apr  4 07:32:07 2018, MaxMem= 10737418240 cpu:               2.2 elap:               0.1
 (Enter /home1/apps/gaussian/16rA.03/g16/l202.exe)
                          Input orientation:                          
 ---------------------------------------------------------------------
 Center     Atomic      Atomic             Coordinates (Angstroms)
 Number     Number       Type             X           Y           Z
 ---------------------------------------------------------------------
      1         24           0        0.000000    0.000000    0.000000
      2          8           0        0.000000    0.000000    1.300000
 ---------------------------------------------------------------------
 Stoichiometry    CrO(5)
 Framework group  C*V[C*(OCr)]
 Deg. of freedom     1
 Full point group                 C*V     NOp   4
 Largest Abelian subgroup         C2V     NOp   4
 Largest concise Abelian subgroup C1      NOp   1
                         Standard orientation:                         
 ---------------------------------------------------------------------
 Center     Atomic      Atomic             Coordinates (Angstroms)
 Number     Number       Type             X           Y           Z
 ---------------------------------------------------------------------
      1         24           0        0.000000    0.000000    0.325000
      2          8           0        0.000000    0.000000   -0.975000
 ---------------------------------------------------------------------
 Rotational constants (GHZ):           0.0000000          24.4533663          24.4533663
 Leave Link  202 at Wed Apr  4 07:32:07 2018, MaxMem= 10737418240 cpu:               0.5 elap:               0.1
 (Enter /home1/apps/gaussian/16rA.03/g16/l301.exe)
 General basis read from cards:  (5D, 7F)
 Centers:       1
 S 1 1.00
     Exponent=  5.9620050000D+04 Coefficients=  1.0000000000D+00
 S 1 1.00
     Exponent=  1.9450760000D+04 Coefficients=  1.0000000000D+00
 S 1 1.00
     Exponent=  7.0220560000D+03 Coefficients=  1.0000000000D+00
 S 1 1.00
     Exponent=  2.7387630000D+03 Coefficients=  1.0000000000D+00
 S 1 1.00
     Exponent=  1.1358140000D+03 Coefficients=  1.0000000000D+00
 S 1 1.00
     Exponent=  4.9509230000D+02 Coefficients=  1.0000000000D+00
 S 1 1.00
     Exponent=  2.2474870000D+02 Coefficients=  1.0000000000D+00
 S 1 1.00
     Exponent=  1.0538360000D+02 Coefficients=  1.0000000000D+00
 S 1 1.00
     Exponent=  5.0193590000D+01 Coefficients=  1.0000000000D+00
 S 1 1.00
     Exponent=  2.2249570000D+01 Coefficients=  1.0000000000D+00
 S 1 1.00
     Exponent=  1.0982650000D+01 Coefficients=  1.0000000000D+00
 S 1 1.00
     Exponent=  5.3836650000D+00 Coefficients=  1.0000000000D+00
 S 1 1.00
     Exponent=  2.3436850000D+00 Coefficients=  1.0000000000D+00
 S 1 1.00
     Exponent=  1.1052020000D+00 Coefficients=  1.0000000000D+00
 S 1 1.00
     Exponent=  4.8784800000D-01 Coefficients=  1.0000000000D+00
 S 1 1.00
     Exponent=  8.9599000000D-02 Coefficients=  1.0000000000D+00
 S 1 1.00
     Exponent=  3.3423000000D-02 Coefficients=  1.0000000000D+00
 S 1 1.00
     Exponent=  4.8281000000D+00 Coefficients=  1.0000000000D+00
 S 1 1.00
     Exponent=  1.1499000000D+00 Coefficients=  1.0000000000D+00
 S 1 1.00
     Exponent=  1.2470000000D-02 Coefficients=  1.0000000000D+00
 P 1 1.00
     Exponent=  3.4216760000D+03 Coefficients=  1.0000000000D+00
 P 1 1.00
     Exponent=  1.1113870000D+03 Coefficients=  1.0000000000D+00
 P 1 1.00
     Exponent=  4.2519180000D+02 Coefficients=  1.0000000000D+00
 P 1 1.00
     Exponent=  1.8026230000D+02 Coefficients=  1.0000000000D+00
 P 1 1.00
     Exponent=  8.2061170000D+01 Coefficients=  1.0000000000D+00
 P 1 1.00
     Exponent=  3.9297260000D+01 Coefficients=  1.0000000000D+00
 P 1 1.00
     Exponent=  1.9419590000D+01 Coefficients=  1.0000000000D+00
 P 1 1.00
     Exponent=  9.8288990000D+00 Coefficients=  1.0000000000D+00
 P 1 1.00
     Exponent=  5.0168100000D+00 Coefficients=  1.0000000000D+00
 P 1 1.00
     Exponent=  2.4870910000D+00 Coefficients=  1.0000000000D+00
 P 1 1.00
     Exponent=  1.1987800000D+00 Coefficients=  1.0000000000D+00
 P 1 1.00
     Exponent=  5.5869500000D-01 Coefficients=  1.0000000000D+00
 P 1 1.00
     Exponent=  2.0936600000D-01 Coefficients=  1.0000000000D+00
 P 1 1.00
     Exponent=  8.4722000000D-02 Coefficients=  1.0000000000D+00
 P 1 1.00
     Exponent=  3.3278000000D-02 Coefficients=  1.0000000000D+00
 P 1 1.00
     Exponent=  5.2718000000D+00 Coefficients=  1.0000000000D+00
 P 1 1.00
     Exponent=  1.2083000000D+00 Coefficients=  1.0000000000D+00
 P 1 1.00
     Exponent=  1.3070000000D-02 Coefficients=  1.0000000000D+00
 D 1 1.00
     Exponent=  8.9474500000D+01 Coefficients=  1.0000000000D+00
 D 1 1.00
     Exponent=  2.6336800000D+01 Coefficients=  1.0000000000D+00
 D 1 1.00
     Exponent=  9.5342900000D+00 Coefficients=  1.0000000000D+00
 D 1 1.00
     Exponent=  3.8211800000D+00 Coefficients=  1.0000000000D+00
 D 1 1.00
     Exponent=  1.5716900000D+00 Coefficients=  1.0000000000D+00
 D 1 1.00
     Exponent=  6.2642200000D-01 Coefficients=  1.0000000000D+00
 D 1 1.00
     Exponent=  2.3305500000D-01 Coefficients=  1.0000000000D+00
 D 1 1.00
     Exponent=  7.6303000000D-02 Coefficients=  1.0000000000D+00
 D 1 1.00
     Exponent=  3.4093000000D+00 Coefficients=  1.0000000000D+00
 D 1 1.00
     Exponent=  1.5874000000D+00 Coefficients=  1.0000000000D+00
 D 1 1.00
     Exponent=  2.4980000000D-02 Coefficients=  1.0000000000D+00
 F 1 1.00
     Exponent=  4.3629000000D+00 Coefficients=  1.0000000000D+00
 F 1 1.00
     Exponent=  1.5864000000D+00 Coefficients=  1.0000000000D+00
 F 1 1.00
     Exponent=  5.2310000000D-01 Coefficients=  1.0000000000D+00
 F 1 1.00
     Exponent=  1.7249000000D-01 Coefficients=  1.0000000000D+00
 G 1 1.00
     Exponent=  4.0406000000D+00 Coefficients=  1.0000000000D+00
 G 1 1.00
     Exponent=  1.4199000000D+00 Coefficients=  1.0000000000D+00
 G 1 1.00
     Exponent=  4.9896000000D-01 Coefficients=  1.0000000000D+00
 ****
 Centers:       2
 S 1 1.00
     Exponent=  1.5330000000D+04 Coefficients=  1.0000000000D+00
 S 1 1.00
     Exponent=  2.2990000000D+03 Coefficients=  1.0000000000D+00
 S 1 1.00
     Exponent=  5.2240000000D+02 Coefficients=  1.0000000000D+00
 S 1 1.00
     Exponent=  1.4730000000D+02 Coefficients=  1.0000000000D+00
 S 1 1.00
     Exponent=  4.7550000000D+01 Coefficients=  1.0000000000D+00
 S 1 1.00
     Exponent=  1.6760000000D+01 Coefficients=  1.0000000000D+00
 S 1 1.00
     Exponent=  6.2070000000D+00 Coefficients=  1.0000000000D+00
 S 1 1.00
     Exponent=  6.8820000000D-01 Coefficients=  1.0000000000D+00
 S 1 1.00
     Exponent=  1.7520000000D+00 Coefficients=  1.0000000000D+00
 S 1 1.00
     Exponent=  2.3840000000D-01 Coefficients=  1.0000000000D+00
 S 1 1.00
     Exponent=  7.8450000000D+00 Coefficients=  1.0000000000D+00
 S 1 1.00
     Exponent=  2.1032000000D+01 Coefficients=  1.0000000000D+00
 S 1 1.00
     Exponent=  7.3760000000D-02 Coefficients=  1.0000000000D+00
 P 1 1.00
     Exponent=  3.4460000000D+01 Coefficients=  1.0000000000D+00
 P 1 1.00
     Exponent=  7.7490000000D+00 Coefficients=  1.0000000000D+00
 P 1 1.00
     Exponent=  2.2800000000D+00 Coefficients=  1.0000000000D+00
 P 1 1.00
     Exponent=  7.1560000000D-01 Coefficients=  1.0000000000D+00
 P 1 1.00
     Exponent=  2.1400000000D-01 Coefficients=  1.0000000000D+00
 P 1 1.00
     Exponent=  1.5159000000D+01 Coefficients=  1.0000000000D+00
 P 1 1.00
     Exponent=  5.7437000000D+01 Coefficients=  1.0000000000D+00
 P 1 1.00
     Exponent=  5.9740000000D-02 Coefficients=  1.0000000000D+00
 D 1 1.00
     Exponent=  2.3140000000D+00 Coefficients=  1.0000000000D+00
 D 1 1.00
     Exponent=  6.4500000000D-01 Coefficients=  1.0000000000D+00
 D 1 1.00
     Exponent=  1.5858000000D+01 Coefficients=  1.0000000000D+00
 D 1 1.00
     Exponent=  2.1400000000D-01 Coefficients=  1.0000000000D+00
 F 1 1.00
     Exponent=  1.4280000000D+00 Coefficients=  1.0000000000D+00
 F 1 1.00
     Exponent=  5.0000000000D-01 Coefficients=  1.0000000000D+00
 ****
 ======================================================================================================
                                       Pseudopotential Parameters
 ======================================================================================================
  Center     Atomic      Valence      Angular      Power
  Number     Number     Electrons     Momentum     of R      Exponent        Coefficient   SO-Coeffient
 ======================================================================================================
    1         24           14
                                      D and up 
                                                     1       17.3466202       14.00000000    0.00000000
                                                     3       17.4923521      242.85268255    0.00000000
                                                     2       16.9086830     -132.23050415    0.00000000
                                                     2        5.0352322       -0.99510682    0.00000000
                                      S - D
                                                     2       16.6528564      219.47997352    0.00000000
                                                     2        7.7027390       28.24090000    0.00000000
                                      P - D
                                                     2       16.3526134      140.07364292    0.00000000
                                                     2        7.4668661       19.62857623    0.00000000
    2          8            6
                                      P and up 
                                                     1       12.3099700        6.00000000    0.00000000
                                                     3       14.7696200       73.85984000    0.00000000
                                                     2       13.7141900      -47.87600000    0.00000000
                                      S - P
                                                     2       13.6551200       85.86406000    0.00000000
 ======================================================================================================
 Ernie: Thresh=  0.10000D-02 Tol=  0.10000D-05 Strict=F.
 There are   140 symmetry adapted cartesian basis functions of A1  symmetry.
 There are    30 symmetry adapted cartesian basis functions of A2  symmetry.
 There are    68 symmetry adapted cartesian basis functions of B1  symmetry.
 There are    68 symmetry adapted cartesian basis functions of B2  symmetry.
 There are   110 symmetry adapted basis functions of A1  symmetry.
 There are    27 symmetry adapted basis functions of A2  symmetry.
 There are    59 symmetry adapted basis functions of B1  symmetry.
 There are    59 symmetry adapted basis functions of B2  symmetry.
   255 basis functions,   306 primitive gaussians,   306 cartesian basis functions
    12 alpha electrons        8 beta electrons
       nuclear repulsion energy        34.1929890133 Hartrees.
 IExCor=    0 DFT=F Ex=HF Corr=None ExCW=0 ScaHFX=  1.000000
 ScaDFX=  1.000000  1.000000  1.000000  1.000000 ScalE2=  1.000000  1.000000
 IRadAn=      5 IRanWt=     -1 IRanGd=            0 ICorTp=0 IEmpDi=  4
 NAtoms=    2 NActive=    2 NUniq=    2 SFac= 1.00D+00 NAtFMM=   60 NAOKFM=F Big=F
 Integral buffers will be    131072 words long.
 Raffenetti 2 integral format.
 Two-electron integral symmetry is turned on.
 Leave Link  301 at Wed Apr  4 07:32:08 2018, MaxMem= 10737418240 cpu:               5.0 elap:               0.3
 (Enter /home1/apps/gaussian/16rA.03/g16/l302.exe)
 NPDir=0 NMtPBC=     1 NCelOv=     1 NCel=       1 NClECP=     1 NCelD=      1
         NCelK=      1 NCelE2=     1 NClLst=     1 CellRange=     0.0.
 One-electron integrals computed using PRISM.
 One-electron integral symmetry used in STVInt
   4 Symmetry operations used in ECPInt.
 ECPInt:  NShTT=    3486 NPrTT=    3486 LenC2=    3293 LenP2D=    3292.
 LDataN:  DoStor=T MaxTD1= 8 Len=  415
 NBasis=   255 RedAO= T EigKep=  1.73D-06  NBF=   110    27    59    59
 NBsUse=   246 1.00D-06 EigRej=  4.89D-07 NBFU=   106    26    57    57
 Leave Link  302 at Wed Apr  4 07:32:09 2018, MaxMem= 10737418240 cpu:              19.0 elap:               1.0
 (Enter /home1/apps/gaussian/16rA.03/g16/l303.exe)
 DipDrv:  MaxL=1.
 Leave Link  303 at Wed Apr  4 07:32:10 2018, MaxMem= 10737418240 cpu:               1.5 elap:               0.2
 (Enter /home1/apps/gaussian/16rA.03/g16/l401.exe)
 Initial guess from the checkpoint file:  "CrO.chk"
 B after Tr=     0.000000    0.000000    0.000000
         Rot=    1.000000    0.000000    0.000000    0.000000 Ang=   0.00 deg.
 Guess basis will be translated and rotated to current coordinates.
 JPrj=2 DoOrth=T DoCkMO=T.
 Initial guess orbital symmetries:
       Occupied  (SG) (SG) (PI) (PI) (SG) (SG) (?A) (?A) (?B) (?B)
                 (?B) (?A)
       Virtual   (?B) (?A) (?A) (SG) (?B) (?A) (?A) (?B) (?B) (?A)
                 (?B) (?A) (SG) (?A) (?B) (?A) (?A) (?B) (?B) (?B)
                 (?A) (?A) (?B) (?A) (?A) (SG) (SG) (DLTA) (DLTA)
                 (PHI) (PHI) (?A) (SG) (?A) (?A) (?A) (?C) (?C)
                 (?C) (?C) (?A) (?A) (?C) (?C) (?A) (?A) (SG) (SG)
                 (?A) (?A) (SG) (DLTA) (DLTA) (?D) (?D) (?D) (?D)
                 (SG) (PHI) (PHI) (SG) (?E) (?E) (?F) (?F) (?E)
                 (?G) (?G) (?F) (?F) (DLTA) (DLTA) (PHI) (PHI)
                 (?H) (?A) (?A) (?H) (?H) (?H) (?A) (?A) (DLTA)
                 (DLTA) (SG) (SG) (?A) (?A) (?A) (?A) (SG) (PHI)
                 (PHI) (DLTA) (DLTA) (SG) (?A) (?A) (SG) (SG) (PI)
                 (PI) (?A) (?A) (?I) (?A) (?I) (?I) (?A) (?G) (?G)
                 (PHI) (PHI) (?J) (?J) (?J) (DLTA) (DLTA) (PI)
                 (PI) (?A) (?A) (?J) (?J) (?J) (?A) (?A) (SG) (SG)
                 (?D) (?D) (DLTA) (DLTA) (?D) (?D) (SG) (?A) (?A)
                 (SG) (PI) (PI) (SG) (SG) (?K) (?K) (PI) (PI) (?K)
                 (SG) (?D) (?D) (?L) (?L) (?L) (?L) (?D) (?D) (SG)
                 (PI) (PI) (SG) (DLTA) (DLTA) (PI) (PI) (SG) (SG)
                 (SG) (DLTA) (DLTA) (PI) (PI) (SG) (PI) (PI) (SG)
                 (PI) (PI) (SG) (SG) (SG) (DLTA) (DLTA) (PI) (PI)
                 (SG) (PI) (PI) (PI) (PI) (SG) (SG) (SG) (SG) (PI)
                 (PI) (SG) (SG) (SG) (PI) (PI) (SG) (DLTA) (DLTA)
                 (PI) (PI) (SG) (PI) (PI) (SG) (SG) (SG) (PI) (PI)
                 (SG) (SG) (SG) (PI) (PI) (SG) (SG) (SG) (PI) (PI)
                 (SG) (SG) (SG) (PI) (PI) (SG) (SG) (SG) (SG) (SG)
 Leave Link  401 at Wed Apr  4 07:32:11 2018, MaxMem= 10737418240 cpu:               8.1 elap:               0.5
 (Enter /home1/apps/gaussian/16rA.03/g16/l502.exe)
 Keep R1 and R2 ints in memory in symmetry-blocked form, NReq=669167781.
 FoFCou: FMM=F IPFlag=           8 FMFlag=           0 FMFlg1=           0
         NFxFlg=           0 DoJE=F BraDBF=F KetDBF=F FulRan=T
         wScrn=  0.000000 ICntrl=       600 IOpCl=  0 I1Cent=           0 NGrid=           0
         NMat0=    1 NMatS0=  32640 NMatT0=    0 NMatD0=    1 NMtDS0=    0 NMtDT0=    0
 Petite list used in FoFCou.
 Restricted open shell SCF:
 Using DIIS extrapolation, IDIIS=  1040.
 NGot= 10737418240 LenX= 10464367955 LenY= 10464273878
 Requested convergence on RMS density matrix=1.00D-08 within 300 cycles.
 Requested convergence on MAX density matrix=1.00D-06.
 Requested convergence on             energy=1.00D-06.
 Virtual orbitals will be shifted by   0.400 hartree.
 No special actions if energy rises.

 Cycle   1  Pass 1  IDiag  1:
 E= -101.881876314633    
 DIIS: error= 9.79D-02 at cycle   1 NSaved=   1.
 NSaved= 1 IEnMin= 1 EnMin= -101.881876314633     IErMin= 1 ErrMin= 9.79D-02
 ErrMax= 9.79D-02  0.00D+00 EMaxC= 1.00D-01 BMatC= 1.44D+00 BMatP= 1.44D+00
 IDIUse=3 WtCom= 2.11D-02 WtEn= 9.79D-01
 Coeff-Com:  0.100D+01
 Coeff-En:   0.100D+01
 Coeff:      0.100D+01
 Gap=     0.093 Goal=   None    Shift=    0.400
 GapD=    0.093 DampG=0.500 DampE=0.250 DampFc=0.1250 IDamp=-1.
 Damping current iteration by 1.25D-01
 RMSDP=1.83D-03 MaxDP=9.90D-02              OVMax= 5.51D-02

 Cycle   2  Pass 1  IDiag  1:
 E= -101.893916317507     Delta-E=       -0.012040002874 Rises=F Damp=T
 DIIS: error= 8.55D-02 at cycle   2 NSaved=   2.
 NSaved= 2 IEnMin= 2 EnMin= -101.893916317507     IErMin= 2 ErrMin= 8.55D-02
 ErrMax= 8.55D-02  0.00D+00 EMaxC= 1.00D-01 BMatC= 1.10D+00 BMatP= 1.44D+00
 IDIUse=3 WtCom= 1.45D-01 WtEn= 8.55D-01
 Coeff-Com: -0.647D+01 0.747D+01
 Coeff-En:   0.000D+00 0.100D+01
 Coeff:     -0.937D+00 0.194D+01
 Gap=     0.045 Goal=   None    Shift=    0.400
 RMSDP=1.66D-03 MaxDP=8.22D-02 DE=-1.20D-02 OVMax= 2.54D-02

 Cycle   3  Pass 1  IDiag  1:
 E= -101.980215356047     Delta-E=       -0.086299038540 Rises=F Damp=F
 DIIS: error= 7.48D-03 at cycle   3 NSaved=   3.
 NSaved= 3 IEnMin= 3 EnMin= -101.980215356047     IErMin= 3 ErrMin= 7.48D-03
 ErrMax= 7.48D-03  0.00D+00 EMaxC= 1.00D-01 BMatC= 7.05D-03 BMatP= 1.10D+00
 IDIUse=3 WtCom= 9.25D-01 WtEn= 7.48D-02
 Coeff-Com: -0.816D+00 0.923D+00 0.892D+00
 Coeff-En:   0.000D+00 0.000D+00 0.100D+01
 Coeff:     -0.755D+00 0.854D+00 0.900D+00
 Gap=     0.035 Goal=   None    Shift=    0.400
 RMSDP=3.44D-04 MaxDP=1.44D-02 DE=-8.63D-02 OVMax= 3.81D-02

 Cycle   4  Pass 1  IDiag  1:
 E= -101.999518644612     Delta-E=       -0.019303288565 Rises=F Damp=F
 DIIS: error= 5.67D-03 at cycle   4 NSaved=   4.
 NSaved= 4 IEnMin= 4 EnMin= -101.999518644612     IErMin= 4 ErrMin= 5.67D-03
 ErrMax= 5.67D-03  0.00D+00 EMaxC= 1.00D-01 BMatC= 3.23D-03 BMatP= 7.05D-03
 IDIUse=3 WtCom= 9.43D-01 WtEn= 5.67D-02
 Coeff-Com: -0.476D+00 0.537D+00 0.208D+00 0.732D+00
 Coeff-En:   0.000D+00 0.000D+00 0.000D+00 0.100D+01
 Coeff:     -0.449D+00 0.506D+00 0.196D+00 0.747D+00
 Gap=     0.038 Goal=   None    Shift=    0.400
 RMSDP=2.15D-04 MaxDP=1.25D-02 DE=-1.93D-02 OVMax= 2.77D-02

 Cycle   5  Pass 1  IDiag  1:
 E= -102.004877326699     Delta-E=       -0.005358682087 Rises=F Damp=F
 DIIS: error= 3.40D-03 at cycle   5 NSaved=   5.
 NSaved= 5 IEnMin= 5 EnMin= -102.004877326699     IErMin= 5 ErrMin= 3.40D-03
 ErrMax= 3.40D-03  0.00D+00 EMaxC= 1.00D-01 BMatC= 1.13D-03 BMatP= 3.23D-03
 IDIUse=3 WtCom= 9.66D-01 WtEn= 3.40D-02
 Coeff-Com: -0.371D+00 0.424D+00-0.188D+00-0.376D+00 0.151D+01
 Coeff-En:   0.000D+00 0.000D+00 0.000D+00 0.000D+00 0.100D+01
 Coeff:     -0.359D+00 0.409D+00-0.182D+00-0.364D+00 0.149D+01
 Gap=     0.045 Goal=   None    Shift=    0.400
 RMSDP=1.97D-04 MaxDP=1.05D-02 DE=-5.36D-03 OVMax= 2.70D-02

 Cycle   6  Pass 1  IDiag  1:
 E= -102.008291447512     Delta-E=       -0.003414120813 Rises=F Damp=F
 DIIS: error= 2.46D-03 at cycle   6 NSaved=   6.
 NSaved= 6 IEnMin= 6 EnMin= -102.008291447512     IErMin= 6 ErrMin= 2.46D-03
 ErrMax= 2.46D-03  0.00D+00 EMaxC= 1.00D-01 BMatC= 5.14D-04 BMatP= 1.13D-03
 IDIUse=3 WtCom= 9.75D-01 WtEn= 2.46D-02
 Coeff-Com: -0.106D+00 0.124D+00-0.185D+00-0.288D+00 0.162D+00 0.129D+01
 Coeff-En:   0.000D+00 0.000D+00 0.000D+00 0.000D+00 0.000D+00 0.100D+01
 Coeff:     -0.104D+00 0.121D+00-0.180D+00-0.281D+00 0.158D+00 0.129D+01
 Gap=     0.045 Goal=   None    Shift=    0.400
 RMSDP=1.71D-04 MaxDP=9.17D-03 DE=-3.41D-03 OVMax= 2.59D-02

 Cycle   7  Pass 1  IDiag  1:
 E= -102.010279433981     Delta-E=       -0.001987986469 Rises=F Damp=F
 DIIS: error= 1.42D-03 at cycle   7 NSaved=   7.
 NSaved= 7 IEnMin= 7 EnMin= -102.010279433981     IErMin= 7 ErrMin= 1.42D-03
 ErrMax= 1.42D-03  0.00D+00 EMaxC= 1.00D-01 BMatC= 1.96D-04 BMatP= 5.14D-04
 IDIUse=3 WtCom= 9.86D-01 WtEn= 1.42D-02
 Coeff-Com: -0.417D-01 0.464D-01 0.125D+00 0.202D+00-0.249D+00-0.174D+01
 Coeff-Com:  0.266D+01
 Coeff-En:   0.000D+00 0.000D+00 0.000D+00 0.000D+00 0.000D+00 0.000D+00
 Coeff-En:   0.100D+01
 Coeff:     -0.411D-01 0.458D-01 0.123D+00 0.199D+00-0.245D+00-0.172D+01
 Coeff:      0.263D+01
 Gap=     0.045 Goal=   None    Shift=    0.400
 RMSDP=1.24D-04 MaxDP=1.25D-02 DE=-1.99D-03 OVMax= 2.02D-02

 Cycle   8  Pass 1  IDiag  1:
 E= -102.010972922347     Delta-E=       -0.000693488366 Rises=F Damp=F
 DIIS: error= 8.18D-04 at cycle   8 NSaved=   8.
 NSaved= 8 IEnMin= 8 EnMin= -102.010972922347     IErMin= 8 ErrMin= 8.18D-04
 ErrMax= 8.18D-04  0.00D+00 EMaxC= 1.00D-01 BMatC= 9.11D-05 BMatP= 1.96D-04
 IDIUse=3 WtCom= 9.92D-01 WtEn= 8.18D-03
 Coeff-Com: -0.490D-01 0.557D-01 0.259D-02 0.162D+00-0.328D+00 0.188D+00
 Coeff-Com: -0.942D+00 0.191D+01
 Coeff-En:   0.000D+00 0.000D+00 0.000D+00 0.000D+00 0.000D+00 0.000D+00
 Coeff-En:   0.000D+00 0.100D+01
 Coeff:     -0.486D-01 0.553D-01 0.257D-02 0.161D+00-0.326D+00 0.186D+00
 Coeff:     -0.935D+00 0.190D+01
 Gap=     0.047 Goal=   None    Shift=    0.400
 RMSDP=7.31D-05 MaxDP=1.17D-02 DE=-6.93D-04 OVMax= 1.36D-02

 Cycle   9  Pass 1  IDiag  1:
 E= -102.011203974206     Delta-E=       -0.000231051859 Rises=F Damp=F
 DIIS: error= 5.46D-04 at cycle   9 NSaved=   9.
 NSaved= 9 IEnMin= 9 EnMin= -102.011203974206     IErMin= 9 ErrMin= 5.46D-04
 ErrMax= 5.46D-04  0.00D+00 EMaxC= 1.00D-01 BMatC= 4.80D-05 BMatP= 9.11D-05
 IDIUse=3 WtCom= 9.95D-01 WtEn= 5.46D-03
 Coeff-Com: -0.551D-01 0.631D-01-0.436D-01 0.341D-01 0.370D-01 0.502D-01
 Coeff-Com: -0.301D-02-0.130D+01 0.222D+01
 Coeff-En:   0.000D+00 0.000D+00 0.000D+00 0.000D+00 0.000D+00 0.000D+00
 Coeff-En:   0.000D+00 0.000D+00 0.100D+01
 Coeff:     -0.548D-01 0.628D-01-0.434D-01 0.340D-01 0.368D-01 0.499D-01
 Coeff:     -0.300D-02-0.129D+01 0.221D+01
 Gap=     0.048 Goal=   None    Shift=    0.400
 RMSDP=4.83D-05 MaxDP=8.81D-03 DE=-2.31D-04 OVMax= 9.01D-03

 Cycle  10  Pass 1  IDiag  1:
 E= -102.011296213743     Delta-E=       -0.000092239538 Rises=F Damp=F
 DIIS: error= 4.23D-04 at cycle  10 NSaved=  10.
 NSaved=10 IEnMin=10 EnMin= -102.011296213743     IErMin=10 ErrMin= 4.23D-04
 ErrMax= 4.23D-04  0.00D+00 EMaxC= 1.00D-01 BMatC= 2.40D-05 BMatP= 4.80D-05
 IDIUse=3 WtCom= 9.96D-01 WtEn= 4.23D-03
 Coeff-Com: -0.408D-01 0.467D-01-0.233D-01-0.211D-01 0.137D+00-0.225D+00
 Coeff-Com:  0.349D+00-0.414D+00-0.876D+00 0.207D+01
 Coeff-En:   0.000D+00 0.000D+00 0.000D+00 0.000D+00 0.000D+00 0.000D+00
 Coeff-En:   0.000D+00 0.000D+00 0.000D+00 0.100D+01
 Coeff:     -0.406D-01 0.465D-01-0.232D-01-0.210D-01 0.137D+00-0.224D+00
 Coeff:      0.347D+00-0.413D+00-0.872D+00 0.206D+01
 Gap=     0.049 Goal=   None    Shift=    0.400
 RMSDP=3.01D-05 MaxDP=5.02D-03 DE=-9.22D-05 OVMax= 6.36D-03

 Cycle  11  Pass 1  IDiag  1:
 E= -102.011342337946     Delta-E=       -0.000046124203 Rises=F Damp=F
 DIIS: error= 2.87D-04 at cycle  11 NSaved=  11.
 NSaved=11 IEnMin=11 EnMin= -102.011342337946     IErMin=11 ErrMin= 2.87D-04
 ErrMax= 2.87D-04  0.00D+00 EMaxC= 1.00D-01 BMatC= 1.03D-05 BMatP= 2.40D-05
 IDIUse=3 WtCom= 9.97D-01 WtEn= 2.87D-03
 Coeff-Com:  0.436D-03-0.389D-03-0.117D-01-0.534D-01 0.833D-01 0.139D+00
 Coeff-Com: -0.428D+00 0.421D+00-0.114D+00-0.130D+01 0.226D+01
 Coeff-En:   0.000D+00 0.000D+00 0.000D+00 0.000D+00 0.000D+00 0.000D+00
 Coeff-En:   0.000D+00 0.000D+00 0.000D+00 0.000D+00 0.100D+01
 Coeff:      0.435D-03-0.388D-03-0.117D-01-0.533D-01 0.831D-01 0.138D+00
 Coeff:     -0.427D+00 0.420D+00-0.113D+00-0.129D+01 0.226D+01
 Gap=     0.049 Goal=   None    Shift=    0.400
 RMSDP=2.33D-05 MaxDP=2.57D-03 DE=-4.61D-05 OVMax= 4.85D-03

 Cycle  12  Pass 1  IDiag  1:
 E= -102.011377516582     Delta-E=       -0.000035178635 Rises=F Damp=F
 DIIS: error= 2.82D-04 at cycle  12 NSaved=  12.
 NSaved=12 IEnMin=12 EnMin= -102.011377516582     IErMin=12 ErrMin= 2.82D-04
 ErrMax= 2.82D-04  0.00D+00 EMaxC= 1.00D-01 BMatC= 6.94D-06 BMatP= 1.03D-05
 IDIUse=3 WtCom= 9.97D-01 WtEn= 2.82D-03
 Coeff-Com:  0.384D-01-0.436D-01-0.162D-01-0.606D-01 0.134D+00 0.167D+00
 Coeff-Com: -0.359D+00-0.314D+00 0.871D+00-0.487D+00-0.109D+01 0.216D+01
 Coeff-En:   0.000D+00 0.000D+00 0.000D+00 0.000D+00 0.000D+00 0.000D+00
 Coeff-En:   0.000D+00 0.000D+00 0.000D+00 0.000D+00 0.000D+00 0.100D+01
 Coeff:      0.383D-01-0.435D-01-0.161D-01-0.604D-01 0.133D+00 0.167D+00
 Coeff:     -0.358D+00-0.313D+00 0.869D+00-0.486D+00-0.109D+01 0.216D+01
 Gap=     0.049 Goal=   None    Shift=    0.400
 RMSDP=2.21D-05 MaxDP=1.75D-03 DE=-3.52D-05 OVMax= 3.88D-03

 Cycle  13  Pass 1  IDiag  1:
 E= -102.011385091325     Delta-E=       -0.000007574743 Rises=F Damp=F
 DIIS: error= 2.68D-04 at cycle  13 NSaved=  13.
 NSaved=13 IEnMin=13 EnMin= -102.011385091325     IErMin=13 ErrMin= 2.68D-04
 ErrMax= 2.68D-04  0.00D+00 EMaxC= 1.00D-01 BMatC= 5.66D-06 BMatP= 6.94D-06
 IDIUse=3 WtCom= 9.97D-01 WtEn= 2.68D-03
 Coeff-Com:  0.440D-01-0.501D-01-0.168D-02-0.151D-01 0.501D-01 0.381D-01
 Coeff-Com: -0.167D-01-0.149D+00-0.131D+00 0.734D-01 0.650D+00-0.199D+01
 Coeff-Com:  0.249D+01
 Coeff-En:   0.000D+00 0.000D+00 0.000D+00 0.000D+00 0.000D+00 0.000D+00
 Coeff-En:   0.000D+00 0.000D+00 0.000D+00 0.000D+00 0.000D+00 0.000D+00
 Coeff-En:   0.100D+01
 Coeff:      0.439D-01-0.500D-01-0.168D-02-0.151D-01 0.500D-01 0.380D-01
 Coeff:     -0.166D-01-0.148D+00-0.131D+00 0.732D-01 0.648D+00-0.198D+01
 Coeff:      0.249D+01
 Gap=     0.049 Goal=   None    Shift=    0.400
 RMSDP=1.40D-05 MaxDP=1.46D-03 DE=-7.57D-06 OVMax= 2.79D-03

 Cycle  14  Pass 1  IDiag  1:
 E= -102.011386616740     Delta-E=       -0.000001525416 Rises=F Damp=F
 DIIS: error= 2.95D-04 at cycle  14 NSaved=  14.
 NSaved=14 IEnMin=14 EnMin= -102.011386616740     IErMin=13 ErrMin= 2.68D-04
 ErrMax= 2.95D-04  0.00D+00 EMaxC= 1.00D-01 BMatC= 3.81D-06 BMatP= 5.66D-06
 IDIUse=3 WtCom= 9.97D-01 WtEn= 2.68D-03
 Coeff-Com:  0.368D-01-0.420D-01 0.666D-02 0.575D-02-0.236D-01 0.202D-01
 Coeff-Com:  0.935D-02 0.984D-01-0.937D-01-0.532D+00 0.661D+00 0.164D+00
 Coeff-Com: -0.190D+01 0.259D+01
 Coeff-En:   0.000D+00 0.000D+00 0.000D+00 0.000D+00 0.000D+00 0.000D+00
 Coeff-En:   0.000D+00 0.000D+00 0.000D+00 0.000D+00 0.000D+00 0.000D+00
 Coeff-En:   0.000D+00 0.100D+01
 Coeff:      0.367D-01-0.419D-01 0.664D-02 0.574D-02-0.235D-01 0.201D-01
 Coeff:      0.932D-02 0.981D-01-0.935D-01-0.530D+00 0.659D+00 0.163D+00
 Coeff:     -0.189D+01 0.258D+01
 Gap=     0.050 Goal=   None    Shift=    0.400
 RMSDP=9.32D-06 MaxDP=1.03D-03 DE=-1.53D-06 OVMax= 1.95D-03

 Cycle  15  Pass 1  IDiag  1:
 E= -102.011394034435     Delta-E=       -0.000007417695 Rises=F Damp=F
 DIIS: error= 2.58D-04 at cycle  15 NSaved=  15.
 NSaved=15 IEnMin=15 EnMin= -102.011394034435     IErMin=15 ErrMin= 2.58D-04
 ErrMax= 2.58D-04  0.00D+00 EMaxC= 1.00D-01 BMatC= 2.74D-06 BMatP= 3.81D-06
 IDIUse=3 WtCom= 9.97D-01 WtEn= 2.58D-03
 Coeff-Com:  0.312D-01-0.356D-01 0.104D-02-0.595D-02 0.114D-01 0.321D-01
 Coeff-Com: -0.744D-01-0.210D-01 0.272D+00-0.246D+00-0.571D+00 0.151D+01
 Coeff-Com: -0.162D+01-0.228D+00 0.194D+01
 Coeff-En:   0.000D+00 0.000D+00 0.000D+00 0.000D+00 0.000D+00 0.000D+00
 Coeff-En:   0.000D+00 0.000D+00 0.000D+00 0.000D+00 0.000D+00 0.000D+00
 Coeff-En:   0.000D+00 0.000D+00 0.100D+01
 Coeff:      0.311D-01-0.355D-01 0.104D-02-0.593D-02 0.113D-01 0.320D-01
 Coeff:     -0.742D-01-0.210D-01 0.271D+00-0.245D+00-0.569D+00 0.150D+01
 Coeff:     -0.161D+01-0.227D+00 0.194D+01
 Gap=     0.050 Goal=   None    Shift=    0.400
 RMSDP=6.39D-06 MaxDP=5.08D-04 DE=-7.42D-06 OVMax= 1.35D-03

 Cycle  16  Pass 1  IDiag  1:
 E= -102.011399392317     Delta-E=       -0.000005357882 Rises=F Damp=F
 DIIS: error= 2.19D-04 at cycle  16 NSaved=  16.
 NSaved=16 IEnMin=16 EnMin= -102.011399392317     IErMin=16 ErrMin= 2.19D-04
 ErrMax= 2.19D-04  0.00D+00 EMaxC= 1.00D-01 BMatC= 2.09D-06 BMatP= 2.74D-06
 IDIUse=3 WtCom= 9.98D-01 WtEn= 2.19D-03
 Coeff-Com:  0.222D-01-0.253D-01-0.761D-03-0.109D-01 0.303D-01 0.292D-01
 Coeff-Com: -0.907D-01-0.165D-01 0.941D-01 0.780D-01-0.205D+00 0.411D-01
 Coeff-Com:  0.369D+00-0.580D+00-0.117D+01 0.243D+01
 Coeff-En:   0.000D+00 0.000D+00 0.000D+00 0.000D+00 0.000D+00 0.000D+00
 Coeff-En:   0.000D+00 0.000D+00 0.000D+00 0.000D+00 0.000D+00 0.000D+00
 Coeff-En:   0.000D+00 0.000D+00 0.000D+00 0.100D+01
 Coeff:      0.221D-01-0.252D-01-0.759D-03-0.109D-01 0.303D-01 0.291D-01
 Coeff:     -0.905D-01-0.165D-01 0.939D-01 0.778D-01-0.205D+00 0.410D-01
 Coeff:      0.369D+00-0.578D+00-0.117D+01 0.243D+01
 Gap=     0.050 Goal=   None    Shift=    0.400
 RMSDP=4.85D-06 MaxDP=3.22D-04 DE=-5.36D-06 OVMax= 9.85D-04

 Cycle  17  Pass 1  IDiag  1:
 E= -102.011403914049     Delta-E=       -0.000004521732 Rises=F Damp=F
 DIIS: error= 1.57D-04 at cycle  17 NSaved=  17.
 NSaved=17 IEnMin=17 EnMin= -102.011403914049     IErMin=17 ErrMin= 1.57D-04
 ErrMax= 1.57D-04  0.00D+00 EMaxC= 1.00D-01 BMatC= 1.21D-06 BMatP= 2.09D-06
 IDIUse=3 WtCom= 9.98D-01 WtEn= 1.57D-03
 Coeff-Com:  0.144D-01-0.165D-01 0.561D-03-0.406D-02 0.703D-02 0.298D-01
 Coeff-Com: -0.558D-01 0.386D-01-0.302D-01-0.123D+00 0.356D+00-0.511D+00
 Coeff-Com:  0.391D+00 0.271D+00-0.880D+00-0.563D+00 0.207D+01
 Coeff-En:   0.000D+00 0.000D+00 0.000D+00 0.000D+00 0.000D+00 0.000D+00
 Coeff-En:   0.000D+00 0.000D+00 0.000D+00 0.000D+00 0.000D+00 0.000D+00
 Coeff-En:   0.000D+00 0.000D+00 0.000D+00 0.000D+00 0.100D+01
 Coeff:      0.144D-01-0.165D-01 0.561D-03-0.405D-02 0.702D-02 0.298D-01
 Coeff:     -0.557D-01 0.385D-01-0.301D-01-0.123D+00 0.355D+00-0.511D+00
 Coeff:      0.391D+00 0.271D+00-0.878D+00-0.562D+00 0.207D+01
 Gap=     0.050 Goal=   None    Shift=    0.400
 RMSDP=3.66D-06 MaxDP=1.75D-04 DE=-4.52D-06 OVMax= 7.22D-04

 Cycle  18  Pass 1  IDiag  1:
 E= -102.011406616839     Delta-E=       -0.000002702790 Rises=F Damp=F
 DIIS: error= 1.04D-04 at cycle  18 NSaved=  18.
 NSaved=18 IEnMin=18 EnMin= -102.011406616839     IErMin=18 ErrMin= 1.04D-04
 ErrMax= 1.04D-04  0.00D+00 EMaxC= 1.00D-01 BMatC= 6.15D-07 BMatP= 1.21D-06
 IDIUse=3 WtCom= 9.99D-01 WtEn= 1.04D-03
 Coeff-Com:  0.878D-02-0.100D-01 0.227D-02 0.267D-02-0.117D-01 0.915D-02
 Coeff-Com:  0.109D-01 0.854D-02-0.220D-01-0.967D-01 0.150D+00-0.140D+00
 Coeff-Com: -0.127D+00 0.382D+00 0.318D+00-0.805D+00-0.121D+01 0.253D+01
 Coeff-En:   0.000D+00 0.000D+00 0.000D+00 0.000D+00 0.000D+00 0.000D+00
 Coeff-En:   0.000D+00 0.000D+00 0.000D+00 0.000D+00 0.000D+00 0.000D+00
 Coeff-En:   0.000D+00 0.000D+00 0.000D+00 0.000D+00 0.000D+00 0.100D+01
 Coeff:      0.878D-02-0.100D-01 0.226D-02 0.267D-02-0.117D-01 0.914D-02
 Coeff:      0.108D-01 0.853D-02-0.219D-01-0.966D-01 0.150D+00-0.139D+00
 Coeff:     -0.126D+00 0.381D+00 0.318D+00-0.805D+00-0.121D+01 0.253D+01
 Gap=     0.050 Goal=   None    Shift=    0.400
 RMSDP=2.86D-06 MaxDP=1.29D-04 DE=-2.70D-06 OVMax= 5.62D-04

 Cycle  19  Pass 1  IDiag  1:
 E= -102.011407964752     Delta-E=       -0.000001347912 Rises=F Damp=F
 DIIS: error= 6.91D-05 at cycle  19 NSaved=  19.
 NSaved=19 IEnMin=19 EnMin= -102.011407964752     IErMin=19 ErrMin= 6.91D-05
 ErrMax= 6.91D-05  0.00D+00 EMaxC= 1.00D-01 BMatC= 2.90D-07 BMatP= 6.15D-07
 IDIUse=1 WtCom= 1.00D+00 WtEn= 0.00D+00
 Coeff-Com:  0.584D-02-0.669D-02 0.189D-02 0.298D-02-0.728D-02-0.448D-02
 Coeff-Com:  0.239D-01 0.202D-02-0.796D-01 0.134D+00-0.818D-01-0.139D+00
 Coeff-Com:  0.146D+00-0.421D-01 0.104D+00 0.346D+00-0.125D+01-0.902D-01
 Coeff-Com:  0.193D+01
 Coeff:      0.584D-02-0.669D-02 0.189D-02 0.298D-02-0.728D-02-0.448D-02
 Coeff:      0.239D-01 0.202D-02-0.796D-01 0.134D+00-0.818D-01-0.139D+00
 Coeff:      0.146D+00-0.421D-01 0.104D+00 0.346D+00-0.125D+01-0.902D-01
 Coeff:      0.193D+01
 Gap=     0.050 Goal=   None    Shift=    0.400
 RMSDP=1.99D-06 MaxDP=1.11D-04 DE=-1.35D-06 OVMax= 4.22D-04

 Cycle  20  Pass 1  IDiag  1:
 E= -102.011408539908     Delta-E=       -0.000000575156 Rises=F Damp=F
 DIIS: error= 4.74D-05 at cycle  20 NSaved=  20.
 NSaved=20 IEnMin=20 EnMin= -102.011408539908     IErMin=20 ErrMin= 4.74D-05
 ErrMax= 4.74D-05  0.00D+00 EMaxC= 1.00D-01 BMatC= 1.42D-07 BMatP= 2.90D-07
 IDIUse=1 WtCom= 1.00D+00 WtEn= 0.00D+00
 Coeff-Com:  0.223D-02-0.254D-02 0.225D-03 0.729D-03 0.127D-02-0.105D-02
 Coeff-Com: -0.352D-02 0.369D-01-0.125D+00 0.137D+00 0.320D-01-0.287D+00
 Coeff-Com:  0.382D+00-0.876D-01-0.469D+00 0.382D+00 0.606D+00-0.559D+00
 Coeff-Com: -0.259D+01 0.355D+01
 Coeff:      0.223D-02-0.254D-02 0.225D-03 0.729D-03 0.127D-02-0.105D-02
 Coeff:     -0.352D-02 0.369D-01-0.125D+00 0.137D+00 0.320D-01-0.287D+00
 Coeff:      0.382D+00-0.876D-01-0.469D+00 0.382D+00 0.606D+00-0.559D+00
 Coeff:     -0.259D+01 0.355D+01
 Gap=     0.050 Goal=   None    Shift=    0.400
 RMSDP=1.83D-06 MaxDP=8.25D-05 DE=-5.75D-07 OVMax= 3.35D-04

 Cycle  21  Pass 1  IDiag  1:
 E= -102.011408922765     Delta-E=       -0.000000382857 Rises=F Damp=F
 DIIS: error= 2.77D-05 at cycle  21 NSaved=  20.
 NSaved=20 IEnMin=20 EnMin= -102.011408922765     IErMin=20 ErrMin= 2.77D-05
 ErrMax= 2.77D-05  0.00D+00 EMaxC= 1.00D-01 BMatC= 5.29D-08 BMatP= 1.42D-07
 IDIUse=1 WtCom= 1.00D+00 WtEn= 0.00D+00
 Coeff-Com:  0.280D-05-0.828D-04 0.991D-03 0.108D-02-0.286D-02 0.310D-02
 Coeff-Com:  0.266D-01-0.118D+00 0.129D+00 0.378D-01-0.281D+00 0.403D+00
 Coeff-Com: -0.735D-01-0.493D+00 0.243D+00 0.718D+00-0.326D+00-0.269D+01
 Coeff-Com:  0.272D+01 0.697D+00
 Coeff:      0.280D-05-0.828D-04 0.991D-03 0.108D-02-0.286D-02 0.310D-02
 Coeff:      0.266D-01-0.118D+00 0.129D+00 0.378D-01-0.281D+00 0.403D+00
 Coeff:     -0.735D-01-0.493D+00 0.243D+00 0.718D+00-0.326D+00-0.269D+01
 Coeff:      0.272D+01 0.697D+00
 Gap=     0.049 Goal=   None    Shift=    0.400
 RMSDP=1.25D-06 MaxDP=7.37D-05 DE=-3.83D-07 OVMax= 2.42D-04

 Cycle  22  Pass 1  IDiag  1:
 E= -102.011409072404     Delta-E=       -0.000000149639 Rises=F Damp=F
 DIIS: error= 1.75D-05 at cycle  22 NSaved=  20.
 NSaved=20 IEnMin=20 EnMin= -102.011409072404     IErMin=20 ErrMin= 1.75D-05
 ErrMax= 1.75D-05  0.00D+00 EMaxC= 1.00D-01 BMatC= 3.20D-08 BMatP= 5.29D-08
 IDIUse=1 WtCom= 1.00D+00 WtEn= 0.00D+00
 Coeff-Com:  0.515D-03 0.115D-02-0.191D-02-0.570D-02 0.138D-01-0.531D-02
 Coeff-Com: -0.956D-02-0.623D-03 0.134D-01-0.812D-01 0.776D-01 0.513D-01
 Coeff-Com: -0.983D-01 0.964D-01 0.190D+00 0.175D-01-0.139D+01 0.274D+01
 Coeff-Com: -0.494D+01 0.433D+01
 Coeff:      0.515D-03 0.115D-02-0.191D-02-0.570D-02 0.138D-01-0.531D-02
 Coeff:     -0.956D-02-0.623D-03 0.134D-01-0.812D-01 0.776D-01 0.513D-01
 Coeff:     -0.983D-01 0.964D-01 0.190D+00 0.175D-01-0.139D+01 0.274D+01
 Coeff:     -0.494D+01 0.433D+01
 Gap=     0.049 Goal=   None    Shift=    0.400
 RMSDP=8.20D-07 MaxDP=5.56D-05 DE=-1.50D-07 OVMax= 1.85D-04

 Cycle  23  Pass 1  IDiag  1:
 E= -102.011409129121     Delta-E=       -0.000000056716 Rises=F Damp=F
 DIIS: error= 1.33D-05 at cycle  23 NSaved=  20.
 NSaved=20 IEnMin=20 EnMin= -102.011409129121     IErMin=20 ErrMin= 1.33D-05
 ErrMax= 1.33D-05  0.00D+00 EMaxC= 1.00D-01 BMatC= 2.19D-08 BMatP= 3.20D-08
 IDIUse=1 WtCom= 1.00D+00 WtEn= 0.00D+00
 Coeff-Com:  0.607D-03 0.471D-03-0.484D-02 0.103D-01-0.117D-01-0.357D-02
 Coeff-Com:  0.301D-01-0.222D-01-0.482D-01 0.543D-01 0.129D-01-0.103D+00
 Coeff-Com:  0.127D+00 0.191D+00-0.943D-01-0.948D+00 0.228D+01-0.391D+01
 Coeff-Com:  0.200D+01 0.144D+01
 Coeff:      0.607D-03 0.471D-03-0.484D-02 0.103D-01-0.117D-01-0.357D-02
 Coeff:      0.301D-01-0.222D-01-0.482D-01 0.543D-01 0.129D-01-0.103D+00
 Coeff:      0.127D+00 0.191D+00-0.943D-01-0.948D+00 0.228D+01-0.391D+01
 Coeff:      0.200D+01 0.144D+01
 Gap=     0.049 Goal=   None    Shift=    0.400
 RMSDP=5.77D-07 MaxDP=4.63D-05 DE=-5.67D-08 OVMax= 1.36D-04

 Cycle  24  Pass 1  IDiag  1:
 E= -102.011409160475     Delta-E=       -0.000000031355 Rises=F Damp=F
 DIIS: error= 1.11D-05 at cycle  24 NSaved=  20.
 NSaved=20 IEnMin=20 EnMin= -102.011409160475     IErMin=20 ErrMin= 1.11D-05
 ErrMax= 1.11D-05  0.00D+00 EMaxC= 1.00D-01 BMatC= 1.43D-08 BMatP= 2.19D-08
 IDIUse=1 WtCom= 1.00D+00 WtEn= 0.00D+00
 Coeff-Com:  0.489D-03 0.262D-03-0.388D-02 0.860D-02-0.684D-02-0.952D-02
 Coeff-Com:  0.174D-01 0.367D-02-0.966D-02 0.554D-02-0.615D-01 0.829D-01
 Coeff-Com:  0.740D-01-0.278D+00-0.236D+00 0.880D+00-0.136D+00 0.122D+00
 Coeff-Com: -0.368D+01 0.422D+01
 Coeff:      0.489D-03 0.262D-03-0.388D-02 0.860D-02-0.684D-02-0.952D-02
 Coeff:      0.174D-01 0.367D-02-0.966D-02 0.554D-02-0.615D-01 0.829D-01
 Coeff:      0.740D-01-0.278D+00-0.236D+00 0.880D+00-0.136D+00 0.122D+00
 Coeff:     -0.368D+01 0.422D+01
 Gap=     0.050 Goal=   None    Shift=    0.400
 RMSDP=4.82D-07 MaxDP=3.44D-05 DE=-3.14D-08 OVMax= 9.82D-05

 Cycle  25  Pass 1  IDiag  1:
 E= -102.011409179723     Delta-E=       -0.000000019247 Rises=F Damp=F
 DIIS: error= 8.21D-06 at cycle  25 NSaved=  20.
 NSaved=20 IEnMin=20 EnMin= -102.011409179723     IErMin=20 ErrMin= 8.21D-06
 ErrMax= 8.21D-06  0.00D+00 EMaxC= 1.00D-01 BMatC= 7.65D-09 BMatP= 1.43D-08
 IDIUse=1 WtCom= 1.00D+00 WtEn= 0.00D+00
 Coeff-Com:  0.155D-02-0.542D-02 0.109D-01-0.916D-02-0.136D-01 0.321D-01
 Coeff-Com: -0.238D-01 0.141D-01 0.209D-01-0.784D-01 0.422D-01 0.125D+00
 Coeff-Com: -0.209D+00-0.346D+00 0.721D+00 0.947D-02 0.503D+00-0.329D+01
 Coeff-Com:  0.217D+01 0.133D+01
 Coeff:      0.155D-02-0.542D-02 0.109D-01-0.916D-02-0.136D-01 0.321D-01
 Coeff:     -0.238D-01 0.141D-01 0.209D-01-0.784D-01 0.422D-01 0.125D+00
 Coeff:     -0.209D+00-0.346D+00 0.721D+00 0.947D-02 0.503D+00-0.329D+01
 Coeff:      0.217D+01 0.133D+01
 Gap=     0.050 Goal=   None    Shift=    0.400
 RMSDP=3.18D-07 MaxDP=2.70D-05 DE=-1.92D-08 OVMax= 7.13D-05

 Cycle  26  Pass 1  IDiag  1:
 E= -102.011409190188     Delta-E=       -0.000000010465 Rises=F Damp=F
 DIIS: error= 5.59D-06 at cycle  26 NSaved=  20.
 NSaved=20 IEnMin=20 EnMin= -102.011409190188     IErMin=20 ErrMin= 5.59D-06
 ErrMax= 5.59D-06  0.00D+00 EMaxC= 1.00D-01 BMatC= 3.80D-09 BMatP= 7.65D-09
 IDIUse=1 WtCom= 1.00D+00 WtEn= 0.00D+00
 Coeff-Com: -0.191D-02 0.627D-02-0.511D-02-0.635D-02 0.136D-01 0.809D-04
 Coeff-Com: -0.267D-01 0.354D-01-0.143D-01-0.226D-01 0.645D-01-0.242D-01
 Coeff-Com: -0.138D+00 0.173D+00-0.107D+00 0.334D+00-0.890D+00 0.159D+01
 Coeff-Com: -0.421D+01 0.423D+01
 Coeff:     -0.191D-02 0.627D-02-0.511D-02-0.635D-02 0.136D-01 0.809D-04
 Coeff:     -0.267D-01 0.354D-01-0.143D-01-0.226D-01 0.645D-01-0.242D-01
 Coeff:     -0.138D+00 0.173D+00-0.107D+00 0.334D+00-0.890D+00 0.159D+01
 Coeff:     -0.421D+01 0.423D+01
 Gap=     0.050 Goal=   None    Shift=    0.400
 RMSDP=3.36D-07 MaxDP=2.29D-05 DE=-1.05D-08 OVMax= 5.43D-05

 Cycle  27  Pass 1  IDiag  1:
 E= -102.011409195529     Delta-E=       -0.000000005341 Rises=F Damp=F
 DIIS: error= 3.82D-06 at cycle  27 NSaved=  20.
 NSaved=20 IEnMin=20 EnMin= -102.011409195529     IErMin=20 ErrMin= 3.82D-06
 ErrMax= 3.82D-06  0.00D+00 EMaxC= 1.00D-01 BMatC= 2.16D-09 BMatP= 3.80D-09
 IDIUse=1 WtCom= 1.00D+00 WtEn= 0.00D+00
 Coeff-Com:  0.985D-03-0.635D-04-0.635D-02 0.578D-02 0.803D-02-0.293D-01
 Coeff-Com:  0.376D-01-0.256D-02-0.399D-01 0.270D-01 0.208D-01 0.298D-02
 Coeff-Com: -0.304D-01-0.424D-01 0.233D+00-0.870D+00 0.176D+01-0.328D+01
 Coeff-Com:  0.177D+01 0.144D+01
 Coeff:      0.985D-03-0.635D-04-0.635D-02 0.578D-02 0.803D-02-0.293D-01
 Coeff:      0.376D-01-0.256D-02-0.399D-01 0.270D-01 0.208D-01 0.298D-02
 Coeff:     -0.304D-01-0.424D-01 0.233D+00-0.870D+00 0.176D+01-0.328D+01
 Coeff:      0.177D+01 0.144D+01
 Gap=     0.050 Goal=   None    Shift=    0.400
 RMSDP=1.94D-07 MaxDP=1.50D-05 DE=-5.34D-09 OVMax= 3.92D-05

 Cycle  28  Pass 1  IDiag  1:
 E= -102.011409198626     Delta-E=       -0.000000003097 Rises=F Damp=F
 DIIS: error= 3.14D-06 at cycle  28 NSaved=  20.
 NSaved=20 IEnMin=20 EnMin= -102.011409198626     IErMin=20 ErrMin= 3.14D-06
 ErrMax= 3.14D-06  0.00D+00 EMaxC= 1.00D-01 BMatC= 1.22D-09 BMatP= 2.16D-09
 IDIUse=1 WtCom= 1.00D+00 WtEn= 0.00D+00
 Coeff-Com:  0.178D-03-0.553D-03-0.920D-03 0.893D-02-0.106D-01 0.861D-02
 Coeff-Com: -0.192D-01 0.147D-01 0.113D-01-0.694D-01 0.903D-01-0.883D-01
 Coeff-Com:  0.297D+00-0.104D+00-0.962D+00 0.128D+01-0.332D+00-0.692D-01
 Coeff-Com: -0.284D+01 0.378D+01
 Coeff:      0.178D-03-0.553D-03-0.920D-03 0.893D-02-0.106D-01 0.861D-02
 Coeff:     -0.192D-01 0.147D-01 0.113D-01-0.694D-01 0.903D-01-0.883D-01
 Coeff:      0.297D+00-0.104D+00-0.962D+00 0.128D+01-0.332D+00-0.692D-01
 Coeff:     -0.284D+01 0.378D+01
 Gap=     0.050 Goal=   None    Shift=    0.400
 RMSDP=1.43D-07 MaxDP=1.19D-05 DE=-3.10D-09 OVMax= 2.97D-05

 Cycle  29  Pass 1  IDiag  1:
 E= -102.011409200246     Delta-E=       -0.000000001620 Rises=F Damp=F
 DIIS: error= 2.69D-06 at cycle  29 NSaved=  20.
 NSaved=20 IEnMin=20 EnMin= -102.011409200246     IErMin=20 ErrMin= 2.69D-06
 ErrMax= 2.69D-06  0.00D+00 EMaxC= 1.00D-01 BMatC= 7.45D-10 BMatP= 1.22D-09
 IDIUse=1 WtCom= 1.00D+00 WtEn= 0.00D+00
 Coeff-Com: -0.417D-03 0.836D-03 0.418D-02-0.623D-02 0.767D-02-0.189D-01
 Coeff-Com:  0.160D-01 0.181D-01-0.752D-01 0.334D-01-0.364D-01 0.291D+00
 Coeff-Com: -0.453D-01-0.648D+00 0.547D+00-0.201D+00 0.727D+00-0.273D+01
 Coeff-Com:  0.143D+01 0.169D+01
 Coeff:     -0.417D-03 0.836D-03 0.418D-02-0.623D-02 0.767D-02-0.189D-01
 Coeff:      0.160D-01 0.181D-01-0.752D-01 0.334D-01-0.364D-01 0.291D+00
 Coeff:     -0.453D-01-0.648D+00 0.547D+00-0.201D+00 0.727D+00-0.273D+01
 Coeff:      0.143D+01 0.169D+01
 Gap=     0.050 Goal=   None    Shift=    0.400
 RMSDP=1.05D-07 MaxDP=8.49D-06 DE=-1.62D-09 OVMax= 2.14D-05

 Cycle  30  Pass 1  IDiag  1:
 E= -102.011409201261     Delta-E=       -0.000000001016 Rises=F Damp=F
 DIIS: error= 2.19D-06 at cycle  30 NSaved=  20.
 NSaved=20 IEnMin=20 EnMin= -102.011409201261     IErMin=20 ErrMin= 2.19D-06
 ErrMax= 2.19D-06  0.00D+00 EMaxC= 1.00D-01 BMatC= 4.29D-10 BMatP= 7.45D-10
 IDIUse=1 WtCom= 1.00D+00 WtEn= 0.00D+00
 Coeff-Com:  0.190D-02-0.197D-02-0.363D-02 0.109D-01-0.150D-01-0.301D-02
 Coeff-Com:  0.418D-01-0.226D-01-0.248D-01-0.393D-01 0.936D-01-0.429D-01
 Coeff-Com:  0.158D+00-0.103D+00-0.561D+00 0.997D+00-0.834D+00 0.103D+01
 Coeff-Com: -0.445D+01 0.476D+01
 Coeff:      0.190D-02-0.197D-02-0.363D-02 0.109D-01-0.150D-01-0.301D-02
 Coeff:      0.418D-01-0.226D-01-0.248D-01-0.393D-01 0.936D-01-0.429D-01
 Coeff:      0.158D+00-0.103D+00-0.561D+00 0.997D+00-0.834D+00 0.103D+01
 Coeff:     -0.445D+01 0.476D+01
 Gap=     0.050 Goal=   None    Shift=    0.400
 RMSDP=8.04D-08 MaxDP=6.29D-06 DE=-1.02D-09 OVMax= 1.48D-05

 Cycle  31  Pass 1  IDiag  1:
 E= -102.011409201835     Delta-E=       -0.000000000574 Rises=F Damp=F
 DIIS: error= 1.89D-06 at cycle  31 NSaved=  20.
 NSaved=20 IEnMin=20 EnMin= -102.011409201835     IErMin=20 ErrMin= 1.89D-06
 ErrMax= 1.89D-06  0.00D+00 EMaxC= 1.00D-01 BMatC= 2.52D-10 BMatP= 4.29D-10
 IDIUse=1 WtCom= 1.00D+00 WtEn= 0.00D+00
 Coeff-Com:  0.251D-02-0.708D-02 0.110D-01-0.114D-01-0.507D-02 0.342D-01
 Coeff-Com: -0.211D-01-0.663D-02-0.601D-01 0.131D+00-0.618D-01 0.652D-02
 Coeff-Com:  0.119D+00-0.511D+00 0.708D+00-0.732D+00 0.121D+01-0.395D+01
 Coeff-Com:  0.345D+01 0.690D+00
 Coeff:      0.251D-02-0.708D-02 0.110D-01-0.114D-01-0.507D-02 0.342D-01
 Coeff:     -0.211D-01-0.663D-02-0.601D-01 0.131D+00-0.618D-01 0.652D-02
 Coeff:      0.119D+00-0.511D+00 0.708D+00-0.732D+00 0.121D+01-0.395D+01
 Coeff:      0.345D+01 0.690D+00
 Gap=     0.050 Goal=   None    Shift=    0.400
 RMSDP=6.66D-08 MaxDP=5.68D-06 DE=-5.74D-10 OVMax= 1.14D-05

 Cycle  32  Pass 1  IDiag  1:
 E= -102.011409202172     Delta-E=       -0.000000000337 Rises=F Damp=F
 DIIS: error= 1.59D-06 at cycle  32 NSaved=  20.
 NSaved=20 IEnMin=20 EnMin= -102.011409202172     IErMin=20 ErrMin= 1.59D-06
 ErrMax= 1.59D-06  0.00D+00 EMaxC= 1.00D-01 BMatC= 1.58D-10 BMatP= 2.52D-10
 IDIUse=1 WtCom= 1.00D+00 WtEn= 0.00D+00
 Coeff-Com: -0.628D-03 0.592D-02-0.138D-01 0.222D-02 0.235D-01-0.176D-01
 Coeff-Com:  0.610D-02-0.270D-01 0.167D-01 0.186D-01 0.136D-01 0.124D-01
 Coeff-Com: -0.148D+00 0.364D+00-0.611D+00 0.911D+00-0.250D+01 0.320D+01
 Coeff-Com: -0.372D+01 0.346D+01
 Coeff:     -0.628D-03 0.592D-02-0.138D-01 0.222D-02 0.235D-01-0.176D-01
 Coeff:      0.610D-02-0.270D-01 0.167D-01 0.186D-01 0.136D-01 0.124D-01
 Coeff:     -0.148D+00 0.364D+00-0.611D+00 0.911D+00-0.250D+01 0.320D+01
 Coeff:     -0.372D+01 0.346D+01
 Gap=     0.050 Goal=   None    Shift=    0.400
 RMSDP=5.15D-08 MaxDP=3.76D-06 DE=-3.37D-10 OVMax= 8.38D-06

 Cycle  33  Pass 1  IDiag  1:
 E= -102.011409202372     Delta-E=       -0.000000000200 Rises=F Damp=F
 DIIS: error= 1.33D-06 at cycle  33 NSaved=  20.
 NSaved=20 IEnMin=20 EnMin= -102.011409202372     IErMin=20 ErrMin= 1.33D-06
 ErrMax= 1.33D-06  0.00D+00 EMaxC= 1.00D-01 BMatC= 9.77D-11 BMatP= 1.58D-10
 IDIUse=1 WtCom= 1.00D+00 WtEn= 0.00D+00
 Coeff-Com:  0.343D-02-0.103D-01 0.720D-02 0.108D-01-0.205D-01 0.172D-01
 Coeff-Com: -0.203D-01 0.136D-01 0.141D-01-0.876D-02-0.843D-02-0.499D-01
 Coeff-Com:  0.212D+00-0.323D+00 0.422D+00-0.973D+00 0.238D+01-0.479D+01
 Coeff-Com:  0.188D+01 0.225D+01
 Coeff:      0.343D-02-0.103D-01 0.720D-02 0.108D-01-0.205D-01 0.172D-01
 Coeff:     -0.203D-01 0.136D-01 0.141D-01-0.876D-02-0.843D-02-0.499D-01
 Coeff:      0.212D+00-0.323D+00 0.422D+00-0.973D+00 0.238D+01-0.479D+01
 Coeff:      0.188D+01 0.225D+01
 Gap=     0.050 Goal=   None    Shift=    0.400
 RMSDP=3.77D-08 MaxDP=2.97D-06 DE=-2.00D-10 OVMax= 6.37D-06

 Cycle  34  Pass 1  IDiag  1:
 E= -102.011409202490     Delta-E=       -0.000000000118 Rises=F Damp=F
 DIIS: error= 1.10D-06 at cycle  34 NSaved=  20.
 NSaved=20 IEnMin=20 EnMin= -102.011409202490     IErMin=20 ErrMin= 1.10D-06
 ErrMax= 1.10D-06  0.00D+00 EMaxC= 1.00D-01 BMatC= 6.51D-11 BMatP= 9.77D-11
 IDIUse=1 WtCom= 1.00D+00 WtEn= 0.00D+00
 Coeff-Com: -0.288D-02 0.603D-02 0.338D-02-0.134D-01 0.203D-01-0.140D-01
 Coeff-Com: -0.263D-01 0.244D-01 0.486D-01-0.832D-02-0.175D+00 0.240D+00
 Coeff-Com:  0.120D-03 0.500D-01-0.537D+00 0.124D+01-0.290D+01 0.164D+01
 Coeff-Com: -0.142D+01 0.283D+01
 Coeff:     -0.288D-02 0.603D-02 0.338D-02-0.134D-01 0.203D-01-0.140D-01
 Coeff:     -0.263D-01 0.244D-01 0.486D-01-0.832D-02-0.175D+00 0.240D+00
 Coeff:      0.120D-03 0.500D-01-0.537D+00 0.124D+01-0.290D+01 0.164D+01
 Coeff:     -0.142D+01 0.283D+01
 Gap=     0.050 Goal=   None    Shift=    0.400
 RMSDP=3.37D-08 MaxDP=2.52D-06 DE=-1.18D-10 OVMax= 4.55D-06

 Cycle  35  Pass 1  IDiag  1:
 E= -102.011409202572     Delta-E=       -0.000000000081 Rises=F Damp=F
 DIIS: error= 8.89D-07 at cycle  35 NSaved=  20.
 NSaved=20 IEnMin=20 EnMin= -102.011409202572     IErMin=20 ErrMin= 8.89D-07
 ErrMax= 8.89D-07  0.00D+00 EMaxC= 1.00D-01 BMatC= 4.18D-11 BMatP= 6.51D-11
 IDIUse=1 WtCom= 1.00D+00 WtEn= 0.00D+00
 Coeff-Com:  0.143D-03 0.354D-02-0.950D-02 0.228D-01-0.286D-01 0.405D-02
 Coeff-Com:  0.344D-02 0.493D-01 0.354D-02-0.206D+00 0.220D+00 0.656D-02
 Coeff-Com:  0.120D+00-0.779D+00 0.129D+01-0.181D+01 0.600D+00 0.551D+00
 Coeff-Com: -0.188D+01 0.284D+01
 Coeff:      0.143D-03 0.354D-02-0.950D-02 0.228D-01-0.286D-01 0.405D-02
 Coeff:      0.344D-02 0.493D-01 0.354D-02-0.206D+00 0.220D+00 0.656D-02
 Coeff:      0.120D+00-0.779D+00 0.129D+01-0.181D+01 0.600D+00 0.551D+00
 Coeff:     -0.188D+01 0.284D+01
 Gap=     0.050 Goal=   None    Shift=    0.400
 RMSDP=2.97D-08 MaxDP=3.13D-06 DE=-8.11D-11 OVMax= 3.68D-06

 Cycle  36  Pass 1  IDiag  1:
 E= -102.011409202622     Delta-E=       -0.000000000051 Rises=F Damp=F
 DIIS: error= 7.39D-07 at cycle  36 NSaved=  20.
 NSaved=20 IEnMin=20 EnMin= -102.011409202622     IErMin=20 ErrMin= 7.39D-07
 ErrMax= 7.39D-07  0.00D+00 EMaxC= 1.00D-01 BMatC= 2.74D-11 BMatP= 4.18D-11
 IDIUse=1 WtCom= 1.00D+00 WtEn= 0.00D+00
 Coeff-Com:  0.340D-02-0.821D-02 0.144D-01-0.151D-01 0.592D-04-0.201D-03
 Coeff-Com:  0.403D-01-0.133D-01-0.928D-01 0.128D+00-0.469D-01-0.361D-01
 Coeff-Com: -0.206D+00 0.781D+00-0.688D+00-0.395D+00 0.130D+01-0.300D+01
 Coeff-Com:  0.230D+00 0.300D+01
 Coeff:      0.340D-02-0.821D-02 0.144D-01-0.151D-01 0.592D-04-0.201D-03
 Coeff:      0.403D-01-0.133D-01-0.928D-01 0.128D+00-0.469D-01-0.361D-01
 Coeff:     -0.206D+00 0.781D+00-0.688D+00-0.395D+00 0.130D+01-0.300D+01
 Coeff:      0.230D+00 0.300D+01
 Gap=     0.050 Goal=   None    Shift=    0.400
 RMSDP=2.70D-08 MaxDP=2.19D-06 DE=-5.08D-11 OVMax= 2.63D-06

 Cycle  37  Pass 1  IDiag  1:
 E= -102.011409202654     Delta-E=       -0.000000000032 Rises=F Damp=F
 DIIS: error= 6.31D-07 at cycle  37 NSaved=  20.
 NSaved=20 IEnMin=20 EnMin= -102.011409202654     IErMin=20 ErrMin= 6.31D-07
 ErrMax= 6.31D-07  0.00D+00 EMaxC= 1.00D-01 BMatC= 1.80D-11 BMatP= 2.74D-11
 IDIUse=1 WtCom= 1.00D+00 WtEn= 0.00D+00
 Coeff-Com: -0.538D-02 0.214D-01-0.206D-01 0.248D-02-0.101D-01 0.258D-01
 Coeff-Com:  0.230D-01-0.685D-01 0.399D-01 0.190D-02-0.604D-02-0.116D+00
 Coeff-Com:  0.453D+00-0.380D+00-0.333D+00 0.925D+00-0.255D+01 0.156D+00
 Coeff-Com:  0.198D+01 0.868D+00
 Coeff:     -0.538D-02 0.214D-01-0.206D-01 0.248D-02-0.101D-01 0.258D-01
 Coeff:      0.230D-01-0.685D-01 0.399D-01 0.190D-02-0.604D-02-0.116D+00
 Coeff:      0.453D+00-0.380D+00-0.333D+00 0.925D+00-0.255D+01 0.156D+00
 Coeff:      0.198D+01 0.868D+00
 Gap=     0.050 Goal=   None    Shift=    0.400
 RMSDP=2.11D-08 MaxDP=1.98D-06 DE=-3.18D-11 OVMax= 2.07D-06

 Cycle  38  Pass 1  IDiag  1:
 E= -102.011409202675     Delta-E=       -0.000000000021 Rises=F Damp=F
 DIIS: error= 5.21D-07 at cycle  38 NSaved=  20.
 NSaved=20 IEnMin=20 EnMin= -102.011409202675     IErMin=20 ErrMin= 5.21D-07
 ErrMax= 5.21D-07  0.00D+00 EMaxC= 1.00D-01 BMatC= 1.18D-11 BMatP= 1.80D-11
 IDIUse=1 WtCom= 1.00D+00 WtEn= 0.00D+00
 Large coefficients: NSaved= 20 BigCof=    0.00 CofMax=   10.00 Det=-6.74D-15
 Inversion failed.  Reducing to 19 matrices.
 Large coefficients: NSaved= 19 BigCof=    0.00 CofMax=   10.00 Det=-7.25D-15
 Inversion failed.  Reducing to 18 matrices.
 Large coefficients: NSaved= 18 BigCof=    0.00 CofMax=   10.00 Det=-8.63D-15
 Inversion failed.  Reducing to 17 matrices.
 Large coefficients: NSaved= 17 BigCof=    0.00 CofMax=   10.00 Det=-8.84D-15
 Inversion failed.  Reducing to 16 matrices.
 Large coefficients: NSaved= 16 BigCof=    0.00 CofMax=   10.00 Det=-8.94D-15
 Inversion failed.  Reducing to 15 matrices.
 Coeff-Com:  0.170D-01-0.188D-01 0.815D-02-0.149D-02 0.101D-01-0.177D+00
 Coeff-Com:  0.284D-02 0.104D+01-0.654D+00-0.139D+00-0.154D+01-0.319D+00
 Coeff-Com:  0.346D+01-0.515D+01 0.446D+01
 Coeff:      0.170D-01-0.188D-01 0.815D-02-0.149D-02 0.101D-01-0.177D+00
 Coeff:      0.284D-02 0.104D+01-0.654D+00-0.139D+00-0.154D+01-0.319D+00
 Coeff:      0.346D+01-0.515D+01 0.446D+01
 Gap=     0.050 Goal=   None    Shift=    0.400
 RMSDP=2.33D-08 MaxDP=2.07D-06 DE=-2.07D-11 OVMax= 1.62D-06

 Cycle  39  Pass 1  IDiag  1:
 E= -102.011409202688     Delta-E=       -0.000000000013 Rises=F Damp=F
 DIIS: error= 4.19D-07 at cycle  39 NSaved=  16.
 NSaved=16 IEnMin=16 EnMin= -102.011409202688     IErMin=16 ErrMin= 4.19D-07
 ErrMax= 4.19D-07  0.00D+00 EMaxC= 1.00D-01 BMatC= 7.63D-12 BMatP= 1.18D-11
 IDIUse=1 WtCom= 1.00D+00 WtEn= 0.00D+00
 Large coefficients: NSaved= 16 BigCof=    0.00 CofMax=   10.00 Det=-9.00D-15
 Inversion failed.  Reducing to 15 matrices.
 Coeff-Com:  0.178D-01-0.517D-02-0.273D-01 0.203D-01-0.172D+00 0.906D-01
 Coeff-Com:  0.802D+00-0.545D+00 0.132D+00-0.167D+01-0.416D+00 0.366D+01
 Coeff-Com: -0.492D+01 0.310D+01 0.933D+00
 Coeff:      0.178D-01-0.517D-02-0.273D-01 0.203D-01-0.172D+00 0.906D-01
 Coeff:      0.802D+00-0.545D+00 0.132D+00-0.167D+01-0.416D+00 0.366D+01
 Coeff:     -0.492D+01 0.310D+01 0.933D+00
 Gap=     0.050 Goal=   None    Shift=    0.400
 RMSDP=1.66D-08 MaxDP=1.70D-06 DE=-1.34D-11 OVMax= 1.39D-06

 Cycle  40  Pass 1  IDiag  1:
 E= -102.011409202697     Delta-E=       -0.000000000009 Rises=F Damp=F
 DIIS: error= 3.43D-07 at cycle  40 NSaved=  16.
 NSaved=16 IEnMin=16 EnMin= -102.011409202697     IErMin=16 ErrMin= 3.43D-07
 ErrMax= 3.43D-07  0.00D+00 EMaxC= 1.00D-01 BMatC= 4.88D-12 BMatP= 7.63D-12
 IDIUse=1 WtCom= 1.00D+00 WtEn= 0.00D+00
 Large coefficients: NSaved= 16 BigCof=    0.00 CofMax=   10.00 Det=-9.41D-15
 Inversion failed.  Reducing to 15 matrices.
 Coeff-Com:  0.327D-01-0.708D-01 0.211D-01-0.821D-01 0.148D+00 0.216D+00
 Coeff-Com: -0.104D+00-0.241D+00-0.745D+00-0.215D+00 0.301D+01-0.287D+01
 Coeff-Com:  0.135D+01-0.322D+01 0.377D+01
 Coeff:      0.327D-01-0.708D-01 0.211D-01-0.821D-01 0.148D+00 0.216D+00
 Coeff:     -0.104D+00-0.241D+00-0.745D+00-0.215D+00 0.301D+01-0.287D+01
 Coeff:      0.135D+01-0.322D+01 0.377D+01
 Gap=     0.050 Goal=   None    Shift=    0.400
 RMSDP=1.25D-08 MaxDP=1.41D-06 DE=-8.95D-12 OVMax= 1.17D-06

 Cycle  41  Pass 1  IDiag  1:
 E= -102.011409202703     Delta-E=       -0.000000000006 Rises=F Damp=F
 DIIS: error= 2.73D-07 at cycle  41 NSaved=  16.
 NSaved=16 IEnMin=16 EnMin= -102.011409202703     IErMin=16 ErrMin= 2.73D-07
 ErrMax= 2.73D-07  0.00D+00 EMaxC= 1.00D-01 BMatC= 3.32D-12 BMatP= 4.88D-12
 IDIUse=1 WtCom= 1.00D+00 WtEn= 0.00D+00
 Large coefficients: NSaved= 16 BigCof=    0.00 CofMax=   10.00 Det=-5.75D-15
 Inversion failed.  Reducing to 15 matrices.
 Coeff-Com:  0.118D-01-0.599D-01 0.122D+00-0.856D-01 0.180D+00-0.223D+00
 Coeff-Com:  0.651D+00-0.157D+01-0.327D+00 0.198D+01-0.377D+00-0.117D-01
 Coeff-Com: -0.178D+01 0.159D+00 0.233D+01
 Coeff:      0.118D-01-0.599D-01 0.122D+00-0.856D-01 0.180D+00-0.223D+00
 Coeff:      0.651D+00-0.157D+01-0.327D+00 0.198D+01-0.377D+00-0.117D-01
 Coeff:     -0.178D+01 0.159D+00 0.233D+01
 Gap=     0.050 Goal=   None    Shift=    0.400
 RMSDP=8.39D-09 MaxDP=6.97D-07 DE=-6.08D-12 OVMax= 8.81D-07

 SCF Done:  E(ROHF) =  -102.011409203     A.U. after   41 cycles
            NFock= 41  Conv=0.84D-08     -V/T= 2.7464
 <Sx>= 0.0000 <Sy>= 0.0000 <Sz>= 2.0000 <S**2>= 6.0000 S= 2.0000
 <L.S>=  0.00000000000    
 KE= 5.841257156799D+01 PE=-3.021375992343D+02 EE= 1.075206294503D+02
 Annihilation of the first spin contaminant:
 S**2 before annihilation     6.0000,   after     6.0000
 Leave Link  502 at Wed Apr  4 07:32:48 2018, MaxMem= 10737418240 cpu:             571.9 elap:              36.0
 (Enter /home1/apps/gaussian/16rA.03/g16/l801.exe)
 Windowed orbitals will be sorted by symmetry type.
 GenMOA:  NOpAll=  4 NOp2=4 NOpUse=  4 JSym2X=1
 FoFJK:  IHMeth= 1 ICntrl=       0 DoSepK=F KAlg= 0 I1Cent=           0 FoldK=F
 IRaf=         0 NMat=       1 IRICut=       1 DoRegI=T DoRafI=F ISym2E= 1 IDoP0=0 IntGTp=1.
 FoFCou: FMM=F IPFlag=           8 FMFlag=      100000 FMFlg1=           0
         NFxFlg=           0 DoJE=F BraDBF=F KetDBF=F FulRan=T
         wScrn=  0.000000 ICntrl=         0 IOpCl=  1 I1Cent=           0 NGrid=           0
         NMat0=    1 NMatS0=      1 NMatT0=    0 NMatD0=    1 NMtDS0=    0 NMtDT0=    0
 Petite list used in FoFCou.
 <Sx>= 0.0000 <Sy>= 0.0000 <Sz>= 2.0000 <S**2>= 6.0000 S= 2.0000
 Range of M.O.s used for correlation:     1   246
 NBasis=   255 NAE=    12 NBE=     8 NFC=     0 NFV=     0
 NROrb=    246 NOA=    12 NOB=     8 NVA=   234 NVB=   238

 **** Warning!!: The largest alpha MO coefficient is  0.28876683D+03


 **** Warning!!: The largest beta MO coefficient is  0.28871871D+03

 Singles contribution to E2=   -0.5836268232D-02
 Leave Link  801 at Wed Apr  4 07:32:53 2018, MaxMem= 10737418240 cpu:             108.9 elap:               5.5
 (Enter /home1/apps/gaussian/16rA.03/g16/l804.exe)
 Open-shell transformation, MDV= 10737418240 ITran=4 ISComp=2.
 Unit  1 TFree=       1998778 TCopy=       1462078.
 Semi-Direct transformation.
 ModeAB=           4 MOrb=            12 LenV=   10735499023
 LASXX=     22190123 LTotXX=    22190123 LenRXX=    44765834
 LTotAB=    22575711 MaxLAS=   138221496 LenRXY=           0
 NonZer=    66955957 LenScr=   101190656 LnRSAI=   138221496
 LnScr1=   208145408 LExtra=     9510181 Total=    501833575
 MaxDsk= 67108864000 SrtSym=           T ITran=            4
 DoSDTr:  NPSUse= 20
 JobTyp=1 Pass  1:  I=   1 to  12.
 (rs|ai) integrals will be sorted in core.
 Complete sort for first half transformation.
 First half transformation complete.
 Begin second half transformation for I=  10.
 Complete sort for second half transformation.
 Second half transformation complete.
 ModeAB=           4 MOrb=             8 LenV=   10735499023
 LASXX=     15014998 LTotXX=    15014998 LenRXX=    28813258
 LTotAB=    13798260 MaxLAS=    92147664 LenRXY=           0
 NonZer=    43828256 LenScr=    66504192 LnRSAI=    92147664
 LnScr1=   138982400 LExtra=    54276015 Total=    380723529
 MaxDsk= 67108864000 SrtSym=           T ITran=            4
 DoSDTr:  NPSUse= 20
 JobTyp=2 Pass  1:  I=   1 to   8.
 (rs|ai) integrals will be sorted in core.
 Complete sort for first half transformation.
 First half transformation complete.
 Complete sort for second half transformation.
 Second half transformation complete.
 Spin components of T(2) and E(2):
     alpha-alpha T2 =       0.4104925829D-01 E2=     -0.1737410311D+00
     alpha-beta  T2 =       0.1200572295D+00 E2=     -0.6081028177D+00
     beta-beta   T2 =       0.2333649438D-01 E2=     -0.9801061351D-01
 ANorm=    0.1090006238D+01
 E2 =    -0.8856907306D+00 EUMP2 =    -0.10289709993329D+03
 (S**2,0)=  0.60000D+01           (S**2,1)=  0.60000D+01
 E(PUHF)=      -0.10201140920D+03        E(PMP2)=      -0.10289709993D+03
 Leave Link  804 at Wed Apr  4 07:34:56 2018, MaxMem= 10737418240 cpu:            2434.0 elap:             121.9
 (Enter /home1/apps/gaussian/16rA.03/g16/l913.exe)
 CIDS:  MDV= 10737418240.
 IFCWin=0 IBDFC=1 NFBD=     0     0 NFCmp=     0     0 NFFFC=     0     0
 Using original routines for 1st iteration.
 Using DD4UQ or CC4UQ for 2nd and later iterations.
 Keep R2 and R3 ints in memory in symmetry-blocked form, NReq=669181884.
 FoFCou: FMM=F IPFlag=           8 FMFlag=           0 FMFlg1=           0
         NFxFlg=           0 DoJE=F BraDBF=F KetDBF=F FulRan=T
         wScrn=  0.000000 ICntrl=       600 IOpCl=  0 I1Cent=           0 NGrid=           0
         NMat0=    1 NMatS0=  32640 NMatT0=    0 NMatD0=    1 NMtDS0=    0 NMtDT0=    0
 Petite list used in FoFCou.
 CIDS: In Core Option IDoMem=           1.
 CCSD(T)
 =======
 Iterations= 150 Convergence= 0.100D-06
 Produce multiple copies of IABC intergrals
 Iteration Nr.   1
 **********************
 DD1Dir will call FoFMem   1 times, MxPair=       286
 NAB=    96 NAA=    66 NBB=    28.
 DD1Dir will call FoFMem   1 times, MxPair=       286
 NAB=    96 NAA=    66 NBB=    28.
 MP4(R+Q)= -0.42954598D-01
 Maximum subspace dimension=  5
 A-vector RMS=  3.4792780D-04 Max=  2.9344180D-03 conv= 1.00D-05.
 RLE energy=       -0.8688924750
 E3=        0.59615218D-01        EROMP3=      -0.10283748472D+03
 E4(SDQ)=  -0.48311868D-01        ROMP4(SDQ)=  -0.10288579658D+03
 VARIATIONAL ENERGIES WITH THE FIRST-ORDER WAVEFUNCTION:
 DE(Corr)= -0.86856332     E(Corr)=     -102.87997252    
 NORM(A)=   0.10847997D+01
 Iteration Nr.   2
 **********************
 DD1Dir will call FoFMem   1 times, MxPair=       286
 NAB=    96 NAA=    66 NBB=    28.
 A-vector RMS=  4.9611911D-03 Max=  5.5745917D-02 conv= 1.00D-05.
 RLE energy=       -0.8521602791
 DE(Corr)= -0.80697719     E(CORR)=     -102.81838640     Delta= 6.16D-02
 NORM(A)=   0.10804322D+01
 Iteration Nr.   3
 **********************
 DD1Dir will call FoFMem   1 times, MxPair=       286
 NAB=    96 NAA=    66 NBB=    28.
 A-vector RMS=  3.1649385D-03 Max=  3.4955928D-02 conv= 1.00D-05.
 RLE energy=       -0.8564549377
 DE(Corr)= -0.82260481     E(CORR)=     -102.83401401     Delta=-1.56D-02
 NORM(A)=   0.10842995D+01
 Iteration Nr.   4
 **********************
 DD1Dir will call FoFMem   1 times, MxPair=       286
 NAB=    96 NAA=    66 NBB=    28.
 A-vector RMS=  2.7962785D-03 Max=  3.2057483D-02 conv= 1.00D-05.
 RLE energy=       -0.8503631328
 DE(Corr)= -0.83000694     E(CORR)=     -102.84141614     Delta=-7.40D-03
 NORM(A)=   0.11067526D+01
 Iteration Nr.   5
 **********************
 DD1Dir will call FoFMem   1 times, MxPair=       286
 NAB=    96 NAA=    66 NBB=    28.
 A-vector RMS=  9.4607466D-04 Max=  1.0934852D-02 conv= 1.00D-05.
 RLE energy=       -0.8552377550
 DE(Corr)= -0.86160435     E(CORR)=     -102.87301355     Delta=-3.16D-02
 NORM(A)=   0.11157109D+01
 Iteration Nr.   6
 **********************
 DD1Dir will call FoFMem   1 times, MxPair=       286
 NAB=    96 NAA=    66 NBB=    28.
 A-vector RMS=  3.9998313D-04 Max=  3.9605712D-03 conv= 1.00D-05.
 RLE energy=       -0.8560846984
 DE(Corr)= -0.86019306     E(CORR)=     -102.87160226     Delta= 1.41D-03
 NORM(A)=   0.11134705D+01
 Iteration Nr.   7
 **********************
 DD1Dir will call FoFMem   1 times, MxPair=       286
 NAB=    96 NAA=    66 NBB=    28.
 A-vector RMS=  1.1303443D-04 Max=  1.9067092D-03 conv= 1.00D-05.
 RLE energy=       -0.8558246180
 DE(Corr)= -0.85580355     E(CORR)=     -102.86721276     Delta= 4.39D-03
 NORM(A)=   0.11145330D+01
 Iteration Nr.   8
 **********************
 DD1Dir will call FoFMem   1 times, MxPair=       286
 NAB=    96 NAA=    66 NBB=    28.
 A-vector RMS=  6.6342267D-05 Max=  8.8042761D-04 conv= 1.00D-05.
 RLE energy=       -0.8559928034
 DE(Corr)= -0.85611746     E(CORR)=     -102.86752666     Delta=-3.14D-04
 NORM(A)=   0.11151179D+01
 Iteration Nr.   9
 **********************
 DD1Dir will call FoFMem   1 times, MxPair=       286
 NAB=    96 NAA=    66 NBB=    28.
 A-vector RMS=  3.2113330D-05 Max=  5.6715232D-04 conv= 1.00D-05.
 RLE energy=       -0.8560775487
 DE(Corr)= -0.85595940     E(CORR)=     -102.86736860     Delta= 1.58D-04
 NORM(A)=   0.11154740D+01
 Iteration Nr.  10
 **********************
 DD1Dir will call FoFMem   1 times, MxPair=       286
 NAB=    96 NAA=    66 NBB=    28.
 A-vector RMS=  1.4389779D-05 Max=  2.1616828D-04 conv= 1.00D-05.
 RLE energy=       -0.8560435176
 DE(Corr)= -0.85601702     E(CORR)=     -102.86742623     Delta=-5.76D-05
 NORM(A)=   0.11155101D+01
 Iteration Nr.  11
 **********************
 DD1Dir will call FoFMem   1 times, MxPair=       286
 NAB=    96 NAA=    66 NBB=    28.
 A-vector RMS=  5.6853740D-06 Max=  5.8717045D-05 conv= 1.00D-05.
 RLE energy=       -0.8560407323
 DE(Corr)= -0.85604037     E(CORR)=     -102.86744957     Delta=-2.33D-05
 NORM(A)=   0.11154973D+01
 Iteration Nr.  12
 **********************
 DD1Dir will call FoFMem   1 times, MxPair=       286
 NAB=    96 NAA=    66 NBB=    28.
 A-vector RMS=  3.3161596D-06 Max=  5.3877807D-05 conv= 1.00D-05.
 RLE energy=       -0.8560338275
 DE(Corr)= -0.85603244     E(CORR)=     -102.86744165     Delta= 7.93D-06
 NORM(A)=   0.11155024D+01
 Iteration Nr.  13
 **********************
 DD1Dir will call FoFMem   1 times, MxPair=       286
 NAB=    96 NAA=    66 NBB=    28.
 A-vector RMS=  1.2720295D-06 Max=  1.4303141D-05 conv= 1.00D-05.
 RLE energy=       -0.8560337120
 DE(Corr)= -0.85603506     E(CORR)=     -102.86744426     Delta=-2.61D-06
 NORM(A)=   0.11155021D+01
 Iteration Nr.  14
 **********************
 DD1Dir will call FoFMem   1 times, MxPair=       286
 NAB=    96 NAA=    66 NBB=    28.
 A-vector RMS=  1.1061312D-06 Max=  1.8241418D-05 conv= 1.00D-05.
 RLE energy=       -0.8560320255
 DE(Corr)= -0.85603216     E(CORR)=     -102.86744136     Delta= 2.90D-06
 NORM(A)=   0.11155075D+01
 Iteration Nr.  15
 **********************
 DD1Dir will call FoFMem   1 times, MxPair=       286
 NAB=    96 NAA=    66 NBB=    28.
 A-vector RMS=  4.1761781D-07 Max=  5.9753483D-06 conv= 1.00D-05.
 RLE energy=       -0.8560347783
 DE(Corr)= -0.85603481     E(CORR)=     -102.86744401     Delta=-2.65D-06
 NORM(A)=   0.11155110D+01
 Iteration Nr.  16
 **********************
 DD1Dir will call FoFMem   1 times, MxPair=       286
 NAB=    96 NAA=    66 NBB=    28.
 A-vector RMS=  2.9673410D-07 Max=  4.9781764D-06 conv= 1.00D-05.
 RLE energy=       -0.8560341733
 DE(Corr)= -0.85603388     E(CORR)=     -102.86744308     Delta= 9.31D-07
 NORM(A)=   0.11155144D+01
 Iteration Nr.  17
 **********************
 DD1Dir will call FoFMem   1 times, MxPair=       286
 NAB=    96 NAA=    66 NBB=    28.
 A-vector RMS=  2.0561182D-07 Max=  3.6577490D-06 conv= 1.00D-05.
 RLE energy=       -0.8560354107
 DE(Corr)= -0.85603524     E(CORR)=     -102.86744444     Delta=-1.36D-06
 NORM(A)=   0.11155169D+01
 Iteration Nr.  18
 **********************
 DD1Dir will call FoFMem   1 times, MxPair=       286
 NAB=    96 NAA=    66 NBB=    28.
 A-vector RMS=  1.0515680D-07 Max=  1.8875050D-06 conv= 1.00D-05.
 RLE energy=       -0.8560352342
 DE(Corr)= -0.85603499     E(CORR)=     -102.86744419     Delta= 2.56D-07
 NORM(A)=   0.11155179D+01
 Iteration Nr.  19
 **********************
 DD1Dir will call FoFMem   1 times, MxPair=       286
 NAB=    96 NAA=    66 NBB=    28.
 A-vector RMS=  6.6158702D-08 Max=  1.2239983D-06 conv= 1.00D-05.
 RLE energy=       -0.8560352629
 DE(Corr)= -0.85603528     E(CORR)=     -102.86744449     Delta=-2.97D-07
 NORM(A)=   0.11155184D+01
 Iteration Nr.  20
 **********************
 DD1Dir will call FoFMem   1 times, MxPair=       286
 NAB=    96 NAA=    66 NBB=    28.
 A-vector RMS=  4.1236141D-08 Max=  6.0891850D-07 conv= 1.00D-05.
 RLE energy=       -0.8560353137
 DE(Corr)= -0.85603530     E(CORR)=     -102.86744450     Delta=-1.89D-08
 NORM(A)=   0.11155185D+01
 CI/CC converged in   20 iterations to DelEn=-1.89D-08 Conv= 1.00D-07 ErrA1= 4.12D-08 Conv= 1.00D-05
 Wavefunction amplitudes converged. E(Corr)=     -102.86744450    
 Largest amplitude= 8.57D-02
 Time for triples=    16759.37 seconds.
 T4(CCSD)= -0.50787714D-01
 T5(CCSD)=  0.85585237D-02
 CCSD(T)= -0.10290967369D+03
 Discarding MO integrals.
 Leave Link  913 at Wed Apr  4 07:55:01 2018, MaxMem= 10737418240 cpu:           24064.6 elap:            1205.1
 (Enter /home1/apps/gaussian/16rA.03/g16/l601.exe)
 Copying SCF densities to generalized density rwf, IOpCl= 0 IROHF=1.

 **********************************************************************

            Population analysis using the SCF density.

 **********************************************************************

 Orbital symmetries:
       Occupied  (SG) (SG) (PI) (PI) (SG) (?A) (?A) (SG) (?B) (?B)
                 (?B) (?A)
       Virtual   (?A) (SG) (?A) (SG) (?A) (SG) (?A) (DLTA) (DLTA)
                 (?A) (?A) (SG) (SG) (?A) (SG) (?A) (?A) (?A) (?B)
                 (?B) (?B) (?A) (?A) (?B) (?A) (SG) (?C) (?C) (?C)
                 (PHI) (PHI) (?A) (?A) (SG) (?A) (?D) (?A) (?D)
                 (?D) (PI) (PI) (SG) (?E) (?E) (?A) (?A) (?E) (SG)
                 (?A) (?A) (SG) (DLTA) (DLTA) (PHI) (PHI) (?F)
                 (?F) (?F) (?F) (SG) (?G) (?G) (?G) (?H) (?H) (SG)
                 (?I) (?I) (?I) (?I) (DLTA) (DLTA) (PHI) (PHI)
                 (?J) (?J) (?J) (PI) (PI) (?J) (PI) (PI) (SG) (DLTA)
                 (DLTA) (PI) (PI) (SG) (SG) (PI) (PI) (?F) (?F)
                 (?K) (?K) (?K) (?F) (?F) (?L) (?L) (?L) (PI) (PI)
                 (PHI) (PHI) (SG) (PI) (PI) (SG) (?H) (?H) (PHI)
                 (PHI) (?L) (?L) (?L) (?L) (?L) (?L) (?L) (?L)
                 (PI) (PI) (PI) (PI) (PI) (PI) (SG) (SG) (PHI)
                 (PHI) (DLTA) (DLTA) (PI) (PI) (PI) (PI) (SG) (SG)
                 (PI) (PI) (SG) (DLTA) (DLTA) (PI) (PI) (SG) (SG)
                 (SG) (?L) (?L) (PHI) (PHI) (?L) (?L) (PI) (PI)
                 (SG) (PI) (PI) (SG) (DLTA) (DLTA) (PI) (PI) (SG)
                 (SG) (SG) (DLTA) (DLTA) (PI) (PI) (SG) (PI) (PI)
                 (SG) (PI) (PI) (SG) (SG) (SG) (DLTA) (DLTA) (PI)
                 (PI) (SG) (PI) (PI) (SG) (PI) (PI) (SG) (SG) (SG)
                 (PI) (PI) (SG) (SG) (SG) (PI) (PI) (SG) (DLTA)
                 (DLTA) (PI) (PI) (SG) (PI) (PI) (SG) (SG) (SG)
                 (PI) (PI) (SG) (SG) (SG) (PI) (PI) (SG) (SG) (SG)
                 (PI) (PI) (SG) (SG) (SG) (PI) (PI) (SG) (SG) (SG)
                 (SG) (SG)
 Unable to determine electronic state:  an orbital has unidentified symmetry.
 Alpha  occ. eigenvalues --   -3.74987  -2.44715  -2.43592  -2.40329  -1.25083
 Alpha  occ. eigenvalues --   -0.69300  -0.59638  -0.59571  -0.52205  -0.51755
 Alpha  occ. eigenvalues --   -0.36180  -0.26968
 Alpha virt. eigenvalues --    0.01396   0.02303   0.02423   0.02892   0.05333
 Alpha virt. eigenvalues --    0.06622   0.07261   0.07733   0.07737   0.07899
 Alpha virt. eigenvalues --    0.08677   0.09868   0.12240   0.17258   0.19474
 Alpha virt. eigenvalues --    0.23028   0.24412   0.25119   0.25651   0.26892
 Alpha virt. eigenvalues --    0.26917   0.29478   0.31196   0.31338   0.31552
 Alpha virt. eigenvalues --    0.36262   0.57051   0.62170   0.62180   0.63292
 Alpha virt. eigenvalues --    0.63293   0.68614   0.68754   0.69563   0.74257
 Alpha virt. eigenvalues --    0.75342   0.75392   0.83164   0.83198   0.89180
 Alpha virt. eigenvalues --    0.89444   0.89868   0.96888   0.96895   1.02729
 Alpha virt. eigenvalues --    1.04285   1.10380   1.33059   1.38385   1.39829
 Alpha virt. eigenvalues --    1.46233   1.81911   1.81920   1.91234   1.91236
 Alpha virt. eigenvalues --    1.97550   1.98947   2.04531   2.04533   2.14575
 Alpha virt. eigenvalues --    2.25443   2.25443   2.28758   2.30385   2.30385
 Alpha virt. eigenvalues --    2.31249   2.31733   2.32114   2.37275   2.37312
 Alpha virt. eigenvalues --    2.47280   2.47284   2.59985   2.59985   2.70177
 Alpha virt. eigenvalues --    2.74999   2.75133   2.84494   2.87810   2.96456
 Alpha virt. eigenvalues --    3.02332   3.02565   3.07375   3.25889   3.25898
 Alpha virt. eigenvalues --    3.39912   3.40233   3.86162   4.58887   4.87964
 Alpha virt. eigenvalues --    4.88498   5.35226   5.35228   5.47106   5.47163
 Alpha virt. eigenvalues --    5.52210   5.55013   5.56543   6.17950   6.31634
 Alpha virt. eigenvalues --    6.31648   6.38053   6.38257   6.46848   6.46848
 Alpha virt. eigenvalues --    6.59567   6.64431   6.65602   6.81990   6.86457
 Alpha virt. eigenvalues --    6.86457   6.95121   6.95121   7.13290   7.14594
 Alpha virt. eigenvalues --    7.14639   7.35655   7.35699   7.36656   7.37509
 Alpha virt. eigenvalues --    7.37562   7.53183   7.53357   7.85156   7.86046
 Alpha virt. eigenvalues --    8.15834   8.16400   9.05187   9.42399  14.64527
 Alpha virt. eigenvalues --   14.64528  14.72490  14.72499  14.89239  14.89969
 Alpha virt. eigenvalues --   15.20545  15.21006  15.27190  15.59687  15.77177
 Alpha virt. eigenvalues --   15.79355  15.92489  16.59310  16.59350  16.88908
 Alpha virt. eigenvalues --   16.89591  17.05736  17.20934  18.54987  18.83609
 Alpha virt. eigenvalues --   18.83609  18.84638  18.84638  18.92329  18.92331
 Alpha virt. eigenvalues --   19.12710  19.13656  19.37475  32.64777  32.67371
 Alpha virt. eigenvalues --   32.78359  34.53347  34.53363  34.72371  34.74277
 Alpha virt. eigenvalues --   35.21727  38.51770  39.14661  43.70415  43.70416
 Alpha virt. eigenvalues --   43.84963  43.85379  44.23342  45.85951  45.86782
 Alpha virt. eigenvalues --   46.89343  62.30812  62.33445  62.54207  74.75516
 Alpha virt. eigenvalues --   81.76960  85.23326  85.23329  85.38481  85.40195
 Alpha virt. eigenvalues --   85.85700 116.23921 116.26138 116.42026 119.17560
 Alpha virt. eigenvalues --  119.18283 120.00534 137.01146 151.21232 218.47042
 Alpha virt. eigenvalues --  218.48692 218.63173 257.74025 266.33895 286.43491
 Alpha virt. eigenvalues --  286.43937 287.20774 312.52271 312.52274 312.62761
 Alpha virt. eigenvalues --  312.63486 312.88821 423.48321 423.49405 423.64515
 Alpha virt. eigenvalues --  492.88100 555.24516 863.78869 863.79485 863.94181
 Alpha virt. eigenvalues --  958.615871529.759431895.090861895.093861895.23162
 Alpha virt. eigenvalues -- 1961.146354231.411314601.764654601.765884601.89086
 Alpha virt. eigenvalues -- 5659.898249657.19604******************************
 Alpha virt. eigenvalues -- ****************************************
     Molecular Orbital Coefficients:
                           1         2         3         4         5
                           O         O         O         O         O
     Eigenvalues --    -3.74987  -2.44715  -2.43592  -2.40329  -1.25083
   1 1   Cr 1S          0.00000  -0.00000   0.00000   0.00000   0.00000
   2        2S         -0.00000   0.00000   0.00000   0.00000  -0.00000
   3        3S          0.00002  -0.00000   0.00000   0.00000   0.00000
   4        4S         -0.00007   0.00001   0.00000   0.00000  -0.00001
   5        5S          0.00022  -0.00003   0.00000   0.00000   0.00004
   6        6S         -0.00066   0.00009   0.00000   0.00000  -0.00011
   7        7S          0.00190  -0.00025   0.00000   0.00000   0.00032
   8        8S         -0.00543   0.00069   0.00000   0.00000  -0.00091
   9        9S          0.01704  -0.00200   0.00000   0.00000   0.00284
  10       10S         -0.07932   0.00861   0.00000   0.00000  -0.01337
  11       11S          0.07820  -0.01346   0.00000   0.00000   0.01579
  12       12S          0.92488   0.00307   0.00000   0.00000   0.13001
  13       13S         -0.23014   0.04724   0.00000   0.00000  -0.05081
  14       14S         -0.62394   0.01287   0.00000   0.00000  -0.10948
  15       15S         -0.24511   0.06783   0.00000   0.00000  -0.07753
  16       16S          0.00119   0.02208   0.00000   0.00000  -0.01778
  17       17S          0.00167   0.00521   0.00000   0.00000  -0.00537
  18       18S         -0.54773  -0.04482   0.00000   0.00000  -0.06583
  19       19S         -0.12766   0.02599   0.00000   0.00000  -0.03488
  20       20S         -0.00024  -0.00110   0.00000   0.00000   0.00063
  21       21PX         0.00000   0.00000   0.00000  -0.00000   0.00000
  22       21PY         0.00000   0.00000  -0.00000   0.00000   0.00000
  23       21PZ        -0.00000  -0.00000   0.00000   0.00000  -0.00000
  24       22PX         0.00000   0.00000   0.00000   0.00001   0.00000
  25       22PY         0.00000   0.00000   0.00001   0.00000   0.00000
  26       22PZ         0.00000   0.00001   0.00000   0.00000   0.00000
  27       23PX         0.00000   0.00000   0.00000  -0.00005   0.00000
  28       23PY         0.00000   0.00000  -0.00005   0.00000   0.00000
  29       23PZ        -0.00000  -0.00005   0.00000   0.00000  -0.00002
  30       24PX         0.00000   0.00000   0.00000   0.00019   0.00000
  31       24PY         0.00000   0.00000   0.00019   0.00000   0.00000
  32       24PZ         0.00002   0.00020   0.00000   0.00000   0.00007
  33       25PX         0.00000   0.00000   0.00000  -0.00069   0.00000
  34       25PY         0.00000   0.00000  -0.00069   0.00000   0.00000
  35       25PZ        -0.00006  -0.00070   0.00000   0.00000  -0.00023
  36       26PX         0.00000   0.00000   0.00000   0.00231   0.00000
  37       26PY         0.00000   0.00000   0.00231   0.00000   0.00000
  38       26PZ         0.00021   0.00234   0.00000   0.00000   0.00080
  39       27PX         0.00000   0.00000   0.00000   0.00512   0.00000
  40       27PY         0.00000   0.00000   0.00516   0.00000   0.00000
  41       27PZ        -0.00015   0.00420   0.00000   0.00000   0.00186
  42       28PX         0.00000   0.00000   0.00000  -0.10371   0.00000
  43       28PY         0.00000   0.00000  -0.10371   0.00000   0.00000
  44       28PZ        -0.00238  -0.09346   0.00000   0.00000  -0.03784
  45       29PX         0.00000   0.00000   0.00000   0.01614   0.00000
[...]
 255       27F-3        0.00000   0.00000   0.00000   0.00000
          Condensed to atoms (all electrons):
               1          2
     1  Cr  12.993157   0.101545
     2  O    0.101545   6.803753
          Atomic-Atomic Spin Densities.
               1          2
     1  Cr   3.756311   0.012421
     2  O    0.012421   0.218846
 Mulliken charges and spin densities:
               1          2
     1  Cr   0.905298   3.768733
     2  O   -0.905298   0.231267
 Sum of Mulliken charges =  -0.00000   4.00000
 Mulliken charges and spin densities with hydrogens summed into heavy atoms:
               1          2
     1  Cr   0.905298   3.768733
     2  O   -0.905298   0.231267
 Electronic spatial extent (au):  <R**2>=             73.4975
 Charge=             -0.0000 electrons
 Dipole moment (field-independent basis, Debye):
    X=              0.0000    Y=              0.0000    Z=              1.8211  Tot=              1.8211
 Quadrupole moment (field-independent basis, Debye-Ang):
   XX=            -21.2235   YY=            -19.6724   ZZ=            -23.4618
   XY=              0.0000   XZ=              0.0000   YZ=              0.0000
 Traceless Quadrupole moment (field-independent basis, Debye-Ang):
   XX=              0.2291   YY=              1.7802   ZZ=             -2.0093
   XY=              0.0000   XZ=              0.0000   YZ=              0.0000
 Octapole moment (field-independent basis, Debye-Ang**2):
  XXX=              0.0000  YYY=              0.0000  ZZZ=             -2.2024  XYY=              0.0000
  XXY=              0.0000  XXZ=             -1.8695  XZZ=              0.0000  YZZ=              0.0000
  YYZ=             -1.2150  XYZ=              0.0000
 Hexadecapole moment (field-independent basis, Debye-Ang**3):
 XXXX=            -36.2036 YYYY=            -30.9795 ZZZZ=            -84.7767 XXXY=              0.0000
 XXXZ=              0.0000 YYYX=              0.0000 YYYZ=              0.0000 ZZZX=              0.0000
 ZZZY=              0.0000 XXYY=            -11.1953 XXZZ=            -21.2501 YYZZ=            -19.1291
 XXYZ=              0.0000 YYXZ=              0.0000 ZZXY=              0.0000
 N-N= 3.419298901329D+01 E-N=-3.021375995058D+02  KE= 5.841257156799D+01
 Symmetry A1   KE= 2.564920468004D+01
 Symmetry A2   KE= 5.485188076668D+00
 Symmetry B1   KE= 1.614041335887D+01
 Symmetry B2   KE= 1.113776545170D+01
 Symmetry A1   SP= 2.000000000000D+00
 Symmetry A2   SP= 1.000000000000D+00
 Symmetry B1   SP= 1.000000000000D+00
 Symmetry B2   SP= 4.212471366718D-16
 Orbital energies and kinetic energies (alpha):
                                 1                 2
   1         O                -3.749866          1.869056
   2         O                -2.447146          2.808371
   3         O                -2.435916          3.091884
   4         O                -2.403292          3.086049
   5         O                -1.250827          1.569693
   6         O                -0.692996          2.435595
   7         O                -0.596385          2.476999
   8         O                -0.595706          3.538631
   9         O                -0.522052          1.443791
  10         O                -0.517551          5.485188
  11         O                -0.361796          4.633912
  12         O                -0.269677          5.097125
  13         V                 0.013961          0.091590
  14         V                 0.023032          0.070703
  15         V                 0.024229          0.077117
  16         V                 0.028921          0.037287
  17         V                 0.053326          0.301000
  18         V                 0.066225          0.151553
  19         V                 0.072612          0.116532
  20         V                 0.077334          0.095360
  21         V                 0.077369          0.094978
  22         V                 0.078988          0.137872
  23         V                 0.086766          0.403768
  24         V                 0.098678          0.309049
  25         V                 0.122402          0.474992
  26         V                 0.172576          1.509222
  27         V                 0.194745          0.625747
  28         V                 0.230284          0.333409
  29         V                 0.244121          0.423516
  30         V                 0.251191          0.748626
  31         V                 0.256513          0.368179
  32         V                 0.268920          0.563502
  33         V                 0.269172          0.561287
  34         V                 0.294783          2.254308
  35         V                 0.311964          0.492953
  36         V                 0.313377          1.408203
  37         V                 0.315520          1.571474
  38         V                 0.362624          0.547978
  39         V                 0.570510          2.281895
  40         V                 0.621701          0.754653
  41         V                 0.621799          0.756125
  42         V                 0.632920          0.751637
  43         V                 0.632932          0.751684
  44         V                 0.686139          0.976557
  45         V                 0.687538          1.080501
  46         V                 0.695629          0.964854
  47         V                 0.742570          1.473020
  48         V                 0.753420          1.674991
  49         V                 0.753916          1.586743
  50         V                 0.831643          1.507525
  51         V                 0.831981          1.509883
  52         V                 0.891800          1.222320
  53         V                 0.894437          1.321663
  54         V                 0.898678          1.127385
  55         V                 0.968879          1.877187
  56         V                 0.968945          1.877474
  57         V                 1.027290          2.195635
  58         V                 1.042852          2.338822
  59         V                 1.103800          3.340495
  60         V                 1.330592          2.025457
  61         V                 1.383855          2.195724
  62         V                 1.398289          2.423704
  63         V                 1.462325          2.053194
  64         V                 1.819111          2.522047
  65         V                 1.819198          2.521992
  66         V                 1.912343          2.502728
  67         V                 1.912361          2.502657
  68         V                 1.975505          2.969890
  69         V                 1.989470          2.983303
  70         V                 2.045313          2.399212
  71         V                 2.045331          2.399192
  72         V                 2.145754          3.024889
  73         V                 2.254432          2.829320
  74         V                 2.254432          2.828176
  75         V                 2.287579          3.474676
  76         V                 2.303855          2.651433
  77         V                 2.303855          2.651444
  78         V                 2.312493          2.976051
  79         V                 2.317332          3.431786
  80         V                 2.321144          3.341247
  81         V                 2.372753          3.157866
  82         V                 2.373116          3.249449
  83         V                 2.472802          2.865577
  84         V                 2.472844          2.865541
  85         V                 2.599848          2.879050
  86         V                 2.599848          2.879081
  87         V                 2.701770          4.941558
  88         V                 2.749991          6.285646
  89         V                 2.751329          6.260421
  90         V                 2.844945          5.871417
  91         V                 2.878097          6.054567
  92         V                 2.964557          4.041766
  93         V                 3.023316          3.758717
  94         V                 3.025649          3.732781
  95         V                 3.073748          3.968280
  96         V                 3.258893          4.145452
  97         V                 3.258983          4.145655
  98         V                 3.399120          5.789823
  99         V                 3.402329          5.727980
 100         V                 3.861623          6.840874
 101         V                 4.588870          7.299291
 102         V                 4.879639          7.743562
 103         V                 4.884984          7.728587
 104         V                 5.352256          8.258549
 105         V                 5.352283          8.258578
 106         V                 5.471063          8.263828
 107         V                 5.471631          8.264544
 108         V                 5.522103          7.553424
 109         V                 5.550135          8.048434
 110         V                 5.565427          8.047253
 111         V                 6.179501          7.846957
 112         V                 6.316345          7.563728
 113         V                 6.316481          7.564196
 114         V                 6.380527          8.424837
 115         V                 6.382572          8.411211
 116         V                 6.468480          7.467665
 117         V                 6.468481          7.467729
 118         V                 6.595665          8.886828
 119         V                 6.644312          9.359641
 120         V                 6.656022          9.366276
 121         V                 6.819899          8.699602
 122         V                 6.864571          8.463597
 123         V                 6.864571          8.463591
 124         V                 6.951212          8.510771
 125         V                 6.951212          8.510814
 126         V                 7.132897         10.616229
 127         V                 7.145944          9.901342
 128         V                 7.146389         11.339556
 129         V                 7.356545         10.219779
 130         V                 7.356991          9.260775
 131         V                 7.366556          9.437903
 132         V                 7.375087         14.515428
 133         V                 7.375618         14.533565
 134         V                 7.531827         11.454160
 135         V                 7.533568         11.443434
 136         V                 7.851557         13.450466
 137         V                 7.860463         13.388024
 138         V                 8.158336          9.989177
 139         V                 8.163999          9.992075
 140         V                 9.051867         11.692126
 141         V                 9.423991         13.997899
 142         V                14.645266         23.222565
 143         V                14.645280         23.222561
 144         V                14.724900         23.291823
 145         V                14.724991         23.291792
 146         V                14.892394         23.344387
 147         V                14.899694         23.337949
 148         V                15.205453         23.104220
 149         V                15.210062         23.103047
 150         V                15.271905         22.331052
 151         V                15.596873         19.258087
 152         V                15.771772         19.288335
 153         V                15.793546         19.280693
 154         V                15.924887         21.487093
 155         V                16.593099         28.202956
 156         V                16.593500         28.213277
 157         V                16.889079         28.122760
 158         V                16.895914         28.107873
 159         V                17.057363         19.404469
 160         V                17.209343         24.861084
 161         V                18.549871         23.692967
 162         V                18.836095         25.010330
 163         V                18.836095         25.010330
 164         V                18.846378         25.035280
 165         V                18.846380         25.035259
 166         V                18.923287         25.116664
 167         V                18.923307         25.116550
 168         V                19.127100         25.335022
 169         V                19.136565         25.334429
 170         V                19.374749         25.568380
 171         V                32.647769         35.222064
 172         V                32.673707         35.222545
 173         V                32.783595         36.462685
 174         V                34.533467         54.275089
 175         V                34.533627         54.276063
 176         V                34.723709         54.342728
 177         V                34.742767         54.331485
 178         V                35.217270         52.775761
 179         V                38.517699         32.865636
 180         V                39.146611         36.570583
 181         V                43.704152         58.228742
 182         V                43.704161         58.228741
 183         V                43.849634         58.357988
 184         V                43.853789         58.357770
 185         V                44.233418         58.679096
 186         V                45.859512         59.324981
 187         V                45.867823         59.324031
 188         V                46.893431         59.885812
 189         V                62.308116         61.226041
 190         V                62.334450         61.225471
 191         V                62.542065         61.535693
 192         V                74.755163         61.553712
 193         V                81.769597         58.490164
 194         V                85.233261        127.623597
 195         V                85.233291        127.624511
 196         V                85.384814        127.773390
 197         V                85.401950        127.766699
 198         V                85.857003        127.132568
 199         V               116.239212        107.530443
 200         V               116.261379        107.531957
 201         V               116.420257        107.903820
 202         V               119.175604        139.211979
 203         V               119.182829        139.211046
 204         V               120.005345        139.744329
 205         V               137.011456        118.771061
 206         V               151.212316         93.203408
 207         V               218.470424        200.906172
 208         V               218.486923        200.907417
 209         V               218.631734        201.091634
 210         V               257.740246        232.008074
 211         V               266.338953        191.185539
 212         V               286.434907        314.724855
 213         V               286.439371        314.724623
 214         V               287.207740        315.408053
 215         V               312.522706        394.220045
 216         V               312.522736        394.220020
 217         V               312.627608        394.326843
 218         V               312.634857        394.325857
 219         V               312.888207        394.538709
 220         V               423.483210        397.355975
 221         V               423.494050        397.356533
 222         V               423.645150        397.532722
 223         V               492.880999        403.048382
 224         V               555.245161        520.525494
 225         V               863.788690        830.687972
 226         V               863.794849        830.688123
 227         V               863.941809        830.847437
 228         V               958.615867        854.286002
 229         V              1529.759435       1488.782735
 230         V              1895.090864       1857.557968
 231         V              1895.093863       1857.557996
 232         V              1895.231618       1857.699739
 233         V              1961.146347       1845.816317
 234         V              4231.411315       4109.198353
 235         V              4601.764647       4561.976139
 236         V              4601.765885       4561.976143
 237         V              4601.890862       4562.103634
 238         V              5659.898242       5616.237099
 239         V              9657.196043       9531.236651
 240         V             13179.118872      13138.370389
 241         V             13179.119275      13138.370389
 242         V             13179.222948      13138.474887
 243         V             23474.533662      23346.728025
 244         V             31586.446207      31541.962317
 245         V             61785.854173      61657.209086
 246         V            184804.319156     184675.319314
 Total kinetic energy from orbitals= 7.507258801937D+01
                          Isotropic Fermi Contact Couplings
        Atom                 a.u.       MegaHertz       Gauss      10(-4) cm-1
     1  Cr(53)             0.00006      -0.00397      -0.00142      -0.00132
     2  O(17)              0.00007      -0.01031      -0.00368      -0.00344
 --------------------------------------------------------
       Center         ----  Spin Dipole Couplings  ----
                      3XX-RR        3YY-RR        3ZZ-RR
 --------------------------------------------------------
     1   Atom        2.455885      0.121371     -2.577255
     2   Atom        0.144846     -0.310962      0.166116
 --------------------------------------------------------
                        XY            XZ            YZ
 --------------------------------------------------------
     1   Atom        0.000000      0.000000      0.000000
     2   Atom        0.000000      0.000000      0.000000
 --------------------------------------------------------


 ---------------------------------------------------------------------------------
              Anisotropic Spin Dipole Couplings in Principal Axis System
 ---------------------------------------------------------------------------------

       Atom             a.u.   MegaHertz   Gauss  10(-4) cm-1        Axes

              Baa    -2.5773    77.882    27.790    25.979  0.0000  0.0000  1.0000
     1 Cr(53) Bbb     0.1214    -3.668    -1.309    -1.223 -0.0000  1.0000  0.0000
              Bcc     2.4559   -74.215   -26.482   -24.755  1.0000  0.0000  0.0000
 
              Baa    -0.3110    22.501     8.029     7.506 -0.0000  1.0000  0.0000
     2 O(17)  Bbb     0.1448   -10.481    -3.740    -3.496  1.0000  0.0000  0.0000
              Bcc     0.1661   -12.020    -4.289    -4.009  0.0000  0.0000  1.0000
 

 ---------------------------------------------------------------------------------

 No NMR shielding tensors so no spin-rotation constants.
 Leave Link  601 at Wed Apr  4 07:55:10 2018, MaxMem= 10737418240 cpu:              89.4 elap:               4.7
 (Enter /home1/apps/gaussian/16rA.03/g16/l9999.exe)

 Test job not archived.
 1\1\GINC-C403-053\SP\ROCCSD(T)-Full\Gen\Cr1O1(5)\AANNABE\04-Apr-2018\0
 \\#P ROCCSD(T)=(maxcyc=150, Full, SaveAmplitudes, ReadAmplitudes)/Gen 
 5d 7f SCF=(maxcycles=300, VShift=400) Integral(NoXCTest) MaxDisk=500GB
  Pop=Full Pseudo=Read Guess=Read IOp(5/15=2)\\CrO\\0,5\Cr,0,0.,0.,0.\O
 ,0,0.,0.,1.3\\Version=ES64L-G16RevA.03\HF=-102.0114092\MP2=-102.897099
 9\MP3=-102.8374847\PUHF=-102.0114092\PMP2-0=-102.8970999\MP4SDQ=-102.8
 857966\CCSD=-102.8674445\CCSD(T)=-102.9096737\RMSD=8.388e-09\PG=C*V [C
 *(O1Cr1)]\\@


 A MAN IS NEVER SO BRILLIANT AS WHEN HE TAKES THE WORDS RIGHT OUT
 OF YOUR MOUTH. -- ARNOT SHEPPARD, JR.
 Job cpu time:       0 days  7 hours 35 minutes 17.3 seconds.
 Elapsed time:       0 days  0 hours 22 minutes 56.0 seconds.
 File lengths (MBytes):  RWF=   3834 Int=      0 D2E=      0 Chk=     23 Scr=      1
 Normal termination of Gaussian 16 at Wed Apr  4 07:55:10 2018.
