 Entering Gaussian System, Link 0=g16
 Initial command:
 /home1/apps/gaussian/16rA.03/g16/l1.exe "/tmp/Gau-35176.inp" -scrdir="/tmp/"
 Entering Link 1 = /home1/apps/gaussian/16rA.03/g16/l1.exe PID=     35177.
  
 Copyright (c) 1988,1990,1992,1993,1995,1998,2003,2009,2016,
            Gaussian, Inc.  All Rights Reserved.
  
 This is part of the Gaussian(R) 16 program.  It is based on
 the Gaussian(R) 09 system (copyright 2009, Gaussian, Inc.),
 the Gaussian(R) 03 system (copyright 2003, Gaussian, Inc.),
 the Gaussian(R) 98 system (copyright 1998, Gaussian, Inc.),
 the Gaussian(R) 94 system (copyright 1995, Gaussian, Inc.),
 the Gaussian 92(TM) system (copyright 1992, Gaussian, Inc.),
 the Gaussian 90(TM) system (copyright 1990, Gaussian, Inc.),
 the Gaussian 88(TM) system (copyright 1988, Gaussian, Inc.),
 the Gaussian 86(TM) system (copyright 1986, Carnegie Mellon
 University), and the Gaussian 82(TM) system (copyright 1983,
 Carnegie Mellon University). Gaussian is a federally registered
 trademark of Gaussian, Inc.
  
 This software contains proprietary and confidential information,
 including trade secrets, belonging to Gaussian, Inc.
  
 This software is provided under written license and may be
 used, copied, transmitted, or stored only in accord with that
 written license.
  
 The following legend is applicable only to US Government
 contracts under FAR:
  
                    RESTRICTED RIGHTS LEGEND
  
 Use, reproduction and disclosure by the US Government is
 subject to restrictions as set forth in subparagraphs (a)
 and (c) of the Commercial Computer Software - Restricted
 Rights clause in FAR 52.227-19.
  
 Gaussian, Inc.
 340 Quinnipiac St., Bldg. 40, Wallingford CT 06492
  
  
 ---------------------------------------------------------------
 Warning -- This program may not be used in any manner that
 competes with the business of Gaussian, Inc. or will provide
 assistance to any competitor of Gaussian, Inc.  The licensee
 of this program is prohibited from giving any competitor of
 Gaussian, Inc. access to this program.  By using this program,
 the user acknowledges that Gaussian, Inc. is engaged in the
 business of creating and licensing software in the field of
 computational chemistry and represents and warrants to the
 licensee that it is not a competitor of Gaussian, Inc. and that
 it will not use this program in any manner prohibited above.
 ---------------------------------------------------------------
  

 Cite this work as:
 Gaussian 16, Revision A.03,
 M. J. Frisch, G. W. Trucks, H. B. Schlegel, G. E. Scuseria, 
 M. A. Robb, J. R. Cheeseman, G. Scalmani, V. Barone, 
 G. A. Petersson, H. Nakatsuji, X. Li, M. Caricato, A. V. Marenich, 
 J. Bloino, B. G. Janesko, R. Gomperts, B. Mennucci, H. P. Hratchian, 
 J. V. Ortiz, A. F. Izmaylov, J. L. Sonnenberg, D. Williams-Young, 
 F. Ding, F. Lipparini, F. Egidi, J. Goings, B. Peng, A. Petrone, 
 T. Henderson, D. Ranasinghe, V. G. Zakrzewski, J. Gao, N. Rega, 
 G. Zheng, W. Liang, M. Hada, M. Ehara, K. Toyota, R. Fukuda, 
 J. Hasegawa, M. Ishida, T. Nakajima, Y. Honda, O. Kitao, H. Nakai, 
 T. Vreven, K. Throssell, J. A. Montgomery, Jr., J. E. Peralta, 
 F. Ogliaro, M. J. Bearpark, J. J. Heyd, E. N. Brothers, K. N. Kudin, 
 V. N. Staroverov, T. A. Keith, R. Kobayashi, J. Normand, 
 K. Raghavachari, A. P. Rendell, J. C. Burant, S. S. Iyengar, 
 J. Tomasi, M. Cossi, J. M. Millam, M. Klene, C. Adamo, R. Cammi, 
 J. W. Ochterski, R. L. Martin, K. Morokuma, O. Farkas, 
 J. B. Foresman, and D. J. Fox, Gaussian, Inc., Wallingford CT, 2016.
 
 ******************************************
 Gaussian 16:  ES64L-G16RevA.03 25-Dec-2016
                24-Mar-2018 
 ******************************************
 %mem=80GB
 %chk=tz.chk
 %cpu=0-31
 SetSPE:  set environment variable "MP_BIND" = "yes"
 SetSPE:  set environment variable "MP_BLIST" = "0,1,2,3,4,5,6,7,8,9,10,11,12,13,14,15,16,17,18,19,20,21,22,23,24,25,26,27,28,29,30,31"
 Will use up to   32 processors via shared memory.
 ----------------------------------------------------------------------
 #P ROCCSD(T)=(MaxCyc=150, Full)/Gen SCF=(maxcycle=400) Pseudo=Read Int
 egral(NoXCTest) Pop=Regular MaxDisk=500GB Guess=Read
 ----------------------------------------------------------------------
 1/38=1,172=1/1;
 2/12=2,17=6,18=5,40=1/2;
 3/5=7,11=2,16=1,17=8,25=1,30=1,47=8,116=101/1,2,3;
 4/5=1/1;
 5/5=2,7=400,38=6/2;
 8/5=-1,6=4,9=120000,10=90/1,4;
 9/5=7,6=150,14=2/13;
 6//1;
 99/5=1,9=1/99;
 Leave Link    1 at Sat Mar 24 00:25:32 2018, MaxMem= 10737418240 cpu:               7.8 elap:               0.3
 (Enter /home1/apps/gaussian/16rA.03/g16/l101.exe)
 --
 Fe
 --
 Symbolic Z-matrix:
 Charge =  0 Multiplicity = 5
 Fe                    0.        0.        0. 
 
 ITRead=  0
 MicOpt= -1
 NAtoms=      1 NQM=        1 NQMF=       0 NMMI=      0 NMMIF=      0
                NMic=       0 NMicF=      0.
                    Isotopes and Nuclear Properties:
 (Nuclear quadrupole moments (NQMom) in fm**2, nuclear magnetic moments (NMagM)
  in nuclear magnetons)

  Atom         1
 IAtWgt=          56
 AtmWgt=  55.9349393
 NucSpn=           0
 AtZEff=  -0.0000000
 NQMom=    0.0000000
 NMagM=    0.0000000
 AtZNuc=  26.0000000
 Leave Link  101 at Sat Mar 24 00:25:32 2018, MaxMem= 10737418240 cpu:               3.3 elap:               0.1
 (Enter /home1/apps/gaussian/16rA.03/g16/l202.exe)
                          Input orientation:                          
 ---------------------------------------------------------------------
 Center     Atomic      Atomic             Coordinates (Angstroms)
 Number     Number       Type             X           Y           Z
 ---------------------------------------------------------------------
      1         26           0        0.000000    0.000000    0.000000
 ---------------------------------------------------------------------
 Stoichiometry    Fe(5)
 Framework group  OH[O(Fe)]
 Deg. of freedom     0
 Full point group                 OH      NOp  48
 Largest Abelian subgroup         D2H     NOp   8
 Largest concise Abelian subgroup C1      NOp   1
                         Standard orientation:                         
 ---------------------------------------------------------------------
 Center     Atomic      Atomic             Coordinates (Angstroms)
 Number     Number       Type             X           Y           Z
 ---------------------------------------------------------------------
      1         26           0        0.000000    0.000000    0.000000
 ---------------------------------------------------------------------
 Leave Link  202 at Sat Mar 24 00:25:33 2018, MaxMem= 10737418240 cpu:               1.2 elap:               0.1
 (Enter /home1/apps/gaussian/16rA.03/g16/l301.exe)
 General basis read from cards:  (5D, 7F)
 Centers:       1
 S 1 1.00
     Exponent=  4.3162650000D+06 Coefficients=  1.0000000000D+00
 S 1 1.00
     Exponent=  6.4634240000D+05 Coefficients=  1.0000000000D+00
 S 1 1.00
     Exponent=  1.4708970000D+05 Coefficients=  1.0000000000D+00
 S 1 1.00
     Exponent=  4.1661520000D+04 Coefficients=  1.0000000000D+00
 S 1 1.00
     Exponent=  1.3590770000D+04 Coefficients=  1.0000000000D+00
 S 1 1.00
     Exponent=  4.9057500000D+03 Coefficients=  1.0000000000D+00
 S 1 1.00
     Exponent=  1.9127460000D+03 Coefficients=  1.0000000000D+00
 S 1 1.00
     Exponent=  7.9260430000D+02 Coefficients=  1.0000000000D+00
 S 1 1.00
     Exponent=  3.4480650000D+02 Coefficients=  1.0000000000D+00
 S 1 1.00
     Exponent=  1.5589990000D+02 Coefficients=  1.0000000000D+00
 S 1 1.00
     Exponent=  7.2230910000D+01 Coefficients=  1.0000000000D+00
 S 1 1.00
     Exponent=  3.2725060000D+01 Coefficients=  1.0000000000D+00
 S 1 1.00
     Exponent=  1.5667620000D+01 Coefficients=  1.0000000000D+00
 S 1 1.00
     Exponent=  7.5034830000D+00 Coefficients=  1.0000000000D+00
 S 1 1.00
     Exponent=  3.3122230000D+00 Coefficients=  1.0000000000D+00
 S 1 1.00
     Exponent=  1.5584710000D+00 Coefficients=  1.0000000000D+00
 S 1 1.00
     Exponent=  6.8391400000D-01 Coefficients=  1.0000000000D+00
 S 1 1.00
     Exponent=  1.4675700000D-01 Coefficients=  1.0000000000D+00
 S 1 1.00
     Exponent=  7.0583000000D-02 Coefficients=  1.0000000000D+00
 S 1 1.00
     Exponent=  3.1449000000D-02 Coefficients=  1.0000000000D+00
 S 1 1.00
     Exponent=  4.6844000000D+00 Coefficients=  1.0000000000D+00
 S 1 1.00
     Exponent=  1.2204000000D+00 Coefficients=  1.0000000000D+00
 S 1 1.00
     Exponent=  1.4010000000D-02 Coefficients=  1.0000000000D+00
 P 1 1.00
     Exponent=  1.7745690000D+04 Coefficients=  1.0000000000D+00
 P 1 1.00
     Exponent=  4.2007210000D+03 Coefficients=  1.0000000000D+00
 P 1 1.00
     Exponent=  1.3644290000D+03 Coefficients=  1.0000000000D+00
 P 1 1.00
     Exponent=  5.2208060000D+02 Coefficients=  1.0000000000D+00
 P 1 1.00
     Exponent=  2.2145950000D+02 Coefficients=  1.0000000000D+00
 P 1 1.00
     Exponent=  1.0090960000D+02 Coefficients=  1.0000000000D+00
 P 1 1.00
     Exponent=  4.8401150000D+01 Coefficients=  1.0000000000D+00
 P 1 1.00
     Exponent=  2.3985360000D+01 Coefficients=  1.0000000000D+00
 P 1 1.00
     Exponent=  1.2182500000D+01 Coefficients=  1.0000000000D+00
 P 1 1.00
     Exponent=  6.2422980000D+00 Coefficients=  1.0000000000D+00
 P 1 1.00
     Exponent=  3.1109440000D+00 Coefficients=  1.0000000000D+00
 P 1 1.00
     Exponent=  1.5099580000D+00 Coefficients=  1.0000000000D+00
 P 1 1.00
     Exponent=  7.1084500000D-01 Coefficients=  1.0000000000D+00
 P 1 1.00
     Exponent=  2.7259800000D-01 Coefficients=  1.0000000000D+00
 P 1 1.00
     Exponent=  1.0397200000D-01 Coefficients=  1.0000000000D+00
 P 1 1.00
     Exponent=  3.8166000000D-02 Coefficients=  1.0000000000D+00
 P 1 1.00
     Exponent=  6.8788000000D+00 Coefficients=  1.0000000000D+00
 P 1 1.00
     Exponent=  1.5748000000D+00 Coefficients=  1.0000000000D+00
 P 1 1.00
     Exponent=  1.4010000000D-02 Coefficients=  1.0000000000D+00
 D 1 1.00
     Exponent=  1.1488400000D+02 Coefficients=  1.0000000000D+00
 D 1 1.00
     Exponent=  3.3887800000D+01 Coefficients=  1.0000000000D+00
 D 1 1.00
     Exponent=  1.2373000000D+01 Coefficients=  1.0000000000D+00
 D 1 1.00
     Exponent=  4.9992500000D+00 Coefficients=  1.0000000000D+00
 D 1 1.00
     Exponent=  2.0704300000D+00 Coefficients=  1.0000000000D+00
 D 1 1.00
     Exponent=  8.2818300000D-01 Coefficients=  1.0000000000D+00
 D 1 1.00
     Exponent=  3.0754700000D-01 Coefficients=  1.0000000000D+00
 D 1 1.00
     Exponent=  9.9455000000D-02 Coefficients=  1.0000000000D+00
 D 1 1.00
     Exponent=  4.5305000000D+00 Coefficients=  1.0000000000D+00
 D 1 1.00
     Exponent=  2.1205000000D+00 Coefficients=  1.0000000000D+00
 D 1 1.00
     Exponent=  3.2160000000D-02 Coefficients=  1.0000000000D+00
 F 1 1.00
     Exponent=  6.0066000000D+00 Coefficients=  1.0000000000D+00
 F 1 1.00
     Exponent=  2.2522000000D+00 Coefficients=  1.0000000000D+00
 F 1 1.00
     Exponent=  7.7580000000D-01 Coefficients=  1.0000000000D+00
 F 1 1.00
     Exponent=  2.6723000000D-01 Coefficients=  1.0000000000D+00
 G 1 1.00
     Exponent=  5.5068000000D+00 Coefficients=  1.0000000000D+00
 G 1 1.00
     Exponent=  2.0515000000D+00 Coefficients=  1.0000000000D+00
 G 1 1.00
     Exponent=  7.6426000000D-01 Coefficients=  1.0000000000D+00
 ****
 ======================================================================================================
                                       Pseudopotential Parameters
 ======================================================================================================
  Center     Atomic      Valence      Angular      Power
  Number     Number     Electrons     Momentum     of R      Exponent        Coefficient   SO-Coeffient
 ======================================================================================================
    1         26           16
                                      F and up 
                                                     2        1.0000000        0.00000000    0.00000000
                                      S - F
                                                     2       20.9300000      253.74958800    0.00000000
                                                     2        9.4450000       37.92284500    0.00000000
                                      P - F
                                                     2       21.7600000      161.03681200    0.00000000
                                                     2        9.1780000       27.65129800    0.00000000
                                      D - F
                                                     2       25.9000000      -24.43127600    0.00000000
                                                     2        8.8350000       -1.43425100    0.00000000
 ======================================================================================================
 Ernie: Thresh=  0.10000D-02 Tol=  0.10000D-05 Strict=F.
 There are    74 symmetry adapted cartesian basis functions of AG  symmetry.
 There are    20 symmetry adapted cartesian basis functions of B1G symmetry.
 There are    20 symmetry adapted cartesian basis functions of B2G symmetry.
 There are    20 symmetry adapted cartesian basis functions of B3G symmetry.
 There are     4 symmetry adapted cartesian basis functions of AU  symmetry.
 There are    31 symmetry adapted cartesian basis functions of B1U symmetry.
 There are    31 symmetry adapted cartesian basis functions of B2U symmetry.
 There are    31 symmetry adapted cartesian basis functions of B3U symmetry.
 There are    54 symmetry adapted basis functions of AG  symmetry.
 There are    17 symmetry adapted basis functions of B1G symmetry.
 There are    17 symmetry adapted basis functions of B2G symmetry.
 There are    17 symmetry adapted basis functions of B3G symmetry.
 There are     4 symmetry adapted basis functions of AU  symmetry.
 There are    27 symmetry adapted basis functions of B1U symmetry.
 There are    27 symmetry adapted basis functions of B2U symmetry.
 There are    27 symmetry adapted basis functions of B3U symmetry.
   190 basis functions,   231 primitive gaussians,   231 cartesian basis functions
    10 alpha electrons        6 beta electrons
       nuclear repulsion energy         0.0000000000 Hartrees.
 IExCor=    0 DFT=F Ex=HF Corr=None ExCW=0 ScaHFX=  1.000000
 ScaDFX=  1.000000  1.000000  1.000000  1.000000 ScalE2=  1.000000  1.000000
 IRadAn=      5 IRanWt=     -1 IRanGd=            0 ICorTp=0 IEmpDi=  4
 NAtoms=    1 NActive=    1 NUniq=    1 SFac= 1.00D+00 NAtFMM=   60 NAOKFM=F Big=F
 Integral buffers will be    131072 words long.
 Raffenetti 2 integral format.
 Two-electron integral symmetry is turned on.
 Leave Link  301 at Sat Mar 24 00:25:33 2018, MaxMem= 10737418240 cpu:               6.6 elap:               0.2
 (Enter /home1/apps/gaussian/16rA.03/g16/l302.exe)
 NPDir=0 NMtPBC=     1 NCelOv=     1 NCel=       1 NClECP=     1 NCelD=      1
         NCelK=      1 NCelE2=     1 NClLst=     1 CellRange=     0.0.
 One-electron integrals computed using PRISM.
 One-electron integral symmetry used in STVInt
  48 Symmetry operations used in ECPInt.
 ECPInt:  NShTT=    1830 NPrTT=    1830 LenC2=    1831 LenP2D=    1830.
 LDataN:  DoStor=T MaxTD1= 8 Len=  415
 NBasis=   190 RedAO= T EigKep=  2.66D-06  NBF=    54    17    17    17     4    27    27    27
 NBsUse=   187 1.00D-06 EigRej=  9.76D-07 NBFU=    54    17    17    17     4    26    26    26
 Leave Link  302 at Sat Mar 24 00:25:35 2018, MaxMem= 10737418240 cpu:              48.6 elap:               1.6
 (Enter /home1/apps/gaussian/16rA.03/g16/l303.exe)
 DipDrv:  MaxL=1.
 Leave Link  303 at Sat Mar 24 00:25:36 2018, MaxMem= 10737418240 cpu:               2.3 elap:               0.1
 (Enter /home1/apps/gaussian/16rA.03/g16/l401.exe)
 Initial guess from the checkpoint file:  "tz.chk"
 B after Tr=     0.000000    0.000000    0.000000
         Rot=    1.000000    0.000000    0.000000    0.000000 Ang=   0.00 deg.
 Guess basis will be translated and rotated to current coordinates.
 JPrj=2 DoOrth=T DoCkMO=T.
 Initial guess orbital symmetries:
       Occupied  (A1G) (T1U) (T1U) (T1U) (?A) (?A) (?A) (T2G) (T2G)
                 (T2G)
       Virtual   (?B) (?B) (?B) (A1G) (?B) (EG) (T2G) (T2G) (T2G)
                 (EG) (?B) (?B) (A1G) (?A) (T2G) (T2G) (?B) (?A)
                 (T2G) (?B) (?B) (?A) (?C) (?C) (?C) (A2U) (?C)
                 (?C) (?C) (?A) (T2G) (T2G) (?A) (T2G) (?B) (?B)
                 (?B) (?A) (?A) (?D) (?D) (?D) (?A) (?D) (?D) (?D)
                 (?A) (?E) (?E) (?E) (A2U) (?E) (?E) (?E) (?A)
                 (?D) (?D) (?A) (?D) (?E) (?E) (?E) (?F) (?F) (?F)
                 (?F) (A2U) (?F) (?F) (?F) (?F) (?F) (?F) (?F)
                 (?D) (?D) (?F) (?D) (?F) (?D) (?D) (?D) (?F) (?F)
                 (?F) (?F) (?D) (?D) (A2U) (?F) (?D) (?F) (?F)
                 (?F) (?F) (?F) (?F) (T2G) (?D) (?D) (?D) (T2G)
                 (T2G) (?D) (A1G) (A1G) (?F) (?F) (A1G) (A1G) (?F)
                 (?F) (A1G) (?F) (?F) (?F) (?F) (?F) (A1G) (EG)
                 (EG) (A1G) (A1G) (A1G) (A1G) (A1G) (A1G) (A1G)
                 (A1G) (A1G) (?D) (?D) (?D) (?D) (?D) (?D) (?D)
                 (?D) (?D) (?D) (?D) (?D) (?D) (?D) (?D) (?D) (?D)
                 (T1U) (T1U) (T1U) (T1U) (T1U) (T1U) (T1U) (T1U)
                 (T1U) (T1U) (T1U) (T1U) (T1U) (T1U) (T1U) (T1U)
                 (T1U) (T1U) (T1U) (T1U) (T1U) (T1U) (T1U) (T1U)
                 (T1U) (T1U) (T1U) (T1U) (T1U) (T1U)
 Leave Link  401 at Sat Mar 24 00:25:38 2018, MaxMem= 10737418240 cpu:              27.7 elap:               1.1
 (Enter /home1/apps/gaussian/16rA.03/g16/l502.exe)
 Keep R1 and R2 ints in memory in symmetry-blocked form, NReq=200881053.
 FoFCou: FMM=F IPFlag=           8 FMFlag=           0 FMFlg1=           0
         NFxFlg=           0 DoJE=F BraDBF=F KetDBF=F FulRan=T
         wScrn=  0.000000 ICntrl=       600 IOpCl=  0 I1Cent=           0 NGrid=           0
         NMat0=    1 NMatS0=  18145 NMatT0=    0 NMatD0=    1 NMtDS0=    0 NMtDT0=    0
 Petite list used in FoFCou.
 Restricted open shell SCF:
 Using DIIS extrapolation, IDIIS=  1040.
 NGot= 10737418240 LenX= 10694695884 LenY= 10694642082
 Requested convergence on RMS density matrix=1.00D-08 within 400 cycles.
 Requested convergence on MAX density matrix=1.00D-06.
 Requested convergence on             energy=1.00D-06.
 No special actions if energy rises.

 Cycle   1  Pass 1  IDiag  1:
 Density matrix breaks symmetry, PCut= 1.00D-07
 Density has only Abelian symmetry.
 E= -123.117807312488    
 DIIS: error= 1.88D+00 at cycle   1 NSaved=   1.
 NSaved= 1 IEnMin= 1 EnMin= -123.117807312488     IErMin= 1 ErrMin= 1.88D+00
 ErrMax= 1.88D+00  0.00D+00 EMaxC= 1.00D-01 BMatC= 2.85D+02 BMatP= 2.85D+02
 IDIUse=3 WtCom= 0.00D+00 WtEn= 1.00D+00
 Coeff-Com:  0.100D+01
 Coeff-En:   0.100D+01
 Coeff:      0.100D+01
 Gap=     0.162 Goal=   None    Shift=    0.000
 GapD=    0.162 DampG=1.000 DampE=0.125 DampFc=0.1250 IDamp=-1.
 Damping current iteration by 1.25D-01
 RMSDP=4.01D-03 MaxDP=2.78D-01              OVMax= 8.74D-04

 Cycle   2  Pass 1  IDiag  1:
 Density matrix breaks symmetry, PCut= 1.00D-07
 Density has only Abelian symmetry.
 E= -123.117916938624     Delta-E=       -0.000109626137 Rises=F Damp=T
 DIIS: error= 1.65D+00 at cycle   2 NSaved=   2.
 NSaved= 2 IEnMin= 2 EnMin= -123.117916938624     IErMin= 2 ErrMin= 1.65D+00
 ErrMax= 1.65D+00  0.00D+00 EMaxC= 1.00D-01 BMatC= 2.18D+02 BMatP= 2.85D+02
 IDIUse=3 WtCom= 0.00D+00 WtEn= 1.00D+00
 Coeff-Com: -0.700D+01 0.800D+01
 Coeff-En:   0.000D+00 0.100D+01
 Coeff:      0.000D+00 0.100D+01
 Gap=     0.114 Goal=   None    Shift=    0.000
 RMSDP=3.43D-03 MaxDP=2.43D-01 DE=-1.10D-04 OVMax= 2.89D-04

 Cycle   3  Pass 1  IDiag  1:
 Density matrix breaks symmetry, PCut= 1.00D-07
 Density has only Abelian symmetry.
 E= -123.118686628368     Delta-E=       -0.000769689744 Rises=F Damp=F
 DIIS: error= 1.70D-04 at cycle   3 NSaved=   3.
 NSaved= 3 IEnMin= 3 EnMin= -123.118686628368     IErMin= 3 ErrMin= 1.70D-04
 ErrMax= 1.70D-04  0.00D+00 EMaxC= 1.00D-01 BMatC= 1.03D-06 BMatP= 2.18D+02
 IDIUse=3 WtCom= 9.98D-01 WtEn= 1.70D-03
 Coeff-Com: -0.634D+00 0.725D+00 0.909D+00
 Coeff-En:   0.000D+00 0.000D+00 0.100D+01
 Coeff:     -0.633D+00 0.723D+00 0.910D+00
 Gap=     0.114 Goal=   None    Shift=    0.000
 RMSDP=6.79D-05 MaxDP=5.60D-03 DE=-7.70D-04 OVMax= 2.12D-04

 Cycle   4  Pass 1  IDiag  1:
 Density matrix breaks symmetry, PCut= 1.00D-07
 Density has only Abelian symmetry.
 E= -123.118686656321     Delta-E=       -0.000000027953 Rises=F Damp=F
 DIIS: error= 8.70D-05 at cycle   4 NSaved=   4.
 NSaved= 4 IEnMin= 4 EnMin= -123.118686656321     IErMin= 4 ErrMin= 8.70D-05
 ErrMax= 8.70D-05  0.00D+00 EMaxC= 1.00D-01 BMatC= 3.95D-07 BMatP= 1.03D-06
 IDIUse=1 WtCom= 1.00D+00 WtEn= 0.00D+00
 Coeff-Com: -0.573D+00 0.655D+00-0.284D-01 0.946D+00
 Coeff:     -0.573D+00 0.655D+00-0.284D-01 0.946D+00
 Gap=     0.114 Goal=   None    Shift=    0.000
 RMSDP=1.21D-05 MaxDP=1.08D-03 DE=-2.80D-08 OVMax= 4.03D-04

 Cycle   5  Pass 1  IDiag  1:
 Density matrix breaks symmetry, PCut= 1.00D-07
 Density has only Abelian symmetry.
 E= -123.118686587353     Delta-E=        0.000000068968 Rises=F Damp=F
 DIIS: error= 7.89D-05 at cycle   5 NSaved=   5.
 NSaved= 5 IEnMin= 4 EnMin= -123.118686656321     IErMin= 5 ErrMin= 7.89D-05
 ErrMax= 7.89D-05  0.00D+00 EMaxC= 1.00D-01 BMatC= 3.66D-07 BMatP= 3.95D-07
 IDIUse=1 WtCom= 1.00D+00 WtEn= 0.00D+00
 Coeff-Com: -0.547D+00 0.625D+00-0.900D-01 0.626D+00 0.385D+00
 Coeff:     -0.547D+00 0.625D+00-0.900D-01 0.626D+00 0.385D+00
 Gap=     0.114 Goal=   None    Shift=    0.000
 RMSDP=8.46D-06 MaxDP=5.62D-04 DE= 6.90D-08 OVMax= 3.39D-04

 Cycle   6  Pass 1  IDiag  1:
 Density matrix breaks symmetry, PCut= 1.00D-07
 Density has only Abelian symmetry.
 E= -123.118686715191     Delta-E=       -0.000000127838 Rises=F Damp=F
 DIIS: error= 7.46D-05 at cycle   6 NSaved=   6.
 NSaved= 6 IEnMin= 6 EnMin= -123.118686715191     IErMin= 6 ErrMin= 7.46D-05
 ErrMax= 7.46D-05  0.00D+00 EMaxC= 1.00D-01 BMatC= 2.57D-07 BMatP= 3.66D-07
 IDIUse=1 WtCom= 1.00D+00 WtEn= 0.00D+00
 Coeff-Com: -0.520D+00 0.594D+00-0.904D-01 0.407D+00 0.277D+00 0.332D+00
 Coeff:     -0.520D+00 0.594D+00-0.904D-01 0.407D+00 0.277D+00 0.332D+00
 Gap=     0.114 Goal=   None    Shift=    0.000
 RMSDP=4.46D-06 MaxDP=3.36D-04 DE=-1.28D-07 OVMax= 1.03D-04

 Cycle   7  Pass 1  IDiag  1:
 Density matrix breaks symmetry, PCut= 1.00D-07
 Density has only Abelian symmetry.
 E= -123.118686725098     Delta-E=       -0.000000009907 Rises=F Damp=F
 DIIS: error= 7.10D-05 at cycle   7 NSaved=   7.
 NSaved= 7 IEnMin= 7 EnMin= -123.118686725098     IErMin= 7 ErrMin= 7.10D-05
 ErrMax= 7.10D-05  0.00D+00 EMaxC= 1.00D-01 BMatC= 2.32D-07 BMatP= 2.57D-07
 IDIUse=1 WtCom= 1.00D+00 WtEn= 0.00D+00
 Coeff-Com: -0.503D+00 0.575D+00-0.873D-01 0.313D+00 0.211D+00 0.222D+00
 Coeff-Com:  0.270D+00
 Coeff:     -0.503D+00 0.575D+00-0.873D-01 0.313D+00 0.211D+00 0.222D+00
 Coeff:      0.270D+00
 Gap=     0.114 Goal=   None    Shift=    0.000
 RMSDP=2.65D-06 MaxDP=2.08D-04 DE=-9.91D-09 OVMax= 2.80D-05

 Cycle   8  Pass 1  IDiag  1:
 Density matrix breaks symmetry, PCut= 1.00D-07
 Density has only Abelian symmetry.
 E= -123.118686729365     Delta-E=       -0.000000004266 Rises=F Damp=F
 DIIS: error= 6.87D-05 at cycle   8 NSaved=   8.
 NSaved= 8 IEnMin= 8 EnMin= -123.118686729365     IErMin= 8 ErrMin= 6.87D-05
 ErrMax= 6.87D-05  0.00D+00 EMaxC= 1.00D-01 BMatC= 2.18D-07 BMatP= 2.32D-07
 IDIUse=1 WtCom= 1.00D+00 WtEn= 0.00D+00
 Coeff-Com: -0.430D+00 0.491D+00-0.721D-01 0.603D-01 0.209D-01-0.274D+00
 Coeff-Com: -0.477D+00 0.168D+01
 Coeff:     -0.430D+00 0.491D+00-0.721D-01 0.603D-01 0.209D-01-0.274D+00
 Coeff:     -0.477D+00 0.168D+01
 Gap=     0.114 Goal=   None    Shift=    0.000
 RMSDP=1.15D-05 MaxDP=9.27D-04 DE=-4.27D-09 OVMax= 1.67D-05

 Cycle   9  Pass 1  IDiag  1:
 Density matrix breaks symmetry, PCut= 1.00D-07
 Density has only Abelian symmetry.
 E= -123.118686748395     Delta-E=       -0.000000019030 Rises=F Damp=F
 DIIS: error= 5.87D-05 at cycle   9 NSaved=   9.
 NSaved= 9 IEnMin= 9 EnMin= -123.118686748395     IErMin= 9 ErrMin= 5.87D-05
 ErrMax= 5.87D-05  0.00D+00 EMaxC= 1.00D-01 BMatC= 1.60D-07 BMatP= 2.18D-07
 IDIUse=1 WtCom= 1.00D+00 WtEn= 0.00D+00
 Coeff-Com: -0.378D+00 0.432D+00-0.628D-01 0.494D-01 0.140D-01-0.284D+00
 Coeff-Com: -0.697D+00 0.118D+01 0.747D+00
 Coeff:     -0.378D+00 0.432D+00-0.628D-01 0.494D-01 0.140D-01-0.284D+00
 Coeff:     -0.697D+00 0.118D+01 0.747D+00
 Gap=     0.114 Goal=   None    Shift=    0.000
 RMSDP=8.45D-06 MaxDP=6.75D-04 DE=-1.90D-08 OVMax= 1.27D-05

 Cycle  10  Pass 1  IDiag  1:
 Density matrix breaks symmetry, PCut= 1.00D-07
 Density has only Abelian symmetry.
 E= -123.118686760326     Delta-E=       -0.000000011931 Rises=F Damp=F
 DIIS: error= 5.16D-05 at cycle  10 NSaved=  10.
 NSaved=10 IEnMin=10 EnMin= -123.118686760326     IErMin=10 ErrMin= 5.16D-05
 ErrMax= 5.16D-05  0.00D+00 EMaxC= 1.00D-01 BMatC= 1.23D-07 BMatP= 1.60D-07
 IDIUse=1 WtCom= 1.00D+00 WtEn= 0.00D+00
 Coeff-Com: -0.346D+00 0.396D+00-0.578D-01 0.652D-01 0.291D-01-0.216D+00
 Coeff-Com: -0.652D+00 0.740D+00 0.635D+00 0.406D+00
 Coeff:     -0.346D+00 0.396D+00-0.578D-01 0.652D-01 0.291D-01-0.216D+00
 Coeff:     -0.652D+00 0.740D+00 0.635D+00 0.406D+00
 Gap=     0.114 Goal=   None    Shift=    0.000
 RMSDP=4.97D-06 MaxDP=4.01D-04 DE=-1.19D-08 OVMax= 6.25D-06

 Cycle  11  Pass 1  IDiag  1:
 Density matrix breaks symmetry, PCut= 1.00D-07
 Density has only Abelian symmetry.
 E= -123.118686766606     Delta-E=       -0.000000006279 Rises=F Damp=F
 DIIS: error= 4.73D-05 at cycle  11 NSaved=  11.
 NSaved=11 IEnMin=11 EnMin= -123.118686766606     IErMin=11 ErrMin= 4.73D-05
 ErrMax= 4.73D-05  0.00D+00 EMaxC= 1.00D-01 BMatC= 1.03D-07 BMatP= 1.23D-07
 IDIUse=1 WtCom= 1.00D+00 WtEn= 0.00D+00
 Coeff-Com: -0.202D+00 0.230D+00-0.343D-01 0.100D+00 0.741D-01 0.791D-01
 Coeff-Com: -0.172D+00-0.609D+00-0.314D+00-0.823D+00 0.267D+01
 Coeff:     -0.202D+00 0.230D+00-0.343D-01 0.100D+00 0.741D-01 0.791D-01
 Coeff:     -0.172D+00-0.609D+00-0.314D+00-0.823D+00 0.267D+01
 Gap=     0.114 Goal=   None    Shift=    0.000
 RMSDP=2.31D-05 MaxDP=1.86D-03 DE=-6.28D-09 OVMax= 2.98D-05

 Cycle  12  Pass 1  IDiag  1:
 Density matrix breaks symmetry, PCut= 1.00D-07
 Density has only Abelian symmetry.
 E= -123.118686788795     Delta-E=       -0.000000022190 Rises=F Damp=F
 DIIS: error= 2.75D-05 at cycle  12 NSaved=  12.
 NSaved=12 IEnMin=12 EnMin= -123.118686788795     IErMin=12 ErrMin= 2.75D-05
 ErrMax= 2.75D-05  0.00D+00 EMaxC= 1.00D-01 BMatC= 3.50D-08 BMatP= 1.03D-07
 IDIUse=1 WtCom= 1.00D+00 WtEn= 0.00D+00
 Coeff-Com: -0.721D-01 0.824D-01-0.125D-01 0.472D-01 0.380D-01 0.784D-01
 Coeff-Com:  0.504D-01-0.351D+00-0.403D+00-0.134D+01 0.164D+01 0.124D+01
 Coeff:     -0.721D-01 0.824D-01-0.125D-01 0.472D-01 0.380D-01 0.784D-01
 Coeff:      0.504D-01-0.351D+00-0.403D+00-0.134D+01 0.164D+01 0.124D+01
 Gap=     0.114 Goal=   None    Shift=    0.000
 RMSDP=2.07D-05 MaxDP=1.67D-03 DE=-2.22D-08 OVMax= 2.73D-05

 Cycle  13  Pass 1  IDiag  1:
 Density matrix breaks symmetry, PCut= 1.00D-07
 Density has only Abelian symmetry.
 E= -123.118686798713     Delta-E=       -0.000000009918 Rises=F Damp=F
 DIIS: error= 9.85D-06 at cycle  13 NSaved=  13.
 NSaved=13 IEnMin=13 EnMin= -123.118686798713     IErMin=13 ErrMin= 9.85D-06
 ErrMax= 9.85D-06  0.00D+00 EMaxC= 1.00D-01 BMatC= 4.48D-09 BMatP= 3.50D-08
 IDIUse=1 WtCom= 1.00D+00 WtEn= 0.00D+00
 Coeff-Com:  0.209D-01-0.239D-01 0.352D-02-0.178D-01-0.134D-01-0.194D-01
 Coeff-Com:  0.671D-01 0.252D+00-0.669D-01-0.722D+00-0.355D+00 0.103D+01
 Coeff-Com:  0.846D+00
 Coeff:      0.209D-01-0.239D-01 0.352D-02-0.178D-01-0.134D-01-0.194D-01
 Coeff:      0.671D-01 0.252D+00-0.669D-01-0.722D+00-0.355D+00 0.103D+01
 Coeff:      0.846D+00
 Gap=     0.114 Goal=   None    Shift=    0.000
 RMSDP=1.49D-05 MaxDP=1.20D-03 DE=-9.92D-09 OVMax= 1.88D-05

 Cycle  14  Pass 1  IDiag  1:
 Density matrix breaks symmetry, PCut= 1.00D-07
 Density has only Abelian symmetry.
 E= -123.118686800051     Delta-E=       -0.000000001338 Rises=F Damp=F
 DIIS: error= 2.85D-06 at cycle  14 NSaved=  14.
 NSaved=14 IEnMin=14 EnMin= -123.118686800051     IErMin=14 ErrMin= 2.85D-06
 ErrMax= 2.85D-06  0.00D+00 EMaxC= 1.00D-01 BMatC= 3.75D-10 BMatP= 4.48D-09
 IDIUse=1 WtCom= 1.00D+00 WtEn= 0.00D+00
 Coeff-Com:  0.133D-01-0.152D-01 0.227D-02-0.127D-01-0.982D-02-0.174D-01
 Coeff-Com:  0.318D-01 0.175D+00-0.101D-01-0.328D+00-0.295D+00 0.532D+00
 Coeff-Com:  0.496D+00 0.438D+00
 Coeff:      0.133D-01-0.152D-01 0.227D-02-0.127D-01-0.982D-02-0.174D-01
 Coeff:      0.318D-01 0.175D+00-0.101D-01-0.328D+00-0.295D+00 0.532D+00
 Coeff:      0.496D+00 0.438D+00
 Gap=     0.114 Goal=   None    Shift=    0.000
 RMSDP=1.22D-06 MaxDP=9.84D-05 DE=-1.34D-09 OVMax= 1.59D-06

 Cycle  15  Pass 1  IDiag  1:
 Density matrix breaks symmetry, PCut= 1.00D-07
 Density has only Abelian symmetry.
 E= -123.118686800123     Delta-E=       -0.000000000072 Rises=F Damp=F
 DIIS: error= 1.82D-06 at cycle  15 NSaved=  15.
 NSaved=15 IEnMin=15 EnMin= -123.118686800123     IErMin=15 ErrMin= 1.82D-06
 ErrMax= 1.82D-06  0.00D+00 EMaxC= 1.00D-01 BMatC= 1.52D-10 BMatP= 3.75D-10
 IDIUse=1 WtCom= 1.00D+00 WtEn= 0.00D+00
 Large coefficients: NSaved= 15 BigCof=    0.00 CofMax=   10.00 Det=-4.34D-14
 Inversion failed.  Reducing to 14 matrices.
 Coeff-Com: -0.281D-10 0.148D-04-0.142D-02-0.104D-02-0.278D-02-0.163D-02
 Coeff-Com:  0.165D-01 0.128D-01 0.446D-01-0.360D-01-0.854D-02 0.181D-01
 Coeff-Com:  0.153D+00 0.807D+00
 Coeff:     -0.281D-10 0.148D-04-0.142D-02-0.104D-02-0.278D-02-0.163D-02
 Coeff:      0.165D-01 0.128D-01 0.446D-01-0.360D-01-0.854D-02 0.181D-01
 Coeff:      0.153D+00 0.807D+00
 Gap=     0.114 Goal=   None    Shift=    0.000
 RMSDP=2.14D-06 MaxDP=1.72D-04 DE=-7.24D-11 OVMax= 2.75D-06

 Cycle  16  Pass 1  IDiag  1:
 Density matrix breaks symmetry, PCut= 1.00D-07
 Density has only Abelian symmetry.
 E= -123.118686800172     Delta-E=       -0.000000000049 Rises=F Damp=F
 DIIS: error= 5.59D-09 at cycle  16 NSaved=  15.
 NSaved=15 IEnMin=15 EnMin= -123.118686800172     IErMin=15 ErrMin= 5.59D-09
 ErrMax= 5.59D-09  0.00D+00 EMaxC= 1.00D-01 BMatC= 1.76D-15 BMatP= 1.52D-10
 IDIUse=1 WtCom= 1.00D+00 WtEn= 0.00D+00
 Coeff-Com: -0.726D-11 0.975D-06 0.264D-03 0.279D-03 0.977D-03-0.105D-02
 Coeff-Com: -0.936D-02 0.276D-02 0.318D-01 0.105D-01-0.327D-01-0.258D-01
 Coeff-Com:  0.818D-02 0.286D+00 0.729D+00
 Coeff:     -0.726D-11 0.975D-06 0.264D-03 0.279D-03 0.977D-03-0.105D-02
 Coeff:     -0.936D-02 0.276D-02 0.318D-01 0.105D-01-0.327D-01-0.258D-01
 Coeff:      0.818D-02 0.286D+00 0.729D+00
 Gap=     0.114 Goal=   None    Shift=    0.000
 RMSDP=1.59D-09 MaxDP=1.71D-07 DE=-4.90D-11 OVMax= 4.23D-08

 Density matrix breaks symmetry, PCut= 1.00D-07
 Density has only Abelian symmetry.
 SCF Done:  E(ROHF) =  -123.118686800     A.U. after   16 cycles
            NFock= 16  Conv=0.16D-08     -V/T= 2.6935
 <Sx>= 0.0000 <Sy>= 0.0000 <Sz>= 2.0000 <S**2>= 6.0000 S= 2.0000
 <L.S>=  0.00000000000    
 KE= 7.270190313636D+01 PE=-2.893540145492D+02 EE= 9.353342461262D+01
 Annihilation of the first spin contaminant:
 S**2 before annihilation     6.0000,   after     6.0000
 Leave Link  502 at Sat Mar 24 00:25:52 2018, MaxMem= 10737418240 cpu:             451.9 elap:              14.5
 (Enter /home1/apps/gaussian/16rA.03/g16/l801.exe)
 Windowed orbitals will be sorted by symmetry type.
 Density matrix breaks symmetry, PCut= 1.00D-07
 Density has only Abelian symmetry.
 GenMOA:  NOpAll= 48 NOp2=8 NOpUse=  8 JSym2X=1
 FoFJK:  IHMeth= 1 ICntrl=       0 DoSepK=F KAlg= 0 I1Cent=           0 FoldK=F
 IRaf=         0 NMat=       1 IRICut=       1 DoRegI=T DoRafI=F ISym2E= 1 IDoP0=0 IntGTp=1.
 FoFCou: FMM=F IPFlag=           8 FMFlag=      100000 FMFlg1=           0
         NFxFlg=           0 DoJE=F BraDBF=F KetDBF=F FulRan=T
         wScrn=  0.000000 ICntrl=         0 IOpCl=  1 I1Cent=           0 NGrid=           0
         NMat0=    1 NMatS0=      1 NMatT0=    0 NMatD0=    1 NMtDS0=    0 NMtDT0=    0
 Petite list used in FoFCou.
 <Sx>= 0.0000 <Sy>= 0.0000 <Sz>= 2.0000 <S**2>= 6.0000 S= 2.0000
 Range of M.O.s used for correlation:     1   187
 NBasis=   190 NAE=    10 NBE=     6 NFC=     0 NFV=     0
 NROrb=    187 NOA=    10 NOB=     6 NVA=   177 NVB=   181

 **** Warning!!: The largest alpha MO coefficient is  0.23722593D+03


 **** Warning!!: The largest beta MO coefficient is  0.23680299D+03

 Singles contribution to E2=   -0.5517022135D-02
 Leave Link  801 at Sat Mar 24 00:25:57 2018, MaxMem= 10737418240 cpu:              94.0 elap:               4.0
 (Enter /home1/apps/gaussian/16rA.03/g16/l804.exe)
 Open-shell transformation, MDV= 10737418240 ITran=4 ISComp=2.
 Unit  1 TFree=       1081085 TCopy=        983270.
 Semi-Direct transformation.
 ModeAB=           2 MOrb=            10 LenV=   10736199061
 LASXX=      4074855 LTotXX=     4074855 LenRXX=     4074855
 LTotAB=     4176759 MaxLAS=    50108520 LenRXY=    50108520
 NonZer=    51449310 LenScr=    77929984 LnRSAI=           0
 LnScr1=           0 LExtra=     3857389 Total=    135970748
 MaxDsk= 67108864000 SrtSym=           F ITran=            4
 DoSDTr:  NPSUse= 32
 JobTyp=1 Pass  1:  I=   1 to  10.
 (rs|ai) integrals will be sorted in core.
 Complete sort for first half transformation.
 First half transformation complete.
 Begin second half transformation for I=  10.
 Begin second half transformation for I=  10.
 Complete sort for second half transformation.
 Second half transformation complete.
 ModeAB=           2 MOrb=             6 LenV=   10736199061
 LASXX=      2530065 LTotXX=     2530065 LenRXX=    30065112
 LTotAB=     2320620 MaxLAS=    30065112 LenRXY=     2320620
 NonZer=    30869586 LenScr=    47066624 LnRSAI=           0
 LnScr1=           0 LExtra=    58040764 Total=    137493120
 MaxDsk= 67108864000 SrtSym=           F ITran=            4
 DoSDTr:  NPSUse= 32
 JobTyp=2 Pass  1:  I=   1 to   6.
 (rs|ai) integrals will be sorted in core.
 Complete sort for first half transformation.
 First half transformation complete.
 Complete sort for second half transformation.
 Second half transformation complete.
 Spin components of T(2) and E(2):
     alpha-alpha T2 =       0.2084638951D-01 E2=     -0.1501709025D+00
     alpha-beta  T2 =       0.7413345410D-01 E2=     -0.4450087477D+00
     beta-beta   T2 =       0.7752092332D-02 E2=     -0.5463615913D-01
 ANorm=    0.1051312323D+01
 E2 =    -0.6553328315D+00 EUMP2 =    -0.12377401963169D+03
 (S**2,0)=  0.60000D+01           (S**2,1)=  0.60000D+01
 E(PUHF)=      -0.12311868680D+03        E(PMP2)=      -0.12377401963D+03
 Leave Link  804 at Sat Mar 24 00:27:07 2018, MaxMem= 10737418240 cpu:            2239.3 elap:              70.0
 (Enter /home1/apps/gaussian/16rA.03/g16/l913.exe)
 CIDS:  MDV= 10737418240.
 IFCWin=0 IBDFC=1 NFBD=     0     0 NFCmp=     0     0 NFFFC=     0     0
 Using original routines for 1st iteration.
 Using DD4UQ or CC4UQ for 2nd and later iterations.
 Keep R2 and R3 ints in memory in symmetry-blocked form, NReq=200892900.
 FoFCou: FMM=F IPFlag=           8 FMFlag=           0 FMFlg1=           0
         NFxFlg=           0 DoJE=F BraDBF=F KetDBF=F FulRan=T
         wScrn=  0.000000 ICntrl=       600 IOpCl=  0 I1Cent=           0 NGrid=           0
         NMat0=    1 NMatS0=  18145 NMatT0=    0 NMatD0=    1 NMtDS0=    0 NMtDT0=    0
 Petite list used in FoFCou.
 CIDS: In Core Option IDoMem=           1.
 CCSD(T)
 =======
 Iterations= 150 Convergence= 0.100D-06
 Produce multiple copies of IABC intergrals
 Iteration Nr.   1
 **********************
 DD1Dir will call FoFMem   1 times, MxPair=       180
 NAB=    60 NAA=    45 NBB=    15.
 DD1Dir will call FoFMem   1 times, MxPair=       180
 NAB=    60 NAA=    45 NBB=    15.
 MP4(R+Q)= -0.48606166D-02
 Maximum subspace dimension=  5
 A-vector RMS=  2.3759856D-04 Max=  4.8368740D-03 conv= 1.00D-05.
 RLE energy=       -0.6470744641
 E3=        0.13067895D-01        EROMP3=      -0.12376095174D+03
 E4(SDQ)=  -0.96196749D-02        ROMP4(SDQ)=  -0.12377057141D+03
 VARIATIONAL ENERGIES WITH THE FIRST-ORDER WAVEFUNCTION:
 DE(Corr)= -0.64696739     E(Corr)=     -123.76565419    
 NORM(A)=   0.10474427D+01
 Iteration Nr.   2
 **********************
 DD1Dir will call FoFMem   1 times, MxPair=       180
 NAB=    60 NAA=    45 NBB=    15.
 A-vector RMS=  2.9574264D-03 Max=  3.5779501D-02 conv= 1.00D-05.
 RLE energy=       -0.6439911063
 DE(Corr)= -0.63343765     E(CORR)=     -123.75212445     Delta= 1.35D-02
 NORM(A)=   0.10482372D+01
 Iteration Nr.   3
 **********************
 DD1Dir will call FoFMem   1 times, MxPair=       180
 NAB=    60 NAA=    45 NBB=    15.
 A-vector RMS=  2.3883399D-03 Max=  3.0309098D-02 conv= 1.00D-05.
 RLE energy=       -0.6474910242
 DE(Corr)= -0.63683197     E(CORR)=     -123.75551877     Delta=-3.39D-03
 NORM(A)=   0.10536331D+01
 Iteration Nr.   4
 **********************
 DD1Dir will call FoFMem   1 times, MxPair=       180
 NAB=    60 NAA=    45 NBB=    15.
 A-vector RMS=  1.6177913D-03 Max=  1.9305381D-02 conv= 1.00D-05.
 RLE energy=       -0.6507997919
 DE(Corr)= -0.64170732     E(CORR)=     -123.76039412     Delta=-4.88D-03
 NORM(A)=   0.10715499D+01
 Iteration Nr.   5
 **********************
 DD1Dir will call FoFMem   1 times, MxPair=       180
 NAB=    60 NAA=    45 NBB=    15.
 A-vector RMS=  4.9562392D-04 Max=  5.3769333D-03 conv= 1.00D-05.
 RLE energy=       -0.6503028336
 DE(Corr)= -0.65297825     E(CORR)=     -123.77166505     Delta=-1.13D-02
 NORM(A)=   0.10677484D+01
 Iteration Nr.   6
 **********************
 DD1Dir will call FoFMem   1 times, MxPair=       180
 NAB=    60 NAA=    45 NBB=    15.
 A-vector RMS=  6.6138728D-05 Max=  8.1558593D-04 conv= 1.00D-05.
 RLE energy=       -0.6502595063
 DE(Corr)= -0.65056525     E(CORR)=     -123.76925205     Delta= 2.41D-03
 NORM(A)=   0.10672899D+01
 Iteration Nr.   7
 **********************
 DD1Dir will call FoFMem   1 times, MxPair=       180
 NAB=    60 NAA=    45 NBB=    15.
 A-vector RMS=  1.1511730D-05 Max=  1.3786686D-04 conv= 1.00D-05.
 RLE energy=       -0.6502558012
 DE(Corr)= -0.65025214     E(CORR)=     -123.76893894     Delta= 3.13D-04
 NORM(A)=   0.10673141D+01
 Iteration Nr.   8
 **********************
 DD1Dir will call FoFMem   1 times, MxPair=       180
 NAB=    60 NAA=    45 NBB=    15.
 A-vector RMS=  1.4781139D-05 Max=  2.7522384D-04 conv= 1.00D-05.
 RLE energy=       -0.6502591505
 DE(Corr)= -0.65027066     E(CORR)=     -123.76895746     Delta=-1.85D-05
 NORM(A)=   0.10672881D+01
 Iteration Nr.   9
 **********************
 DD1Dir will call FoFMem   1 times, MxPair=       180
 NAB=    60 NAA=    45 NBB=    15.
 A-vector RMS=  7.9825900D-06 Max=  1.3584852D-04 conv= 1.00D-05.
 RLE energy=       -0.6502682447
 DE(Corr)= -0.65026002     E(CORR)=     -123.76894682     Delta= 1.06D-05
 NORM(A)=   0.10672906D+01
 Iteration Nr.  10
 **********************
 DD1Dir will call FoFMem   1 times, MxPair=       180
 NAB=    60 NAA=    45 NBB=    15.
 A-vector RMS=  5.5293931D-06 Max=  1.0682487D-04 conv= 1.00D-05.
 RLE energy=       -0.6502701959
 DE(Corr)= -0.65026524     E(CORR)=     -123.76895204     Delta=-5.22D-06
 NORM(A)=   0.10672845D+01
 Iteration Nr.  11
 **********************
 DD1Dir will call FoFMem   1 times, MxPair=       180
 NAB=    60 NAA=    45 NBB=    15.
 A-vector RMS=  4.1807318D-06 Max=  9.3352671D-05 conv= 1.00D-05.
 RLE energy=       -0.6502606529
 DE(Corr)= -0.65026228     E(CORR)=     -123.76894908     Delta= 2.96D-06
 NORM(A)=   0.10672772D+01
 Iteration Nr.  12
 **********************
 DD1Dir will call FoFMem   1 times, MxPair=       180
 NAB=    60 NAA=    45 NBB=    15.
 A-vector RMS=  3.1772773D-06 Max=  7.7150757D-05 conv= 1.00D-05.
 RLE energy=       -0.6502618496
 DE(Corr)= -0.65026242     E(CORR)=     -123.76894922     Delta=-1.38D-07
 NORM(A)=   0.10672759D+01
 Iteration Nr.  13
 **********************
 DD1Dir will call FoFMem   1 times, MxPair=       180
 NAB=    60 NAA=    45 NBB=    15.
 A-vector RMS=  3.1270417D-06 Max=  6.1084042D-05 conv= 1.00D-05.
 RLE energy=       -0.6502584881
 DE(Corr)= -0.65026042     E(CORR)=     -123.76894722     Delta= 2.00D-06
 NORM(A)=   0.10672788D+01
 Iteration Nr.  14
 **********************
 DD1Dir will call FoFMem   1 times, MxPair=       180
 NAB=    60 NAA=    45 NBB=    15.
 A-vector RMS=  1.9626066D-06 Max=  3.2753548D-05 conv= 1.00D-05.
 RLE energy=       -0.6502606392
 DE(Corr)= -0.65026141     E(CORR)=     -123.76894821     Delta=-9.94D-07
 NORM(A)=   0.10672826D+01
 Iteration Nr.  15
 **********************
 DD1Dir will call FoFMem   1 times, MxPair=       180
 NAB=    60 NAA=    45 NBB=    15.
 A-vector RMS=  1.6123956D-06 Max=  3.4483022D-05 conv= 1.00D-05.
 RLE energy=       -0.6502631720
 DE(Corr)= -0.65026219     E(CORR)=     -123.76894899     Delta=-7.82D-07
 NORM(A)=   0.10672850D+01
 Iteration Nr.  16
 **********************
 DD1Dir will call FoFMem   1 times, MxPair=       180
 NAB=    60 NAA=    45 NBB=    15.
 A-vector RMS=  6.2199168D-07 Max=  8.1138703D-06 conv= 1.00D-05.
 RLE energy=       -0.6502625303
 DE(Corr)= -0.65026220     E(CORR)=     -123.76894900     Delta=-7.36D-09
 NORM(A)=   0.10672857D+01
 CI/CC converged in   16 iterations to DelEn=-7.36D-09 Conv= 1.00D-07 ErrA1= 6.22D-07 Conv= 1.00D-05
 Wavefunction amplitudes converged. E(Corr)=     -123.76894900    
 Largest amplitude= 7.33D-02
 Time for triples=    11786.75 seconds.
 T4(CCSD)= -0.20897251D-01
 T5(CCSD)=  0.89978244D-03
 CCSD(T)= -0.12378894647D+03
 Discarding MO integrals.
 Leave Link  913 at Sat Mar 24 00:34:16 2018, MaxMem= 10737418240 cpu:           13664.7 elap:             428.5
 (Enter /home1/apps/gaussian/16rA.03/g16/l601.exe)
 Copying SCF densities to generalized density rwf, IOpCl= 0 IROHF=1.
 SCF density gives NOpUse=  8 NOpAll= 48.
 Marking SCF density as not fully symmetric.

 **********************************************************************

            Population analysis using the SCF density.

 **********************************************************************

 Orbital symmetries:
       Occupied  (A1G) (T1U) (T1U) (T1U) (?A) (?A) (?A) (T2G) (T2G)
                 (T2G)
       Virtual   (?B) (?B) (?B) (A1G) (?B) (?B) (?B) (?A) (T2G)
                 (T2G) (?A) (T2G) (A1G) (?B) (?B) (?B) (?A) (T2G)
                 (T2G) (?A) (T2G) (?A) (?C) (?C) (?C) (?C) (?C)
                 (?C) (A2U) (?C) (?C) (?C) (?A) (T2G) (T2G) (?A)
                 (T2G) (?D) (?E) (?E) (?E) (A2U) (?E) (?E) (?E)
                 (?E) (?E) (?E) (?D) (?F) (?F) (?D) (?F) (?D) (?F)
                 (?F) (?F) (?D) (?F) (?F) (?F) (?D) (?D) (?F) (?F)
                 (?F) (A2U) (?F) (?F) (?F) (?D) (?F) (?F) (?F)
                 (?D) (?F) (?F) (?F) (?D) (?F) (?F) (?F) (?D) (?F)
                 (?F) (?F) (?D) (T2G) (T2G) (T2G) (T2G) (T2G) (T2G)
                 (?F) (?F) (?F) (?F) (?F) (?F) (A2U) (?F) (?F)
                 (?F) (T2G) (?F) (?F) (?F) (T2G) (?F) (?F) (?F)
                 (T2G) (T2G) (T2G) (?F) (?F) (?F) (T2G) (T1U) (T1U)
                 (T1U) (EG) (T2G) (T2G) (T2G) (EG) (A1G) (T1U)
                 (T1U) (T1U) (A1G) (EG) (T2G) (T2G) (T2G) (EG)
                 (T1U) (T1U) (T1U) (A1G) (T1U) (T1U) (T1U) (A1G)
                 (EG) (T2G) (T2G) (T2G) (EG) (T1U) (T1U) (T1U)
                 (A1G) (T1U) (T1U) (T1U) (A1G) (T1U) (T1U) (T1U)
                 (A1G) (T1U) (T1U) (T1U) (A1G) (T1U) (T1U) (T1U)
                 (A1G) (A1G) (T1U) (T1U) (T1U) (A1G) (A1G) (A1G)
                 (A1G)
 Unable to determine electronic state:  an orbital has unidentified symmetry.
 Alpha  occ. eigenvalues --   -4.51206  -3.03901  -2.96080  -2.96080  -0.70484
 Alpha  occ. eigenvalues --   -0.69473  -0.69473  -0.66306  -0.61101  -0.27673
 Alpha virt. eigenvalues --    0.01924   0.02105   0.02105   0.02818   0.06775
 Alpha virt. eigenvalues --    0.07169   0.07169   0.10067   0.10081   0.10081
 Alpha virt. eigenvalues --    0.10123   0.10150   0.14836   0.25219   0.25909
 Alpha virt. eigenvalues --    0.25909   0.35008   0.35107   0.35107   0.35426
 Alpha virt. eigenvalues --    0.35780   0.51512   0.86269   0.87899   0.87899
 Alpha virt. eigenvalues --    0.95613   0.95683   0.95683   0.95827   0.96094
 Alpha virt. eigenvalues --    0.96532   0.96532   1.13272   1.13591   1.13591
 Alpha virt. eigenvalues --    1.14612   1.16051   1.92053   2.80349   2.81052
 Alpha virt. eigenvalues --    2.81052   2.81693   2.83023   2.83166   2.84381
 Alpha virt. eigenvalues --    2.84381   2.86257   2.86257   3.26475   3.27023
 Alpha virt. eigenvalues --    3.27023   3.28781   3.31337   3.43728   3.43780
 Alpha virt. eigenvalues --    3.43780   3.43857   3.44798   3.45234   3.45234
 Alpha virt. eigenvalues --    3.46451   3.46519   5.69559   7.57118   7.57457
 Alpha virt. eigenvalues --    7.57457   7.58121   7.61044   7.63875   7.63875
 Alpha virt. eigenvalues --    7.65914   7.66579   7.66579   7.68701   7.71897
 Alpha virt. eigenvalues --    7.94669   7.99704   7.99704   9.85273   9.85354
 Alpha virt. eigenvalues --    9.85354   9.85468   9.87754   9.88741   9.88741
 Alpha virt. eigenvalues --    9.91447   9.91583  13.39940  15.42843  15.43572
 Alpha virt. eigenvalues --   15.43572  15.45915  15.49491  18.72942  18.78889
 Alpha virt. eigenvalues --   18.78889  20.66482  20.66854  20.66854  20.67587
 Alpha virt. eigenvalues --   20.70619  20.73736  20.73736  26.09880  26.09993
 Alpha virt. eigenvalues --   26.09993  26.10154  26.13012  26.14281  26.14281
 Alpha virt. eigenvalues --   26.17728  26.17881  28.14221  28.63351  28.63951
 Alpha virt. eigenvalues --   28.63951  28.66478  28.70385  38.42135  38.48296
 Alpha virt. eigenvalues --   38.48296  52.17386  52.18245  52.18245  52.20773
 Alpha virt. eigenvalues --   52.24408  57.35845  73.87888  73.93347  73.93347
 Alpha virt. eigenvalues --  107.44540 114.09388 114.10027 114.10027 114.11966
 Alpha virt. eigenvalues --  114.14176 137.54821 137.58884 137.58884 163.77108
 Alpha virt. eigenvalues --  252.99651 253.02546 253.02546 299.02599 371.14840
 Alpha virt. eigenvalues --  371.15129 371.15129 371.15999 371.16600 482.09936
 Alpha virt. eigenvalues --  482.11869 482.11869 583.91876 973.84614 973.85726
 Alpha virt. eigenvalues --  973.857261198.771222135.361062135.366482135.36648
 Alpha virt. eigenvalues -- 2620.917335225.003055225.005275225.005276113.51237
 Alpha virt. eigenvalues -- **************************************************
 Alpha virt. eigenvalues -- **************************************************
 Alpha virt. eigenvalues -- ********************
     Molecular Orbital Coefficients:
                           2         3         4         5         6
                       (T1U)--O  (T1U)--O  (T1U)--O      O         O
     Eigenvalues --    -3.03901  -2.96080  -2.96080  -0.70484  -0.69473
   1 1   Fe 1S          0.00000   0.00000   0.00000  -0.00000  -0.00000
   2        2S          0.00000   0.00000   0.00000  -0.00000  -0.00000
   3        3S          0.00000   0.00000   0.00000   0.00000  -0.00000
   4        4S          0.00000   0.00000   0.00000  -0.00000  -0.00000
   5        5S          0.00000   0.00000   0.00000   0.00000   0.00000
   6        6S          0.00000   0.00000   0.00000  -0.00000  -0.00002
   7        7S          0.00000   0.00000   0.00000   0.00000   0.00002
   8        8S          0.00000   0.00000   0.00000  -0.00000  -0.00016
   9        9S          0.00000   0.00000   0.00000   0.00000   0.00028
  10       10S          0.00000   0.00000   0.00000  -0.00000  -0.00126
  11       11S          0.00000   0.00000   0.00000   0.00000   0.00333
  12       12S          0.00000   0.00000   0.00000  -0.00000  -0.01300
  13       13S          0.00000   0.00000   0.00000  -0.00000   0.00185
  14       14S          0.00000   0.00000   0.00000   0.00000   0.13546
  15       15S          0.00000   0.00000   0.00000   0.00000  -0.00888
  16       16S          0.00000   0.00000   0.00000  -0.00000  -0.24896
  17       17S          0.00000   0.00000   0.00000  -0.00000  -0.23267
  18       18S          0.00000   0.00000   0.00000  -0.00000   0.34914
  19       19S          0.00000   0.00000   0.00000   0.00000   0.55390
  20       20S          0.00000   0.00000   0.00000  -0.00000   0.25516
  21       21S          0.00000   0.00000   0.00000  -0.00000  -0.05038
  22       22S          0.00000   0.00000   0.00000   0.00000   0.00298
  23       23S          0.00000   0.00000   0.00000   0.00000  -0.00135
  24       24PX         0.00000   0.00000   0.00000   0.00000   0.00000
  25       24PY         0.00000   0.00000   0.00000   0.00000   0.00000
  26       24PZ         0.00000   0.00000   0.00000   0.00000   0.00000
  27       25PX         0.00000   0.00000  -0.00000   0.00000   0.00000
  28       25PY        -0.00000   0.00000   0.00000   0.00000   0.00000
  29       25PZ         0.00000  -0.00000   0.00000   0.00000   0.00000
  30       26PX         0.00000   0.00000   0.00003   0.00000   0.00000
  31       26PY         0.00003   0.00000   0.00000   0.00000   0.00000
  32       26PZ         0.00000   0.00003   0.00000   0.00000   0.00000
  33       27PX         0.00000   0.00000  -0.00003   0.00000   0.00000
  34       27PY        -0.00003   0.00000   0.00000   0.00000   0.00000
  35       27PZ         0.00000  -0.00003   0.00000   0.00000   0.00000
  36       28PX         0.00000   0.00000   0.00047   0.00000   0.00000
  37       28PY         0.00047   0.00000   0.00000   0.00000   0.00000
  38       28PZ         0.00000   0.00047   0.00000   0.00000   0.00000
  39       29PX         0.00000   0.00000  -0.00068   0.00000   0.00000
  40       29PY        -0.00068   0.00000   0.00000   0.00000   0.00000
  41       29PZ         0.00000  -0.00068   0.00000   0.00000   0.00000
  42       30PX         0.00000   0.00000   0.00563   0.00000   0.00000
  43       30PY         0.00563   0.00000   0.00000   0.00000   0.00000
  44       30PZ         0.00000   0.00563   0.00000   0.00000   0.00000
  45       31PX         0.00000   0.00000  -0.00421   0.00000   0.00000
  46       31PY        -0.00422   0.00000   0.00000   0.00000   0.00000
  47       31PZ         0.00000  -0.00422   0.00000   0.00000   0.00000
  48       32PX         0.00000   0.00000  -0.09048   0.00000   0.00000
  49       32PY        -0.09055   0.00000   0.00000   0.00000   0.00000
  50       32PZ         0.00000  -0.09055   0.00000   0.00000   0.00000
  51       33PX         0.00000   0.00000   0.05788   0.00000   0.00000
  52       33PY         0.05649   0.00000   0.00000   0.00000   0.00000
  53       33PZ         0.00000   0.05649   0.00000   0.00000   0.00000
  54       34PX         0.00000   0.00000   0.32379   0.00000   0.00000
  55       34PY         0.32354   0.00000   0.00000   0.00000   0.00000
  56       34PZ         0.00000   0.32354   0.00000   0.00000   0.00000
  57       35PX         0.00000   0.00000   0.23994   0.00000   0.00000
  58       35PY         0.23757   0.00000   0.00000   0.00000   0.00000
  59       35PZ         0.00000   0.23757   0.00000   0.00000   0.00000
  60       36PX         0.00000   0.00000   0.28445   0.00000   0.00000
  61       36PY         0.28625   0.00000   0.00000   0.00000   0.00000
  62       36PZ         0.00000   0.28625   0.00000   0.00000   0.00000
  63       37PX         0.00000   0.00000   0.03637   0.00000   0.00000
  64       37PY         0.03862   0.00000   0.00000   0.00000   0.00000
  65       37PZ         0.00000   0.03862   0.00000   0.00000   0.00000
  66       38PX         0.00000   0.00000  -0.00179   0.00000   0.00000
  67       38PY        -0.00184   0.00000   0.00000   0.00000   0.00000
  68       38PZ         0.00000  -0.00184   0.00000   0.00000   0.00000
  69       39PX         0.00000   0.00000   0.00116   0.00000   0.00000
  70       39PY         0.00123   0.00000   0.00000   0.00000   0.00000
  71       39PZ         0.00000   0.00123   0.00000   0.00000   0.00000
  72       40PX         0.00000   0.00000  -0.01966   0.00000   0.00000
  73       40PY        -0.01778   0.00000   0.00000   0.00000   0.00000
  74       40PZ         0.00000  -0.01778   0.00000   0.00000   0.00000
  75       41PX         0.00000   0.00000   0.22504   0.00000   0.00000
  76       41PY         0.22466   0.00000   0.00000   0.00000   0.00000
  77       41PZ         0.00000   0.22466   0.00000   0.00000   0.00000
  78       42PX         0.00000   0.00000  -0.00033   0.00000   0.00000
  79       42PY        -0.00035   0.00000   0.00000   0.00000   0.00000
  80       42PZ         0.00000  -0.00035   0.00000   0.00000   0.00000
  81       43D 0        0.00000   0.00000   0.00000   0.00176  -0.00000
  82       43D+1        0.00000   0.00000   0.00000   0.00000   0.00000
  83       43D-1        0.00000   0.00000   0.00000   0.00000   0.00000
  84       43D+2        0.00000   0.00000   0.00000   0.00101   0.00001
  85       43D-2        0.00000   0.00000   0.00000   0.00000   0.00000
  86       44D 0        0.00000   0.00000   0.00000   0.02191  -0.00005
  87       44D+1        0.00000   0.00000   0.00000   0.00000   0.00000
  88       44D-1        0.00000   0.00000   0.00000   0.00000   0.00000
  89       44D+2        0.00000   0.00000   0.00000   0.01265   0.00008
  90       44D-2        0.00000   0.00000   0.00000   0.00000   0.00000
  91       45D 0        0.00000   0.00000   0.00000   0.09150  -0.00020
  92       45D+1        0.00000   0.00000   0.00000   0.00000   0.00000
  93       45D-1        0.00000   0.00000   0.00000   0.00000   0.00000
  94       45D+2        0.00000   0.00000   0.00000   0.05283   0.00035
  95       45D-2        0.00000   0.00000   0.00000   0.00000   0.00000
  96       46D 0        0.00000   0.00000   0.00000   0.18819  -0.00056
  97       46D+1        0.00000   0.00000   0.00000   0.00000   0.00000
  98       46D-1        0.00000   0.00000   0.00000   0.00000   0.00000
  99       46D+2        0.00000   0.00000   0.00000   0.10865   0.00097
 100       46D-2        0.00000   0.00000   0.00000   0.00000   0.00000
 101       47D 0        0.00000   0.00000   0.00000   0.38368   0.00080
 102       47D+1        0.00000   0.00000   0.00000   0.00000   0.00000
 103       47D-1        0.00000   0.00000   0.00000   0.00000   0.00000
 104       47D+2        0.00000   0.00000   0.00000   0.22152  -0.00138
 105       47D-2        0.00000   0.00000   0.00000   0.00000   0.00000
 106       48D 0        0.00000   0.00000   0.00000   0.31473  -0.00161
 107       48D+1        0.00000   0.00000   0.00000   0.00000   0.00000
 108       48D-1        0.00000   0.00000   0.00000   0.00000   0.00000
 109       48D+2        0.00000   0.00000   0.00000   0.18171   0.00278
 110       48D-2        0.00000   0.00000   0.00000   0.00000   0.00000
 111       49D 0        0.00000   0.00000   0.00000   0.19811  -0.00474
 112       49D+1        0.00000   0.00000   0.00000   0.00000   0.00000
 113       49D-1        0.00000   0.00000   0.00000   0.00000   0.00000
 114       49D+2        0.00000   0.00000   0.00000   0.11438   0.00820
 115       49D-2        0.00000   0.00000   0.00000   0.00000   0.00000
 116       50D 0        0.00000   0.00000   0.00000   0.04148  -0.00407
 117       50D+1        0.00000   0.00000   0.00000   0.00000   0.00000
 118       50D-1        0.00000   0.00000   0.00000   0.00000   0.00000
 119       50D+2        0.00000   0.00000   0.00000   0.02395   0.00705
 120       50D-2        0.00000   0.00000   0.00000   0.00000   0.00000
 121       51D 0        0.00000   0.00000   0.00000   0.02536   0.00020
 122       51D+1        0.00000   0.00000   0.00000   0.00000   0.00000
 123       51D-1        0.00000   0.00000   0.00000   0.00000   0.00000
 124       51D+2        0.00000   0.00000   0.00000   0.01464  -0.00035
 125       51D-2        0.00000   0.00000   0.00000   0.00000   0.00000
 126       52D 0        0.00000   0.00000   0.00000  -0.07516  -0.00123
 127       52D+1        0.00000   0.00000   0.00000   0.00000   0.00000
 128       52D-1        0.00000   0.00000   0.00000   0.00000   0.00000
 129       52D+2        0.00000   0.00000   0.00000  -0.04339   0.00213
 130       52D-2        0.00000   0.00000   0.00000   0.00000   0.00000
 131       53D 0        0.00000   0.00000   0.00000  -0.00212  -0.00039
 132       53D+1        0.00000   0.00000   0.00000   0.00000   0.00000
 133       53D-1        0.00000   0.00000   0.00000   0.00000   0.00000
 134       53D+2        0.00000   0.00000   0.00000  -0.00122   0.00068
 135       53D-2        0.00000   0.00000   0.00000   0.00000   0.00000
 136       54F 0        0.00000   0.00074   0.00000   0.00000   0.00000
 137       54F+1        0.00000   0.00000  -0.00052   0.00000   0.00000
 138       54F-1       -0.00128   0.00000   0.00000   0.00000   0.00000
 139       54F+2        0.00000   0.00105   0.00000   0.00000   0.00000
 140       54F-2        0.00000   0.00000   0.00000   0.00000   0.00000
 141       54F+3        0.00000   0.00000   0.00067   0.00000   0.00000
 142       54F-3        0.00006   0.00000   0.00000   0.00000   0.00000
 143       55F 0        0.00000   0.00125   0.00000   0.00000   0.00000
 144       55F+1        0.00000   0.00000  -0.00167   0.00000   0.00000
 145       55F-1       -0.00304   0.00000   0.00000   0.00000   0.00000
 146       55F+2        0.00000   0.00287   0.00000   0.00000   0.00000
 147       55F-2        0.00000   0.00000   0.00000   0.00000   0.00000
 148       55F+3        0.00000   0.00000   0.00215   0.00000   0.00000
 149       55F-3        0.00077   0.00000   0.00000   0.00000   0.00000
 150       56F 0        0.00000   0.00239   0.00000   0.00000   0.00000
 151       56F+1        0.00000   0.00000  -0.00085   0.00000   0.00000
 152       56F-1       -0.00323   0.00000   0.00000   0.00000   0.00000
 153       56F+2        0.00000   0.00223   0.00000   0.00000   0.00000
 154       56F-2        0.00000   0.00000   0.00000   0.00000   0.00000
 155       56F+3        0.00000   0.00000   0.00110   0.00000   0.00000
 156       56F-3       -0.00053   0.00000   0.00000   0.00000   0.00000
 157       57F 0        0.00000   0.00070   0.00000   0.00000   0.00000
 158       57F+1        0.00000   0.00000   0.00005   0.00000   0.00000
 159       57F-1       -0.00062   0.00000   0.00000   0.00000   0.00000
 160       57F+2        0.00000   0.00024   0.00000   0.00000   0.00000
 161       57F-2        0.00000   0.00000   0.00000   0.00000   0.00000
 162       57F+3        0.00000   0.00000  -0.00006   0.00000   0.00000
 163       57F-3       -0.00041   0.00000   0.00000   0.00000   0.00000
 164       58G 0        0.00000   0.00000   0.00000  -0.00022   0.00002
 165       58G+1        0.00000   0.00000   0.00000   0.00000   0.00000
 166       58G-1        0.00000   0.00000   0.00000   0.00000   0.00000
 167       58G+2        0.00000   0.00000   0.00000   0.00020   0.00001
 168       58G-2        0.00000   0.00000   0.00000   0.00000   0.00000
 169       58G+3        0.00000   0.00000   0.00000   0.00000   0.00000
 170       58G-3        0.00000   0.00000   0.00000   0.00000   0.00000
 171       58G+4        0.00000   0.00000   0.00000   0.00026   0.00001
 172       58G-4        0.00000   0.00000   0.00000   0.00000   0.00000
 173       59G 0        0.00000   0.00000   0.00000  -0.00054   0.00013
 174       59G+1        0.00000   0.00000   0.00000   0.00000   0.00000
 175       59G-1        0.00000   0.00000   0.00000   0.00000   0.00000
 176       59G+2        0.00000   0.00000   0.00000   0.00049   0.00009
 177       59G-2        0.00000   0.00000   0.00000   0.00000   0.00000
 178       59G+3        0.00000   0.00000   0.00000   0.00000   0.00000
 179       59G-3        0.00000   0.00000   0.00000   0.00000   0.00000
 180       59G+4        0.00000   0.00000   0.00000   0.00064   0.00005
 181       59G-4        0.00000   0.00000   0.00000   0.00000   0.00000
 182       60G 0        0.00000   0.00000   0.00000  -0.00059  -0.00007
 183       60G+1        0.00000   0.00000   0.00000   0.00000   0.00000
 184       60G-1        0.00000   0.00000   0.00000   0.00000   0.00000
 185       60G+2        0.00000   0.00000   0.00000   0.00052  -0.00009
 186       60G-2        0.00000   0.00000   0.00000   0.00000   0.00000
 187       60G+3        0.00000   0.00000   0.00000   0.00000   0.00000
 188       60G-3        0.00000   0.00000   0.00000   0.00000   0.00000
 189       60G+4        0.00000   0.00000   0.00000   0.00069   0.00001
 190       60G-4        0.00000   0.00000   0.00000   0.00000   0.00000
                           7         8         9        10        11
                           O     (T2G)--O  (T2G)--O  (T2G)--O      V
     Eigenvalues --    -0.69473  -0.66306  -0.61101  -0.27673   0.01924
   1 1   Fe 1S          0.00000   0.00000   0.00000   0.00000   0.00000
   2        2S          0.00000   0.00000   0.00000   0.00000   0.00000
   3        3S         -0.00000   0.00000   0.00000   0.00000   0.00000
   4        4S          0.00000   0.00000   0.00000   0.00000   0.00000
   5        5S         -0.00000   0.00000   0.00000   0.00000   0.00000
   6        6S          0.00000   0.00000   0.00000   0.00000   0.00000
   7        7S         -0.00000   0.00000   0.00000   0.00000   0.00000
   8        8S          0.00000   0.00000   0.00000   0.00000   0.00000
   9        9S         -0.00001   0.00000   0.00000   0.00000   0.00000
  10       10S          0.00003   0.00000   0.00000   0.00000   0.00000
  11       11S         -0.00009   0.00000   0.00000   0.00000   0.00000
  12       12S          0.00035   0.00000   0.00000   0.00000   0.00000
  13       13S         -0.00025   0.00000   0.00000   0.00000   0.00000
  14       14S         -0.00258   0.00000   0.00000   0.00000   0.00000
  15       15S          0.00226   0.00000   0.00000   0.00000   0.00000
  16       16S          0.00112   0.00000   0.00000   0.00000   0.00000
  17       17S          0.00055   0.00000   0.00000   0.00000   0.00000
  18       18S         -0.00551   0.00000   0.00000   0.00000   0.00000
  19       19S         -0.00473   0.00000   0.00000   0.00000   0.00000
  20       20S         -0.00290   0.00000   0.00000   0.00000   0.00000
  21       21S         -0.00018   0.00000   0.00000   0.00000   0.00000
  22       22S          0.00509   0.00000   0.00000   0.00000   0.00000
  23       23S          0.00013   0.00000   0.00000   0.00000   0.00000
  24       24PX         0.00000   0.00000   0.00000   0.00000  -0.00000
  25       24PY         0.00000   0.00000   0.00000   0.00000   0.00000
  26       24PZ         0.00000   0.00000   0.00000   0.00000   0.00000
  27       25PX         0.00000   0.00000   0.00000   0.00000   0.00000
  28       25PY         0.00000   0.00000   0.00000   0.00000   0.00000
  29       25PZ         0.00000   0.00000   0.00000   0.00000   0.00000
  30       26PX         0.00000   0.00000   0.00000   0.00000  -0.00000
  31       26PY         0.00000   0.00000   0.00000   0.00000   0.00000
  32       26PZ         0.00000   0.00000   0.00000   0.00000   0.00000
  33       27PX         0.00000   0.00000   0.00000   0.00000   0.00001
  34       27PY         0.00000   0.00000   0.00000   0.00000   0.00000
  35       27PZ         0.00000   0.00000   0.00000   0.00000   0.00000
  36       28PX         0.00000   0.00000   0.00000   0.00000  -0.00007
  37       28PY         0.00000   0.00000   0.00000   0.00000   0.00000
  38       28PZ         0.00000   0.00000   0.00000   0.00000   0.00000
  39       29PX         0.00000   0.00000   0.00000   0.00000   0.00018
  40       29PY         0.00000   0.00000   0.00000   0.00000   0.00000
  41       29PZ         0.00000   0.00000   0.00000   0.00000   0.00000
  42       30PX         0.00000   0.00000   0.00000   0.00000  -0.00082
  43       30PY         0.00000   0.00000   0.00000   0.00000   0.00000
  44       30PZ         0.00000   0.00000   0.00000   0.00000   0.00000
  45       31PX         0.00000   0.00000   0.00000   0.00000   0.00168
  46       31PY         0.00000   0.00000   0.00000   0.00000   0.00000
  47       31PZ         0.00000   0.00000   0.00000   0.00000   0.00000
  48       32PX         0.00000   0.00000   0.00000   0.00000   0.00089
  49       32PY         0.00000   0.00000   0.00000   0.00000   0.00000
  50       32PZ         0.00000   0.00000   0.00000   0.00000   0.00000
  51       33PX         0.00000   0.00000   0.00000   0.00000  -0.06070
  52       33PY         0.00000   0.00000   0.00000   0.00000   0.00000
  53       33PZ         0.00000   0.00000   0.00000   0.00000   0.00000
  54       34PX         0.00000   0.00000   0.00000   0.00000  -0.01282
  55       34PY         0.00000   0.00000   0.00000   0.00000   0.00000
  56       34PZ         0.00000   0.00000   0.00000   0.00000   0.00000
  57       35PX         0.00000   0.00000   0.00000   0.00000  -0.05974
  58       35PY         0.00000   0.00000   0.00000   0.00000   0.00000
  59       35PZ         0.00000   0.00000   0.00000   0.00000   0.00000
  60       36PX         0.00000   0.00000   0.00000   0.00000  -0.00724
  61       36PY         0.00000   0.00000   0.00000   0.00000   0.00000
  62       36PZ         0.00000   0.00000   0.00000   0.00000   0.00000
  63       37PX         0.00000   0.00000   0.00000   0.00000  -0.00053
  64       37PY         0.00000   0.00000   0.00000   0.00000   0.00000
  65       37PZ         0.00000   0.00000   0.00000   0.00000   0.00000
  66       38PX         0.00000   0.00000   0.00000   0.00000   0.23156
  67       38PY         0.00000   0.00000   0.00000   0.00000   0.00000
  68       38PZ         0.00000   0.00000   0.00000   0.00000   0.00000
  69       39PX         0.00000   0.00000   0.00000   0.00000  -0.05750
  70       39PY         0.00000   0.00000   0.00000   0.00000   0.00000
  71       39PZ         0.00000   0.00000   0.00000   0.00000   0.00000
  72       40PX         0.00000   0.00000   0.00000   0.00000   0.05525
  73       40PY         0.00000   0.00000   0.00000   0.00000   0.00000
  74       40PZ         0.00000   0.00000   0.00000   0.00000   0.00000
  75       41PX         0.00000   0.00000   0.00000   0.00000   0.00935
  76       41PY         0.00000   0.00000   0.00000   0.00000   0.00000
  77       41PZ         0.00000   0.00000   0.00000   0.00000   0.00000
  78       42PX         0.00000   0.00000   0.00000   0.00000   0.94774
  79       42PY         0.00000   0.00000   0.00000   0.00000   0.00000
  80       42PZ         0.00000   0.00000   0.00000   0.00000   0.00000
  81       43D 0       -0.00105   0.00000   0.00000   0.00000   0.00000
  82       43D+1        0.00000   0.00209   0.00000   0.00000   0.00000
  83       43D-1        0.00000   0.00000   0.00000   0.00208   0.00000
  84       43D+2        0.00182   0.00000   0.00000   0.00000   0.00000
  85       43D-2        0.00000   0.00000   0.00209   0.00000   0.00000
  86       44D 0       -0.01306   0.00000   0.00000   0.00000   0.00000
  87       44D+1        0.00000   0.02607   0.00000   0.00000   0.00000
  88       44D-1        0.00000   0.00000   0.00000   0.02594   0.00000
  89       44D+2        0.02262   0.00000   0.00000   0.00000   0.00000
  90       44D-2        0.00000   0.00000   0.02607   0.00000   0.00000
  91       45D 0       -0.05454   0.00000   0.00000   0.00000   0.00000
  92       45D+1        0.00000   0.10889   0.00000   0.00000   0.00000
  93       45D-1        0.00000   0.00000   0.00000   0.10833   0.00000
  94       45D+2        0.09446   0.00000   0.00000   0.00000   0.00000
  95       45D-2        0.00000   0.00000   0.10889   0.00000   0.00000
  96       46D 0       -0.11188   0.00000   0.00000   0.00000   0.00000
  97       46D+1        0.00000   0.22344   0.00000   0.00000   0.00000
  98       46D-1        0.00000   0.00000   0.00000   0.22229   0.00000
  99       46D+2        0.19378   0.00000   0.00000   0.00000   0.00000
 100       46D-2        0.00000   0.00000   0.22344   0.00000   0.00000
 101       47D 0       -0.23863   0.00000   0.00000   0.00000   0.00000
 102       47D+1        0.00000   0.47509   0.00000   0.00000   0.00000
 103       47D-1        0.00000   0.00000   0.00000   0.46987   0.00000
 104       47D+2        0.41332   0.00000   0.00000   0.00000   0.00000
 105       47D-2        0.00000   0.00000   0.47509   0.00000   0.00000
 106       48D 0       -0.18359   0.00000   0.00000   0.00000   0.00000
 107       48D+1        0.00000   0.36708   0.00000   0.00000   0.00000
 108       48D-1        0.00000   0.00000   0.00000   0.36663   0.00000
 109       48D+2        0.31798   0.00000   0.00000   0.00000   0.00000
 110       48D-2        0.00000   0.00000   0.36708   0.00000   0.00000
 111       49D 0       -0.09682   0.00000   0.00000   0.00000   0.00000
 112       49D+1        0.00000   0.19564   0.00000   0.00000   0.00000
 113       49D-1        0.00000   0.00000   0.00000   0.20148   0.00000
 114       49D+2        0.16769   0.00000   0.00000   0.00000   0.00000
 115       49D-2        0.00000   0.00000   0.19564   0.00000   0.00000
 116       50D 0       -0.01232   0.00000   0.00000   0.00000   0.00000
 117       50D+1        0.00000   0.02576   0.00000   0.00000   0.00000
 118       50D-1        0.00000   0.00000   0.00000   0.02915   0.00000
 119       50D+2        0.02133   0.00000   0.00000   0.00000   0.00000
 120       50D-2        0.00000   0.00000   0.02576   0.00000   0.00000
 121       51D 0       -0.01632   0.00000   0.00000   0.00000   0.00000
 122       51D+1        0.00000   0.03243   0.00000   0.00000   0.00000
 123       51D-1        0.00000   0.00000   0.00000   0.03198   0.00000
 124       51D+2        0.02827   0.00000   0.00000   0.00000   0.00000
 125       51D-2        0.00000   0.00000   0.03243   0.00000   0.00000
 126       52D 0        0.05254   0.00000   0.00000   0.00000   0.00000
 127       52D+1        0.00000  -0.10376   0.00000   0.00000   0.00000
 128       52D-1        0.00000   0.00000   0.00000  -0.10107   0.00000
 129       52D+2       -0.09101   0.00000   0.00000   0.00000   0.00000
 130       52D-2        0.00000   0.00000  -0.10376   0.00000   0.00000
 131       53D 0        0.00058   0.00000   0.00000   0.00000   0.00000
 132       53D+1        0.00000  -0.00124   0.00000   0.00000   0.00000
 133       53D-1        0.00000   0.00000   0.00000  -0.00149   0.00000
 134       53D+2       -0.00101   0.00000   0.00000   0.00000   0.00000
 135       53D-2        0.00000   0.00000  -0.00124   0.00000   0.00000
 136       54F 0        0.00000   0.00000   0.00000   0.00000   0.00000
 137       54F+1        0.00000   0.00000   0.00000   0.00000   0.00004
 138       54F-1        0.00000   0.00000   0.00000   0.00000   0.00000
 139       54F+2        0.00000   0.00000   0.00000   0.00000   0.00000
 140       54F-2        0.00000   0.00000   0.00000   0.00000   0.00000
 141       54F+3        0.00000   0.00000   0.00000   0.00000  -0.00006
 142       54F-3        0.00000   0.00000   0.00000   0.00000   0.00000
 143       55F 0        0.00000   0.00000   0.00000   0.00000   0.00000
 144       55F+1        0.00000   0.00000   0.00000   0.00000   0.00009
 145       55F-1        0.00000   0.00000   0.00000   0.00000   0.00000
 146       55F+2        0.00000   0.00000   0.00000   0.00000   0.00000
 147       55F-2        0.00000   0.00000   0.00000   0.00000   0.00000
 148       55F+3        0.00000   0.00000   0.00000   0.00000  -0.00012
 149       55F-3        0.00000   0.00000   0.00000   0.00000   0.00000
 150       56F 0        0.00000   0.00000   0.00000   0.00000   0.00000
 151       56F+1        0.00000   0.00000   0.00000   0.00000  -0.00010
 152       56F-1        0.00000   0.00000   0.00000   0.00000   0.00000
 153       56F+2        0.00000   0.00000   0.00000   0.00000   0.00000
 154       56F-2        0.00000   0.00000   0.00000   0.00000   0.00000
 155       56F+3        0.00000   0.00000   0.00000   0.00000   0.00013
 156       56F-3        0.00000   0.00000   0.00000   0.00000   0.00000
 157       57F 0        0.00000   0.00000   0.00000   0.00000   0.00000
 158       57F+1        0.00000   0.00000   0.00000   0.00000  -0.00132
 159       57F-1        0.00000   0.00000   0.00000   0.00000   0.00000
 160       57F+2        0.00000   0.00000   0.00000   0.00000   0.00000
 161       57F-2        0.00000   0.00000   0.00000   0.00000   0.00000
 162       57F+3        0.00000   0.00000   0.00000   0.00000   0.00170
 163       57F-3        0.00000   0.00000   0.00000   0.00000   0.00000
 164       58G 0        0.00077   0.00000   0.00000   0.00000   0.00000
 165       58G+1        0.00000  -0.00094   0.00000   0.00000   0.00000
 166       58G-1        0.00000   0.00000   0.00000  -0.00021   0.00000
 167       58G+2       -0.00022   0.00000   0.00000   0.00000   0.00000
 168       58G-2        0.00000   0.00000  -0.00003   0.00000   0.00000
 169       58G+3        0.00000   0.00039   0.00000   0.00000   0.00000
 170       58G-3        0.00000   0.00000   0.00000   0.00056   0.00000
 171       58G+4        0.00082   0.00000   0.00000   0.00000   0.00000
 172       58G-4        0.00000   0.00000   0.00102   0.00000   0.00000
 173       59G 0        0.00183   0.00000   0.00000   0.00000   0.00000
 174       59G+1        0.00000  -0.00223   0.00000   0.00000   0.00000
 175       59G-1        0.00000   0.00000   0.00000  -0.00049   0.00000
 176       59G+2       -0.00049   0.00000   0.00000   0.00000   0.00000
 177       59G-2        0.00000   0.00000  -0.00006   0.00000   0.00000
 178       59G+3        0.00000   0.00091   0.00000   0.00000   0.00000
 179       59G-3        0.00000   0.00000   0.00000   0.00130   0.00000
 180       59G+4        0.00191   0.00000   0.00000   0.00000   0.00000
 181       59G-4        0.00000   0.00000   0.00240   0.00000   0.00000
 182       60G 0        0.00159   0.00000   0.00000   0.00000   0.00000
 183       60G+1        0.00000  -0.00211   0.00000   0.00000   0.00000
 184       60G-1        0.00000   0.00000   0.00000  -0.00053   0.00000
 185       60G+2       -0.00074   0.00000   0.00000   0.00000   0.00000
 186       60G-2        0.00000   0.00000  -0.00027   0.00000   0.00000
 187       60G+3        0.00000   0.00108   0.00000   0.00000   0.00000
 188       60G-3        0.00000   0.00000   0.00000   0.00140   0.00000
 189       60G+4        0.00190   0.00000   0.00000   0.00000   0.00000
 190       60G-4        0.00000   0.00000   0.00235   0.00000   0.00000
                          12        13        14        15
                           V         V     (A1G)--V      V
     Eigenvalues --     0.02105   0.02105   0.02818   0.06775
   1 1   Fe 1S          0.00000   0.00000  -0.00000   0.00000
   2        2S          0.00000   0.00000  -0.00000   0.00000
   3        3S          0.00000   0.00000  -0.00000   0.00000
   4        4S          0.00000   0.00000   0.00000   0.00000
   5        5S          0.00000   0.00000  -0.00000   0.00000
   6        6S          0.00000   0.00000   0.00000   0.00000
   7        7S          0.00000   0.00000  -0.00001   0.00000
   8        8S          0.00000   0.00000   0.00001   0.00000
   9        9S          0.00000   0.00000  -0.00008   0.00000
  10       10S          0.00000   0.00000   0.00011   0.00000
  11       11S          0.00000   0.00000  -0.00028   0.00000
  12       12S          0.00000   0.00000   0.00011   0.00000
  13       13S          0.00000   0.00000  -0.00979   0.00000
  14       14S          0.00000   0.00000   0.08421   0.00000
  15       15S          0.00000   0.00000   0.22088   0.00000
  16       16S          0.00000   0.00000  -0.57361   0.00000
  17       17S          0.00000   0.00000  -0.26555   0.00000
  18       18S          0.00000   0.00000   0.45994   0.00000
  19       19S          0.00000   0.00000  -0.93344   0.00000
  20       20S          0.00000   0.00000   2.45999   0.00000
  21       21S          0.00000   0.00000  -0.18531   0.00000
  22       22S          0.00000   0.00000   0.58021   0.00000
  23       23S          0.00000   0.00000  -2.42199   0.00000
  24       24PX         0.00000   0.00000   0.00000   0.00000
  25       24PY         0.00000  -0.00000   0.00000   0.00000
  26       24PZ        -0.00000   0.00000   0.00000   0.00000
  27       25PX         0.00000   0.00000   0.00000  -0.00000
  28       25PY         0.00000   0.00000   0.00000   0.00000
  29       25PZ         0.00000   0.00000   0.00000   0.00000
  30       26PX         0.00000   0.00000   0.00000   0.00001
  31       26PY         0.00000  -0.00000   0.00000   0.00000
  32       26PZ        -0.00000   0.00000   0.00000   0.00000
  33       27PX         0.00000   0.00000   0.00000  -0.00004
  34       27PY         0.00000   0.00001   0.00000   0.00000
  35       27PZ         0.00001   0.00000   0.00000   0.00000
  36       28PX         0.00000   0.00000   0.00000   0.00009
  37       28PY         0.00000  -0.00007   0.00000   0.00000
  38       28PZ        -0.00007   0.00000   0.00000   0.00000
  39       29PX         0.00000   0.00000   0.00000  -0.00041
  40       29PY         0.00000   0.00019   0.00000   0.00000
  41       29PZ         0.00019   0.00000   0.00000   0.00000
  42       30PX         0.00000   0.00000   0.00000   0.00085
  43       30PY         0.00000  -0.00082   0.00000   0.00000
  44       30PZ        -0.00082   0.00000   0.00000   0.00000
  45       31PX         0.00000   0.00000   0.00000  -0.00429
  46       31PY         0.00000   0.00177   0.00000   0.00000
  47       31PZ         0.00177   0.00000   0.00000   0.00000
  48       32PX         0.00000   0.00000   0.00000   0.03075
  49       32PY         0.00000  -0.00021   0.00000   0.00000
  50       32PZ        -0.00021   0.00000   0.00000   0.00000
  51       33PX         0.00000   0.00000   0.00000   0.19395
  52       33PY         0.00000  -0.06518   0.00000   0.00000
  53       33PZ        -0.06518   0.00000   0.00000   0.00000
  54       34PX         0.00000   0.00000   0.00000  -0.08344
  55       34PY         0.00000  -0.00943   0.00000   0.00000
  56       34PZ        -0.00943   0.00000   0.00000   0.00000
  57       35PX         0.00000   0.00000   0.00000   0.11400
  58       35PY         0.00000  -0.06133   0.00000   0.00000
  59       35PZ        -0.06133   0.00000   0.00000   0.00000
  60       36PX         0.00000   0.00000   0.00000  -0.11532
  61       36PY         0.00000  -0.00313   0.00000   0.00000
  62       36PZ        -0.00313   0.00000   0.00000   0.00000
  63       37PX         0.00000   0.00000   0.00000   0.18662
  64       37PY         0.00000  -0.00928   0.00000   0.00000
  65       37PZ        -0.00928   0.00000   0.00000   0.00000
  66       38PX         0.00000   0.00000   0.00000  -0.07719
  67       38PY         0.00000   0.22180   0.00000   0.00000
  68       38PZ         0.22180   0.00000   0.00000   0.00000
  69       39PX         0.00000   0.00000   0.00000   1.46558
  70       39PY         0.00000  -0.10052   0.00000   0.00000
  71       39PZ        -0.10052   0.00000   0.00000   0.00000
  72       40PX         0.00000   0.00000   0.00000  -0.19194
  73       40PY         0.00000   0.05984   0.00000   0.00000
  74       40PZ         0.05984   0.00000   0.00000   0.00000
  75       41PX         0.00000   0.00000   0.00000  -0.12738
  76       41PY         0.00000   0.01354   0.00000   0.00000
  77       41PZ         0.01354   0.00000   0.00000   0.00000
  78       42PX         0.00000   0.00000   0.00000  -1.21305
  79       42PY         0.00000   0.98941   0.00000   0.00000
  80       42PZ         0.98941   0.00000   0.00000   0.00000
  81       43D 0        0.00000   0.00000   0.00000   0.00000
  82       43D+1        0.00000   0.00000   0.00000   0.00000
  83       43D-1        0.00000   0.00000   0.00000   0.00000
  84       43D+2        0.00000   0.00000  -0.00000   0.00000
  85       43D-2        0.00000   0.00000   0.00000   0.00000
  86       44D 0        0.00000   0.00000   0.00002   0.00000
  87       44D+1        0.00000   0.00000   0.00000   0.00000
[...]
 176       59G+2        0.00000
 177       59G-2        0.00000   0.00000
 178       59G+3        0.00000   0.00000   0.00000
 179       59G-3       -0.00000  -0.00000   0.00000   0.00000
 180       59G+4       -0.00000   0.00000  -0.00000   0.00000   0.00000
 181       59G-4        0.00000   0.00000  -0.00000   0.00000   0.00000
 182       60G 0        0.00000  -0.00000  -0.00000   0.00000   0.00000
 183       60G+1       -0.00000  -0.00000   0.00000  -0.00000  -0.00000
 184       60G-1       -0.00000  -0.00000   0.00000   0.00000   0.00000
 185       60G+2        0.00000  -0.00000   0.00000  -0.00000   0.00000
 186       60G-2       -0.00000   0.00000  -0.00000   0.00000   0.00000
 187       60G+3        0.00000  -0.00000   0.00000  -0.00000  -0.00000
 188       60G-3       -0.00000   0.00000  -0.00000   0.00000   0.00000
 189       60G+4        0.00000   0.00000   0.00000   0.00000   0.00000
 190       60G-4       -0.00000  -0.00000  -0.00000   0.00000  -0.00000
                         181       182       183       184       185
 181       59G-4        0.00001
 182       60G 0        0.00000   0.00000
 183       60G+1       -0.00000   0.00000   0.00000
 184       60G-1       -0.00000   0.00000  -0.00000   0.00000
 185       60G+2        0.00000   0.00000  -0.00000  -0.00000   0.00000
 186       60G-2       -0.00000  -0.00000   0.00000   0.00000   0.00000
 187       60G+3       -0.00000   0.00000   0.00000  -0.00000  -0.00000
 188       60G-3       -0.00000   0.00000  -0.00000   0.00000  -0.00000
 189       60G+4       -0.00000  -0.00000   0.00000  -0.00000  -0.00000
 190       60G-4        0.00000  -0.00000  -0.00000   0.00000  -0.00000
                         186       187       188       189       190
 186       60G-2        0.00000
 187       60G+3       -0.00000   0.00000
 188       60G-3       -0.00000   0.00000   0.00000
 189       60G+4       -0.00000   0.00000  -0.00000   0.00000
 190       60G-4       -0.00000  -0.00000   0.00000  -0.00000   0.00001
     Gross orbital populations:
                         Total     Alpha     Beta      Spin
   1 1   Fe 1S          0.00000   0.00000   0.00000   0.00000
   2        2S          0.00000   0.00000   0.00000   0.00000
   3        3S          0.00000   0.00000   0.00000  -0.00000
   4        4S          0.00000   0.00000   0.00000   0.00000
   5        5S         -0.00000  -0.00000  -0.00000  -0.00000
   6        6S          0.00000   0.00000   0.00000   0.00000
   7        7S         -0.00000  -0.00000  -0.00000  -0.00000
   8        8S          0.00000   0.00000   0.00000   0.00000
   9        9S         -0.00001  -0.00001  -0.00001  -0.00000
  10       10S          0.00008   0.00004   0.00004   0.00000
  11       11S         -0.00048  -0.00024  -0.00024  -0.00000
  12       12S          0.00546   0.00273   0.00273   0.00000
  13       13S         -0.00002  -0.00001  -0.00001  -0.00000
  14       14S         -0.40119  -0.20060  -0.20059  -0.00000
  15       15S          0.01446   0.00723   0.00723   0.00001
  16       16S          1.62716   0.81358   0.81358   0.00000
  17       17S          0.67827   0.33913   0.33913   0.00000
  18       18S          0.55002   0.27503   0.27499   0.00005
  19       19S          1.02935   0.51470   0.51465   0.00005
  20       20S          0.45156   0.22579   0.22577   0.00003
  21       21S          0.22273   0.11136   0.11136  -0.00000
  22       22S         -0.17598  -0.08798  -0.08800   0.00001
  23       23S         -0.00195  -0.00097  -0.00097  -0.00000
  24       24PX         0.00000   0.00000   0.00000   0.00000
  25       24PY         0.00000   0.00000   0.00000   0.00000
  26       24PZ         0.00000   0.00000   0.00000   0.00000
  27       25PX        -0.00000  -0.00000  -0.00000   0.00000
  28       25PY        -0.00000  -0.00000  -0.00000   0.00000
  29       25PZ        -0.00000  -0.00000  -0.00000  -0.00000
  30       26PX         0.00000   0.00000   0.00000   0.00000
  31       26PY         0.00000   0.00000   0.00000   0.00000
  32       26PZ         0.00000   0.00000   0.00000   0.00000
  33       27PX        -0.00000  -0.00000  -0.00000   0.00000
  34       27PY        -0.00000  -0.00000  -0.00000  -0.00000
  35       27PZ        -0.00000  -0.00000  -0.00000  -0.00000
  36       28PX         0.00001   0.00000   0.00000   0.00000
  37       28PY         0.00001   0.00000   0.00000   0.00000
  38       28PZ         0.00001   0.00000   0.00000   0.00000
  39       29PX        -0.00003  -0.00001  -0.00001  -0.00000
  40       29PY        -0.00003  -0.00001  -0.00001  -0.00000
  41       29PZ        -0.00003  -0.00001  -0.00001  -0.00000
  42       30PX         0.00060   0.00030   0.00030  -0.00000
  43       30PY         0.00060   0.00030   0.00030   0.00000
  44       30PZ         0.00060   0.00030   0.00030   0.00000
  45       31PX        -0.00118  -0.00059  -0.00059   0.00000
  46       31PY        -0.00119  -0.00059  -0.00059  -0.00000
  47       31PZ        -0.00119  -0.00059  -0.00059  -0.00000
  48       32PX        -0.05773  -0.02886  -0.02886  -0.00000
  49       32PY        -0.05773  -0.02886  -0.02886  -0.00000
  50       32PZ        -0.05773  -0.02886  -0.02886  -0.00000
  51       33PX         0.06788   0.03394   0.03394   0.00000
  52       33PY         0.06618   0.03309   0.03309   0.00000
  53       33PZ         0.06618   0.03309   0.03309   0.00000
  54       34PX         0.55940   0.27970   0.27970   0.00000
  55       34PY         0.55842   0.27921   0.27921   0.00000
  56       34PZ         0.55842   0.27921   0.27921   0.00000
  57       35PX         0.47484   0.23742   0.23742   0.00000
  58       35PY         0.47002   0.23501   0.23501   0.00000
  59       35PZ         0.47002   0.23501   0.23501   0.00000
  60       36PX         0.49519   0.24759   0.24759   0.00000
  61       36PY         0.49898   0.24949   0.24949   0.00000
  62       36PZ         0.49898   0.24949   0.24949   0.00000
  63       37PX         0.03801   0.01901   0.01901   0.00000
  64       37PY         0.04055   0.02027   0.02027   0.00000
  65       37PZ         0.04055   0.02027   0.02027   0.00000
  66       38PX        -0.00083  -0.00041  -0.00041  -0.00000
  67       38PY        -0.00086  -0.00043  -0.00043  -0.00000
  68       38PZ        -0.00086  -0.00043  -0.00043  -0.00000
  69       39PX         0.00019   0.00009   0.00009   0.00000
  70       39PY         0.00020   0.00010   0.00010   0.00000
  71       39PZ         0.00020   0.00010   0.00010   0.00000
  72       40PX        -0.02141  -0.01070  -0.01070  -0.00000
  73       40PY        -0.01933  -0.00967  -0.00967  -0.00000
  74       40PZ        -0.01933  -0.00967  -0.00967  -0.00000
  75       41PX         0.44504   0.22252   0.22252   0.00000
  76       41PY         0.44412   0.22206   0.22206   0.00000
  77       41PZ         0.44412   0.22206   0.22206   0.00000
  78       42PX        -0.00002  -0.00001  -0.00001  -0.00000
  79       42PY        -0.00002  -0.00001  -0.00001  -0.00000
  80       42PZ        -0.00002  -0.00001  -0.00001  -0.00000
  81       43D 0        0.00017   0.00010   0.00007   0.00003
  82       43D+1        0.00010   0.00010   0.00000   0.00010
  83       43D-1        0.00010   0.00010   0.00000   0.00010
  84       43D+2        0.00012   0.00010   0.00002   0.00008
  85       43D-2        0.00010   0.00010   0.00000   0.00010
  86       44D 0        0.00831   0.00478   0.00353   0.00125
  87       44D+1        0.00500   0.00500   0.00000   0.00500
  88       44D-1        0.00495   0.00495   0.00000   0.00495
  89       44D+2        0.00611   0.00494   0.00118   0.00376
  90       44D-2        0.00500   0.00500   0.00000   0.00500
  91       45D 0        0.08023   0.04617   0.03405   0.01212
  92       45D+1        0.04832   0.04832   0.00000   0.04832
  93       45D-1        0.04782   0.04782   0.00000   0.04782
  94       45D+2        0.05907   0.04772   0.01135   0.03637
  95       45D-2        0.04832   0.04832   0.00000   0.04832
  96       46D 0        0.26950   0.15501   0.11449   0.04053
  97       46D+1        0.16162   0.16162   0.00000   0.16162
  98       46D-1        0.16001   0.16001   0.00000   0.16001
  99       46D+2        0.19791   0.15975   0.03817   0.12158
 100       46D-2        0.16162   0.16162   0.00000   0.16162
 101       47D 0        0.69262   0.39989   0.29273   0.10715
 102       47D+1        0.42628   0.42628   0.00000   0.42628
 103       47D-1        0.42037   0.42037   0.00000   0.42037
 104       47D+2        0.51659   0.41902   0.09757   0.32146
 105       47D-2        0.42628   0.42628   0.00000   0.42628
 106       48D 0        0.54346   0.31053   0.23293   0.07760
 107       48D+1        0.31056   0.31056   0.00000   0.31056
 108       48D-1        0.31080   0.31080   0.00000   0.31080
 109       48D+2        0.38814   0.31046   0.07767   0.23279
 110       48D-2        0.31056   0.31056   0.00000   0.31056
 111       49D 0        0.23507   0.13119   0.10388   0.02730
 112       49D+1        0.11079   0.11079   0.00000   0.11079
 113       49D-1        0.11546   0.11546   0.00000   0.11546
 114       49D+2        0.15138   0.11664   0.03474   0.08190
 115       49D-2        0.11079   0.11079   0.00000   0.11079
 116       50D 0        0.02078   0.01109   0.00969   0.00140
 117       50D+1        0.00591   0.00591   0.00000   0.00591
 118       50D-1        0.00688   0.00688   0.00000   0.00688
 119       50D+2        0.01082   0.00751   0.00331   0.00420
 120       50D-2        0.00591   0.00591   0.00000   0.00591
 121       51D 0        0.03817   0.02215   0.01602   0.00614
 122       51D+1        0.02435   0.02435   0.00000   0.02435
 123       51D-1        0.02389   0.02389   0.00000   0.02389
 124       51D+2        0.02908   0.02375   0.00534   0.01841
 125       51D-2        0.02435   0.02435   0.00000   0.02435
 126       52D 0       -0.13789  -0.08071  -0.05717  -0.02354
 127       52D+1       -0.09288  -0.09288  -0.00000  -0.09288
 128       52D-1       -0.09020  -0.09020  -0.00000  -0.09020
 129       52D+2       -0.10870  -0.08966  -0.01904  -0.07062
 130       52D-2       -0.09288  -0.09288  -0.00000  -0.09288
 131       53D 0       -0.00029  -0.00016  -0.00014  -0.00002
 132       53D+1       -0.00007  -0.00007  -0.00000  -0.00007
 133       53D-1       -0.00009  -0.00009  -0.00000  -0.00009
 134       53D+2       -0.00014  -0.00009  -0.00004  -0.00005
 135       53D-2       -0.00007  -0.00007  -0.00000  -0.00007
 136       54F 0        0.00000   0.00000   0.00000   0.00000
 137       54F+1        0.00000   0.00000   0.00000   0.00000
 138       54F-1        0.00001   0.00000   0.00000   0.00000
 139       54F+2        0.00001   0.00000   0.00000   0.00000
 140       54F-2        0.00000   0.00000   0.00000   0.00000
 141       54F+3        0.00000   0.00000   0.00000   0.00000
 142       54F-3        0.00000   0.00000   0.00000   0.00000
 143       55F 0        0.00001   0.00000   0.00000   0.00000
 144       55F+1        0.00001   0.00000   0.00000   0.00000
 145       55F-1        0.00003   0.00002   0.00002   0.00000
 146       55F+2        0.00003   0.00001   0.00001   0.00000
 147       55F-2        0.00000   0.00000   0.00000   0.00000
 148       55F+3        0.00001   0.00001   0.00001   0.00000
 149       55F-3        0.00000   0.00000   0.00000   0.00000
 150       56F 0        0.00002   0.00001   0.00001   0.00000
 151       56F+1        0.00000   0.00000   0.00000   0.00000
 152       56F-1        0.00003   0.00002   0.00002   0.00000
 153       56F+2        0.00002   0.00001   0.00001   0.00000
 154       56F-2        0.00000   0.00000   0.00000   0.00000
 155       56F+3        0.00001   0.00000   0.00000   0.00000
 156       56F-3        0.00000   0.00000   0.00000   0.00000
 157       57F 0        0.00000   0.00000   0.00000   0.00000
 158       57F+1       -0.00000  -0.00000  -0.00000  -0.00000
 159       57F-1        0.00000   0.00000   0.00000   0.00000
 160       57F+2        0.00000   0.00000   0.00000   0.00000
 161       57F-2        0.00000   0.00000   0.00000   0.00000
 162       57F+3       -0.00000  -0.00000  -0.00000  -0.00000
 163       57F-3        0.00000   0.00000   0.00000   0.00000
 164       58G 0        0.00000   0.00000   0.00000   0.00000
 165       58G+1        0.00000   0.00000   0.00000   0.00000
 166       58G-1        0.00000   0.00000   0.00000   0.00000
 167       58G+2        0.00000   0.00000   0.00000   0.00000
 168       58G-2        0.00000   0.00000   0.00000   0.00000
 169       58G+3        0.00000   0.00000   0.00000   0.00000
 170       58G-3        0.00000   0.00000   0.00000   0.00000
 171       58G+4        0.00000   0.00000   0.00000   0.00000
 172       58G-4        0.00000   0.00000   0.00000   0.00000
 173       59G 0        0.00001   0.00001   0.00000   0.00001
 174       59G+1        0.00001   0.00001   0.00000   0.00001
 175       59G-1        0.00000   0.00000   0.00000   0.00000
 176       59G+2        0.00000   0.00000   0.00000   0.00000
 177       59G-2        0.00000   0.00000   0.00000   0.00000
 178       59G+3        0.00000   0.00000   0.00000   0.00000
 179       59G-3        0.00000   0.00000   0.00000   0.00000
 180       59G+4        0.00001   0.00001   0.00000   0.00001
 181       59G-4        0.00001   0.00001   0.00000   0.00001
 182       60G 0        0.00001   0.00000   0.00000   0.00000
 183       60G+1        0.00001   0.00001   0.00000   0.00001
 184       60G-1        0.00000   0.00000   0.00000   0.00000
 185       60G+2        0.00000   0.00000   0.00000   0.00000
 186       60G-2        0.00000   0.00000   0.00000   0.00000
 187       60G+3        0.00000   0.00000   0.00000   0.00000
 188       60G-3        0.00000   0.00000   0.00000   0.00000
 189       60G+4        0.00001   0.00001   0.00000   0.00001
 190       60G-4        0.00001   0.00001   0.00000   0.00001
          Condensed to atoms (all electrons):
               1
     1  Fe  16.000000
          Atomic-Atomic Spin Densities.
               1
     1  Fe   4.000000
 Mulliken charges and spin densities:
               1          2
     1  Fe   0.000000   4.000000
 Sum of Mulliken charges =   0.00000   4.00000
 Mulliken charges and spin densities with hydrogens summed into heavy atoms:
               1          2
     1  Fe   0.000000   4.000000
 Electronic spatial extent (au):  <R**2>=             39.8046
 Charge=              0.0000 electrons
 Dipole moment (field-independent basis, Debye):
    X=              0.0000    Y=              0.0000    Z=              0.0000  Tot=              0.0000
 Quadrupole moment (field-independent basis, Debye-Ang):
   XX=            -17.6729   YY=            -17.9328   ZZ=            -17.9328
   XY=              0.0000   XZ=             -0.0000   YZ=             -0.0000
 Traceless Quadrupole moment (field-independent basis, Debye-Ang):
   XX=              0.1733   YY=             -0.0866   ZZ=             -0.0866
   XY=              0.0000   XZ=             -0.0000   YZ=             -0.0000
 Octapole moment (field-independent basis, Debye-Ang**2):
  XXX=              0.0000  YYY=              0.0000  ZZZ=              0.0000  XYY=              0.0000
  XXY=              0.0000  XXZ=              0.0000  XZZ=              0.0000  YZZ=              0.0000
  YYZ=              0.0000  XYZ=              0.0000
 Hexadecapole moment (field-independent basis, Debye-Ang**3):
 XXXX=            -42.3633 YYYY=            -41.3960 ZZZZ=            -41.3960 XXXY=             -0.0000
 XXXZ=              0.0000 YYYX=             -0.0000 YYYZ=             -0.0000 ZZZX=              0.0000
 ZZZY=              0.0000 XXYY=            -13.9050 XXZZ=            -13.9050 YYZZ=            -13.5862
 XXYZ=              0.0000 YYXZ=              0.0000 ZZXY=             -0.0000
 N-N= 0.000000000000D+00 E-N=-2.893540145278D+02  KE= 7.270190313636D+01
 Symmetry AG   KE= 2.705322035609D+01
 Symmetry B1G  KE= 7.502128970498D+00
 Symmetry B2G  KE= 7.502129413115D+00
 Symmetry B3G  KE= 7.432591888929D+00
 Symmetry AU   KE= 6.742237639361D-36
 Symmetry B1U  KE= 7.730151980346D+00
 Symmetry B2U  KE= 7.730151818796D+00
 Symmetry B3U  KE= 7.751528709352D+00
 Symmetry AG   SP= 1.000000000000D+00
 Symmetry B1G  SP= 1.000000000000D+00
 Symmetry B2G  SP= 1.000000000000D+00
 Symmetry B3G  SP= 1.000000000000D+00
 Symmetry AU   SP= 4.466333852851D-53
 Symmetry B1U  SP= 2.327452918900D-16
 Symmetry B2U  SP= 2.967044841556D-16
 Symmetry B3U  SP= 3.115401409187D-16
 Orbital energies and kinetic energies (alpha):
                                 1                 2
   2         (T1U)--O         -3.039012          3.865076
   3         (T1U)--O         -2.960798          3.865076
   4         (T1U)--O         -2.960797          3.875764
   5         O                -0.704843          7.095707
   6         O                -0.694727          0.353574
   7         O                -0.694727          7.524815
   8         (T2G)--O         -0.663055          7.502129
   9         (T2G)--O         -0.611009          7.502129
  10         (T2G)--O         -0.276729          7.432592
  11         V                 0.019239          0.067861
  12         V                 0.021045          0.060438
  13         V                 0.021045          0.060438
  14         (A1G)--V          0.028180          0.048313
  15         V                 0.067751          0.189384
 Total kinetic energy from orbitals= 1.026635686011D+02
                          Isotropic Fermi Contact Couplings
        Atom                 a.u.       MegaHertz       Gauss      10(-4) cm-1
     1  Fe(57)             0.00000       0.00003       0.00001       0.00001
 --------------------------------------------------------
       Center         ----  Spin Dipole Couplings  ----
                      3XX-RR        3YY-RR        3ZZ-RR
 --------------------------------------------------------
     1   Atom        3.015931     -1.507981     -1.507950
 --------------------------------------------------------
                        XY            XZ            YZ
 --------------------------------------------------------
     1   Atom        0.000000      0.000000      0.000000
 --------------------------------------------------------


 ---------------------------------------------------------------------------------
              Anisotropic Spin Dipole Couplings in Principal Axis System
 ---------------------------------------------------------------------------------

       Atom             a.u.   MegaHertz   Gauss  10(-4) cm-1        Axes

              Baa    -1.5080   -26.107    -9.316    -8.709 -0.0000  1.0000  0.0000
     1 Fe(57) Bbb    -1.5079   -26.107    -9.316    -8.708  0.0000  0.0000  1.0000
              Bcc     3.0159    52.214    18.631    17.417  1.0000  0.0000  0.0000
 

 ---------------------------------------------------------------------------------

 No NMR shielding tensors so no spin-rotation constants.
 Leave Link  601 at Sat Mar 24 00:34:19 2018, MaxMem= 10737418240 cpu:              85.8 elap:               2.8
 (Enter /home1/apps/gaussian/16rA.03/g16/l9999.exe)
 1\1\GINC-C402-014\SP\ROCCSD(T)-Full\Gen\Fe1(5)\GWANG18\24-Mar-2018\0\\
 #P ROCCSD(T)=(MaxCyc=150, Full)/Gen SCF=(maxcycle=400) Pseudo=Read Int
 egral(NoXCTest) Pop=Regular MaxDisk=500GB Guess=Read\\Fe\\0,5\Fe,0,0.,
 0.,0.\\Version=ES64L-G16RevA.03\HF=-123.1186868\MP2=-123.7740196\MP3=-
 123.7609517\PUHF=-123.1186868\PMP2-0=-123.7740196\MP4SDQ=-123.7705714\
 CCSD=-123.768949\CCSD(T)=-123.7889465\RMSD=1.591e-09\PG=OH [O(Fe1)]\\@


 TERRY FORSTER, PORTLY ATLANTA BRAVES RELIEVER,
 ANNOUNCING THAT HE WAS GOING TO A FAT FARM:
 "A WAIST IS A TERRIBLE THING TO MIND."
 Job cpu time:       0 days  4 hours 37 minutes 18.8 seconds.
 Elapsed time:       0 days  0 hours  8 minutes 43.5 seconds.
 File lengths (MBytes):  RWF=   1224 Int=      0 D2E=      0 Chk=     14 Scr=      1
 Normal termination of Gaussian 16 at Sat Mar 24 00:34:20 2018.
