 Entering Gaussian System, Link 0=g16
 Initial command:
 /home1/apps/gaussian/16rA.03/g16/l1.exe "/tmp/Gau-242865.inp" -scrdir="/tmp/"
 Entering Link 1 = /home1/apps/gaussian/16rA.03/g16/l1.exe PID=    242866.
  
 Copyright (c) 1988,1990,1992,1993,1995,1998,2003,2009,2016,
            Gaussian, Inc.  All Rights Reserved.
  
 This is part of the Gaussian(R) 16 program.  It is based on
 the Gaussian(R) 09 system (copyright 2009, Gaussian, Inc.),
 the Gaussian(R) 03 system (copyright 2003, Gaussian, Inc.),
 the Gaussian(R) 98 system (copyright 1998, Gaussian, Inc.),
 the Gaussian(R) 94 system (copyright 1995, Gaussian, Inc.),
 the Gaussian 92(TM) system (copyright 1992, Gaussian, Inc.),
 the Gaussian 90(TM) system (copyright 1990, Gaussian, Inc.),
 the Gaussian 88(TM) system (copyright 1988, Gaussian, Inc.),
 the Gaussian 86(TM) system (copyright 1986, Carnegie Mellon
 University), and the Gaussian 82(TM) system (copyright 1983,
 Carnegie Mellon University). Gaussian is a federally registered
 trademark of Gaussian, Inc.
  
 This software contains proprietary and confidential information,
 including trade secrets, belonging to Gaussian, Inc.
  
 This software is provided under written license and may be
 used, copied, transmitted, or stored only in accord with that
 written license.
  
 The following legend is applicable only to US Government
 contracts under FAR:
  
                    RESTRICTED RIGHTS LEGEND
  
 Use, reproduction and disclosure by the US Government is
 subject to restrictions as set forth in subparagraphs (a)
 and (c) of the Commercial Computer Software - Restricted
 Rights clause in FAR 52.227-19.
  
 Gaussian, Inc.
 340 Quinnipiac St., Bldg. 40, Wallingford CT 06492
  
  
 ---------------------------------------------------------------
 Warning -- This program may not be used in any manner that
 competes with the business of Gaussian, Inc. or will provide
 assistance to any competitor of Gaussian, Inc.  The licensee
 of this program is prohibited from giving any competitor of
 Gaussian, Inc. access to this program.  By using this program,
 the user acknowledges that Gaussian, Inc. is engaged in the
 business of creating and licensing software in the field of
 computational chemistry and represents and warrants to the
 licensee that it is not a competitor of Gaussian, Inc. and that
 it will not use this program in any manner prohibited above.
 ---------------------------------------------------------------
  

 Cite this work as:
 Gaussian 16, Revision A.03,
 M. J. Frisch, G. W. Trucks, H. B. Schlegel, G. E. Scuseria, 
 M. A. Robb, J. R. Cheeseman, G. Scalmani, V. Barone, 
 G. A. Petersson, H. Nakatsuji, X. Li, M. Caricato, A. V. Marenich, 
 J. Bloino, B. G. Janesko, R. Gomperts, B. Mennucci, H. P. Hratchian, 
 J. V. Ortiz, A. F. Izmaylov, J. L. Sonnenberg, D. Williams-Young, 
 F. Ding, F. Lipparini, F. Egidi, J. Goings, B. Peng, A. Petrone, 
 T. Henderson, D. Ranasinghe, V. G. Zakrzewski, J. Gao, N. Rega, 
 G. Zheng, W. Liang, M. Hada, M. Ehara, K. Toyota, R. Fukuda, 
 J. Hasegawa, M. Ishida, T. Nakajima, Y. Honda, O. Kitao, H. Nakai, 
 T. Vreven, K. Throssell, J. A. Montgomery, Jr., J. E. Peralta, 
 F. Ogliaro, M. J. Bearpark, J. J. Heyd, E. N. Brothers, K. N. Kudin, 
 V. N. Staroverov, T. A. Keith, R. Kobayashi, J. Normand, 
 K. Raghavachari, A. P. Rendell, J. C. Burant, S. S. Iyengar, 
 J. Tomasi, M. Cossi, J. M. Millam, M. Klene, C. Adamo, R. Cammi, 
 J. W. Ochterski, R. L. Martin, K. Morokuma, O. Farkas, 
 J. B. Foresman, and D. J. Fox, Gaussian, Inc., Wallingford CT, 2016.
 
 ******************************************
 Gaussian 16:  ES64L-G16RevA.03 25-Dec-2016
                 3-May-2018 
 ******************************************
 %mem=80GB
 %cpu=0-31
 SetSPE:  set environment variable "MP_BIND" = "yes"
 SetSPE:  set environment variable "MP_BLIST" = "0,1,2,3,4,5,6,7,8,9,10,11,12,13,14,15,16,17,18,19,20,21,22,23,24,25,26,27,28,29,30,31"
 Will use up to   32 processors via shared memory.
 %chk=tz.chk
 %rwf=/scratch/04843/gwang18/znh/
 ----------------------------------------------------------------------
 #P ROCCSD(T)=(MaxCyc=150, Full)/Gen SCF=(maxcycle=400, vshift=200) Pse
 udo=Read Integral(NoXCTest) Pop=Regular MaxDisk=500GB Guess=Read IOp(5
 /15=2)
 ----------------------------------------------------------------------
 1/38=1,172=1/1;
 2/12=2,17=6,18=5,40=1/2;
 3/5=7,11=2,16=1,17=8,25=1,30=1,47=8,116=101/1,2,3;
 4/5=1/1;
 5/5=2,7=400,10=200,15=2,38=6/2;
 8/5=-1,6=4,9=120000,10=90/1,4;
 9/5=7,6=150,14=2/13;
 6//1;
 99/5=1,9=1/99;
 Leave Link    1 at Thu May  3 14:57:22 2018, MaxMem= 10737418240 cpu:               8.9 elap:               0.3
 (Enter /home1/apps/gaussian/16rA.03/g16/l101.exe)
 ---
 CoH
 ---
 Symbolic Z-matrix:
 Charge =  0 Multiplicity = 3
 Co                    0.        0.        0. 
 H                     0.        0.        1.5 
 
 ITRead=  0  0
 MicOpt= -1 -1
 NAtoms=      2 NQM=        2 NQMF=       0 NMMI=      0 NMMIF=      0
                NMic=       0 NMicF=      0.
                    Isotopes and Nuclear Properties:
 (Nuclear quadrupole moments (NQMom) in fm**2, nuclear magnetic moments (NMagM)
  in nuclear magnetons)

  Atom         1           2
 IAtWgt=          59           1
 AtmWgt=  58.9331978   1.0078250
 NucSpn=           7           1
 AtZEff=  -0.0000000  -0.0000000
 NQMom=   42.0000000   0.0000000
 NMagM=    4.6270000   2.7928460
 AtZNuc=  27.0000000   1.0000000
 Leave Link  101 at Thu May  3 14:57:22 2018, MaxMem= 10737418240 cpu:               3.4 elap:               0.1
 (Enter /home1/apps/gaussian/16rA.03/g16/l202.exe)
                          Input orientation:                          
 ---------------------------------------------------------------------
 Center     Atomic      Atomic             Coordinates (Angstroms)
 Number     Number       Type             X           Y           Z
 ---------------------------------------------------------------------
      1         27           0        0.000000    0.000000    0.000000
      2          1           0        0.000000    0.000000    1.500000
 ---------------------------------------------------------------------
 Stoichiometry    CoH(3)
 Framework group  C*V[C*(HCo)]
 Deg. of freedom     1
 Full point group                 C*V     NOp   4
 Largest Abelian subgroup         C2V     NOp   4
 Largest concise Abelian subgroup C1      NOp   1
                         Standard orientation:                         
 ---------------------------------------------------------------------
 Center     Atomic      Atomic             Coordinates (Angstroms)
 Number     Number       Type             X           Y           Z
 ---------------------------------------------------------------------
      1         27           0        0.000000    0.000000    0.053571
      2          1           0        0.000000    0.000000   -1.446429
 ---------------------------------------------------------------------
 Rotational constants (GHZ):           0.0000000         226.6802488         226.6802488
 Leave Link  202 at Thu May  3 14:57:23 2018, MaxMem= 10737418240 cpu:               0.8 elap:               0.1
 (Enter /home1/apps/gaussian/16rA.03/g16/l301.exe)
 General basis read from cards:  (5D, 7F)
 Centers:       1
 S 1 1.00
     Exponent=  4.6756750000D+06 Coefficients=  1.0000000000D+00
 S 1 1.00
     Exponent=  7.0016150000D+05 Coefficients=  1.0000000000D+00
 S 1 1.00
     Exponent=  1.5933730000D+05 Coefficients=  1.0000000000D+00
 S 1 1.00
     Exponent=  4.5130460000D+04 Coefficients=  1.0000000000D+00
 S 1 1.00
     Exponent=  1.4722380000D+04 Coefficients=  1.0000000000D+00
 S 1 1.00
     Exponent=  5.3142220000D+03 Coefficients=  1.0000000000D+00
 S 1 1.00
     Exponent=  2.0720180000D+03 Coefficients=  1.0000000000D+00
 S 1 1.00
     Exponent=  8.5861880000D+02 Coefficients=  1.0000000000D+00
 S 1 1.00
     Exponent=  3.7354970000D+02 Coefficients=  1.0000000000D+00
 S 1 1.00
     Exponent=  1.6892290000D+02 Coefficients=  1.0000000000D+00
 S 1 1.00
     Exponent=  7.8296390000D+01 Coefficients=  1.0000000000D+00
 S 1 1.00
     Exponent=  3.5521230000D+01 Coefficients=  1.0000000000D+00
 S 1 1.00
     Exponent=  1.7041440000D+01 Coefficients=  1.0000000000D+00
 S 1 1.00
     Exponent=  8.1730000000D+00 Coefficients=  1.0000000000D+00
 S 1 1.00
     Exponent=  3.6103180000D+00 Coefficients=  1.0000000000D+00
 S 1 1.00
     Exponent=  1.6970470000D+00 Coefficients=  1.0000000000D+00
 S 1 1.00
     Exponent=  7.4353200000D-01 Coefficients=  1.0000000000D+00
 S 1 1.00
     Exponent=  1.5834400000D-01 Coefficients=  1.0000000000D+00
 S 1 1.00
     Exponent=  7.5036000000D-02 Coefficients=  1.0000000000D+00
 S 1 1.00
     Exponent=  3.3091000000D-02 Coefficients=  1.0000000000D+00
 S 1 1.00
     Exponent=  5.2255000000D+00 Coefficients=  1.0000000000D+00
 S 1 1.00
     Exponent=  1.3638000000D+00 Coefficients=  1.0000000000D+00
 S 1 1.00
     Exponent=  1.4590000000D-02 Coefficients=  1.0000000000D+00
 P 1 1.00
     Exponent=  1.9267780000D+04 Coefficients=  1.0000000000D+00
 P 1 1.00
     Exponent=  4.5609860000D+03 Coefficients=  1.0000000000D+00
 P 1 1.00
     Exponent=  1.4814360000D+03 Coefficients=  1.0000000000D+00
 P 1 1.00
     Exponent=  5.6686710000D+02 Coefficients=  1.0000000000D+00
 P 1 1.00
     Exponent=  2.4049100000D+02 Coefficients=  1.0000000000D+00
 P 1 1.00
     Exponent=  1.0961050000D+02 Coefficients=  1.0000000000D+00
 P 1 1.00
     Exponent=  5.2594910000D+01 Coefficients=  1.0000000000D+00
 P 1 1.00
     Exponent=  2.6083610000D+01 Coefficients=  1.0000000000D+00
 P 1 1.00
     Exponent=  1.3261430000D+01 Coefficients=  1.0000000000D+00
 P 1 1.00
     Exponent=  6.7997780000D+00 Coefficients=  1.0000000000D+00
 P 1 1.00
     Exponent=  3.3934140000D+00 Coefficients=  1.0000000000D+00
 P 1 1.00
     Exponent=  1.6487660000D+00 Coefficients=  1.0000000000D+00
 P 1 1.00
     Exponent=  7.7628200000D-01 Coefficients=  1.0000000000D+00
 P 1 1.00
     Exponent=  2.9720900000D-01 Coefficients=  1.0000000000D+00
 P 1 1.00
     Exponent=  1.1335200000D-01 Coefficients=  1.0000000000D+00
 P 1 1.00
     Exponent=  4.1510000000D-02 Coefficients=  1.0000000000D+00
 P 1 1.00
     Exponent=  7.7411000000D+00 Coefficients=  1.0000000000D+00
 P 1 1.00
     Exponent=  1.7672000000D+00 Coefficients=  1.0000000000D+00
 P 1 1.00
     Exponent=  1.5200000000D-02 Coefficients=  1.0000000000D+00
 D 1 1.00
     Exponent=  1.2839200000D+02 Coefficients=  1.0000000000D+00
 D 1 1.00
     Exponent=  3.7893800000D+01 Coefficients=  1.0000000000D+00
 D 1 1.00
     Exponent=  1.3879800000D+01 Coefficients=  1.0000000000D+00
 D 1 1.00
     Exponent=  5.6254400000D+00 Coefficients=  1.0000000000D+00
 D 1 1.00
     Exponent=  2.3353900000D+00 Coefficients=  1.0000000000D+00
 D 1 1.00
     Exponent=  9.3519200000D-01 Coefficients=  1.0000000000D+00
 D 1 1.00
     Exponent=  3.4695300000D-01 Coefficients=  1.0000000000D+00
 D 1 1.00
     Exponent=  1.1172300000D-01 Coefficients=  1.0000000000D+00
 D 1 1.00
     Exponent=  5.1384000000D+00 Coefficients=  1.0000000000D+00
 D 1 1.00
     Exponent=  2.4056000000D+00 Coefficients=  1.0000000000D+00
 D 1 1.00
     Exponent=  3.5980000000D-02 Coefficients=  1.0000000000D+00
 F 1 1.00
     Exponent=  6.9240000000D+00 Coefficients=  1.0000000000D+00
 F 1 1.00
     Exponent=  2.6244000000D+00 Coefficients=  1.0000000000D+00
 F 1 1.00
     Exponent=  9.1700000000D-01 Coefficients=  1.0000000000D+00
 F 1 1.00
     Exponent=  3.2041000000D-01 Coefficients=  1.0000000000D+00
 G 1 1.00
     Exponent=  6.3248000000D+00 Coefficients=  1.0000000000D+00
 G 1 1.00
     Exponent=  2.4229000000D+00 Coefficients=  1.0000000000D+00
 G 1 1.00
     Exponent=  9.2816000000D-01 Coefficients=  1.0000000000D+00
 ****
 Centers:       2
 S 1 1.00
     Exponent=  3.3870000000D+01 Coefficients=  1.0000000000D+00
 S 1 1.00
     Exponent=  5.0950000000D+00 Coefficients=  1.0000000000D+00
 S 1 1.00
     Exponent=  1.1590000000D+00 Coefficients=  1.0000000000D+00
 S 1 1.00
     Exponent=  3.2580000000D-01 Coefficients=  1.0000000000D+00
 S 1 1.00
     Exponent=  1.0270000000D-01 Coefficients=  1.0000000000D+00
 S 1 1.00
     Exponent=  2.5260000000D-02 Coefficients=  1.0000000000D+00
 P 1 1.00
     Exponent=  1.4070000000D+00 Coefficients=  1.0000000000D+00
 P 1 1.00
     Exponent=  3.8800000000D-01 Coefficients=  1.0000000000D+00
 P 1 1.00
     Exponent=  1.0200000000D-01 Coefficients=  1.0000000000D+00
 D 1 1.00
     Exponent=  1.0570000000D+00 Coefficients=  1.0000000000D+00
 D 1 1.00
     Exponent=  2.4700000000D-01 Coefficients=  1.0000000000D+00
 ****
 ======================================================================================================
                                       Pseudopotential Parameters
 ======================================================================================================
  Center     Atomic      Valence      Angular      Power
  Number     Number     Electrons     Momentum     of R      Exponent        Coefficient   SO-Coeffient
 ======================================================================================================
    1         27           17
                                      D and up 
                                                     1       25.0012412       17.00000000    0.00000000
                                                     3       22.8349010      425.02109972    0.00000000
                                                     2       23.4746816     -195.48211283    0.00000000
                                                     2       10.3379483       -2.81572866    0.00000000
                                      S - D
                                                     2       23.4142703      271.77708487    0.00000000
                                                     2       10.7693169       54.26461122    0.00000000
                                      P - D
                                                     2       25.4744632      201.53430745    0.00000000
                                                     2       10.6840490       38.99231927    0.00000000
    2          1            1
                                      P and up 
                                                     2       21.7769666      -10.85192405    0.00000000
                                                     1       21.2435951        1.00000000    0.00000000
                                                     3       21.2435951       21.24359508    0.00000000
                                      S - P
                                                     2        1.0000000        0.00000000    0.00000000
 ======================================================================================================
 Ernie: Thresh=  0.10000D-02 Tol=  0.10000D-05 Strict=F.
 There are   120 symmetry adapted cartesian basis functions of A1  symmetry.
 There are    26 symmetry adapted cartesian basis functions of A2  symmetry.
 There are    56 symmetry adapted cartesian basis functions of B1  symmetry.
 There are    56 symmetry adapted cartesian basis functions of B2  symmetry.
 There are    94 symmetry adapted basis functions of A1  symmetry.
 There are    23 symmetry adapted basis functions of A2  symmetry.
 There are    49 symmetry adapted basis functions of B1  symmetry.
 There are    49 symmetry adapted basis functions of B2  symmetry.
   215 basis functions,   258 primitive gaussians,   258 cartesian basis functions
    10 alpha electrons        8 beta electrons
       nuclear repulsion energy         5.9973417238 Hartrees.
 IExCor=    0 DFT=F Ex=HF Corr=None ExCW=0 ScaHFX=  1.000000
 ScaDFX=  1.000000  1.000000  1.000000  1.000000 ScalE2=  1.000000  1.000000
 IRadAn=      5 IRanWt=     -1 IRanGd=            0 ICorTp=0 IEmpDi=  4
 NAtoms=    2 NActive=    2 NUniq=    2 SFac= 1.00D+00 NAtFMM=   60 NAOKFM=F Big=F
 Integral buffers will be    131072 words long.
 Raffenetti 2 integral format.
 Two-electron integral symmetry is turned on.
 Leave Link  301 at Thu May  3 14:57:23 2018, MaxMem= 10737418240 cpu:               7.4 elap:               0.3
 (Enter /home1/apps/gaussian/16rA.03/g16/l302.exe)
 NPDir=0 NMtPBC=     1 NCelOv=     1 NCel=       1 NClECP=     1 NCelD=      1
         NCelK=      1 NCelE2=     1 NClLst=     1 CellRange=     0.0.
 One-electron integrals computed using PRISM.
 One-electron integral symmetry used in STVInt
   4 Symmetry operations used in ECPInt.
 ECPInt:  NShTT=    2556 NPrTT=    2556 LenC2=    2532 LenP2D=    2531.
 LDataN:  DoStor=T MaxTD1= 8 Len=  415
 NBasis=   215 RedAO= T EigKep=  2.00D-06  NBF=    94    23    49    49
 NBsUse=   215 1.00D-06 EigRej= -1.00D+00 NBFU=    94    23    49    49
 Leave Link  302 at Thu May  3 14:57:25 2018, MaxMem= 10737418240 cpu:              29.4 elap:               1.0
 (Enter /home1/apps/gaussian/16rA.03/g16/l303.exe)
 DipDrv:  MaxL=1.
 Leave Link  303 at Thu May  3 14:57:25 2018, MaxMem= 10737418240 cpu:               2.0 elap:               0.2
 (Enter /home1/apps/gaussian/16rA.03/g16/l401.exe)
 Initial guess from the checkpoint file:  "tz.chk"
 B after Tr=     0.000000    0.000000    0.000000
         Rot=    1.000000    0.000000    0.000000    0.000000 Ang=   0.00 deg.
 Guess basis will be translated and rotated to current coordinates.
 JPrj=2 DoOrth=T DoCkMO=T.
 Initial guess orbital symmetries:
       Occupied  (SG) (SG) (PI) (PI) (DLTA) (PI) (PI) (SG) (SG)
                 (DLTA)
       Virtual   (SG) (PI) (PI) (SG) (SG) (PI) (PI) (SG) (DLTA)
                 (DLTA) (PI) (PI) (SG) (SG) (SG) (PI) (PI) (SG)
                 (PI) (PI) (DLTA) (SG) (DLTA) (PI) (PI) (SG) (SG)
                 (SG) (DLTA) (DLTA) (PI) (PI) (SG) (PI) (PI) (PHI)
                 (PHI) (PI) (PI) (SG) (?A) (?A) (PI) (PI) (SG)
                 (?A) (?A) (SG) (PI) (PI) (SG) (SG) (SG) (PI) (PI)
                 (SG) (PI) (PI) (PHI) (PHI) (DLTA) (DLTA) (SG)
                 (PI) (PI) (SG) (?A) (?A) (?A) (?A) (?B) (?B) (?C)
                 (?C) (?B) (?B) (PI) (PI) (DLTA) (DLTA) (SG) (PI)
                 (PI) (SG) (SG) (SG) (PI) (PI) (SG) (DLTA) (DLTA)
                 (?B) (?B) (?B) (?B) (DLTA) (DLTA) (SG) (PI) (PI)
                 (SG) (SG) (?C) (?C) (?B) (?B) (DLTA) (DLTA) (?B)
                 (?B) (SG) (PI) (PI) (SG) (SG) (DLTA) (DLTA) (PI)
                 (PI) (SG) (?B) (?B) (DLTA) (DLTA) (?B) (?B) (SG)
                 (PI) (PI) (SG) (?D) (?D) (?B) (?B) (DLTA) (DLTA)
                 (?B) (?B) (?D) (SG) (DLTA) (DLTA) (PI) (PI) (SG)
                 (PI) (PI) (SG) (DLTA) (DLTA) (PI) (PI) (SG) (SG)
                 (SG) (PI) (PI) (SG) (SG) (DLTA) (DLTA) (PI) (PI)
                 (SG) (PI) (PI) (SG) (SG) (PI) (PI) (SG) (SG) (DLTA)
                 (DLTA) (PI) (PI) (SG) (PI) (PI) (SG) (SG) (PI)
                 (PI) (SG) (SG) (PI) (PI) (SG) (SG) (PI) (PI) (SG)
                 (SG) (PI) (PI) (SG) (SG) (SG) (PI) (PI) (SG) (SG)
                 (SG) (SG) (SG)
 Leave Link  401 at Thu May  3 14:57:26 2018, MaxMem= 10737418240 cpu:              10.4 elap:               0.4
 (Enter /home1/apps/gaussian/16rA.03/g16/l502.exe)
 Keep R1 and R2 ints in memory in symmetry-blocked form, NReq=338797193.
 FoFCou: FMM=F IPFlag=           8 FMFlag=           0 FMFlg1=           0
         NFxFlg=           0 DoJE=F BraDBF=F KetDBF=F FulRan=T
         wScrn=  0.000000 ICntrl=       600 IOpCl=  0 I1Cent=           0 NGrid=           0
         NMat0=    1 NMatS0=  23220 NMatT0=    0 NMatD0=    1 NMtDS0=    0 NMtDT0=    0
 Petite list used in FoFCou.
 Restricted open shell SCF:
 Using DIIS extrapolation, IDIIS=  1040.
 NGot= 10737418240 LenX= 10598929943 LenY= 10598862938
 Requested convergence on RMS density matrix=1.00D-08 within 400 cycles.
 Requested convergence on MAX density matrix=1.00D-06.
 Requested convergence on             energy=1.00D-06.
 Virtual orbitals will be shifted by   0.200 hartree.
 No special actions if energy rises.

 Cycle   1  Pass 1  IDiag  1:
 E= -144.560201833777    
 DIIS: error= 3.44D-01 at cycle   1 NSaved=   1.
 NSaved= 1 IEnMin= 1 EnMin= -144.560201833777     IErMin= 1 ErrMin= 3.44D-01
 ErrMax= 3.44D-01  0.00D+00 EMaxC= 1.00D-01 BMatC= 1.37D+01 BMatP= 1.37D+01
 IDIUse=3 WtCom= 0.00D+00 WtEn= 1.00D+00
 Coeff-Com:  0.100D+01
 Coeff-En:   0.100D+01
 Coeff:      0.100D+01
 Gap=    -0.014 Goal=   None    Shift=    0.200
 GapD=   -0.014 DampG=0.250 DampE=0.125 DampFc=0.1250 IDamp=-1.
 Damping current iteration by 1.25D-01
 RMSDP=3.95D-03 MaxDP=2.24D-01              OVMax= 2.10D-02

 Cycle   2  Pass 1  IDiag  1:
 E= -144.590136935650     Delta-E=       -0.029935101873 Rises=F Damp=T
 DIIS: error= 2.99D-01 at cycle   2 NSaved=   2.
 NSaved= 2 IEnMin= 2 EnMin= -144.590136935650     IErMin= 2 ErrMin= 2.99D-01
 ErrMax= 2.99D-01  0.00D+00 EMaxC= 1.00D-01 BMatC= 1.05D+01 BMatP= 1.37D+01
 IDIUse=3 WtCom= 0.00D+00 WtEn= 1.00D+00
 Coeff-Com: -0.700D+01 0.800D+01
 Coeff-En:   0.000D+00 0.100D+01
 Coeff:      0.000D+00 0.100D+01
 Gap=     0.005 Goal=   None    Shift=    0.200
 RMSDP=3.50D-03 MaxDP=1.94D-01 DE=-2.99D-02 OVMax= 8.40D-03

 Cycle   3  Pass 1  IDiag  1:
 E= -144.802606443482     Delta-E=       -0.212469507832 Rises=F Damp=F
 DIIS: error= 5.85D-03 at cycle   3 NSaved=   3.
 NSaved= 3 IEnMin= 3 EnMin= -144.802606443482     IErMin= 3 ErrMin= 5.85D-03
 ErrMax= 5.85D-03  0.00D+00 EMaxC= 1.00D-01 BMatC= 2.88D-03 BMatP= 1.05D+01
 IDIUse=3 WtCom= 9.42D-01 WtEn= 5.85D-02
 Coeff-Com:  0.204D+00-0.245D+00 0.104D+01
 Coeff-En:   0.000D+00 0.000D+00 0.100D+01
 Coeff:      0.192D+00-0.231D+00 0.104D+01
 Gap=     0.020 Goal=   None    Shift=    0.200
 RMSDP=2.62D-04 MaxDP=1.85D-02 DE=-2.12D-01 OVMax= 9.01D-03

 Cycle   4  Pass 1  IDiag  1:
 E= -144.802703150776     Delta-E=       -0.000096707294 Rises=F Damp=F
 DIIS: error= 4.53D-03 at cycle   4 NSaved=   4.
 NSaved= 4 IEnMin= 4 EnMin= -144.802703150776     IErMin= 4 ErrMin= 4.53D-03
 ErrMax= 4.53D-03  0.00D+00 EMaxC= 1.00D-01 BMatC= 1.35D-03 BMatP= 2.88D-03
 IDIUse=3 WtCom= 9.55D-01 WtEn= 4.53D-02
 Coeff-Com: -0.124D+00 0.136D+00 0.484D+00 0.504D+00
 Coeff-En:   0.000D+00 0.000D+00 0.448D+00 0.552D+00
 Coeff:     -0.119D+00 0.130D+00 0.482D+00 0.506D+00
 Gap=     0.009 Goal=   None    Shift=    0.200
 RMSDP=5.12D-05 MaxDP=3.94D-03 DE=-9.67D-05 OVMax= 3.06D-03

 Cycle   5  Pass 1  IDiag  1:
 E= -144.803039765060     Delta-E=       -0.000336614285 Rises=F Damp=F
 DIIS: error= 4.29D-04 at cycle   5 NSaved=   5.
 NSaved= 5 IEnMin= 5 EnMin= -144.803039765060     IErMin= 5 ErrMin= 4.29D-04
 ErrMax= 4.29D-04  0.00D+00 EMaxC= 1.00D-01 BMatC= 1.47D-05 BMatP= 1.35D-03
 IDIUse=3 WtCom= 9.96D-01 WtEn= 4.29D-03
 Coeff-Com: -0.151D+00 0.173D+00-0.518D-01-0.102D+00 0.113D+01
 Coeff-En:   0.000D+00 0.000D+00 0.000D+00 0.000D+00 0.100D+01
 Coeff:     -0.150D+00 0.172D+00-0.516D-01-0.101D+00 0.113D+01
 Gap=     0.008 Goal=   None    Shift=    0.200
 RMSDP=1.78D-05 MaxDP=1.09D-03 DE=-3.37D-04 OVMax= 1.25D-03

 Cycle   6  Pass 1  IDiag  1:
 E= -144.803044972538     Delta-E=       -0.000005207478 Rises=F Damp=F
 DIIS: error= 4.37D-04 at cycle   6 NSaved=   6.
 NSaved= 6 IEnMin= 6 EnMin= -144.803044972538     IErMin= 5 ErrMin= 4.29D-04
 ErrMax= 4.37D-04  0.00D+00 EMaxC= 1.00D-01 BMatC= 3.87D-06 BMatP= 1.47D-05
 IDIUse=3 WtCom= 9.96D-01 WtEn= 4.29D-03
 Coeff-Com: -0.134D+00 0.153D+00-0.259D-01 0.781D-02-0.584D-01 0.106D+01
 Coeff-En:   0.000D+00 0.000D+00 0.000D+00 0.000D+00 0.000D+00 0.100D+01
 Coeff:     -0.133D+00 0.152D+00-0.258D-01 0.778D-02-0.582D-01 0.106D+01
 Gap=     0.008 Goal=   None    Shift=    0.200
 RMSDP=9.27D-06 MaxDP=8.60D-04 DE=-5.21D-06 OVMax= 6.30D-04

 Cycle   7  Pass 1  IDiag  1:
 E= -144.803045821927     Delta-E=       -0.000000849388 Rises=F Damp=F
 DIIS: error= 3.91D-04 at cycle   7 NSaved=   7.
 NSaved= 7 IEnMin= 7 EnMin= -144.803045821927     IErMin= 7 ErrMin= 3.91D-04
 ErrMax= 3.91D-04  0.00D+00 EMaxC= 1.00D-01 BMatC= 3.00D-06 BMatP= 3.87D-06
 IDIUse=3 WtCom= 9.96D-01 WtEn= 3.91D-03
 Coeff-Com: -0.120D+00 0.137D+00-0.208D-01 0.479D-02-0.510D-01 0.111D+00
 Coeff-Com:  0.938D+00
 Coeff-En:   0.000D+00 0.000D+00 0.000D+00 0.000D+00 0.000D+00 0.000D+00
 Coeff-En:   0.100D+01
 Coeff:     -0.120D+00 0.137D+00-0.207D-01 0.477D-02-0.508D-01 0.111D+00
 Coeff:      0.939D+00
 Gap=     0.009 Goal=   None    Shift=    0.200
 RMSDP=5.35D-06 MaxDP=4.72D-04 DE=-8.49D-07 OVMax= 3.27D-04

 Cycle   8  Pass 1  IDiag  1:
 E= -144.803046167512     Delta-E=       -0.000000345585 Rises=F Damp=F
 DIIS: error= 3.52D-04 at cycle   8 NSaved=   8.
 NSaved= 8 IEnMin= 8 EnMin= -144.803046167512     IErMin= 8 ErrMin= 3.52D-04
 ErrMax= 3.52D-04  0.00D+00 EMaxC= 1.00D-01 BMatC= 2.46D-06 BMatP= 3.00D-06
 IDIUse=3 WtCom= 9.96D-01 WtEn= 3.52D-03
 Coeff-Com: -0.105D+00 0.120D+00-0.172D-01 0.143D-03-0.152D-01-0.136D+00
 Coeff-Com: -0.416D-01 0.119D+01
 Coeff-En:   0.000D+00 0.000D+00 0.000D+00 0.000D+00 0.000D+00 0.000D+00
 Coeff-En:   0.000D+00 0.100D+01
 Coeff:     -0.104D+00 0.119D+00-0.171D-01 0.143D-03-0.151D-01-0.136D+00
 Coeff:     -0.414D-01 0.119D+01
 Gap=     0.009 Goal=   None    Shift=    0.200
 RMSDP=2.41D-06 MaxDP=2.66D-04 DE=-3.46D-07 OVMax= 2.93D-04

 Cycle   9  Pass 1  IDiag  1:
 E= -144.803046589802     Delta-E=       -0.000000422290 Rises=F Damp=F
 DIIS: error= 3.10D-04 at cycle   9 NSaved=   9.
 NSaved= 9 IEnMin= 9 EnMin= -144.803046589802     IErMin= 9 ErrMin= 3.10D-04
 ErrMax= 3.10D-04  0.00D+00 EMaxC= 1.00D-01 BMatC= 1.87D-06 BMatP= 2.46D-06
 IDIUse=3 WtCom= 9.97D-01 WtEn= 3.10D-03
 Coeff-Com: -0.876D-01 0.100D+00-0.149D-01 0.296D-02-0.152D-01 0.387D-01
 Coeff-Com:  0.318D-01-0.658D+00 0.160D+01
 Coeff-En:   0.000D+00 0.000D+00 0.000D+00 0.000D+00 0.000D+00 0.000D+00
 Coeff-En:   0.000D+00 0.000D+00 0.100D+01
 Coeff:     -0.873D-01 0.998D-01-0.149D-01 0.295D-02-0.151D-01 0.386D-01
 Coeff:      0.317D-01-0.656D+00 0.160D+01
 Gap=     0.009 Goal=   None    Shift=    0.200
 RMSDP=2.92D-06 MaxDP=2.38D-04 DE=-4.22D-07 OVMax= 3.77D-04

 Cycle  10  Pass 1  IDiag  1:
 E= -144.803047014021     Delta-E=       -0.000000424219 Rises=F Damp=F
 DIIS: error= 2.61D-04 at cycle  10 NSaved=  10.
 NSaved=10 IEnMin=10 EnMin= -144.803047014021     IErMin=10 ErrMin= 2.61D-04
 ErrMax= 2.61D-04  0.00D+00 EMaxC= 1.00D-01 BMatC= 1.32D-06 BMatP= 1.87D-06
 IDIUse=3 WtCom= 9.97D-01 WtEn= 2.61D-03
 Coeff-Com: -0.601D-01 0.687D-01-0.108D-01 0.451D-02-0.174D-01 0.147D+00
 Coeff-Com:  0.240D+00-0.120D+01-0.971D-01 0.193D+01
 Coeff-En:   0.000D+00 0.000D+00 0.000D+00 0.000D+00 0.000D+00 0.000D+00
 Coeff-En:   0.000D+00 0.000D+00 0.000D+00 0.100D+01
 Coeff:     -0.599D-01 0.685D-01-0.108D-01 0.449D-02-0.173D-01 0.146D+00
 Coeff:      0.240D+00-0.120D+01-0.969D-01 0.192D+01
 Gap=     0.009 Goal=   None    Shift=    0.200
 RMSDP=3.05D-06 MaxDP=2.72D-04 DE=-4.24D-07 OVMax= 4.42D-04

 Cycle  11  Pass 1  IDiag  1:
 E= -144.803047440487     Delta-E=       -0.000000426466 Rises=F Damp=F
 DIIS: error= 1.82D-04 at cycle  11 NSaved=  11.
 NSaved=11 IEnMin=11 EnMin= -144.803047440487     IErMin=11 ErrMin= 1.82D-04
 ErrMax= 1.82D-04  0.00D+00 EMaxC= 1.00D-01 BMatC= 6.73D-07 BMatP= 1.32D-06
 IDIUse=3 WtCom= 9.98D-01 WtEn= 1.82D-03
 Coeff-Com: -0.614D-01 0.702D-01-0.111D-01 0.479D-02-0.171D-01 0.158D+00
 Coeff-Com:  0.232D+00-0.130D+01-0.992D-03 0.203D+01-0.106D+00
 Coeff-En:   0.000D+00 0.000D+00 0.000D+00 0.000D+00 0.000D+00 0.000D+00
 Coeff-En:   0.000D+00 0.000D+00 0.000D+00 0.000D+00 0.100D+01
 Coeff:     -0.613D-01 0.701D-01-0.111D-01 0.478D-02-0.171D-01 0.157D+00
 Coeff:      0.232D+00-0.130D+01-0.990D-03 0.203D+01-0.104D+00
 Gap=     0.009 Goal=   None    Shift=    0.200
 RMSDP=1.43D-06 MaxDP=1.56D-04 DE=-4.26D-07 OVMax= 2.87D-04

 Cycle  12  Pass 1  IDiag  1:
 E= -144.803047620907     Delta-E=       -0.000000180420 Rises=F Damp=F
 DIIS: error= 1.82D-04 at cycle  12 NSaved=  12.
 NSaved=12 IEnMin=12 EnMin= -144.803047620907     IErMin=12 ErrMin= 1.82D-04
 ErrMax= 1.82D-04  0.00D+00 EMaxC= 1.00D-01 BMatC= 6.49D-07 BMatP= 6.73D-07
 IDIUse=3 WtCom= 9.98D-01 WtEn= 1.82D-03
 Coeff-Com: -0.114D-01 0.131D-01-0.247D-02-0.776D-03 0.869D-02-0.524D-01
 Coeff-Com:  0.344D+00 0.916D-01-0.166D+01-0.135D+00 0.431D+00 0.198D+01
 Coeff-En:   0.000D+00 0.000D+00 0.000D+00 0.000D+00 0.000D+00 0.000D+00
 Coeff-En:   0.000D+00 0.000D+00 0.000D+00 0.000D+00 0.000D+00 0.100D+01
 Coeff:     -0.114D-01 0.131D-01-0.246D-02-0.775D-03 0.868D-02-0.523D-01
 Coeff:      0.343D+00 0.915D-01-0.166D+01-0.135D+00 0.430D+00 0.197D+01
 Gap=     0.010 Goal=   None    Shift=    0.200
 RMSDP=4.28D-06 MaxDP=4.79D-04 DE=-1.80D-07 OVMax= 5.42D-04

 Cycle  13  Pass 1  IDiag  1:
 E= -144.803047937129     Delta-E=       -0.000000316222 Rises=F Damp=F
 DIIS: error= 5.90D-05 at cycle  13 NSaved=  13.
 NSaved=13 IEnMin=13 EnMin= -144.803047937129     IErMin=13 ErrMin= 5.90D-05
 ErrMax= 5.90D-05  0.00D+00 EMaxC= 1.00D-01 BMatC= 1.18D-07 BMatP= 6.49D-07
 IDIUse=1 WtCom= 1.00D+00 WtEn= 0.00D+00
 Coeff-Com: -0.683D-02 0.781D-02-0.127D-02-0.211D-02 0.130D-01-0.954D-01
 Coeff-Com:  0.215D+00 0.211D+00-0.948D+00 0.165D+01-0.486D+01 0.315D+01
 Coeff-Com:  0.167D+01
 Coeff:     -0.683D-02 0.781D-02-0.127D-02-0.211D-02 0.130D-01-0.954D-01
 Coeff:      0.215D+00 0.211D+00-0.948D+00 0.165D+01-0.486D+01 0.315D+01
 Coeff:      0.167D+01
 Gap=     0.010 Goal=   None    Shift=    0.200
 RMSDP=1.69D-06 MaxDP=1.74D-04 DE=-3.16D-07 OVMax= 3.58D-04

 Cycle  14  Pass 1  IDiag  1:
 E= -144.803048050827     Delta-E=       -0.000000113698 Rises=F Damp=F
 DIIS: error= 4.63D-05 at cycle  14 NSaved=  14.
 NSaved=14 IEnMin=14 EnMin= -144.803048050827     IErMin=14 ErrMin= 4.63D-05
 ErrMax= 4.63D-05  0.00D+00 EMaxC= 1.00D-01 BMatC= 8.11D-08 BMatP= 1.18D-07
 IDIUse=1 WtCom= 1.00D+00 WtEn= 0.00D+00
 Coeff-Com: -0.209D-01 0.239D-01-0.396D-02-0.147D-03 0.923D-02-0.344D-01
 Coeff-Com:  0.209D+00-0.239D+00-0.669D+00 0.228D+01-0.442D+01 0.244D+01
 Coeff-Com:  0.950D+00 0.461D+00
 Coeff:     -0.209D-01 0.239D-01-0.396D-02-0.147D-03 0.923D-02-0.344D-01
 Coeff:      0.209D+00-0.239D+00-0.669D+00 0.228D+01-0.442D+01 0.244D+01
 Coeff:      0.950D+00 0.461D+00
 Gap=     0.009 Goal=   None    Shift=    0.200
 RMSDP=1.71D-06 MaxDP=1.50D-04 DE=-1.14D-07 OVMax= 1.65D-04

 Cycle  15  Pass 1  IDiag  1:
 E= -144.803048104069     Delta-E=       -0.000000053242 Rises=F Damp=F
 DIIS: error= 6.33D-05 at cycle  15 NSaved=  15.
 NSaved=15 IEnMin=15 EnMin= -144.803048104069     IErMin=14 ErrMin= 4.63D-05
 ErrMax= 6.33D-05  0.00D+00 EMaxC= 1.00D-01 BMatC= 1.02D-07 BMatP= 8.11D-08
 IDIUse=1 WtCom= 1.00D+00 WtEn= 0.00D+00
 Coeff-Com: -0.291D-01 0.332D-01-0.554D-02 0.177D-02-0.250D-02 0.109D-02
 Coeff-Com:  0.354D+00-0.570D+00-0.898D+00 0.173D+01 0.160D+01-0.291D+01
 Coeff-Com:  0.114D+01-0.390D+01 0.446D+01
 Coeff:     -0.291D-01 0.332D-01-0.554D-02 0.177D-02-0.250D-02 0.109D-02
 Coeff:      0.354D+00-0.570D+00-0.898D+00 0.173D+01 0.160D+01-0.291D+01
 Coeff:      0.114D+01-0.390D+01 0.446D+01
 Gap=     0.009 Goal=   None    Shift=    0.200
 RMSDP=8.16D-07 MaxDP=8.90D-05 DE=-5.32D-08 OVMax= 9.08D-05

 Cycle  16  Pass 1  IDiag  1:
 E= -144.803048117878     Delta-E=       -0.000000013810 Rises=F Damp=F
 DIIS: error= 8.49D-05 at cycle  16 NSaved=  16.
 NSaved=16 IEnMin=16 EnMin= -144.803048117878     IErMin=14 ErrMin= 4.63D-05
 ErrMax= 8.49D-05  0.00D+00 EMaxC= 1.00D-01 BMatC= 1.50D-07 BMatP= 8.11D-08
 IDIUse=1 WtCom= 1.00D+00 WtEn= 0.00D+00
 Coeff-Com: -0.220D-01 0.251D-01-0.406D-02 0.632D-03-0.335D-02-0.339D-01
 Coeff-Com:  0.298D+00-0.241D+00-0.879D+00 0.973D+00 0.188D+01-0.286D+01
 Coeff-Com:  0.146D+01-0.377D+01 0.289D+01 0.129D+01
 Coeff:     -0.220D-01 0.251D-01-0.406D-02 0.632D-03-0.335D-02-0.339D-01
 Coeff:      0.298D+00-0.241D+00-0.879D+00 0.973D+00 0.188D+01-0.286D+01
 Coeff:      0.146D+01-0.377D+01 0.289D+01 0.129D+01
 Gap=     0.009 Goal=   None    Shift=    0.200
 RMSDP=8.79D-07 MaxDP=8.61D-05 DE=-1.38D-08 OVMax= 8.16D-05

 Cycle  17  Pass 1  IDiag  1:
 E= -144.803048142400     Delta-E=       -0.000000024521 Rises=F Damp=F
 DIIS: error= 6.64D-05 at cycle  17 NSaved=  17.
 NSaved=17 IEnMin=17 EnMin= -144.803048142400     IErMin=14 ErrMin= 4.63D-05
 ErrMax= 6.64D-05  0.00D+00 EMaxC= 1.00D-01 BMatC= 9.92D-08 BMatP= 8.11D-08
 IDIUse=1 WtCom= 1.00D+00 WtEn= 0.00D+00
 Coeff-Com: -0.114D-01 0.131D-01-0.206D-02-0.298D-03 0.451D-03-0.487D-01
 Coeff-Com:  0.216D+00-0.105D+00-0.645D+00 0.101D+01-0.635D+00-0.618D+00
 Coeff-Com:  0.151D+01-0.245D+01 0.140D+01-0.161D+00 0.153D+01
 Coeff:     -0.114D-01 0.131D-01-0.206D-02-0.298D-03 0.451D-03-0.487D-01
 Coeff:      0.216D+00-0.105D+00-0.645D+00 0.101D+01-0.635D+00-0.618D+00
 Coeff:      0.151D+01-0.245D+01 0.140D+01-0.161D+00 0.153D+01
 Gap=     0.010 Goal=   None    Shift=    0.200
 RMSDP=1.10D-06 MaxDP=1.30D-04 DE=-2.45D-08 OVMax= 1.27D-04

 Cycle  18  Pass 1  IDiag  1:
 E= -144.803048170276     Delta-E=       -0.000000027876 Rises=F Damp=F
 DIIS: error= 3.64D-05 at cycle  18 NSaved=  18.
 NSaved=18 IEnMin=18 EnMin= -144.803048170276     IErMin=18 ErrMin= 3.64D-05
 ErrMax= 3.64D-05  0.00D+00 EMaxC= 1.00D-01 BMatC= 4.87D-08 BMatP= 8.11D-08
 IDIUse=1 WtCom= 1.00D+00 WtEn= 0.00D+00
 Coeff-Com: -0.122D-01 0.140D-01-0.218D-02-0.386D-03 0.159D-03-0.519D-01
 Coeff-Com:  0.217D+00-0.644D-01-0.685D+00 0.937D+00-0.471D+00-0.757D+00
 Coeff-Com:  0.155D+01-0.250D+01 0.147D+01-0.633D-01 0.174D+01-0.321D+00
 Coeff:     -0.122D-01 0.140D-01-0.218D-02-0.386D-03 0.159D-03-0.519D-01
 Coeff:      0.217D+00-0.644D-01-0.685D+00 0.937D+00-0.471D+00-0.757D+00
 Coeff:      0.155D+01-0.250D+01 0.147D+01-0.633D-01 0.174D+01-0.321D+00
 Gap=     0.010 Goal=   None    Shift=    0.200
 RMSDP=5.30D-07 MaxDP=5.67D-05 DE=-2.79D-08 OVMax= 7.19D-05

 Cycle  19  Pass 1  IDiag  1:
 E= -144.803048185699     Delta-E=       -0.000000015422 Rises=F Damp=F
 DIIS: error= 3.70D-05 at cycle  19 NSaved=  19.
 NSaved=19 IEnMin=19 EnMin= -144.803048185699     IErMin=18 ErrMin= 3.64D-05
 ErrMax= 3.70D-05  0.00D+00 EMaxC= 1.00D-01 BMatC= 4.47D-08 BMatP= 4.87D-08
 IDIUse=1 WtCom= 1.00D+00 WtEn= 0.00D+00
 Coeff-Com: -0.929D-02 0.106D-01-0.162D-02-0.432D-03-0.386D-03-0.509D-01
 Coeff-Com:  0.222D+00-0.509D-01-0.784D+00 0.140D+01-0.160D+01-0.132D+00
 Coeff-Com:  0.178D+01-0.307D+01 0.214D+01 0.352D+00-0.331D+00 0.389D+01
 Coeff-Com: -0.276D+01
 Coeff:     -0.929D-02 0.106D-01-0.162D-02-0.432D-03-0.386D-03-0.509D-01
 Coeff:      0.222D+00-0.509D-01-0.784D+00 0.140D+01-0.160D+01-0.132D+00
 Coeff:      0.178D+01-0.307D+01 0.214D+01 0.352D+00-0.331D+00 0.389D+01
 Coeff:     -0.276D+01
 Gap=     0.010 Goal=   None    Shift=    0.200
 RMSDP=4.13D-07 MaxDP=3.72D-05 DE=-1.54D-08 OVMax= 7.16D-05

 Cycle  20  Pass 1  IDiag  1:
 E= -144.803048199204     Delta-E=       -0.000000013506 Rises=F Damp=F
 DIIS: error= 2.81D-05 at cycle  20 NSaved=  20.
 NSaved=20 IEnMin=20 EnMin= -144.803048199204     IErMin=20 ErrMin= 2.81D-05
 ErrMax= 2.81D-05  0.00D+00 EMaxC= 1.00D-01 BMatC= 3.28D-08 BMatP= 4.47D-08
 IDIUse=1 WtCom= 1.00D+00 WtEn= 0.00D+00
 Large coefficients: NSaved= 20 BigCof=   10.97 CofMax=   10.00 Det=-7.06D-13
 Inversion failed.  Reducing to 19 matrices.
 Large coefficients: NSaved= 19 BigCof=   12.28 CofMax=   10.00 Det=-7.62D-13
 Inversion failed.  Reducing to 18 matrices.
 Large coefficients: NSaved= 18 BigCof=   12.28 CofMax=   10.00 Det=-7.62D-13
 Inversion failed.  Reducing to 17 matrices.
 Large coefficients: NSaved= 17 BigCof=   12.29 CofMax=   10.00 Det=-7.62D-13
 Inversion failed.  Reducing to 16 matrices.
 Large coefficients: NSaved= 16 BigCof=   13.60 CofMax=   10.00 Det=-8.94D-13
 Inversion failed.  Reducing to 15 matrices.
 Large coefficients: NSaved= 15 BigCof=   13.37 CofMax=   10.00 Det=-9.07D-13
 Inversion failed.  Reducing to 14 matrices.
 Large coefficients: NSaved= 14 BigCof=   11.74 CofMax=   10.00 Det=-9.27D-13
 Inversion failed.  Reducing to 13 matrices.
 Coeff-Com: -0.280D+00 0.151D-02 0.249D+01-0.668D+01 0.353D+01 0.176D+01
 Coeff-Com: -0.123D+01 0.224D+00-0.561D+00-0.111D+01 0.872D+01-0.747D+01
 Coeff-Com:  0.160D+01
 Coeff:     -0.280D+00 0.151D-02 0.249D+01-0.668D+01 0.353D+01 0.176D+01
 Coeff:     -0.123D+01 0.224D+00-0.561D+00-0.111D+01 0.872D+01-0.747D+01
 Coeff:      0.160D+01
 Gap=     0.010 Goal=   None    Shift=    0.200
 RMSDP=1.26D-06 MaxDP=1.20D-04 DE=-1.35D-08 OVMax= 1.22D-04

 Cycle  21  Pass 1  IDiag  1:
 E= -144.803048215353     Delta-E=       -0.000000016149 Rises=F Damp=F
 DIIS: error= 1.98D-05 at cycle  21 NSaved=  14.
 NSaved=14 IEnMin=14 EnMin= -144.803048215353     IErMin=14 ErrMin= 1.98D-05
 ErrMax= 1.98D-05  0.00D+00 EMaxC= 1.00D-01 BMatC= 1.91D-08 BMatP= 3.28D-08
 IDIUse=1 WtCom= 1.00D+00 WtEn= 0.00D+00
 Coeff-Com:  0.339D+00-0.101D+01 0.181D+01-0.381D+01 0.169D+01 0.154D+01
 Coeff-Com: -0.170D+01 0.106D+01 0.407D+00 0.199D+01 0.367D+01-0.709D+01
 Coeff-Com: -0.902D+00 0.300D+01
 Coeff:      0.339D+00-0.101D+01 0.181D+01-0.381D+01 0.169D+01 0.154D+01
 Coeff:     -0.170D+01 0.106D+01 0.407D+00 0.199D+01 0.367D+01-0.709D+01
 Coeff:     -0.902D+00 0.300D+01
 Gap=     0.010 Goal=   None    Shift=    0.200
 RMSDP=1.03D-06 MaxDP=1.09D-04 DE=-1.61D-08 OVMax= 7.38D-05

 Cycle  22  Pass 1  IDiag  1:
 E= -144.803048223553     Delta-E=       -0.000000008201 Rises=F Damp=F
 DIIS: error= 1.73D-05 at cycle  22 NSaved=  15.
 NSaved=15 IEnMin=15 EnMin= -144.803048223553     IErMin=15 ErrMin= 1.73D-05
 ErrMax= 1.73D-05  0.00D+00 EMaxC= 1.00D-01 BMatC= 1.63D-08 BMatP= 1.91D-08
 IDIUse=1 WtCom= 1.00D+00 WtEn= 0.00D+00
 Coeff-Com:  0.356D+00-0.104D+01 0.159D+01-0.289D+01 0.110D+01 0.145D+01
 Coeff-Com: -0.183D+01 0.106D+01 0.382D+00 0.254D+01 0.250D+01-0.566D+01
 Coeff-Com: -0.224D+01 0.279D+01 0.890D+00
 Coeff:      0.356D+00-0.104D+01 0.159D+01-0.289D+01 0.110D+01 0.145D+01
 Coeff:     -0.183D+01 0.106D+01 0.382D+00 0.254D+01 0.250D+01-0.566D+01
 Coeff:     -0.224D+01 0.279D+01 0.890D+00
 Gap=     0.010 Goal=   None    Shift=    0.200
 RMSDP=4.12D-07 MaxDP=4.51D-05 DE=-8.20D-09 OVMax= 5.62D-05

 Cycle  23  Pass 1  IDiag  1:
 E= -144.803048230739     Delta-E=       -0.000000007186 Rises=F Damp=F
 DIIS: error= 1.53D-05 at cycle  23 NSaved=  16.
 NSaved=16 IEnMin=16 EnMin= -144.803048230739     IErMin=16 ErrMin= 1.53D-05
 ErrMax= 1.53D-05  0.00D+00 EMaxC= 1.00D-01 BMatC= 1.34D-08 BMatP= 1.63D-08
 IDIUse=1 WtCom= 1.00D+00 WtEn= 0.00D+00
 Coeff-Com:  0.346D+00-0.990D+00 0.148D+01-0.260D+01 0.892D+00 0.143D+01
 Coeff-Com: -0.175D+01 0.950D+00 0.345D+00 0.288D+01 0.158D+01-0.447D+01
 Coeff-Com: -0.299D+01 0.296D+01 0.318D+00 0.623D+00
 Coeff:      0.346D+00-0.990D+00 0.148D+01-0.260D+01 0.892D+00 0.143D+01
 Coeff:     -0.175D+01 0.950D+00 0.345D+00 0.288D+01 0.158D+01-0.447D+01
 Coeff:     -0.299D+01 0.296D+01 0.318D+00 0.623D+00
 Gap=     0.010 Goal=   None    Shift=    0.200
 RMSDP=2.99D-07 MaxDP=3.52D-05 DE=-7.19D-09 OVMax= 4.48D-05

 Cycle  24  Pass 1  IDiag  1:
 E= -144.803048236527     Delta-E=       -0.000000005788 Rises=F Damp=F
 DIIS: error= 1.44D-05 at cycle  24 NSaved=  17.
 NSaved=17 IEnMin=17 EnMin= -144.803048236527     IErMin=17 ErrMin= 1.44D-05
 ErrMax= 1.44D-05  0.00D+00 EMaxC= 1.00D-01 BMatC= 1.12D-08 BMatP= 1.34D-08
 IDIUse=1 WtCom= 1.00D+00 WtEn= 0.00D+00
 Large coefficients: NSaved= 17 BigCof=   12.29 CofMax=   10.00 Det=-3.10D-13
 Inversion failed.  Reducing to 16 matrices.
 Large coefficients: NSaved= 16 BigCof=   14.85 CofMax=   10.00 Det=-3.61D-13
 Inversion failed.  Reducing to 15 matrices.
 Large coefficients: NSaved= 15 BigCof=   12.15 CofMax=   10.00 Det=-4.91D-13
 Inversion failed.  Reducing to 14 matrices.
 Large coefficients: NSaved= 14 BigCof=   12.31 CofMax=   10.00 Det=-8.28D-13
 Inversion failed.  Reducing to 13 matrices.
 Large coefficients: NSaved= 13 BigCof=   12.07 CofMax=   10.00 Det=-9.09D-13
 Inversion failed.  Reducing to 12 matrices.
 Large coefficients: NSaved= 12 BigCof=   14.44 CofMax=   10.00 Det=-9.29D-13
 Inversion failed.  Reducing to 11 matrices.
 Large coefficients: NSaved= 11 BigCof=   17.89 CofMax=   10.00 Det=-9.69D-13
 Inversion failed.  Reducing to 10 matrices.
 Large coefficients: NSaved= 10 BigCof=   22.23 CofMax=   10.00 Det=-1.01D-12
 Inversion failed.  Reducing to  9 matrices.
 Large coefficients: NSaved=  9 BigCof=   24.72 CofMax=   10.00 Det=-1.15D-12
 Inversion failed.  Reducing to  8 matrices.
 Large coefficients: NSaved=  8 BigCof=   26.27 CofMax=   10.00 Det=-1.18D-12
 Inversion failed.  Reducing to  7 matrices.
 Large coefficients: NSaved=  7 BigCof=   32.86 CofMax=   10.00 Det=-1.73D-12
 Inversion failed.  Reducing to  6 matrices.
 Large coefficients: NSaved=  6 BigCof=   26.06 CofMax=   10.00 Det=-1.89D-12
 Inversion failed.  Reducing to  5 matrices.
 Large coefficients: NSaved=  5 BigCof=   31.50 CofMax=   10.00 Det=-2.13D-12
 Inversion failed.  Reducing to  4 matrices.
 Large coefficients: NSaved=  4 BigCof=   31.41 CofMax=   10.00 Det=-2.13D-12
 Inversion failed.  Reducing to  3 matrices.
 Large coefficients: NSaved=  3 BigCof=   33.20 CofMax=   10.00 Det=-3.11D-12
 Inversion failed.  Reducing to  2 matrices.
 Coeff-Com: -0.578D+01 0.678D+01
 Coeff:     -0.578D+01 0.678D+01
 Gap=     0.010 Goal=   None    Shift=    0.200
 RMSDP=2.69D-06 MaxDP=2.63D-04 DE=-5.79D-09 OVMax= 3.02D-04

 Cycle  25  Pass 1  IDiag  1:
 E= -144.803048255269     Delta-E=       -0.000000018742 Rises=F Damp=F
 DIIS: error= 9.12D-06 at cycle  25 NSaved=   3.
 NSaved= 3 IEnMin= 3 EnMin= -144.803048255269     IErMin= 3 ErrMin= 9.12D-06
 ErrMax= 9.12D-06  0.00D+00 EMaxC= 1.00D-01 BMatC= 5.24D-09 BMatP= 1.12D-08
 IDIUse=1 WtCom= 1.00D+00 WtEn= 0.00D+00
 Coeff-Com: -0.508D+01 0.540D+01 0.679D+00
 Coeff:     -0.508D+01 0.540D+01 0.679D+00
 Gap=     0.010 Goal=   None    Shift=    0.200
 RMSDP=1.09D-06 MaxDP=1.09D-04 DE=-1.87D-08 OVMax= 6.28D-05

 Cycle  26  Pass 1  IDiag  1:
 E= -144.803048261501     Delta-E=       -0.000000006232 Rises=F Damp=F
 DIIS: error= 6.27D-06 at cycle  26 NSaved=   4.
 NSaved= 4 IEnMin= 4 EnMin= -144.803048261501     IErMin= 4 ErrMin= 6.27D-06
 ErrMax= 6.27D-06  0.00D+00 EMaxC= 1.00D-01 BMatC= 3.13D-09 BMatP= 5.24D-09
 IDIUse=1 WtCom= 1.00D+00 WtEn= 0.00D+00
 Coeff-Com: -0.425D+01 0.448D+01-0.382D-01 0.811D+00
 Coeff:     -0.425D+01 0.448D+01-0.382D-01 0.811D+00
 Gap=     0.010 Goal=   None    Shift=    0.200
 RMSDP=3.94D-07 MaxDP=3.97D-05 DE=-6.23D-09 OVMax= 3.85D-05

 Cycle  27  Pass 1  IDiag  1:
 E= -144.803048264307     Delta-E=       -0.000000002806 Rises=F Damp=F
 DIIS: error= 4.57D-06 at cycle  27 NSaved=   5.
 NSaved= 5 IEnMin= 5 EnMin= -144.803048264307     IErMin= 5 ErrMin= 4.57D-06
 ErrMax= 4.57D-06  0.00D+00 EMaxC= 1.00D-01 BMatC= 1.65D-09 BMatP= 3.13D-09
 IDIUse=1 WtCom= 1.00D+00 WtEn= 0.00D+00
 Coeff-Com: -0.241D+01 0.247D+01-0.406D+00 0.950D-01 0.124D+01
 Coeff:     -0.241D+01 0.247D+01-0.406D+00 0.950D-01 0.124D+01
 Gap=     0.010 Goal=   None    Shift=    0.200
 RMSDP=2.61D-07 MaxDP=2.28D-05 DE=-2.81D-09 OVMax= 2.84D-05

 Cycle  28  Pass 1  IDiag  1:
 E= -144.803048265800     Delta-E=       -0.000000001493 Rises=F Damp=F
 DIIS: error= 3.42D-06 at cycle  28 NSaved=   6.
 NSaved= 6 IEnMin= 6 EnMin= -144.803048265800     IErMin= 6 ErrMin= 3.42D-06
 ErrMax= 3.42D-06  0.00D+00 EMaxC= 1.00D-01 BMatC= 1.00D-09 BMatP= 1.65D-09
 IDIUse=1 WtCom= 1.00D+00 WtEn= 0.00D+00
 Coeff-Com: -0.202D+01 0.205D+01-0.419D+00 0.878D-01 0.876D+00 0.424D+00
 Coeff:     -0.202D+01 0.205D+01-0.419D+00 0.878D-01 0.876D+00 0.424D+00
 Gap=     0.010 Goal=   None    Shift=    0.200
 RMSDP=2.61D-07 MaxDP=2.69D-05 DE=-1.49D-09 OVMax= 2.11D-05

 Cycle  29  Pass 1  IDiag  1:
 E= -144.803048266617     Delta-E=       -0.000000000817 Rises=F Damp=F
 DIIS: error= 2.65D-06 at cycle  29 NSaved=   7.
 NSaved= 7 IEnMin= 7 EnMin= -144.803048266617     IErMin= 7 ErrMin= 2.65D-06
 ErrMax= 2.65D-06  0.00D+00 EMaxC= 1.00D-01 BMatC= 6.41D-10 BMatP= 1.00D-09
 IDIUse=1 WtCom= 1.00D+00 WtEn= 0.00D+00
 Coeff-Com: -0.105D+01 0.987D+00-0.209D-01 0.261D+00 0.152D+01-0.592D+01
 Coeff-Com:  0.522D+01
 Coeff:     -0.105D+01 0.987D+00-0.209D-01 0.261D+00 0.152D+01-0.592D+01
 Coeff:      0.522D+01
 Gap=     0.010 Goal=   None    Shift=    0.200
 RMSDP=2.11D-07 MaxDP=1.85D-05 DE=-8.17D-10 OVMax= 1.58D-05

 Cycle  30  Pass 1  IDiag  1:
 E= -144.803048267089     Delta-E=       -0.000000000472 Rises=F Damp=F
 DIIS: error= 2.30D-06 at cycle  30 NSaved=   8.
 NSaved= 8 IEnMin= 8 EnMin= -144.803048267089     IErMin= 8 ErrMin= 2.30D-06
 ErrMax= 2.30D-06  0.00D+00 EMaxC= 1.00D-01 BMatC= 4.26D-10 BMatP= 6.41D-10
 IDIUse=1 WtCom= 1.00D+00 WtEn= 0.00D+00
 Coeff-Com: -0.108D+00-0.384D-01 0.113D+00 0.313D+00 0.140D+01-0.708D+01
 Coeff-Com:  0.500D+01 0.140D+01
 Coeff:     -0.108D+00-0.384D-01 0.113D+00 0.313D+00 0.140D+01-0.708D+01
 Coeff:      0.500D+01 0.140D+01
 Gap=     0.010 Goal=   None    Shift=    0.200
 RMSDP=2.07D-07 MaxDP=2.32D-05 DE=-4.72D-10 OVMax= 1.23D-05

 Cycle  31  Pass 1  IDiag  1:
 E= -144.803048267384     Delta-E=       -0.000000000295 Rises=F Damp=F
 DIIS: error= 2.02D-06 at cycle  31 NSaved=   9.
 NSaved= 9 IEnMin= 9 EnMin= -144.803048267384     IErMin= 9 ErrMin= 2.02D-06
 ErrMax= 2.02D-06  0.00D+00 EMaxC= 1.00D-01 BMatC= 2.96D-10 BMatP= 4.26D-10
 IDIUse=1 WtCom= 1.00D+00 WtEn= 0.00D+00
 Coeff-Com: -0.921D-01-0.341D-01-0.558D-01 0.172D+00 0.679D+00-0.221D+01
 Coeff-Com:  0.814D+00-0.385D+00 0.211D+01
 Coeff:     -0.921D-01-0.341D-01-0.558D-01 0.172D+00 0.679D+00-0.221D+01
 Coeff:      0.814D+00-0.385D+00 0.211D+01
 Gap=     0.010 Goal=   None    Shift=    0.200
 RMSDP=1.65D-07 MaxDP=1.54D-05 DE=-2.95D-10 OVMax= 9.67D-06

 Cycle  32  Pass 1  IDiag  1:
 E= -144.803048267572     Delta-E=       -0.000000000188 Rises=F Damp=F
 DIIS: error= 1.77D-06 at cycle  32 NSaved=  10.
 NSaved=10 IEnMin=10 EnMin= -144.803048267572     IErMin=10 ErrMin= 1.77D-06
 ErrMax= 1.77D-06  0.00D+00 EMaxC= 1.00D-01 BMatC= 2.15D-10 BMatP= 2.96D-10
 IDIUse=1 WtCom= 1.00D+00 WtEn= 0.00D+00
 Coeff-Com: -0.379D+00 0.295D+00-0.162D+00 0.408D-01 0.399D+00 0.734D+00
 Coeff-Com: -0.136D+01-0.983D+00 0.100D+01 0.142D+01
 Coeff:     -0.379D+00 0.295D+00-0.162D+00 0.408D-01 0.399D+00 0.734D+00
 Coeff:     -0.136D+01-0.983D+00 0.100D+01 0.142D+01
 Gap=     0.010 Goal=   None    Shift=    0.200
 RMSDP=1.04D-07 MaxDP=1.11D-05 DE=-1.88D-10 OVMax= 7.70D-06

 Cycle  33  Pass 1  IDiag  1:
 E= -144.803048267698     Delta-E=       -0.000000000126 Rises=F Damp=F
 DIIS: error= 1.58D-06 at cycle  33 NSaved=  11.
 NSaved=11 IEnMin=11 EnMin= -144.803048267698     IErMin=11 ErrMin= 1.58D-06
 ErrMax= 1.58D-06  0.00D+00 EMaxC= 1.00D-01 BMatC= 1.62D-10 BMatP= 2.15D-10
 IDIUse=1 WtCom= 1.00D+00 WtEn= 0.00D+00
 Coeff-Com: -0.388D+00 0.318D+00-0.120D+00-0.503D-02 0.383D+00 0.744D+00
 Coeff-Com: -0.103D+01-0.260D+00-0.269D+00-0.676D+00 0.230D+01
 Coeff:     -0.388D+00 0.318D+00-0.120D+00-0.503D-02 0.383D+00 0.744D+00
 Coeff:     -0.103D+01-0.260D+00-0.269D+00-0.676D+00 0.230D+01
 Gap=     0.010 Goal=   None    Shift=    0.200
 RMSDP=9.98D-08 MaxDP=1.21D-05 DE=-1.26D-10 OVMax= 6.31D-06

 Cycle  34  Pass 1  IDiag  1:
 E= -144.803048267787     Delta-E=       -0.000000000089 Rises=F Damp=F
 DIIS: error= 1.44D-06 at cycle  34 NSaved=  12.
 NSaved=12 IEnMin=12 EnMin= -144.803048267787     IErMin=12 ErrMin= 1.44D-06
 ErrMax= 1.44D-06  0.00D+00 EMaxC= 1.00D-01 BMatC= 1.25D-10 BMatP= 1.62D-10
 IDIUse=1 WtCom= 1.00D+00 WtEn= 0.00D+00
 Coeff-Com: -0.166D-01-0.817D-01-0.260D-01 0.530D-01 0.298D+00-0.695D+00
 Coeff-Com:  0.379D+00 0.642D+00-0.427D+00-0.215D+01 0.154D+01 0.149D+01
 Coeff:     -0.166D-01-0.817D-01-0.260D-01 0.530D-01 0.298D+00-0.695D+00
 Coeff:      0.379D+00 0.642D+00-0.427D+00-0.215D+01 0.154D+01 0.149D+01
 Gap=     0.010 Goal=   None    Shift=    0.200
 RMSDP=7.91D-08 MaxDP=8.44D-06 DE=-8.89D-11 OVMax= 5.03D-06

 Cycle  35  Pass 1  IDiag  1:
 E= -144.803048267851     Delta-E=       -0.000000000064 Rises=F Damp=F
 DIIS: error= 1.35D-06 at cycle  35 NSaved=  13.
 NSaved=13 IEnMin=13 EnMin= -144.803048267851     IErMin=13 ErrMin= 1.35D-06
 ErrMax= 1.35D-06  0.00D+00 EMaxC= 1.00D-01 BMatC= 1.01D-10 BMatP= 1.25D-10
 IDIUse=1 WtCom= 1.00D+00 WtEn= 0.00D+00
 Coeff-Com:  0.226D-01-0.116D+00-0.245D-01 0.487D-01 0.110D+00-0.110D+00
 Coeff-Com: -0.928D-01 0.434D+00-0.573D-01-0.172D+01 0.173D+01-0.120D+01
 Coeff-Com:  0.198D+01
 Coeff:      0.226D-01-0.116D+00-0.245D-01 0.487D-01 0.110D+00-0.110D+00
 Coeff:     -0.928D-01 0.434D+00-0.573D-01-0.172D+01 0.173D+01-0.120D+01
 Coeff:      0.198D+01
 Gap=     0.010 Goal=   None    Shift=    0.200
 RMSDP=5.17D-08 MaxDP=6.04D-06 DE=-6.38D-11 OVMax= 4.14D-06

 Cycle  36  Pass 1  IDiag  1:
 E= -144.803048267898     Delta-E=       -0.000000000047 Rises=F Damp=F
 DIIS: error= 1.25D-06 at cycle  36 NSaved=  14.
 NSaved=14 IEnMin=14 EnMin= -144.803048267898     IErMin=14 ErrMin= 1.25D-06
 ErrMax= 1.25D-06  0.00D+00 EMaxC= 1.00D-01 BMatC= 8.41D-11 BMatP= 1.01D-10
 IDIUse=1 WtCom= 1.00D+00 WtEn= 0.00D+00
 Coeff-Com: -0.121D+00 0.532D-01-0.376D-01-0.775D-02-0.297D-01 0.988D+00
 Coeff-Com: -0.979D+00 0.121D+00-0.351D-01-0.121D+01 0.206D+01-0.971D+00
 Coeff-Com: -0.162D+01 0.279D+01
 Coeff:     -0.121D+00 0.532D-01-0.376D-01-0.775D-02-0.297D-01 0.988D+00
 Coeff:     -0.979D+00 0.121D+00-0.351D-01-0.121D+01 0.206D+01-0.971D+00
 Coeff:     -0.162D+01 0.279D+01
 Gap=     0.010 Goal=   None    Shift=    0.200
 RMSDP=4.55D-08 MaxDP=4.88D-06 DE=-4.71D-11 OVMax= 3.39D-06

 Cycle  37  Pass 1  IDiag  1:
 E= -144.803048267933     Delta-E=       -0.000000000035 Rises=F Damp=F
 DIIS: error= 1.17D-06 at cycle  37 NSaved=  15.
 NSaved=15 IEnMin=15 EnMin= -144.803048267933     IErMin=15 ErrMin= 1.17D-06
 ErrMax= 1.17D-06  0.00D+00 EMaxC= 1.00D-01 BMatC= 7.18D-11 BMatP= 8.41D-11
 IDIUse=1 WtCom= 1.00D+00 WtEn= 0.00D+00
 Coeff-Com: -0.114D+00 0.489D-01-0.259D-01-0.975D-02-0.142D-01 0.823D+00
 Coeff-Com: -0.827D+00 0.236D+00-0.148D+00-0.138D+01 0.189D+01 0.181D+00
 Coeff-Com: -0.153D+01-0.130D+00 0.200D+01
 Coeff:     -0.114D+00 0.489D-01-0.259D-01-0.975D-02-0.142D-01 0.823D+00
 Coeff:     -0.827D+00 0.236D+00-0.148D+00-0.138D+01 0.189D+01 0.181D+00
 Coeff:     -0.153D+01-0.130D+00 0.200D+01
 Gap=     0.010 Goal=   None    Shift=    0.200
 RMSDP=2.71D-08 MaxDP=2.67D-06 DE=-3.54D-11 OVMax= 2.82D-06

 Cycle  38  Pass 1  IDiag  1:
 E= -144.803048267960     Delta-E=       -0.000000000027 Rises=F Damp=F
 DIIS: error= 1.10D-06 at cycle  38 NSaved=  16.
 NSaved=16 IEnMin=16 EnMin= -144.803048267960     IErMin=16 ErrMin= 1.10D-06
 ErrMax= 1.10D-06  0.00D+00 EMaxC= 1.00D-01 BMatC= 6.22D-11 BMatP= 7.18D-11
 IDIUse=1 WtCom= 1.00D+00 WtEn= 0.00D+00
 Large coefficients: NSaved= 16 BigCof=    0.00 CofMax=   10.00 Det=-1.36D-15
 Inversion failed.  Reducing to 15 matrices.
 Coeff-Com: -0.770D-01-0.594D-02 0.206D-01 0.270D-01 0.160D+00-0.264D+00
 Coeff-Com:  0.490D+00-0.201D+00-0.172D+01 0.154D+01 0.582D+00 0.575D+00
 Coeff-Com: -0.240D+01 0.861D+00 0.142D+01
 Coeff:     -0.770D-01-0.594D-02 0.206D-01 0.270D-01 0.160D+00-0.264D+00
 Coeff:      0.490D+00-0.201D+00-0.172D+01 0.154D+01 0.582D+00 0.575D+00
 Coeff:     -0.240D+01 0.861D+00 0.142D+01
 Gap=     0.010 Goal=   None    Shift=    0.200
 RMSDP=2.04D-08 MaxDP=2.22D-06 DE=-2.73D-11 OVMax= 2.41D-06

 Cycle  39  Pass 1  IDiag  1:
 E= -144.803048267984     Delta-E=       -0.000000000023 Rises=F Damp=F
 DIIS: error= 1.02D-06 at cycle  39 NSaved=  16.
 NSaved=16 IEnMin=16 EnMin= -144.803048267984     IErMin=16 ErrMin= 1.02D-06
 ErrMax= 1.02D-06  0.00D+00 EMaxC= 1.00D-01 BMatC= 5.42D-11 BMatP= 6.22D-11
 IDIUse=1 WtCom= 1.00D+00 WtEn= 0.00D+00
 Large coefficients: NSaved= 16 BigCof=    0.00 CofMax=   10.00 Det=-8.81D-16
 Inversion failed.  Reducing to 15 matrices.
 Large coefficients: NSaved= 15 BigCof=   14.35 CofMax=   10.00 Det=-1.07D-15
 Inversion failed.  Reducing to 14 matrices.
 Large coefficients: NSaved= 14 BigCof=   14.21 CofMax=   10.00 Det=-1.08D-15
 Inversion failed.  Reducing to 13 matrices.
 Large coefficients: NSaved= 13 BigCof=   18.58 CofMax=   10.00 Det=-1.15D-15
 Inversion failed.  Reducing to 12 matrices.
 Large coefficients: NSaved= 12 BigCof=   28.47 CofMax=   10.00 Det=-1.34D-15
 Inversion failed.  Reducing to 11 matrices.
 Large coefficients: NSaved= 11 BigCof=   28.10 CofMax=   10.00 Det=-1.35D-15
 Inversion failed.  Reducing to 10 matrices.
 Large coefficients: NSaved= 10 BigCof=   28.22 CofMax=   10.00 Det=-1.35D-15
 Inversion failed.  Reducing to  9 matrices.
 Large coefficients: NSaved=  9 BigCof=   32.01 CofMax=   10.00 Det=-1.50D-15
 Inversion failed.  Reducing to  8 matrices.
 Large coefficients: NSaved=  8 BigCof=   32.96 CofMax=   10.00 Det=-1.52D-15
 Inversion failed.  Reducing to  7 matrices.
 Large coefficients: NSaved=  7 BigCof=   30.27 CofMax=   10.00 Det=-1.56D-15
 Inversion failed.  Reducing to  6 matrices.
 Large coefficients: NSaved=  6 BigCof=   30.11 CofMax=   10.00 Det=-1.65D-15
 Inversion failed.  Reducing to  5 matrices.
 Large coefficients: NSaved=  5 BigCof=   30.02 CofMax=   10.00 Det=-1.70D-15
 Inversion failed.  Reducing to  4 matrices.
 Large coefficients: NSaved=  4 BigCof=   38.61 CofMax=   10.00 Det=-4.31D-15
 Inversion failed.  Reducing to  3 matrices.
 Large coefficients: NSaved=  3 BigCof=   51.08 CofMax=   10.00 Det=-4.77D-15
 Inversion failed.  Reducing to  2 matrices.
 Large coefficients: NSaved=  2 BigCof=   10.47 CofMax=   10.00 Det=-4.01D-13
 Coeff-Com: -0.947D+01 0.105D+02
 Coeff:     -0.947D+01 0.105D+02
 Gap=     0.010 Goal=   None    Shift=    0.200
 RMSDP=2.96D-07 MaxDP=3.01D-05 DE=-2.34D-11 OVMax= 1.60D-05

 Cycle  40  Pass 1  IDiag  1:
 E= -144.803048268047     Delta-E=       -0.000000000063 Rises=F Damp=F
 DIIS: error= 5.98D-07 at cycle  40 NSaved=   3.
 NSaved= 3 IEnMin= 3 EnMin= -144.803048268047     IErMin= 3 ErrMin= 5.98D-07
 ErrMax= 5.98D-07  0.00D+00 EMaxC= 1.00D-01 BMatC= 3.29D-11 BMatP= 5.42D-11
 IDIUse=1 WtCom= 1.00D+00 WtEn= 0.00D+00
 Coeff-Com: -0.874D+01 0.906D+01 0.685D+00
 Coeff:     -0.874D+01 0.906D+01 0.685D+00
 Gap=     0.010 Goal=   None    Shift=    0.200
 RMSDP=8.47D-08 MaxDP=8.18D-06 DE=-6.28D-11 OVMax= 2.83D-06

 Cycle  41  Pass 1  IDiag  1:
 E= -144.803048268050     Delta-E=       -0.000000000003 Rises=F Damp=F
 DIIS: error= 5.56D-07 at cycle  41 NSaved=   4.
 NSaved= 4 IEnMin= 4 EnMin= -144.803048268050     IErMin= 4 ErrMin= 5.56D-07
 ErrMax= 5.56D-07  0.00D+00 EMaxC= 1.00D-01 BMatC= 2.21D-11 BMatP= 3.29D-11
 IDIUse=1 WtCom= 1.00D+00 WtEn= 0.00D+00
 Coeff-Com: -0.836D+01 0.863D+01 0.469D+00 0.257D+00
 Coeff:     -0.836D+01 0.863D+01 0.469D+00 0.257D+00
 Gap=     0.010 Goal=   None    Shift=    0.200
 RMSDP=5.42D-08 MaxDP=5.75D-06 DE=-3.33D-12 OVMax= 2.25D-06

 Cycle  42  Pass 1  IDiag  1:
 E= -144.803048268058     Delta-E=       -0.000000000008 Rises=F Damp=F
 DIIS: error= 5.20D-07 at cycle  42 NSaved=   5.
 NSaved= 5 IEnMin= 5 EnMin= -144.803048268058     IErMin= 5 ErrMin= 5.20D-07
 ErrMax= 5.20D-07  0.00D+00 EMaxC= 1.00D-01 BMatC= 1.74D-11 BMatP= 2.21D-11
 IDIUse=1 WtCom= 1.00D+00 WtEn= 0.00D+00
 Large coefficients: NSaved=  5 BigCof=   11.66 CofMax=   10.00 Det=-1.64D-14
 Inversion failed.  Reducing to  4 matrices.
 Coeff-Com: -0.626D+00-0.450D-01-0.494D+01 0.661D+01
 Coeff:     -0.626D+00-0.450D-01-0.494D+01 0.661D+01
 Gap=     0.010 Goal=   None    Shift=    0.200
 RMSDP=6.15D-08 MaxDP=5.33D-06 DE=-7.87D-12 OVMax= 3.05D-06

 Cycle  43  Pass 1  IDiag  1:
 E= -144.803048268014     Delta-E=        0.000000000044 Rises=F Damp=F
 DIIS: error= 4.47D-07 at cycle  43 NSaved=   5.
 NSaved= 5 IEnMin= 4 EnMin= -144.803048268058     IErMin= 5 ErrMin= 4.47D-07
 ErrMax= 4.47D-07  0.00D+00 EMaxC= 1.00D-01 BMatC= 1.11D-11 BMatP= 1.74D-11
 IDIUse=1 WtCom= 1.00D+00 WtEn= 0.00D+00
 Coeff-Com: -0.542D+00 0.736D+00-0.542D+01 0.510D+01 0.113D+01
 Coeff:     -0.542D+00 0.736D+00-0.542D+01 0.510D+01 0.113D+01
 Gap=     0.010 Goal=   None    Shift=    0.200
 RMSDP=7.03D-08 MaxDP=5.61D-06 DE= 4.41D-11 OVMax= 2.40D-06

 Cycle  44  Pass 1  IDiag  1:
 E= -144.803048267979     Delta-E=        0.000000000034 Rises=F Damp=F
 DIIS: error= 3.90D-07 at cycle  44 NSaved=   6.
 NSaved= 6 IEnMin= 4 EnMin= -144.803048268058     IErMin= 6 ErrMin= 3.90D-07
 ErrMax= 3.90D-07  0.00D+00 EMaxC= 1.00D-01 BMatC= 8.37D-12 BMatP= 1.11D-11
 IDIUse=1 WtCom= 1.00D+00 WtEn= 0.00D+00
 Coeff-Com: -0.728D+00 0.670D+00-0.786D+01 0.844D+01 0.224D+01-0.175D+01
 Coeff:     -0.728D+00 0.670D+00-0.786D+01 0.844D+01 0.224D+01-0.175D+01
 Gap=     0.010 Goal=   None    Shift=    0.200
 RMSDP=7.53D-08 MaxDP=6.05D-06 DE= 3.42D-11 OVMax= 2.30D-06

 Cycle  45  Pass 1  IDiag  1:
 E= -144.803048268053     Delta-E=       -0.000000000074 Rises=F Damp=F
 DIIS: error= 4.12D-07 at cycle  45 NSaved=   7.
 NSaved= 7 IEnMin= 4 EnMin= -144.803048268058     IErMin= 6 ErrMin= 3.90D-07
 ErrMax= 4.12D-07  0.00D+00 EMaxC= 1.00D-01 BMatC= 7.36D-12 BMatP= 8.37D-12
 IDIUse=1 WtCom= 1.00D+00 WtEn= 0.00D+00
 Coeff-Com: -0.733D+00 0.981D+00-0.848D+01 0.840D+01 0.365D+01-0.422D+01
 Coeff-Com:  0.140D+01
 Coeff:     -0.733D+00 0.981D+00-0.848D+01 0.840D+01 0.365D+01-0.422D+01
 Coeff:      0.140D+01
 Gap=     0.010 Goal=   None    Shift=    0.200
 RMSDP=9.25D-08 MaxDP=8.67D-06 DE=-7.39D-11 OVMax= 2.31D-06

 Cycle  46  Pass 1  IDiag  1:
 E= -144.803048268121     Delta-E=       -0.000000000068 Rises=F Damp=F
 DIIS: error= 3.84D-07 at cycle  46 NSaved=   8.
 NSaved= 8 IEnMin= 8 EnMin= -144.803048268121     IErMin= 8 ErrMin= 3.84D-07
 ErrMax= 3.84D-07  0.00D+00 EMaxC= 1.00D-01 BMatC= 6.36D-12 BMatP= 7.36D-12
 IDIUse=1 WtCom= 1.00D+00 WtEn= 0.00D+00
 Coeff-Com: -0.463D+00 0.581D+00-0.344D+01 0.254D+01 0.177D+01-0.813D+00
 Coeff-Com: -0.896D+00 0.171D+01
 Coeff:     -0.463D+00 0.581D+00-0.344D+01 0.254D+01 0.177D+01-0.813D+00
 Coeff:     -0.896D+00 0.171D+01
 Gap=     0.010 Goal=   None    Shift=    0.200
 RMSDP=2.70D-08 MaxDP=2.68D-06 DE=-6.76D-11 OVMax= 1.02D-06

 Cycle  47  Pass 1  IDiag  1:
 E= -144.803048268128     Delta-E=       -0.000000000007 Rises=F Damp=F
 DIIS: error= 3.49D-07 at cycle  47 NSaved=   9.
 NSaved= 9 IEnMin= 9 EnMin= -144.803048268128     IErMin= 9 ErrMin= 3.49D-07
 ErrMax= 3.49D-07  0.00D+00 EMaxC= 1.00D-01 BMatC= 4.95D-12 BMatP= 6.36D-12
 IDIUse=1 WtCom= 1.00D+00 WtEn= 0.00D+00
 Coeff-Com: -0.484D+00 0.380D+00-0.356D+01 0.369D+01 0.838D+00-0.194D+00
 Coeff-Com: -0.872D+00-0.816D+00 0.201D+01
 Coeff:     -0.484D+00 0.380D+00-0.356D+01 0.369D+01 0.838D+00-0.194D+00
 Coeff:     -0.872D+00-0.816D+00 0.201D+01
 Gap=     0.010 Goal=   None    Shift=    0.200
 RMSDP=4.23D-08 MaxDP=4.62D-06 DE=-7.05D-12 OVMax= 1.03D-06

 Cycle  48  Pass 1  IDiag  1:
 E= -144.803048268123     Delta-E=        0.000000000005 Rises=F Damp=F
 DIIS: error= 3.03D-07 at cycle  48 NSaved=  10.
 NSaved=10 IEnMin= 9 EnMin= -144.803048268128     IErMin=10 ErrMin= 3.03D-07
 ErrMax= 3.03D-07  0.00D+00 EMaxC= 1.00D-01 BMatC= 4.19D-12 BMatP= 4.95D-12
 IDIUse=1 WtCom= 1.00D+00 WtEn= 0.00D+00
 Coeff-Com: -0.523D+00 0.295D+00-0.407D+01 0.474D+01 0.135D+01-0.174D+01
 Coeff-Com:  0.615D-01-0.149D+01 0.729D+00 0.165D+01
 Coeff:     -0.523D+00 0.295D+00-0.407D+01 0.474D+01 0.135D+01-0.174D+01
 Coeff:      0.615D-01-0.149D+01 0.729D+00 0.165D+01
 Gap=     0.010 Goal=   None    Shift=    0.200
 RMSDP=3.27D-08 MaxDP=2.42D-06 DE= 4.69D-12 OVMax= 9.78D-07

 Cycle  49  Pass 1  IDiag  1:
 E= -144.803048268134     Delta-E=       -0.000000000010 Rises=F Damp=F
 DIIS: error= 2.76D-07 at cycle  49 NSaved=  11.
 NSaved=11 IEnMin=11 EnMin= -144.803048268134     IErMin=11 ErrMin= 2.76D-07
 ErrMax= 2.76D-07  0.00D+00 EMaxC= 1.00D-01 BMatC= 3.92D-12 BMatP= 4.19D-12
 IDIUse=1 WtCom= 1.00D+00 WtEn= 0.00D+00
 Coeff-Com: -0.386D+00 0.140D+00-0.160D+01 0.165D+01 0.930D+00-0.931D+00
 Coeff-Com: -0.206D+00-0.539D+00 0.202D+00 0.271D+00 0.147D+01
 Coeff:     -0.386D+00 0.140D+00-0.160D+01 0.165D+01 0.930D+00-0.931D+00
 Coeff:     -0.206D+00-0.539D+00 0.202D+00 0.271D+00 0.147D+01
 Gap=     0.010 Goal=   None    Shift=    0.200
 RMSDP=3.23D-08 MaxDP=3.22D-06 DE=-1.05D-11 OVMax= 1.01D-06

 Cycle  50  Pass 1  IDiag  1:
 E= -144.803048268140     Delta-E=       -0.000000000006 Rises=F Damp=F
 DIIS: error= 2.67D-07 at cycle  50 NSaved=  12.
 NSaved=12 IEnMin=12 EnMin= -144.803048268140     IErMin=12 ErrMin= 2.67D-07
 ErrMax= 2.67D-07  0.00D+00 EMaxC= 1.00D-01 BMatC= 3.55D-12 BMatP= 3.92D-12
 IDIUse=1 WtCom= 1.00D+00 WtEn= 0.00D+00
 Coeff-Com: -0.344D+00 0.206D+00-0.117D+01 0.962D+00 0.555D+00-0.392D+00
 Coeff-Com:  0.368D-01-0.205D+00-0.281D+00 0.194D-01-0.240D+00 0.186D+01
 Coeff:     -0.344D+00 0.206D+00-0.117D+01 0.962D+00 0.555D+00-0.392D+00
 Coeff:      0.368D-01-0.205D+00-0.281D+00 0.194D-01-0.240D+00 0.186D+01
 Gap=     0.010 Goal=   None    Shift=    0.200
 RMSDP=1.83D-08 MaxDP=1.73D-06 DE=-6.28D-12 OVMax= 6.53D-07

 Cycle  51  Pass 1  IDiag  1:
 E= -144.803048268141     Delta-E=       -0.000000000001 Rises=F Damp=F
 DIIS: error= 2.57D-07 at cycle  51 NSaved=  13.
 NSaved=13 IEnMin=13 EnMin= -144.803048268141     IErMin=13 ErrMin= 2.57D-07
 ErrMax= 2.57D-07  0.00D+00 EMaxC= 1.00D-01 BMatC= 3.27D-12 BMatP= 3.55D-12
 IDIUse=1 WtCom= 1.00D+00 WtEn= 0.00D+00
 Coeff-Com: -0.356D+00 0.234D+00-0.174D+01 0.163D+01 0.350D+00-0.326D+00
 Coeff-Com:  0.115D+01 0.169D+00-0.139D+01 0.327D-02-0.177D+01-0.140D+01
 Coeff-Com:  0.445D+01
 Coeff:     -0.356D+00 0.234D+00-0.174D+01 0.163D+01 0.350D+00-0.326D+00
 Coeff:      0.115D+01 0.169D+00-0.139D+01 0.327D-02-0.177D+01-0.140D+01
 Coeff:      0.445D+01
 Gap=     0.010 Goal=   None    Shift=    0.200
 RMSDP=1.07D-08 MaxDP=8.22D-07 DE=-6.54D-13 OVMax= 5.94D-07

 Cycle  52  Pass 1  IDiag  1:
 E= -144.803048268141     Delta-E=       -0.000000000001 Rises=F Damp=F
 DIIS: error= 2.37D-07 at cycle  52 NSaved=  14.
 NSaved=14 IEnMin=14 EnMin= -144.803048268141     IErMin=14 ErrMin= 2.37D-07
 ErrMax= 2.37D-07  0.00D+00 EMaxC= 1.00D-01 BMatC= 2.89D-12 BMatP= 3.27D-12
 IDIUse=1 WtCom= 1.00D+00 WtEn= 0.00D+00
 Coeff-Com: -0.374D+00 0.899D-01-0.189D+01 0.216D+01 0.587D+00-0.688D+00
 Coeff-Com:  0.645D+00 0.490D-01-0.711D+00 0.138D+00 0.469D+00-0.323D+01
 Coeff-Com:  0.104D+01 0.271D+01
 Coeff:     -0.374D+00 0.899D-01-0.189D+01 0.216D+01 0.587D+00-0.688D+00
 Coeff:      0.645D+00 0.490D-01-0.711D+00 0.138D+00 0.469D+00-0.323D+01
 Coeff:      0.104D+01 0.271D+01
 Gap=     0.010 Goal=   None    Shift=    0.200
 RMSDP=1.89D-08 MaxDP=1.98D-06 DE=-6.82D-13 OVMax= 4.07D-07

 Cycle  53  Pass 1  IDiag  1:
 E= -144.803048268144     Delta-E=       -0.000000000002 Rises=F Damp=F
 DIIS: error= 2.27D-07 at cycle  53 NSaved=  15.
 NSaved=15 IEnMin=15 EnMin= -144.803048268144     IErMin=15 ErrMin= 2.27D-07
 ErrMax= 2.27D-07  0.00D+00 EMaxC= 1.00D-01 BMatC= 2.57D-12 BMatP= 2.89D-12
 IDIUse=1 WtCom= 1.00D+00 WtEn= 0.00D+00
 Coeff-Com: -0.305D+00 0.251D-01-0.655D+00 0.687D+00 0.397D+00-0.258D+00
 Coeff-Com: -0.143D+00 0.251D+00-0.128D+00-0.366D-01 0.741D+00-0.986D+00
 Coeff-Com: -0.110D+01 0.117D+01 0.133D+01
 Coeff:     -0.305D+00 0.251D-01-0.655D+00 0.687D+00 0.397D+00-0.258D+00
 Coeff:     -0.143D+00 0.251D+00-0.128D+00-0.366D-01 0.741D+00-0.986D+00
 Coeff:     -0.110D+01 0.117D+01 0.133D+01
 Gap=     0.010 Goal=   None    Shift=    0.200
 RMSDP=9.64D-09 MaxDP=9.38D-07 DE=-2.25D-12 OVMax= 3.00D-07

 SCF Done:  E(ROHF) =  -144.803048268     A.U. after   53 cycles
            NFock= 53  Conv=0.96D-08     -V/T= 2.6068
 <Sx>= 0.0000 <Sy>= 0.0000 <Sz>= 1.0000 <S**2>= 2.0000 S= 1.0000
 <L.S>=  0.00000000000    
 KE= 9.011823919326D+01 PE=-3.615802079003D+02 EE= 1.206615787152D+02
 Annihilation of the first spin contaminant:
 S**2 before annihilation     2.0000,   after     2.0000
 Leave Link  502 at Thu May  3 14:57:51 2018, MaxMem= 10737418240 cpu:             599.9 elap:              23.6
 (Enter /home1/apps/gaussian/16rA.03/g16/l801.exe)
 Windowed orbitals will be sorted by symmetry type.
 GenMOA:  NOpAll=  4 NOp2=4 NOpUse=  4 JSym2X=1
 FoFJK:  IHMeth= 1 ICntrl=       0 DoSepK=F KAlg= 0 I1Cent=           0 FoldK=F
 IRaf=         0 NMat=       1 IRICut=       1 DoRegI=T DoRafI=F ISym2E= 1 IDoP0=0 IntGTp=1.
 FoFCou: FMM=F IPFlag=           8 FMFlag=      100000 FMFlg1=           0
         NFxFlg=           0 DoJE=F BraDBF=F KetDBF=F FulRan=T
         wScrn=  0.000000 ICntrl=         0 IOpCl=  1 I1Cent=           0 NGrid=           0
         NMat0=    1 NMatS0=      1 NMatT0=    0 NMatD0=    1 NMtDS0=    0 NMtDT0=    0
 Petite list used in FoFCou.
 <Sx>= 0.0000 <Sy>= 0.0000 <Sz>= 1.0000 <S**2>= 2.0000 S= 1.0000
 Range of M.O.s used for correlation:     1   215
 NBasis=   215 NAE=    10 NBE=     8 NFC=     0 NFV=     0
 NROrb=    215 NOA=    10 NOB=     8 NVA=   205 NVB=   207

 **** Warning!!: The largest alpha MO coefficient is  0.21248707D+03


 **** Warning!!: The largest beta MO coefficient is  0.21230400D+03

 Singles contribution to E2=   -0.6023656574D-02
 Leave Link  801 at Thu May  3 14:57:55 2018, MaxMem= 10737418240 cpu:              98.5 elap:               3.2
 (Enter /home1/apps/gaussian/16rA.03/g16/l804.exe)
 Open-shell transformation, MDV= 10737418240 ITran=4 ISComp=2.
 Unit  1 TFree=       1391148 TCopy=       1098832.
 Semi-Direct transformation.
 ModeAB=           2 MOrb=            10 LenV=   10735908650
 LASXX=     12352723 LTotXX=    12352723 LenRXX=    12352723
 LTotAB=    12591711 MaxLAS=    71833650 LenRXY=    71833650
 NonZer=    73325750 LenScr=   110742528 LnRSAI=           0
 LnScr1=           0 LExtra=     6142317 Total=    201071218
 MaxDsk= 67108864000 SrtSym=           F ITran=            4
 DoSDTr:  NPSUse= 32
 JobTyp=1 Pass  1:  I=   1 to  10.
 (rs|ai) integrals will be sorted in core.
 Complete sort for first half transformation.
 First half transformation complete.
 Begin second half transformation for I=  10.
 Begin second half transformation for I=  10.
 Complete sort for second half transformation.
 Second half transformation complete.
 ModeAB=           2 MOrb=             8 LenV=   10735908650
 LASXX=     10000982 LTotXX=    10000982 LenRXX=    57466920
 LTotAB=     9260472 MaxLAS=    57466920 LenRXY=     9260472
 NonZer=    58660600 LenScr=    88751104 LnRSAI=           0
 LnScr1=           0 LExtra=    90328690 Total=    245807186
 MaxDsk= 67108864000 SrtSym=           F ITran=            4
 DoSDTr:  NPSUse= 32
 JobTyp=2 Pass  1:  I=   1 to   8.
 (rs|ai) integrals will be sorted in core.
 Complete sort for first half transformation.
 First half transformation complete.
 Complete sort for second half transformation.
 Second half transformation complete.
 Spin components of T(2) and E(2):
     alpha-alpha T2 =       0.2818271769D-01 E2=     -0.1670944973D+00
     alpha-beta  T2 =       0.9176986680D-01 E2=     -0.5984255139D+00
     beta-beta   T2 =       0.1382441056D-01 E2=     -0.9275392530D-01
 ANorm=    0.1065861762D+01
 E2 =    -0.8642975930D+00 EUMP2 =    -0.14566734586119D+03
 (S**2,0)=  0.20000D+01           (S**2,1)=  0.20000D+01
 E(PUHF)=      -0.14480304827D+03        E(PMP2)=      -0.14566734586D+03
 Leave Link  804 at Thu May  3 14:59:40 2018, MaxMem= 10737418240 cpu:            3342.9 elap:             104.6
 (Enter /home1/apps/gaussian/16rA.03/g16/l913.exe)
 CIDS:  MDV= 10737418240.
 IFCWin=0 IBDFC=1 NFBD=     0     0 NFCmp=     0     0 NFFFC=     0     0
 Using original routines for 1st iteration.
 Using DD4UQ or CC4UQ for 2nd and later iterations.
 Keep R2 and R3 ints in memory in symmetry-blocked form, NReq=338808852.
 FoFCou: FMM=F IPFlag=           8 FMFlag=           0 FMFlg1=           0
         NFxFlg=           0 DoJE=F BraDBF=F KetDBF=F FulRan=T
         wScrn=  0.000000 ICntrl=       600 IOpCl=  0 I1Cent=           0 NGrid=           0
         NMat0=    1 NMatS0=  23220 NMatT0=    0 NMatD0=    1 NMtDS0=    0 NMtDT0=    0
 Petite list used in FoFCou.
 CIDS: In Core Option IDoMem=           1.
 CCSD(T)
 =======
 Iterations= 150 Convergence= 0.100D-06
 Produce multiple copies of IABC intergrals
 Iteration Nr.   1
 **********************
 DD1Dir will call FoFMem   1 times, MxPair=       234
 NAB=    80 NAA=    45 NBB=    28.
 DD1Dir will call FoFMem   1 times, MxPair=       234
 NAB=    80 NAA=    45 NBB=    28.
 MP4(R+Q)= -0.97578528D-01
 Maximum subspace dimension=  5
 A-vector RMS=  2.3866155D-04 Max=  2.0503067D-03 conv= 1.00D-05.
 RLE energy=       -0.8644952366
 E3=        0.97235560D-01        EROMP3=      -0.14557011030D+03
 E4(SDQ)=  -0.71148204D-01        ROMP4(SDQ)=  -0.14564125850D+03
 VARIATIONAL ENERGIES WITH THE FIRST-ORDER WAVEFUNCTION:
 DE(Corr)= -0.86449522     E(Corr)=     -145.66754349    
 NORM(A)=   0.10649612D+01
 Iteration Nr.   2
 **********************
 DD1Dir will call FoFMem   1 times, MxPair=       234
 NAB=    80 NAA=    45 NBB=    28.
 A-vector RMS=  4.9883167D-03 Max=  3.9557194D-02 conv= 1.00D-05.
 RLE energy=       -0.8475710220
 DE(Corr)= -0.76232394     E(CORR)=     -145.56537221     Delta= 1.02D-01
 NORM(A)=   0.10616923D+01
 Iteration Nr.   3
 **********************
 DD1Dir will call FoFMem   1 times, MxPair=       234
 NAB=    80 NAA=    45 NBB=    28.
 A-vector RMS=  3.8595357D-03 Max=  2.9610639D-02 conv= 1.00D-05.
 RLE energy=       -0.8296572255
 DE(Corr)= -0.77174143     E(CORR)=     -145.57478969     Delta=-9.42D-03
 NORM(A)=   0.10623008D+01
 Iteration Nr.   4
 **********************
 DD1Dir will call FoFMem   1 times, MxPair=       234
 NAB=    80 NAA=    45 NBB=    28.
 A-vector RMS=  2.9164042D-03 Max=  2.4083852D-02 conv= 1.00D-05.
 RLE energy=       -0.7413759352
 DE(Corr)= -0.78592019     E(CORR)=     -145.58896846     Delta=-1.42D-02
 NORM(A)=   0.11326332D+01
 Iteration Nr.   5
 **********************
 DD1Dir will call FoFMem   1 times, MxPair=       234
 NAB=    80 NAA=    45 NBB=    28.
 A-vector RMS=  6.4095785D-03 Max=  5.3071070D-02 conv= 1.00D-05.
 RLE energy=       -0.8082801020
 DE(Corr)= -0.87518254     E(CORR)=     -145.67823081     Delta=-8.93D-02
 NORM(A)=   0.11004117D+01
 Iteration Nr.   6
 **********************
 DD1Dir will call FoFMem   1 times, MxPair=       234
 NAB=    80 NAA=    45 NBB=    28.
 A-vector RMS=  8.7720099D-04 Max=  8.8194395D-03 conv= 1.00D-05.
 RLE energy=       -0.8133346774
 DE(Corr)= -0.81911770     E(CORR)=     -145.62216596     Delta= 5.61D-02
 NORM(A)=   0.10901793D+01
 Iteration Nr.   7
 **********************
 DD1Dir will call FoFMem   1 times, MxPair=       234
 NAB=    80 NAA=    45 NBB=    28.
 A-vector RMS=  3.3535247D-04 Max=  3.1966520D-03 conv= 1.00D-05.
 RLE energy=       -0.8115230241
 DE(Corr)= -0.81087737     E(CORR)=     -145.61392564     Delta= 8.24D-03
 NORM(A)=   0.10926771D+01
 Iteration Nr.   8
 **********************
 DD1Dir will call FoFMem   1 times, MxPair=       234
 NAB=    80 NAA=    45 NBB=    28.
 A-vector RMS=  2.9014096D-04 Max=  3.4886750D-03 conv= 1.00D-05.
 RLE energy=       -0.8117501060
 DE(Corr)= -0.81211638     E(CORR)=     -145.61516465     Delta=-1.24D-03
 NORM(A)=   0.10949588D+01
 Iteration Nr.   9
 **********************
 DD1Dir will call FoFMem   1 times, MxPair=       234
 NAB=    80 NAA=    45 NBB=    28.
 A-vector RMS=  1.6576807D-04 Max=  2.3554087D-03 conv= 1.00D-05.
 RLE energy=       -0.8121408671
 DE(Corr)= -0.81192502     E(CORR)=     -145.61497328     Delta= 1.91D-04
 NORM(A)=   0.10974665D+01
 Iteration Nr.  10
 **********************
 DD1Dir will call FoFMem   1 times, MxPair=       234
 NAB=    80 NAA=    45 NBB=    28.
 A-vector RMS=  7.9868240D-05 Max=  9.5338038D-04 conv= 1.00D-05.
 RLE energy=       -0.8121727469
 DE(Corr)= -0.81212769     E(CORR)=     -145.61517596     Delta=-2.03D-04
 NORM(A)=   0.10980261D+01
 Iteration Nr.  11
 **********************
 DD1Dir will call FoFMem   1 times, MxPair=       234
 NAB=    80 NAA=    45 NBB=    28.
 A-vector RMS=  8.2068987D-05 Max=  1.0852603D-03 conv= 1.00D-05.
 RLE energy=       -0.8120481559
 DE(Corr)= -0.81214605     E(CORR)=     -145.61519432     Delta=-1.84D-05
 NORM(A)=   0.10979722D+01
 Iteration Nr.  12
 **********************
 DD1Dir will call FoFMem   1 times, MxPair=       234
 NAB=    80 NAA=    45 NBB=    28.
 A-vector RMS=  3.9867704D-05 Max=  4.4255689D-04 conv= 1.00D-05.
 RLE energy=       -0.8121724097
 DE(Corr)= -0.81216356     E(CORR)=     -145.61521183     Delta=-1.75D-05
 NORM(A)=   0.10978993D+01
 Iteration Nr.  13
 **********************
 DD1Dir will call FoFMem   1 times, MxPair=       234
 NAB=    80 NAA=    45 NBB=    28.
 A-vector RMS=  2.0582628D-05 Max=  2.7414699D-04 conv= 1.00D-05.
 RLE energy=       -0.8120666568
 DE(Corr)= -0.81206643     E(CORR)=     -145.61511469     Delta= 9.71D-05
 NORM(A)=   0.10978381D+01
 Iteration Nr.  14
 **********************
 DD1Dir will call FoFMem   1 times, MxPair=       234
 NAB=    80 NAA=    45 NBB=    28.
 A-vector RMS=  1.5010563D-05 Max=  1.4033868D-04 conv= 1.00D-05.
 RLE energy=       -0.8120706027
 DE(Corr)= -0.81209473     E(CORR)=     -145.61514299     Delta=-2.83D-05
 NORM(A)=   0.10978169D+01
 Iteration Nr.  15
 **********************
 DD1Dir will call FoFMem   1 times, MxPair=       234
 NAB=    80 NAA=    45 NBB=    28.
 A-vector RMS=  9.6911469D-06 Max=  9.7779657D-05 conv= 1.00D-05.
 RLE energy=       -0.8120689774
 DE(Corr)= -0.81207194     E(CORR)=     -145.61512021     Delta= 2.28D-05
 NORM(A)=   0.10978298D+01
 Iteration Nr.  16
 **********************
 DD1Dir will call FoFMem   1 times, MxPair=       234
 NAB=    80 NAA=    45 NBB=    28.
 A-vector RMS=  8.6863990D-06 Max=  1.0619043D-04 conv= 1.00D-05.
 RLE energy=       -0.8120673837
 DE(Corr)= -0.81207111     E(CORR)=     -145.61511938     Delta= 8.31D-07
 NORM(A)=   0.10978573D+01
 Iteration Nr.  17
 **********************
 DD1Dir will call FoFMem   1 times, MxPair=       234
 NAB=    80 NAA=    45 NBB=    28.
 A-vector RMS=  5.6783692D-06 Max=  7.4562227D-05 conv= 1.00D-05.
 RLE energy=       -0.8120702335
 DE(Corr)= -0.81207461     E(CORR)=     -145.61512287     Delta=-3.50D-06
 NORM(A)=   0.10978794D+01
 Iteration Nr.  18
 **********************
 DD1Dir will call FoFMem   1 times, MxPair=       234
 NAB=    80 NAA=    45 NBB=    28.
 A-vector RMS=  3.6222137D-06 Max=  4.7834316D-05 conv= 1.00D-05.
 RLE energy=       -0.8120764769
 DE(Corr)= -0.81207484     E(CORR)=     -145.61512311     Delta=-2.35D-07
 NORM(A)=   0.10979036D+01
 Iteration Nr.  19
 **********************
 DD1Dir will call FoFMem   1 times, MxPair=       234
 NAB=    80 NAA=    45 NBB=    28.
 A-vector RMS=  2.4905296D-06 Max=  2.7411210D-05 conv= 1.00D-05.
 RLE energy=       -0.8120747795
 DE(Corr)= -0.81207480     E(CORR)=     -145.61512307     Delta= 4.27D-08
 NORM(A)=   0.10979191D+01
 Iteration Nr.  20
 **********************
 DD1Dir will call FoFMem   1 times, MxPair=       234
 NAB=    80 NAA=    45 NBB=    28.
 A-vector RMS=  1.7894496D-06 Max=  1.8559388D-05 conv= 1.00D-05.
 RLE energy=       -0.8120782364
 DE(Corr)= -0.81207860     E(CORR)=     -145.61512686     Delta=-3.80D-06
 NORM(A)=   0.10979351D+01
 Iteration Nr.  21
 **********************
 DD1Dir will call FoFMem   1 times, MxPair=       234
 NAB=    80 NAA=    45 NBB=    28.
 A-vector RMS=  1.0268990D-06 Max=  9.4086420D-06 conv= 1.00D-05.
 RLE energy=       -0.8120795621
 DE(Corr)= -0.81207861     E(CORR)=     -145.61512688     Delta=-1.69D-08
 NORM(A)=   0.10979455D+01
 CI/CC converged in   21 iterations to DelEn=-1.69D-08 Conv= 1.00D-07 ErrA1= 1.03D-06 Conv= 1.00D-05
 Wavefunction amplitudes converged. E(Corr)=     -145.61512688    
 Dominant configurations:
 ***********************
 Spin Case        I    J    A    B          Value
    AA           10        11            0.122448D+00
    AA           10        15            0.119437D+00
 Largest amplitude= 1.22D-01
 Time for triples=    15567.85 seconds.
 T4(CCSD)= -0.37342573D-01
 T5(CCSD)=  0.66440764D-02
 CCSD(T)= -0.14564582538D+03
 Discarding MO integrals.
 Leave Link  913 at Thu May  3 15:11:25 2018, MaxMem= 10737418240 cpu:           22529.5 elap:             704.9
 (Enter /home1/apps/gaussian/16rA.03/g16/l601.exe)
 Copying SCF densities to generalized density rwf, IOpCl= 0 IROHF=1.

 **********************************************************************

            Population analysis using the SCF density.

 **********************************************************************

 Orbital symmetries:
       Occupied  (SG) (SG) (PI) (PI) (DLTA) (PI) (PI) (SG) (SG)
                 (DLTA)
       Virtual   (SG) (PI) (PI) (SG) (SG) (PI) (PI) (SG) (DLTA)
                 (DLTA) (PI) (PI) (SG) (SG) (SG) (PI) (PI) (SG)
                 (PI) (PI) (DLTA) (SG) (DLTA) (PI) (PI) (SG) (SG)
                 (SG) (DLTA) (DLTA) (PI) (PI) (SG) (PI) (PI) (PHI)
                 (PHI) (PI) (PI) (SG) (?A) (?A) (PI) (PI) (SG)
                 (?A) (?A) (SG) (PI) (PI) (SG) (SG) (SG) (PI) (PI)
                 (SG) (PI) (PI) (PHI) (PHI) (DLTA) (DLTA) (SG)
                 (PI) (PI) (SG) (?A) (?A) (?A) (?A) (?B) (?B) (?C)
                 (?C) (?B) (?B) (PI) (PI) (DLTA) (DLTA) (SG) (PI)
                 (PI) (SG) (SG) (SG) (PI) (PI) (SG) (DLTA) (DLTA)
                 (PI) (PI) (SG) (PHI) (PHI) (DLTA) (DLTA) (PI)
                 (PI) (SG) (SG) (?C) (?C) (?B) (?B) (DLTA) (DLTA)
                 (?B) (?B) (SG) (PI) (PI) (SG) (SG) (DLTA) (DLTA)
                 (PI) (PI) (SG) (?B) (?B) (DLTA) (DLTA) (?B) (?B)
                 (SG) (PI) (PI) (SG) (?D) (?D) (?B) (?B) (DLTA)
                 (DLTA) (?B) (?B) (?D) (SG) (DLTA) (DLTA) (PI)
                 (PI) (SG) (PI) (PI) (SG) (DLTA) (DLTA) (PI) (PI)
                 (SG) (SG) (SG) (PI) (PI) (SG) (SG) (DLTA) (DLTA)
                 (PI) (PI) (SG) (PI) (PI) (SG) (SG) (PI) (PI) (SG)
                 (SG) (DLTA) (DLTA) (PI) (PI) (SG) (PI) (PI) (SG)
                 (SG) (PI) (PI) (SG) (SG) (PI) (PI) (SG) (SG) (PI)
                 (PI) (SG) (SG) (PI) (PI) (SG) (SG) (SG) (PI) (PI)
                 (SG) (SG) (SG) (SG) (SG)
 Unable to determine electronic state:  partially filled degenerate orbitals.
 Alpha  occ. eigenvalues --   -4.53748  -2.95621  -2.95596  -2.95596  -0.49119
 Alpha  occ. eigenvalues --   -0.48878  -0.44250  -0.44065  -0.44065  -0.32736
 Alpha virt. eigenvalues --    0.00089   0.02687   0.02687   0.03319   0.05059
 Alpha virt. eigenvalues --    0.09453   0.09453   0.10208   0.11330   0.11372
 Alpha virt. eigenvalues --    0.11531   0.11561   0.11561   0.18961   0.25351
 Alpha virt. eigenvalues --    0.30286   0.30286   0.31770   0.37729   0.37729
 Alpha virt. eigenvalues --    0.41597   0.41681   0.42146   0.43742   0.43742
 Alpha virt. eigenvalues --    0.54743   0.65529   0.73461   0.91572   0.91661
 Alpha virt. eigenvalues --    0.97830   0.97830   1.00797   1.08945   1.08945
 Alpha virt. eigenvalues --    1.17861   1.17861   1.19010   1.19010   1.19102
 Alpha virt. eigenvalues --    1.31856   1.32648   1.34459   1.34459   1.36692
 Alpha virt. eigenvalues --    1.40126   1.41279   1.64221   1.92199   1.92199
 Alpha virt. eigenvalues --    2.18088   2.25703   2.77484   2.92534   2.92534
 Alpha virt. eigenvalues --    3.04566   3.39210   3.39210   3.46113   3.46113
 Alpha virt. eigenvalues --    3.50870   3.52396   3.54021   3.79904   3.79904
 Alpha virt. eigenvalues --    3.81386   3.83861   3.86479   3.90768   3.91065
 Alpha virt. eigenvalues --    4.20338   4.20338   4.25559   4.25560   4.27306
 Alpha virt. eigenvalues --    4.27306   4.43800   4.43800   4.44765   4.45659
 Alpha virt. eigenvalues --    4.61277   5.22345   5.22345   5.23867   5.84153
 Alpha virt. eigenvalues --    6.73126   7.11821   7.11821   7.39810   8.82503
 Alpha virt. eigenvalues --    8.85725   8.93637   8.93637   9.03004   9.05108
 Alpha virt. eigenvalues --    9.05108   9.10582   9.13415   9.21740   9.21740
 Alpha virt. eigenvalues --    9.55862  10.62362  11.85979  11.85991  11.88773
 Alpha virt. eigenvalues --   11.88773  11.90363  11.92717  12.13192  12.13192
 Alpha virt. eigenvalues --   12.46199  14.78789  14.78789  14.95912  15.14086
 Alpha virt. eigenvalues --   17.56376  17.59960  17.68936  17.68936  17.88867
 Alpha virt. eigenvalues --   23.95286  23.95286  23.99410  24.02313  24.04184
 Alpha virt. eigenvalues --   24.04184  24.25343  28.43075  28.43075  28.64405
 Alpha virt. eigenvalues --   30.42505  30.42571  30.45247  30.45667  30.45667
 Alpha virt. eigenvalues --   30.48058  30.57305  30.57305  30.71370  31.14100
 Alpha virt. eigenvalues --   32.41200  32.45087  32.53470  32.53470  32.69660
 Alpha virt. eigenvalues --   51.94159  51.94159  52.14090  58.97387  59.01031
 Alpha virt. eigenvalues --   59.08723  59.08723  59.20743  62.46610  64.08364
[...]
     Gross orbital populations:
                         Total     Alpha     Beta      Spin
   1 1   Co 1S         -0.00000  -0.00000  -0.00000  -0.00000
   2        2S          0.00000   0.00000   0.00000   0.00000
   3        3S         -0.00000  -0.00000  -0.00000  -0.00000
   4        4S          0.00000   0.00000   0.00000   0.00000
   5        5S         -0.00000  -0.00000  -0.00000  -0.00000
   6        6S          0.00000   0.00000   0.00000   0.00000
   7        7S         -0.00000  -0.00000  -0.00000  -0.00000
   8        8S          0.00000   0.00000   0.00000   0.00000
   9        9S         -0.00001  -0.00000  -0.00000  -0.00000
  10       10S          0.00005   0.00002   0.00002   0.00000
  11       11S         -0.00037  -0.00018  -0.00018  -0.00000
  12       12S          0.00377   0.00189   0.00188   0.00001
  13       13S          0.00908   0.00455   0.00454   0.00001
  14       14S         -0.40285  -0.20191  -0.20095  -0.00096
  15       15S          0.00850   0.00451   0.00399   0.00052
  16       16S          1.65984   0.83064   0.82920   0.00145
  17       17S          0.75365   0.37602   0.37763  -0.00161
  18       18S          0.18190   0.10257   0.07933   0.02323
  19       19S          0.28697   0.15441   0.13256   0.02185
  20       20S          0.09302   0.05240   0.04061   0.01179
  21       21S          0.21374   0.10699   0.10675   0.00024
  22       22S         -0.26432  -0.13192  -0.13240   0.00048
  23       23S         -0.01179  -0.00637  -0.00542  -0.00095
  24       24PX         0.00000   0.00000   0.00000   0.00000
  25       24PY         0.00000   0.00000   0.00000   0.00000
  26       24PZ         0.00000   0.00000   0.00000   0.00000
  27       25PX        -0.00000  -0.00000  -0.00000  -0.00000
  28       25PY        -0.00000  -0.00000  -0.00000  -0.00000
  29       25PZ        -0.00000  -0.00000  -0.00000  -0.00000
  30       26PX         0.00000   0.00000   0.00000   0.00000
  31       26PY         0.00000   0.00000   0.00000   0.00000
  32       26PZ         0.00000   0.00000   0.00000   0.00000
  33       27PX        -0.00000  -0.00000  -0.00000  -0.00000
  34       27PY        -0.00000  -0.00000  -0.00000  -0.00000
  35       27PZ        -0.00000  -0.00000  -0.00000  -0.00000
  36       28PX         0.00000   0.00000   0.00000   0.00000
  37       28PY         0.00000   0.00000   0.00000   0.00000
  38       28PZ         0.00000   0.00000   0.00000   0.00000
  39       29PX        -0.00002  -0.00001  -0.00001  -0.00000
  40       29PY        -0.00002  -0.00001  -0.00001  -0.00000
  41       29PZ        -0.00002  -0.00001  -0.00001  -0.00000
  42       30PX         0.00026   0.00013   0.00013   0.00000
  43       30PY         0.00026   0.00013   0.00013   0.00000
  44       30PZ         0.00026   0.00013   0.00013   0.00000
  45       31PX         0.00012   0.00006   0.00006   0.00000
  46       31PY         0.00012   0.00006   0.00006   0.00000
  47       31PZ         0.00014   0.00007   0.00007  -0.00000
  48       32PX        -0.05689  -0.02844  -0.02844  -0.00000
  49       32PY        -0.05689  -0.02844  -0.02844  -0.00000
  50       32PZ        -0.05776  -0.02888  -0.02887  -0.00001
  51       33PX         0.07200   0.03600   0.03600   0.00000
  52       33PY         0.07200   0.03600   0.03600   0.00000
  53       33PZ         0.06907   0.03455   0.03452   0.00003
  54       34PX         0.57045   0.28523   0.28523   0.00000
  55       34PY         0.57045   0.28523   0.28523   0.00000
  56       34PZ         0.57862   0.28936   0.28927   0.00009
  57       35PX         0.71413   0.35707   0.35707   0.00000
  58       35PY         0.71413   0.35707   0.35707   0.00000
  59       35PZ         0.73990   0.36991   0.36999  -0.00008
  60       36PX         0.49787   0.24893   0.24893   0.00000
  61       36PY         0.49787   0.24893   0.24893   0.00000
  62       36PZ         0.48942   0.24470   0.24472  -0.00001
  63       37PX         0.04886   0.02443   0.02443   0.00000
  64       37PY         0.04886   0.02443   0.02443   0.00000
  65       37PZ         0.06973   0.03502   0.03471   0.00031
  66       38PX        -0.00100  -0.00050  -0.00050  -0.00000
  67       38PY        -0.00100  -0.00050  -0.00050  -0.00000
  68       38PZ         0.06658   0.03307   0.03351  -0.00044
  69       39PX         0.00020   0.00010   0.00010   0.00000
  70       39PY         0.00020   0.00010   0.00010   0.00000
  71       39PZ         0.02334   0.01178   0.01155   0.00023
  72       40PX        -0.02879  -0.01440  -0.01440  -0.00000
  73       40PY        -0.02879  -0.01440  -0.01440  -0.00000
  74       40PZ        -0.02598  -0.01300  -0.01298  -0.00001
  75       41PX         0.18374   0.09187   0.09187   0.00000
  76       41PY         0.18374   0.09187   0.09187   0.00000
  77       41PZ         0.16169   0.08095   0.08074   0.00021
  78       42PX        -0.00001  -0.00001  -0.00001  -0.00000
  79       42PY        -0.00001  -0.00001  -0.00001  -0.00000
  80       42PZ        -0.00173  -0.00084  -0.00089   0.00004
  81       43D 0       -0.00000  -0.00000  -0.00000  -0.00000
  82       43D+1       -0.00000  -0.00000  -0.00000  -0.00000
  83       43D-1       -0.00000  -0.00000  -0.00000  -0.00000
  84       43D+2        0.00000   0.00000   0.00000  -0.00000
  85       43D-2        0.00000   0.00000   0.00000   0.00000
  86       44D 0        0.00466   0.00459   0.00007   0.00451
  87       44D+1        0.00956   0.00478   0.00478   0.00000
  88       44D-1        0.00956   0.00478   0.00478   0.00000
  89       44D+2        0.00966   0.00483   0.00483   0.00000
  90       44D-2        0.00500   0.00500   0.00000   0.00500
  91       45D 0        0.04045   0.03983   0.00062   0.03920
  92       45D+1        0.08298   0.04149   0.04149   0.00000
  93       45D-1        0.08298   0.04149   0.04149   0.00000
  94       45D+2        0.08385   0.04193   0.04193   0.00000
  95       45D-2        0.04342   0.04342   0.00000   0.04342
  96       46D 0        0.09040   0.08869   0.00171   0.08698
  97       46D+1        0.18498   0.09249   0.09249   0.00000
  98       46D-1        0.18498   0.09249   0.09249   0.00000
  99       46D+2        0.18451   0.09225   0.09225   0.00000
 100       46D-2        0.09642   0.09642   0.00000   0.09642
 101       47D 0        0.48884   0.48449   0.00434   0.48015
 102       47D+1        1.01854   0.50927   0.50927   0.00000
 103       47D-1        1.01854   0.50927   0.50927   0.00000
 104       47D+2        1.05246   0.52623   0.52623   0.00000
 105       47D-2        0.53384   0.53384   0.00000   0.53384
 106       48D 0        0.29891   0.28953   0.00938   0.28015
 107       48D+1        0.59884   0.29942   0.29942   0.00000
 108       48D-1        0.59884   0.29942   0.29942   0.00000
 109       48D+2        0.60129   0.30065   0.30065   0.00000
 110       48D-2        0.30512   0.30512   0.00000   0.30512
 111       49D 0        0.17494   0.16162   0.01331   0.14831
 112       49D+1        0.34170   0.17085   0.17085   0.00000
 113       49D-1        0.34170   0.17085   0.17085   0.00000
 114       49D+2        0.33974   0.16987   0.16987   0.00000
 115       49D-2        0.15628   0.15628   0.00000   0.15628
 116       50D 0        0.03534   0.02931   0.00603   0.02328
 117       50D+1        0.06484   0.03242   0.03242   0.00000
 118       50D-1        0.06484   0.03242   0.03242   0.00000
 119       50D+2        0.05791   0.02896   0.02896   0.00000
 120       50D-2        0.02051   0.02051   0.00000   0.02051
 121       51D 0        0.06952   0.06873   0.00079   0.06793
 122       51D+1        0.14192   0.07096   0.07096   0.00000
 123       51D-1        0.14192   0.07096   0.07096   0.00000
 124       51D+2        0.14627   0.07314   0.07314   0.00000
 125       51D-2        0.07482   0.07482   0.00000   0.07482
 126       52D 0       -0.20737  -0.20819   0.00082  -0.20901
 127       52D+1       -0.44650  -0.22325  -0.22325  -0.00000
 128       52D-1       -0.44650  -0.22325  -0.22325  -0.00000
 129       52D+2       -0.47551  -0.23776  -0.23776  -0.00000
 130       52D-2       -0.23516  -0.23516  -0.00000  -0.23516
 131       53D 0        0.00033   0.00012   0.00021  -0.00009
 132       53D+1        0.00033   0.00016   0.00016   0.00000
 133       53D-1        0.00033   0.00016   0.00016   0.00000
 134       53D+2       -0.00025  -0.00012  -0.00012  -0.00000
 135       53D-2       -0.00023  -0.00023  -0.00000  -0.00023
 136       54F 0        0.00001   0.00001   0.00001   0.00000
 137       54F+1        0.00001   0.00000   0.00000   0.00000
 138       54F-1        0.00001   0.00000   0.00000   0.00000
 139       54F+2        0.00000   0.00000   0.00000   0.00000
 140       54F-2        0.00000   0.00000   0.00000   0.00000
 141       54F+3        0.00001   0.00000   0.00000   0.00000
 142       54F-3        0.00001   0.00000   0.00000   0.00000
 143       55F 0        0.00005   0.00003   0.00002   0.00000
 144       55F+1        0.00002   0.00001   0.00001   0.00000
 145       55F-1        0.00002   0.00001   0.00001   0.00000
 146       55F+2        0.00001   0.00000   0.00000   0.00000
 147       55F-2        0.00000   0.00000   0.00000   0.00000
 148       55F+3        0.00002   0.00001   0.00001   0.00000
 149       55F-3        0.00002   0.00001   0.00001   0.00000
 150       56F 0        0.00056   0.00029   0.00027   0.00002
 151       56F+1        0.00007   0.00004   0.00004   0.00000
 152       56F-1        0.00007   0.00004   0.00004   0.00000
 153       56F+2        0.00005   0.00003   0.00003   0.00000
 154       56F-2        0.00003   0.00003   0.00000   0.00003
 155       56F+3        0.00003   0.00002   0.00002   0.00000
 156       56F-3        0.00003   0.00002   0.00002   0.00000
 157       57F 0        0.00098   0.00052   0.00046   0.00005
 158       57F+1        0.00011   0.00006   0.00006   0.00000
 159       57F-1        0.00011   0.00006   0.00006   0.00000
 160       57F+2        0.00018   0.00009   0.00009   0.00000
 161       57F-2        0.00007   0.00007   0.00000   0.00007
 162       57F+3        0.00001   0.00000   0.00000   0.00000
 163       57F-3        0.00001   0.00000   0.00000   0.00000
 164       58G 0        0.00000   0.00000   0.00000   0.00000
 165       58G+1        0.00000   0.00000   0.00000   0.00000
 166       58G-1        0.00000   0.00000   0.00000   0.00000
 167       58G+2        0.00000   0.00000   0.00000   0.00000
 168       58G-2        0.00000   0.00000   0.00000   0.00000
 169       58G+3        0.00000   0.00000   0.00000   0.00000
 170       58G-3        0.00000   0.00000   0.00000   0.00000
 171       58G+4        0.00000   0.00000   0.00000   0.00000
 172       58G-4        0.00000   0.00000   0.00000   0.00000
 173       59G 0        0.00000   0.00000   0.00000   0.00000
 174       59G+1       -0.00000  -0.00000  -0.00000  -0.00000
 175       59G-1       -0.00000  -0.00000  -0.00000  -0.00000
 176       59G+2        0.00000   0.00000   0.00000   0.00000
 177       59G-2        0.00000   0.00000   0.00000   0.00000
 178       59G+3        0.00000   0.00000   0.00000   0.00000
 179       59G-3        0.00000   0.00000   0.00000   0.00000
 180       59G+4        0.00000   0.00000   0.00000   0.00000
 181       59G-4        0.00000   0.00000   0.00000   0.00000
 182       60G 0        0.00010   0.00005   0.00005   0.00000
 183       60G+1        0.00000   0.00000   0.00000   0.00000
 184       60G-1        0.00000   0.00000   0.00000   0.00000
 185       60G+2        0.00000   0.00000   0.00000   0.00000
 186       60G-2        0.00001   0.00001   0.00000   0.00001
 187       60G+3        0.00000   0.00000   0.00000   0.00000
 188       60G-3        0.00000   0.00000   0.00000   0.00000
 189       60G+4        0.00000   0.00000   0.00000   0.00000
 190       60G-4        0.00000   0.00000   0.00000   0.00000
 191 2   H  1S          0.00070   0.00035   0.00035   0.00000
 192        2S          0.02396   0.01201   0.01195   0.00007
 193        3S          0.18575   0.09325   0.09250   0.00075
 194        4S          0.58087   0.29040   0.29047  -0.00007
 195        5S          0.51249   0.26446   0.24803   0.01643
 196        6S          0.04317   0.02268   0.02049   0.00219
 197        7PX         0.00049   0.00024   0.00024   0.00000
 198        7PY         0.00049   0.00024   0.00024   0.00000
 199        7PZ         0.00138   0.00097   0.00041   0.00056
 200        8PX         0.00357   0.00178   0.00178   0.00000
 201        8PY         0.00357   0.00178   0.00178   0.00000
 202        8PZ         0.00486   0.00246   0.00240   0.00006
 203        9PX        -0.00261  -0.00131  -0.00131  -0.00000
 204        9PY        -0.00261  -0.00131  -0.00131  -0.00000
 205        9PZ         0.00364   0.00269   0.00094   0.00175
 206       10D 0        0.00050   0.00041   0.00009   0.00031
 207       10D+1        0.00047   0.00023   0.00023   0.00000
 208       10D-1        0.00047   0.00023   0.00023   0.00000
 209       10D+2        0.00004   0.00002   0.00002   0.00000
 210       10D-2        0.00002   0.00002   0.00000   0.00002
 211       11D 0        0.00053   0.00028   0.00025   0.00002
 212       11D+1       -0.00029  -0.00015  -0.00015  -0.00000
 213       11D-1       -0.00029  -0.00015  -0.00015  -0.00000
 214       11D+2       -0.00022  -0.00011  -0.00011  -0.00000
 215       11D-2       -0.00013  -0.00013  -0.00000  -0.00013
          Condensed to atoms (all electrons):
               1          2
     1  Co  16.271659   0.367554
     2  H    0.367554   0.993232
          Atomic-Atomic Spin Densities.
               1          2
     1  Co   1.968050   0.009989
     2  H    0.009989   0.011973
 Mulliken charges and spin densities:
               1          2
     1  Co   0.360786   1.978038
     2  H   -0.360786   0.021962
 Sum of Mulliken charges =  -0.00000   2.00000
 Mulliken charges and spin densities with hydrogens summed into heavy atoms:
               1          2
     1  Co  -0.000000   2.000000
 Electronic spatial extent (au):  <R**2>=             41.5081
 Charge=             -0.0000 electrons
 Dipole moment (field-independent basis, Debye):
    X=              0.0000    Y=              0.0000    Z=              4.2933  Tot=              4.2933
 Quadrupole moment (field-independent basis, Debye-Ang):
   XX=            -13.9344   YY=            -13.9344   ZZ=            -17.6777
   XY=              0.0000   XZ=              0.0000   YZ=              0.0000
 Traceless Quadrupole moment (field-independent basis, Debye-Ang):
   XX=              1.2478   YY=              1.2478   ZZ=             -2.4955
   XY=              0.0000   XZ=              0.0000   YZ=              0.0000
 Octapole moment (field-independent basis, Debye-Ang**2):
  XXX=              0.0000  YYY=              0.0000  ZZZ=             15.9773  XYY=              0.0000
  XXY=              0.0000  XXZ=              3.9719  XZZ=              0.0000  YZZ=              0.0000
  YYZ=              3.9719  XYZ=              0.0000
 Hexadecapole moment (field-independent basis, Debye-Ang**3):
 XXXX=            -17.1541 YYYY=            -17.1542 ZZZZ=            -50.3799 XXXY=              0.0000
 XXXZ=              0.0000 YYYX=              0.0000 YYYZ=              0.0000 ZZZX=              0.0000
 ZZZY=              0.0000 XXYY=             -5.4546 XXZZ=            -10.9582 YYZZ=            -10.9582
 XXYZ=              0.0000 YYXZ=              0.0000 ZZXY=              0.0000
 N-N= 5.997341723760D+00 E-N=-3.615802072839D+02  KE= 9.011823919326D+01
 Symmetry A1   KE= 3.630125334172D+01
 Symmetry A2   KE= 7.650552775375D+00
 Symmetry B1   KE= 2.308321713704D+01
 Symmetry B2   KE= 2.308321594247D+01
 Symmetry A1   SP= 1.000000000000D+00
 Symmetry A2   SP= 1.000000000000D+00
 Symmetry B1   SP= 8.909641820476D-16
 Symmetry B2   SP= 8.493310963909D-16
 Orbital energies and kinetic energies (alpha):
                                 1                 2
   4         O                -2.955959          4.199120
   5         O                -0.491191          7.407940
   6         O                -0.488776          7.342488
   7         O                -0.442501          7.342488
   8         O                -0.440646          0.610020
   9         O                -0.440645          6.973553
  10         O                -0.327355          7.650553
  11         V                 0.000891          0.125707
  12         V                 0.026868          0.045241
  13         V                 0.026868          0.045241
  14         V                 0.033195          0.035650
  15         V                 0.050594          0.228454
 Total kinetic energy from orbitals= 1.047423454266D+02
                          Isotropic Fermi Contact Couplings
        Atom                 a.u.       MegaHertz       Gauss      10(-4) cm-1
     1  Co(59)             0.00001       0.00745       0.00266       0.00248
     2  H(1)               0.00104       2.32628       0.83007       0.77596
 --------------------------------------------------------
       Center         ----  Spin Dipole Couplings  ----
                      3XX-RR        3YY-RR        3ZZ-RR
 --------------------------------------------------------
     1   Atom       -0.070274     -0.070303      0.140577
     2   Atom       -0.083492     -0.083492      0.166984
 --------------------------------------------------------
                        XY            XZ            YZ
 --------------------------------------------------------
     1   Atom        0.000000      0.000000      0.000000
     2   Atom        0.000000      0.000000      0.000000
 --------------------------------------------------------


 ---------------------------------------------------------------------------------
              Anisotropic Spin Dipole Couplings in Principal Axis System
 ---------------------------------------------------------------------------------

       Atom             a.u.   MegaHertz   Gauss  10(-4) cm-1        Axes

              Baa    -0.0703    -8.878    -3.168    -2.961 -0.0000  1.0000  0.0000
     1 Co(59) Bbb    -0.0703    -8.874    -3.167    -2.960  1.0000  0.0000  0.0000
              Bcc     0.1406    17.752     6.334     5.921  0.0000  0.0000  1.0000
 
              Baa    -0.0835   -44.547   -15.896   -14.859 -0.0000  1.0000  0.0000
     2 H(1)   Bbb    -0.0835   -44.547   -15.896   -14.859  1.0000  0.0000  0.0000
              Bcc     0.1670    89.095    31.791    29.719  0.0000  0.0000  1.0000
 

 ---------------------------------------------------------------------------------

 No NMR shielding tensors so no spin-rotation constants.
 Leave Link  601 at Thu May  3 15:11:29 2018, MaxMem= 10737418240 cpu:              89.3 elap:               2.9
 (Enter /home1/apps/gaussian/16rA.03/g16/l9999.exe)

 Test job not archived.
 1\1\GINC-C428-002\SP\ROCCSD(T)-Full\Gen\Co1H1(3)\GWANG18\03-May-2018\0
 \\#P ROCCSD(T)=(MaxCyc=150, Full)/Gen SCF=(maxcycle=400, vshift=200) P
 seudo=Read Integral(NoXCTest) Pop=Regular MaxDisk=500GB Guess=Read IOp
 (5/15=2)\\CoH\\0,3\Co,0,0.,0.,0.\H,0,0.,0.,1.5\\Version=ES64L-G16RevA.
 03\HF=-144.8030483\MP2=-145.6673459\MP3=-145.5701103\PUHF=-144.8030483
 \PMP2-0=-145.6673459\MP4SDQ=-145.6412585\CCSD=-145.6151269\CCSD(T)=-14
 5.6458254\RMSD=9.639e-09\PG=C*V [C*(H1Co1)]\\@


 TIME IS IN FACT THE HERO OF THE PLOT. THE TIME
 WITH WHICH WE HAVE TO DEAL IS OF THE ORDER OF TWO
 BILLION YEARS...GIVEN SO MUCH TIME, THE "IMPOSSIBLE"
 BECOMES POSSIBLE, THE POSSIBLE PROBABLE, THE PROBABLE
 VIRTUALLY CERTAIN.  ONE HAS ONLY TO WAIT, TIME
 ITSELF PERFORMS THE MIRACLES.
 "ORIGIN OF LIFE" LECTURES, GEORGE WALD, 1954
 Job cpu time:       0 days  7 hours 25 minutes 27.5 seconds.
 Elapsed time:       0 days  0 hours 14 minutes  1.6 seconds.
 File lengths (MBytes):  RWF=   2930 Int=      0 D2E=      0 Chk=      6 Scr=      1
 Normal termination of Gaussian 16 at Thu May  3 15:11:30 2018.
