 Entering Gaussian System, Link 0=g16
 Initial command:
 /home1/apps/gaussian/16rA.03/g16/l1.exe "/tmp/Gau-374477.inp" -scrdir="/tmp/"
 Entering Link 1 = /home1/apps/gaussian/16rA.03/g16/l1.exe PID=    374478.
  
 Copyright (c) 1988,1990,1992,1993,1995,1998,2003,2009,2016,
            Gaussian, Inc.  All Rights Reserved.
  
 This is part of the Gaussian(R) 16 program.  It is based on
 the Gaussian(R) 09 system (copyright 2009, Gaussian, Inc.),
 the Gaussian(R) 03 system (copyright 2003, Gaussian, Inc.),
 the Gaussian(R) 98 system (copyright 1998, Gaussian, Inc.),
 the Gaussian(R) 94 system (copyright 1995, Gaussian, Inc.),
 the Gaussian 92(TM) system (copyright 1992, Gaussian, Inc.),
 the Gaussian 90(TM) system (copyright 1990, Gaussian, Inc.),
 the Gaussian 88(TM) system (copyright 1988, Gaussian, Inc.),
 the Gaussian 86(TM) system (copyright 1986, Carnegie Mellon
 University), and the Gaussian 82(TM) system (copyright 1983,
 Carnegie Mellon University). Gaussian is a federally registered
 trademark of Gaussian, Inc.
  
 This software contains proprietary and confidential information,
 including trade secrets, belonging to Gaussian, Inc.
  
 This software is provided under written license and may be
 used, copied, transmitted, or stored only in accord with that
 written license.
  
 The following legend is applicable only to US Government
 contracts under FAR:
  
                    RESTRICTED RIGHTS LEGEND
  
 Use, reproduction and disclosure by the US Government is
 subject to restrictions as set forth in subparagraphs (a)
 and (c) of the Commercial Computer Software - Restricted
 Rights clause in FAR 52.227-19.
  
 Gaussian, Inc.
 340 Quinnipiac St., Bldg. 40, Wallingford CT 06492
  
  
 ---------------------------------------------------------------
 Warning -- This program may not be used in any manner that
 competes with the business of Gaussian, Inc. or will provide
 assistance to any competitor of Gaussian, Inc.  The licensee
 of this program is prohibited from giving any competitor of
 Gaussian, Inc. access to this program.  By using this program,
 the user acknowledges that Gaussian, Inc. is engaged in the
 business of creating and licensing software in the field of
 computational chemistry and represents and warrants to the
 licensee that it is not a competitor of Gaussian, Inc. and that
 it will not use this program in any manner prohibited above.
 ---------------------------------------------------------------
  

 Cite this work as:
 Gaussian 16, Revision A.03,
 M. J. Frisch, G. W. Trucks, H. B. Schlegel, G. E. Scuseria, 
 M. A. Robb, J. R. Cheeseman, G. Scalmani, V. Barone, 
 G. A. Petersson, H. Nakatsuji, X. Li, M. Caricato, A. V. Marenich, 
 J. Bloino, B. G. Janesko, R. Gomperts, B. Mennucci, H. P. Hratchian, 
 J. V. Ortiz, A. F. Izmaylov, J. L. Sonnenberg, D. Williams-Young, 
 F. Ding, F. Lipparini, F. Egidi, J. Goings, B. Peng, A. Petrone, 
 T. Henderson, D. Ranasinghe, V. G. Zakrzewski, J. Gao, N. Rega, 
 G. Zheng, W. Liang, M. Hada, M. Ehara, K. Toyota, R. Fukuda, 
 J. Hasegawa, M. Ishida, T. Nakajima, Y. Honda, O. Kitao, H. Nakai, 
 T. Vreven, K. Throssell, J. A. Montgomery, Jr., J. E. Peralta, 
 F. Ogliaro, M. J. Bearpark, J. J. Heyd, E. N. Brothers, K. N. Kudin, 
 V. N. Staroverov, T. A. Keith, R. Kobayashi, J. Normand, 
 K. Raghavachari, A. P. Rendell, J. C. Burant, S. S. Iyengar, 
 J. Tomasi, M. Cossi, J. M. Millam, M. Klene, C. Adamo, R. Cammi, 
 J. W. Ochterski, R. L. Martin, K. Morokuma, O. Farkas, 
 J. B. Foresman, and D. J. Fox, Gaussian, Inc., Wallingford CT, 2016.
 
 ******************************************
 Gaussian 16:  ES64L-G16RevA.03 25-Dec-2016
                16-Apr-2018 
 ******************************************
 %mem=160GB
 %cpu=0-31
 SetSPE:  set environment variable "MP_BIND" = "yes"
 SetSPE:  set environment variable "MP_BLIST" = "0,1,2,3,4,5,6,7,8,9,10,11,12,13,14,15,16,17,18,19,20,21,22,23,24,25,26,27,28,29,30,31"
 Will use up to   32 processors via shared memory.
 %chk=tz.chk
 %rwf=/scratch/04843/gwang18/zno/
 ----------------------------------------------------------------------
 #P ROCCSD(T)=(MaxCyc=150, Window=(7,0))/Gen SCF=(maxcycle=400) Integra
 l(DKHSO, NoXCTest) Pop=Regular MaxDisk=500GB Guess=Read IOp(5/15=2)
 ----------------------------------------------------------------------
 1/38=1,172=1/1;
 2/12=2,17=6,18=5,40=1/2;
 3/5=7,11=2,25=1,30=1,47=8,91=5,116=101/1,2,3;
 4/5=1/1;
 5/5=2,7=400,15=2,38=6/2;
 8/5=-1,6=4,9=120000,10=91,37=7/1,4;
 9/5=7,6=150,14=2/13;
 6//1;
 99/5=1,9=1/99;
 Leave Link    1 at Mon Apr 16 12:48:12 2018, MaxMem= 21474836480 cpu:               2.4 elap:               0.1
 (Enter /home1/apps/gaussian/16rA.03/g16/l101.exe)
 ---
 ZnO
 ---
 Symbolic Z-matrix:
 Charge =  0 Multiplicity = 1
 Zn                    0.        0.        0. 
 O                     0.        0.        1.3 
 
 ITRead=  0  0
 MicOpt= -1 -1
 NAtoms=      2 NQM=        2 NQMF=       0 NMMI=      0 NMMIF=      0
                NMic=       0 NMicF=      0.
                    Isotopes and Nuclear Properties:
 (Nuclear quadrupole moments (NQMom) in fm**2, nuclear magnetic moments (NMagM)
  in nuclear magnetons)

  Atom         1           2
 IAtWgt=          64          16
 AtmWgt=  63.9291454  15.9949146
 NucSpn=           0           0
 AtZEff=  -0.0000000  -0.0000000
 NQMom=    0.0000000   0.0000000
 NMagM=    0.0000000   0.0000000
 AtZNuc=  30.0000000   8.0000000
 Leave Link  101 at Mon Apr 16 12:48:13 2018, MaxMem= 21474836480 cpu:               2.7 elap:               0.1
 (Enter /home1/apps/gaussian/16rA.03/g16/l202.exe)
                          Input orientation:                          
 ---------------------------------------------------------------------
 Center     Atomic      Atomic             Coordinates (Angstroms)
 Number     Number       Type             X           Y           Z
 ---------------------------------------------------------------------
      1         30           0        0.000000    0.000000    0.000000
      2          8           0        0.000000    0.000000    1.300000
 ---------------------------------------------------------------------
 Stoichiometry    OZn
 Framework group  C*V[C*(OZn)]
 Deg. of freedom     1
 Full point group                 C*V     NOp   4
 Largest Abelian subgroup         C2V     NOp   4
 Largest concise Abelian subgroup C1      NOp   1
                         Standard orientation:                         
 ---------------------------------------------------------------------
 Center     Atomic      Atomic             Coordinates (Angstroms)
 Number     Number       Type             X           Y           Z
 ---------------------------------------------------------------------
      1         30           0        0.000000    0.000000    0.273684
      2          8           0        0.000000    0.000000   -1.026316
 ---------------------------------------------------------------------
 Rotational constants (GHZ):           0.0000000          23.3736861          23.3736861
 Leave Link  202 at Mon Apr 16 12:48:13 2018, MaxMem= 21474836480 cpu:               0.5 elap:               0.0
 (Enter /home1/apps/gaussian/16rA.03/g16/l301.exe)
 General basis read from cards:  (5D, 7F)
 Centers:       1
 S 1 1.00
     Exponent=  5.8200210000D+06 Coefficients=  1.0000000000D+00
 S 1 1.00
     Exponent=  8.7152340000D+05 Coefficients=  1.0000000000D+00
 S 1 1.00
     Exponent=  1.9833500000D+05 Coefficients=  1.0000000000D+00
 S 1 1.00
     Exponent=  5.6176310000D+04 Coefficients=  1.0000000000D+00
 S 1 1.00
     Exponent=  1.8325820000D+04 Coefficients=  1.0000000000D+00
 S 1 1.00
     Exponent=  6.6149550000D+03 Coefficients=  1.0000000000D+00
 S 1 1.00
     Exponent=  2.5791990000D+03 Coefficients=  1.0000000000D+00
 S 1 1.00
     Exponent=  1.0688490000D+03 Coefficients=  1.0000000000D+00
 S 1 1.00
     Exponent=  4.6510450000D+02 Coefficients=  1.0000000000D+00
 S 1 1.00
     Exponent=  2.1041300000D+02 Coefficients=  1.0000000000D+00
 S 1 1.00
     Exponent=  9.7616290000D+01 Coefficients=  1.0000000000D+00
 S 1 1.00
     Exponent=  4.4380200000D+01 Coefficients=  1.0000000000D+00
 S 1 1.00
     Exponent=  2.1423080000D+01 Coefficients=  1.0000000000D+00
 S 1 1.00
     Exponent=  1.0308910000D+01 Coefficients=  1.0000000000D+00
 S 1 1.00
     Exponent=  4.5536450000D+00 Coefficients=  1.0000000000D+00
 S 1 1.00
     Exponent=  2.1328210000D+00 Coefficients=  1.0000000000D+00
 S 1 1.00
     Exponent=  9.2969700000D-01 Coefficients=  1.0000000000D+00
 S 1 1.00
     Exponent=  1.9214700000D-01 Coefficients=  1.0000000000D+00
 S 1 1.00
     Exponent=  8.7595000000D-02 Coefficients=  1.0000000000D+00
 S 1 1.00
     Exponent=  3.7702000000D-02 Coefficients=  1.0000000000D+00
 S 1 1.00
     Exponent=  7.0381000000D+00 Coefficients=  1.0000000000D+00
 S 1 1.00
     Exponent=  1.8099000000D+00 Coefficients=  1.0000000000D+00
 S 1 1.00
     Exponent=  1.6230000000D-02 Coefficients=  1.0000000000D+00
 P 1 1.00
     Exponent=  2.4411980000D+04 Coefficients=  1.0000000000D+00
 P 1 1.00
     Exponent=  5.7785180000D+03 Coefficients=  1.0000000000D+00
 P 1 1.00
     Exponent=  1.8768620000D+03 Coefficients=  1.0000000000D+00
 P 1 1.00
     Exponent=  7.1823610000D+02 Coefficients=  1.0000000000D+00
 P 1 1.00
     Exponent=  3.0483270000D+02 Coefficients=  1.0000000000D+00
 P 1 1.00
     Exponent=  1.3904530000D+02 Coefficients=  1.0000000000D+00
 P 1 1.00
     Exponent=  6.6804170000D+01 Coefficients=  1.0000000000D+00
 P 1 1.00
     Exponent=  3.3206990000D+01 Coefficients=  1.0000000000D+00
 P 1 1.00
     Exponent=  1.6928160000D+01 Coefficients=  1.0000000000D+00
 P 1 1.00
     Exponent=  8.6962290000D+00 Coefficients=  1.0000000000D+00
 P 1 1.00
     Exponent=  4.3505100000D+00 Coefficients=  1.0000000000D+00
 P 1 1.00
     Exponent=  2.1165230000D+00 Coefficients=  1.0000000000D+00
 P 1 1.00
     Exponent=  9.9538700000D-01 Coefficients=  1.0000000000D+00
 P 1 1.00
     Exponent=  3.7811200000D-01 Coefficients=  1.0000000000D+00
 P 1 1.00
     Exponent=  1.3457900000D-01 Coefficients=  1.0000000000D+00
 P 1 1.00
     Exponent=  4.6282000000D-02 Coefficients=  1.0000000000D+00
 P 1 1.00
     Exponent=  1.0150100000D+01 Coefficients=  1.0000000000D+00
 P 1 1.00
     Exponent=  2.3451000000D+00 Coefficients=  1.0000000000D+00
 P 1 1.00
     Exponent=  1.5920000000D-02 Coefficients=  1.0000000000D+00
 D 1 1.00
     Exponent=  2.0561770000D+02 Coefficients=  1.0000000000D+00
 D 1 1.00
     Exponent=  6.1449810000D+01 Coefficients=  1.0000000000D+00
 D 1 1.00
     Exponent=  2.3056890000D+01 Coefficients=  1.0000000000D+00
 D 1 1.00
     Exponent=  9.5777390000D+00 Coefficients=  1.0000000000D+00
 D 1 1.00
     Exponent=  4.1337340000D+00 Coefficients=  1.0000000000D+00
 D 1 1.00
     Exponent=  1.7475180000D+00 Coefficients=  1.0000000000D+00
 D 1 1.00
     Exponent=  6.9956000000D-01 Coefficients=  1.0000000000D+00
 D 1 1.00
     Exponent=  2.5160800000D-01 Coefficients=  1.0000000000D+00
 D 1 1.00
     Exponent=  7.7440000000D+00 Coefficients=  1.0000000000D+00
 D 1 1.00
     Exponent=  3.9663000000D+00 Coefficients=  1.0000000000D+00
 D 1 1.00
     Exponent=  9.0490000000D-02 Coefficients=  1.0000000000D+00
 F 1 1.00
     Exponent=  1.0327000000D+01 Coefficients=  1.0000000000D+00
 F 1 1.00
     Exponent=  4.0202000000D+00 Coefficients=  1.0000000000D+00
 F 1 1.00
     Exponent=  1.4851000000D+00 Coefficients=  1.0000000000D+00
 F 1 1.00
     Exponent=  5.4861000000D-01 Coefficients=  1.0000000000D+00
 G 1 1.00
     Exponent=  9.2538000000D+00 Coefficients=  1.0000000000D+00
 G 1 1.00
     Exponent=  4.1144000000D+00 Coefficients=  1.0000000000D+00
 G 1 1.00
     Exponent=  1.8293300000D+00 Coefficients=  1.0000000000D+00
 ****
 Centers:       2
 S 1 1.00
     Exponent=  1.5330000000D+04 Coefficients=  1.0000000000D+00
 S 1 1.00
     Exponent=  2.2990000000D+03 Coefficients=  1.0000000000D+00
 S 1 1.00
     Exponent=  5.2240000000D+02 Coefficients=  1.0000000000D+00
 S 1 1.00
     Exponent=  1.4730000000D+02 Coefficients=  1.0000000000D+00
 S 1 1.00
     Exponent=  4.7550000000D+01 Coefficients=  1.0000000000D+00
 S 1 1.00
     Exponent=  1.6760000000D+01 Coefficients=  1.0000000000D+00
 S 1 1.00
     Exponent=  6.2070000000D+00 Coefficients=  1.0000000000D+00
 S 1 1.00
     Exponent=  6.8820000000D-01 Coefficients=  1.0000000000D+00
 S 1 1.00
     Exponent=  1.7520000000D+00 Coefficients=  1.0000000000D+00
 S 1 1.00
     Exponent=  2.3840000000D-01 Coefficients=  1.0000000000D+00
 S 1 1.00
     Exponent=  7.8450000000D+00 Coefficients=  1.0000000000D+00
 S 1 1.00
     Exponent=  2.1032000000D+01 Coefficients=  1.0000000000D+00
 S 1 1.00
     Exponent=  7.3760000000D-02 Coefficients=  1.0000000000D+00
 P 1 1.00
     Exponent=  3.4460000000D+01 Coefficients=  1.0000000000D+00
 P 1 1.00
     Exponent=  7.7490000000D+00 Coefficients=  1.0000000000D+00
 P 1 1.00
     Exponent=  2.2800000000D+00 Coefficients=  1.0000000000D+00
 P 1 1.00
     Exponent=  7.1560000000D-01 Coefficients=  1.0000000000D+00
 P 1 1.00
     Exponent=  2.1400000000D-01 Coefficients=  1.0000000000D+00
 P 1 1.00
     Exponent=  1.5159000000D+01 Coefficients=  1.0000000000D+00
 P 1 1.00
     Exponent=  5.7437000000D+01 Coefficients=  1.0000000000D+00
 P 1 1.00
     Exponent=  5.9740000000D-02 Coefficients=  1.0000000000D+00
 D 1 1.00
     Exponent=  2.3140000000D+00 Coefficients=  1.0000000000D+00
 D 1 1.00
     Exponent=  6.4500000000D-01 Coefficients=  1.0000000000D+00
 D 1 1.00
     Exponent=  1.5858000000D+01 Coefficients=  1.0000000000D+00
 D 1 1.00
     Exponent=  2.1400000000D-01 Coefficients=  1.0000000000D+00
 F 1 1.00
     Exponent=  1.4280000000D+00 Coefficients=  1.0000000000D+00
 F 1 1.00
     Exponent=  5.0000000000D-01 Coefficients=  1.0000000000D+00
 ****
 Ernie: Thresh=  0.10000D-02 Tol=  0.10000D-05 Strict=F.
 There are   144 symmetry adapted cartesian basis functions of A1  symmetry.
 There are    30 symmetry adapted cartesian basis functions of A2  symmetry.
 There are    69 symmetry adapted cartesian basis functions of B1  symmetry.
 There are    69 symmetry adapted cartesian basis functions of B2  symmetry.
 There are   114 symmetry adapted basis functions of A1  symmetry.
 There are    27 symmetry adapted basis functions of A2  symmetry.
 There are    60 symmetry adapted basis functions of B1  symmetry.
 There are    60 symmetry adapted basis functions of B2  symmetry.
   261 basis functions,   312 primitive gaussians,   312 cartesian basis functions
    19 alpha electrons       19 beta electrons
       nuclear repulsion energy        97.6942543237 Hartrees.
 IExCor=    0 DFT=F Ex=HF Corr=None ExCW=0 ScaHFX=  1.000000
 ScaDFX=  1.000000  1.000000  1.000000  1.000000 ScalE2=  1.000000  1.000000
 IRadAn=      5 IRanWt=     -1 IRanGd=            0 ICorTp=0 IEmpDi=  4
 NAtoms=    2 NActive=    2 NUniq=    2 SFac= 1.00D+00 NAtFMM=   60 NAOKFM=F Big=F
 Integral buffers will be    131072 words long.
 Raffenetti 2 integral format.
 Two-electron integral symmetry is turned on.
 FoFCou: FMM=F IPFlag=           8 FMFlag=           0 FMFlg1=           0
         NFxFlg=           0 DoJE=F BraDBF=T KetDBF=T FulRan=T
         wScrn=  0.000000 ICntrl=       600 IOpCl=  3 I1Cent=           6 NGrid=           0
         NMat0=    1 NMatS0=      2 NMatT0=    0 NMatD0=    1 NMtDS0=    0 NMtDT0=    0
 Symmetry not used in FoFCou.
 Finite nuclear repulsion energy        97.6942543237.
 Leave Link  301 at Mon Apr 16 12:48:13 2018, MaxMem= 21474836480 cpu:               4.7 elap:               0.2
 (Enter /home1/apps/gaussian/16rA.03/g16/l302.exe)
 Using DK4 one-electron Hamiltonian with SO, DoBoet=T.
 NPDir=0 NMtPBC=     1 NCelOv=     1 NCel=       1 NClECP=     1 NCelD=      1
         NCelK=      1 NCelE2=     1 NClLst=     1 CellRange=     0.0.
 One-electron integrals computed using PRISM.
 One-electron integral symmetry used in STVInt
 FoFCou: FMM=F IPFlag=           8 FMFlag=      100000 FMFlg1=           0
         NFxFlg=           0 DoJE=T BraDBF=F KetDBF=T FulRan=T
         wScrn=  0.000000 ICntrl=       500 IOpCl=  0 I1Cent=           4 NGrid=           0
         NMat0=    1 NMatS0=      1 NMatT0=    0 NMatD0=    1 NMtDS0=    0 NMtDT0=    0
 Symmetry not used in FoFCou.
 UnConB:  Uncontracting AO basis from    261 functions to    261 functions (excluding duplicates).
 RelInt: Using uncontracted basis, NUnBas=   261 NBsUse=   261 0.100E-13 EigKep=  2.96D-06 EigRej= -1.00D+00
 NBasis=   261 RedAO= T EigKep=  2.96D-06  NBF=   114    27    60    60
 NBsUse=   261 1.00D-06 EigRej= -1.00D+00 NBFU=   114    27    60    60
 Leave Link  302 at Mon Apr 16 12:48:15 2018, MaxMem= 21474836480 cpu:              48.7 elap:               1.9
 (Enter /home1/apps/gaussian/16rA.03/g16/l303.exe)
 DipDrv:  MaxL=1.
 Leave Link  303 at Mon Apr 16 12:48:15 2018, MaxMem= 21474836480 cpu:               1.1 elap:               0.1
 (Enter /home1/apps/gaussian/16rA.03/g16/l401.exe)
 Initial guess from the checkpoint file:  "tz.chk"
 B after Tr=     0.000000    0.000000   -0.000000
         Rot=    1.000000    0.000000    0.000000    0.000000 Ang=   0.00 deg.
 Guess basis will be translated and rotated to current coordinates.
 JPrj=2 DoOrth=T DoCkMO=T.
 Initial guess orbital symmetries:
       Occupied  (SG) (SG) (PI) (PI) (SG) (SG) (SG) (SG) (PI) (PI)
                 (SG) (PI) (PI) (DLTA) (DLTA) (SG) (PI) (PI) (SG)
       Virtual   (SG) (SG) (PI) (PI) (SG) (PI) (PI) (SG) (SG) (SG)
                 (PI) (PI) (DLTA) (DLTA) (PI) (PI) (SG) (PI) (PI)
                 (SG) (SG) (SG) (DLTA) (DLTA) (SG) (PI) (PI) (DLTA)
                 (DLTA) (PI) (PI) (SG) (PI) (PI) (PI) (PI) (SG)
                 (SG) (SG) (PHI) (PHI) (DLTA) (DLTA) (PI) (PI)
                 (PHI) (PHI) (SG) (DLTA) (DLTA) (SG) (PI) (PI)
                 (DLTA) (DLTA) (SG) (PI) (PI) (DLTA) (DLTA) (SG)
                 (PI) (PI) (SG) (PI) (PI) (SG) (PI) (PI) (SG) (SG)
                 (PHI) (PHI) (DLTA) (DLTA) (PI) (PI) (SG) (PHI)
                 (PHI) (DLTA) (DLTA) (PI) (PI) (SG) (DLTA) (DLTA)
                 (DLTA) (DLTA) (PI) (PI) (PI) (PI) (SG) (?A) (?A)
                 (PHI) (PHI) (SG) (DLTA) (DLTA) (SG) (PI) (PI)
                 (PI) (PI) (SG) (SG) (PHI) (PHI) (DLTA) (DLTA)
                 (PI) (PI) (SG) (PI) (PI) (SG) (DLTA) (DLTA) (PI)
                 (PI) (SG) (SG) (PI) (PI) (SG) (SG) (?A) (?A) (PHI)
                 (PHI) (DLTA) (DLTA) (PI) (PI) (SG) (DLTA) (DLTA)
                 (PI) (PI) (SG) (PHI) (PHI) (DLTA) (DLTA) (PI)
                 (PI) (SG) (PI) (PI) (SG) (SG) (SG) (PI) (PI) (DLTA)
                 (DLTA) (SG) (PI) (PI) (SG) (?A) (?A) (PHI) (PHI)
                 (DLTA) (DLTA) (PI) (PI) (SG) (DLTA) (DLTA) (PI)
                 (PI) (SG) (PI) (PI) (SG) (SG) (SG) (DLTA) (DLTA)
                 (PI) (PI) (SG) (PI) (PI) (SG) (PI) (PI) (SG) (SG)
                 (SG) (DLTA) (DLTA) (PI) (PI) (SG) (PI) (PI) (SG)
                 (PI) (PI) (SG) (SG) (SG) (PI) (PI) (SG) (DLTA)
                 (DLTA) (PI) (PI) (SG) (PI) (PI) (SG) (SG) (SG)
                 (PI) (PI) (SG) (SG) (SG) (PI) (PI) (SG) (SG) (SG)
                 (PI) (PI) (SG) (SG) (SG) (PI) (PI) (SG) (SG) (SG)
                 (SG) (SG)
 The electronic state of the initial guess is 1-SG.
 Leave Link  401 at Mon Apr 16 12:48:15 2018, MaxMem= 21474836480 cpu:               5.6 elap:               0.2
 (Enter /home1/apps/gaussian/16rA.03/g16/l502.exe)
 Keep R1 and R2 ints in memory in symmetry-blocked form, NReq=734602573.
 FoFCou: FMM=F IPFlag=           8 FMFlag=           0 FMFlg1=           0
         NFxFlg=           0 DoJE=F BraDBF=F KetDBF=F FulRan=T
         wScrn=  0.000000 ICntrl=       600 IOpCl=  0 I1Cent=           0 NGrid=           0
         NMat0=    1 NMatS0=  34191 NMatT0=    0 NMatD0=    1 NMtDS0=    0 NMtDT0=    0
 Petite list used in FoFCou.
 Restricted open shell SCF:
 Using DIIS extrapolation, IDIIS=  1040.
 NGot= 21474836480 LenX= 21174565133 LenY= 21174467348
 Requested convergence on RMS density matrix=1.00D-08 within 400 cycles.
 Requested convergence on MAX density matrix=1.00D-06.
 Requested convergence on             energy=1.00D-06.
 No special actions if energy rises.

 Cycle   1  Pass 1  IDiag  1:
 E= -1868.83504575912    
 DIIS: error= 3.15D-02 at cycle   1 NSaved=   1.
 NSaved= 1 IEnMin= 1 EnMin= -1868.83504575912     IErMin= 1 ErrMin= 3.15D-02
 ErrMax= 3.15D-02  0.00D+00 EMaxC= 1.00D-01 BMatC= 1.05D-01 BMatP= 1.05D-01
 IDIUse=3 WtCom= 6.85D-01 WtEn= 3.15D-01
 Coeff-Com:  0.100D+01
 Coeff-En:   0.100D+01
 Coeff:      0.100D+01
 Gap=     0.454 Goal=   None    Shift=    0.000
 GapD=    0.454 DampG=2.000 DampE=0.250 DampFc=0.5000 IDamp=-1.
 Damping current iteration by 5.00D-01
 RMSDP=1.65D-03 MaxDP=1.39D-01              OVMax= 7.88D-02

 Cycle   2  Pass 1  IDiag  1:
 E= -1868.85329522459     Delta-E=       -0.018249465471 Rises=F Damp=T
 DIIS: error= 1.43D-02 at cycle   2 NSaved=   2.
 NSaved= 2 IEnMin= 2 EnMin= -1868.85329522459     IErMin= 2 ErrMin= 1.43D-02
 ErrMax= 1.43D-02  0.00D+00 EMaxC= 1.00D-01 BMatC= 2.54D-02 BMatP= 1.05D-01
 IDIUse=3 WtCom= 8.57D-01 WtEn= 1.43D-01
 Coeff-Com: -0.468D+00 0.147D+01
 Coeff-En:   0.000D+00 0.100D+01
 Coeff:     -0.401D+00 0.140D+01
 Gap=     0.344 Goal=   None    Shift=    0.000
 RMSDP=8.13D-04 MaxDP=6.01D-02 DE=-1.82D-02 OVMax= 5.82D-02

 Cycle   3  Pass 1  IDiag  1:
 E= -1868.87487359095     Delta-E=       -0.021578366369 Rises=F Damp=F
 DIIS: error= 9.24D-03 at cycle   3 NSaved=   3.
 NSaved= 3 IEnMin= 3 EnMin= -1868.87487359095     IErMin= 3 ErrMin= 9.24D-03
 ErrMax= 9.24D-03  0.00D+00 EMaxC= 1.00D-01 BMatC= 6.92D-03 BMatP= 2.54D-02
 IDIUse=3 WtCom= 9.08D-01 WtEn= 9.24D-02
 Coeff-Com: -0.339D+00 0.618D+00 0.721D+00
 Coeff-En:   0.000D+00 0.000D+00 0.100D+01
 Coeff:     -0.308D+00 0.561D+00 0.746D+00
 Gap=     0.364 Goal=   None    Shift=    0.000
 RMSDP=2.08D-04 MaxDP=1.11D-02 DE=-2.16D-02 OVMax= 2.48D-02

 Cycle   4  Pass 1  IDiag  1:
 E= -1868.87912876372     Delta-E=       -0.004255172767 Rises=F Damp=F
 DIIS: error= 2.07D-03 at cycle   4 NSaved=   4.
 NSaved= 4 IEnMin= 4 EnMin= -1868.87912876372     IErMin= 4 ErrMin= 2.07D-03
 ErrMax= 2.07D-03  0.00D+00 EMaxC= 1.00D-01 BMatC= 4.91D-04 BMatP= 6.92D-03
 IDIUse=3 WtCom= 9.79D-01 WtEn= 2.07D-02
 Coeff-Com:  0.143D+00-0.299D+00-0.470D-01 0.120D+01
 Coeff-En:   0.000D+00 0.000D+00 0.000D+00 0.100D+01
 Coeff:      0.140D+00-0.293D+00-0.460D-01 0.120D+01
 Gap=     0.365 Goal=   None    Shift=    0.000
 RMSDP=9.68D-05 MaxDP=5.84D-03 DE=-4.26D-03 OVMax= 1.25D-02

 Cycle   5  Pass 1  IDiag  1:
 E= -1868.87982045398     Delta-E=       -0.000691690254 Rises=F Damp=F
 DIIS: error= 9.23D-04 at cycle   5 NSaved=   5.
 NSaved= 5 IEnMin= 5 EnMin= -1868.87982045398     IErMin= 5 ErrMin= 9.23D-04
 ErrMax= 9.23D-04  0.00D+00 EMaxC= 1.00D-01 BMatC= 3.61D-05 BMatP= 4.91D-04
 IDIUse=3 WtCom= 9.91D-01 WtEn= 9.23D-03
 Coeff-Com:  0.234D-01-0.398D-01-0.103D+00-0.148D+00 0.127D+01
 Coeff-En:   0.000D+00 0.000D+00 0.000D+00 0.000D+00 0.100D+01
 Coeff:      0.231D-01-0.394D-01-0.102D+00-0.146D+00 0.126D+01
 Gap=     0.367 Goal=   None    Shift=    0.000
 RMSDP=4.56D-05 MaxDP=3.05D-03 DE=-6.92D-04 OVMax= 8.14D-03

 Cycle   6  Pass 1  IDiag  1:
 E= -1868.87993044574     Delta-E=       -0.000109991764 Rises=F Damp=F
 DIIS: error= 2.99D-04 at cycle   6 NSaved=   6.
 NSaved= 6 IEnMin= 6 EnMin= -1868.87993044574     IErMin= 6 ErrMin= 2.99D-04
 ErrMax= 2.99D-04  0.00D+00 EMaxC= 1.00D-01 BMatC= 8.87D-06 BMatP= 3.61D-05
 IDIUse=3 WtCom= 9.97D-01 WtEn= 2.99D-03
 Coeff-Com: -0.895D-02 0.208D-01-0.254D-01-0.207D+00 0.419D+00 0.802D+00
 Coeff-En:   0.000D+00 0.000D+00 0.000D+00 0.000D+00 0.000D+00 0.100D+01
 Coeff:     -0.893D-02 0.208D-01-0.253D-01-0.206D+00 0.418D+00 0.802D+00
 Gap=     0.368 Goal=   None    Shift=    0.000
 RMSDP=1.29D-05 MaxDP=9.38D-04 DE=-1.10D-04 OVMax= 1.91D-03

 Cycle   7  Pass 1  IDiag  1:
 E= -1868.87993917659     Delta-E=       -0.000008730854 Rises=F Damp=F
 DIIS: error= 9.83D-05 at cycle   7 NSaved=   7.
 NSaved= 7 IEnMin= 7 EnMin= -1868.87993917659     IErMin= 7 ErrMin= 9.83D-05
 ErrMax= 9.83D-05  0.00D+00 EMaxC= 1.00D-01 BMatC= 1.50D-06 BMatP= 8.87D-06
 IDIUse=1 WtCom= 1.00D+00 WtEn= 0.00D+00
 Coeff-Com: -0.122D-01 0.250D-01 0.870D-02-0.919D-01 0.162D-01 0.325D+00
 Coeff-Com:  0.730D+00
 Coeff:     -0.122D-01 0.250D-01 0.870D-02-0.919D-01 0.162D-01 0.325D+00
 Coeff:      0.730D+00
 Gap=     0.367 Goal=   None    Shift=    0.000
 RMSDP=4.49D-06 MaxDP=3.49D-04 DE=-8.73D-06 OVMax= 1.00D-03

 Cycle   8  Pass 1  IDiag  1:
 E= -1868.87994112198     Delta-E=       -0.000001945383 Rises=F Damp=F
 DIIS: error= 6.29D-05 at cycle   8 NSaved=   8.
 NSaved= 8 IEnMin= 8 EnMin= -1868.87994112198     IErMin= 8 ErrMin= 6.29D-05
 ErrMax= 6.29D-05  0.00D+00 EMaxC= 1.00D-01 BMatC= 3.63D-07 BMatP= 1.50D-06
 IDIUse=1 WtCom= 1.00D+00 WtEn= 0.00D+00
 Coeff-Com:  0.560D-03-0.144D-02-0.185D-02 0.247D-01-0.772D-03-0.262D+00
 Coeff-Com: -0.128D-01 0.125D+01
 Coeff:      0.560D-03-0.144D-02-0.185D-02 0.247D-01-0.772D-03-0.262D+00
 Coeff:     -0.128D-01 0.125D+01
 Gap=     0.367 Goal=   None    Shift=    0.000
 RMSDP=3.72D-06 MaxDP=2.28D-04 DE=-1.95D-06 OVMax= 7.61D-04

 Cycle   9  Pass 1  IDiag  1:
 E= -1868.87994212372     Delta-E=       -0.000001001739 Rises=F Damp=F
 DIIS: error= 3.31D-05 at cycle   9 NSaved=   9.
 NSaved= 9 IEnMin= 9 EnMin= -1868.87994212372     IErMin= 9 ErrMin= 3.31D-05
 ErrMax= 3.31D-05  0.00D+00 EMaxC= 1.00D-01 BMatC= 9.80D-08 BMatP= 3.63D-07
 IDIUse=1 WtCom= 1.00D+00 WtEn= 0.00D+00
 Coeff-Com:  0.174D-02-0.321D-02-0.427D-02 0.235D-02 0.261D-01 0.708D-02
 Coeff-Com: -0.587D-01-0.848D+00 0.188D+01
 Coeff:      0.174D-02-0.321D-02-0.427D-02 0.235D-02 0.261D-01 0.708D-02
 Coeff:     -0.587D-01-0.848D+00 0.188D+01
 Gap=     0.367 Goal=   None    Shift=    0.000
 RMSDP=3.86D-06 MaxDP=2.63D-04 DE=-1.00D-06 OVMax= 8.19D-04

 Cycle  10  Pass 1  IDiag  1:
 E= -1868.87994264858     Delta-E=       -0.000000524861 Rises=F Damp=F
 DIIS: error= 1.19D-05 at cycle  10 NSaved=  10.
 NSaved=10 IEnMin=10 EnMin= -1868.87994264858     IErMin=10 ErrMin= 1.19D-05
 ErrMax= 1.19D-05  0.00D+00 EMaxC= 1.00D-01 BMatC= 1.72D-08 BMatP= 9.80D-08
 IDIUse=1 WtCom= 1.00D+00 WtEn= 0.00D+00
 Coeff-Com: -0.137D-02 0.273D-02 0.217D-02-0.898D-02-0.573D-02 0.318D-01
 Coeff-Com:  0.903D-01 0.121D+00-0.113D+01 0.190D+01
 Coeff:     -0.137D-02 0.273D-02 0.217D-02-0.898D-02-0.573D-02 0.318D-01
 Coeff:      0.903D-01 0.121D+00-0.113D+01 0.190D+01
 Gap=     0.367 Goal=   None    Shift=    0.000
 RMSDP=2.34D-06 MaxDP=1.54D-04 DE=-5.25D-07 OVMax= 4.99D-04

 Cycle  11  Pass 1  IDiag  1:
 E= -1868.87994275102     Delta-E=       -0.000000102440 Rises=F Damp=F
 DIIS: error= 2.72D-06 at cycle  11 NSaved=  11.
 NSaved=11 IEnMin=11 EnMin= -1868.87994275102     IErMin=11 ErrMin= 2.72D-06
 ErrMax= 2.72D-06  0.00D+00 EMaxC= 1.00D-01 BMatC= 6.07D-10 BMatP= 1.72D-08
 IDIUse=1 WtCom= 1.00D+00 WtEn= 0.00D+00
 Coeff-Com: -0.804D-04 0.151D-03 0.135D-03 0.391D-03-0.148D-02 0.154D-02
 Coeff-Com: -0.950D-02 0.521D-01-0.606D-01-0.797D-01 0.110D+01
 Coeff:     -0.804D-04 0.151D-03 0.135D-03 0.391D-03-0.148D-02 0.154D-02
 Coeff:     -0.950D-02 0.521D-01-0.606D-01-0.797D-01 0.110D+01
 Gap=     0.367 Goal=   None    Shift=    0.000
 RMSDP=2.07D-07 MaxDP=1.26D-05 DE=-1.02D-07 OVMax= 3.65D-05

 Cycle  12  Pass 1  IDiag  1:
 E= -1868.87994275193     Delta-E=       -0.000000000911 Rises=F Damp=F
 DIIS: error= 4.60D-07 at cycle  12 NSaved=  12.
 NSaved=12 IEnMin=12 EnMin= -1868.87994275193     IErMin=12 ErrMin= 4.60D-07
 ErrMax= 4.60D-07  0.00D+00 EMaxC= 1.00D-01 BMatC= 1.20D-11 BMatP= 6.07D-10
 IDIUse=1 WtCom= 1.00D+00 WtEn= 0.00D+00
 Coeff-Com:  0.524D-04-0.104D-03-0.637D-04 0.276D-03 0.229D-03-0.175D-02
 Coeff-Com: -0.632D-03-0.722D-02 0.446D-01-0.665D-01-0.124D+00 0.116D+01
 Coeff:      0.524D-04-0.104D-03-0.637D-04 0.276D-03 0.229D-03-0.175D-02
 Coeff:     -0.632D-03-0.722D-02 0.446D-01-0.665D-01-0.124D+00 0.116D+01
 Gap=     0.367 Goal=   None    Shift=    0.000
 RMSDP=2.37D-08 MaxDP=8.90D-07 DE=-9.11D-10 OVMax= 2.43D-06

 Cycle  13  Pass 1  IDiag  1:
 E= -1868.87994275194     Delta-E=       -0.000000000018 Rises=F Damp=F
 DIIS: error= 1.07D-07 at cycle  13 NSaved=  13.
 NSaved=13 IEnMin=13 EnMin= -1868.87994275194     IErMin=13 ErrMin= 1.07D-07
 ErrMax= 1.07D-07  0.00D+00 EMaxC= 1.00D-01 BMatC= 3.58D-13 BMatP= 1.20D-11
 IDIUse=1 WtCom= 1.00D+00 WtEn= 0.00D+00
 Coeff-Com: -0.793D-05 0.159D-04 0.903D-05-0.638D-04 0.395D-05 0.241D-03
 Coeff-Com:  0.263D-03 0.333D-03-0.812D-02 0.155D-01 0.856D-02-0.273D+00
 Coeff-Com:  0.126D+01
 Coeff:     -0.793D-05 0.159D-04 0.903D-05-0.638D-04 0.395D-05 0.241D-03
 Coeff:      0.263D-03 0.333D-03-0.812D-02 0.155D-01 0.856D-02-0.273D+00
 Coeff:      0.126D+01
 Gap=     0.367 Goal=   None    Shift=    0.000
 RMSDP=4.82D-09 MaxDP=3.64D-07 DE=-1.84D-11 OVMax= 6.97D-07

 SCF Done:  E(ROHF) =  -1868.87994275     A.U. after   13 cycles
            NFock= 13  Conv=0.48D-08     -V/T= 1.9487
 <Sx>= 0.0000 <Sy>= 0.0000 <Sz>= 0.0000 <S**2>=-0.0000 S=-0.0000
 <L.S>=  0.00000000000    
 KE= 1.969873771039D+03 PE=-4.771469713510D+03 EE= 8.350217453959D+02
 Annihilation of the first spin contaminant:
 S**2 before annihilation    -0.0000,   after     0.0000
 Leave Link  502 at Mon Apr 16 12:48:21 2018, MaxMem= 21474836480 cpu:             130.0 elap:               5.2
 (Enter /home1/apps/gaussian/16rA.03/g16/l801.exe)
 Windowed orbitals will be sorted by symmetry type.
 GenMOA:  NOpAll=  4 NOp2=4 NOpUse=  4 JSym2X=1
 FoFJK:  IHMeth= 1 ICntrl=       0 DoSepK=F KAlg= 0 I1Cent=           0 FoldK=F
 IRaf=         0 NMat=       1 IRICut=       1 DoRegI=T DoRafI=F ISym2E= 1 IDoP0=0 IntGTp=1.
 FoFCou: FMM=F IPFlag=           8 FMFlag=      100000 FMFlg1=           0
         NFxFlg=           0 DoJE=F BraDBF=F KetDBF=F FulRan=T
         wScrn=  0.000000 ICntrl=         0 IOpCl=  1 I1Cent=           0 NGrid=           0
         NMat0=    1 NMatS0=      1 NMatT0=    0 NMatD0=    1 NMtDS0=    0 NMtDT0=    0
 Petite list used in FoFCou.
 <Sx>= 0.0000 <Sy>= 0.0000 <Sz>= 0.0000 <S**2>=-0.0000 S=-0.0000
 Range of M.O.s used for correlation:     7   261
 NBasis=   261 NAE=    19 NBE=    19 NFC=     6 NFV=     0
 NROrb=    255 NOA=    13 NOB=    13 NVA=   242 NVB=   242

 **** Warning!!: The largest alpha MO coefficient is  0.20700418D+03


 **** Warning!!: The largest beta MO coefficient is  0.20700418D+03

 Singles contribution to E2=   -0.1255062673D-13
 Leave Link  801 at Mon Apr 16 12:48:22 2018, MaxMem= 21474836480 cpu:              33.4 elap:               1.1
 (Enter /home1/apps/gaussian/16rA.03/g16/l804.exe)
 Open-shell transformation, MDV= 21474836480 ITran=4 ISComp=2.
 Unit  1 TFree=       2054671 TCopy=       1760986.
 Semi-Direct transformation.
 ModeAB=           4 MOrb=            13 LenV=   21472811880
 LASXX=     26696010 LTotXX=    26696010 LenRXX=    53842329
 LTotAB=    27146319 MaxLAS=   160074720 LenRXY=           0
 NonZer=    80538339 LenScr=   121579520 LnRSAI=   160074720
 LnScr1=   241054720 LExtra=    16220943 Total=    592772232
 MaxDsk= 67108864000 SrtSym=           T ITran=            4
 DoSDTr:  NPSUse= 32
 JobTyp=1 Pass  1:  I=   1 to  13.
 (rs|ai) integrals will be sorted in core.
 Complete sort for first half transformation.
 First half transformation complete.
 Begin second half transformation for I=  10.
 Complete sort for second half transformation.
 Second half transformation complete.
 ModeAB=           4 MOrb=            13 LenV=   21472811880
 LASXX=     26696010 LTotXX=    26696010 LenRXX=    51138990
 LTotAB=    24442980 MaxLAS=   160074720 LenRXY=           0
 NonZer=    77835000 LenScr=   117514240 LnRSAI=   160074720
 LnScr1=   241054720 LExtra=    70063272 Total=    639845942
 MaxDsk= 67108864000 SrtSym=           T ITran=            4
 DoSDTr:  NPSUse= 32
 JobTyp=2 Pass  1:  I=   1 to  13.
 (rs|ai) integrals will be sorted in core.
 Complete sort for first half transformation.
 First half transformation complete.
 Begin second half transformation for I=  10.
 Complete sort for second half transformation.
 Second half transformation complete.
 Spin components of T(2) and E(2):
     alpha-alpha T2 =       0.3393059894D-01 E2=     -0.2177070211D+00
     alpha-beta  T2 =       0.1491665065D+00 E2=     -0.9226194131D+00
     beta-beta   T2 =       0.3393059894D-01 E2=     -0.2177070211D+00
 ANorm=    0.1103189786D+01
 E2 =    -0.1358033455D+01 EUMP2 =    -0.18702379762072D+04
 (S**2,0)=  0.00000D+00           (S**2,1)=  0.00000D+00
 E(PUHF)=      -0.18688799428D+04        E(PMP2)=      -0.18702379762D+04
 Leave Link  804 at Mon Apr 16 12:49:02 2018, MaxMem= 21474836480 cpu:            1271.7 elap:              39.9
 (Enter /home1/apps/gaussian/16rA.03/g16/l913.exe)
 CIDS:  MDV= 21474836480.
 Frozen-core window:  NFC=   6 NFV=   0.
 IFCWin=0 IBDFC=1 NFBD=     0     0 NFCmp=     0     0 NFFFC=     0     0
 Using original routines for 1st iteration.
 Using DD4UQ or CC4UQ for 2nd and later iterations.
 Keep R2 and R3 ints in memory in symmetry-blocked form, NReq=734620329.
 FoFCou: FMM=F IPFlag=           8 FMFlag=           0 FMFlg1=           0
         NFxFlg=           0 DoJE=F BraDBF=F KetDBF=F FulRan=T
         wScrn=  0.000000 ICntrl=       600 IOpCl=  0 I1Cent=           0 NGrid=           0
         NMat0=    1 NMatS0=  34191 NMatT0=    0 NMatD0=    1 NMtDS0=    0 NMtDT0=    0
 Petite list used in FoFCou.
 CIDS: In Core Option IDoMem=           1.
 CCSD(T)
 =======
 Iterations= 150 Convergence= 0.100D-06
 Produce multiple copies of IABC intergrals
 Iteration Nr.   1
 **********************
 DD1Dir will call FoFMem   1 times, MxPair=       494
 NAB=   169 NAA=    78 NBB=    78.
 DD1Dir will call FoFMem   1 times, MxPair=       494
 NAB=   169 NAA=    78 NBB=    78.
 MP4(R+Q)= -0.21813222D+00
 Maximum subspace dimension=  5
 A-vector RMS=  2.4669011D-05 Max=  1.6502920D-02 conv= 1.00D-05.
 RLE energy=       -1.3605503874
 E3=        0.21561994D+00        EROMP3=      -0.18700223563D+04
 E4(SDQ)=  -0.13295746D+00        ROMP4(SDQ)=  -0.18701553137D+04
 VARIATIONAL ENERGIES WITH THE FIRST-ORDER WAVEFUNCTION:
 DE(Corr)=  -1.3605457     E(Corr)=     -1870.2404885    
 NORM(A)=   0.10987584D+01
 Iteration Nr.   2
 **********************
 DD1Dir will call FoFMem   1 times, MxPair=       494
 NAB=   169 NAA=    78 NBB=    78.
 A-vector RMS=  4.7912478D-03 Max=  6.5603926D-02 conv= 1.00D-05.
 RLE energy=       -1.3088934740
 DE(Corr)=  -1.1367592     E(CORR)=     -1870.0167020     Delta= 2.24D-01
 NORM(A)=   0.10899882D+01
 Iteration Nr.   3
 **********************
 DD1Dir will call FoFMem   1 times, MxPair=       494
 NAB=   169 NAA=    78 NBB=    78.
 A-vector RMS=  3.1112674D-03 Max=  4.1947081D-02 conv= 1.00D-05.
 RLE energy=       -1.2681210692
 DE(Corr)=  -1.1613512     E(CORR)=     -1870.0412939     Delta=-2.46D-02
 NORM(A)=   0.10881028D+01
 Iteration Nr.   4
 **********************
 DD1Dir will call FoFMem   1 times, MxPair=       494
 NAB=   169 NAA=    78 NBB=    78.
 A-vector RMS=  2.5175766D-03 Max=  3.8387746D-02 conv= 1.00D-05.
 RLE energy=       -1.1769217669
 DE(Corr)=  -1.1826611     E(CORR)=     -1870.0626039     Delta=-2.13D-02
 NORM(A)=   0.10977793D+01
 Iteration Nr.   5
 **********************
 DD1Dir will call FoFMem   1 times, MxPair=       494
 NAB=   169 NAA=    78 NBB=    78.
 A-vector RMS=  1.4762120D-03 Max=  2.0545841D-02 conv= 1.00D-05.
 RLE energy=       -1.2283286993
 DE(Corr)=  -1.2403485     E(CORR)=     -1870.1202913     Delta=-5.77D-02
 NORM(A)=   0.10961671D+01
 Iteration Nr.   6
 **********************
 DD1Dir will call FoFMem   1 times, MxPair=       494
 NAB=   169 NAA=    78 NBB=    78.
 A-vector RMS=  6.1750739D-04 Max=  1.1472064D-02 conv= 1.00D-05.
 RLE energy=       -1.2175812678
 DE(Corr)=  -1.2103757     E(CORR)=     -1870.0903185     Delta= 3.00D-02
 NORM(A)=   0.10986296D+01
 Iteration Nr.   7
 **********************
 DD1Dir will call FoFMem   1 times, MxPair=       494
 NAB=   169 NAA=    78 NBB=    78.
 A-vector RMS=  9.0750396D-05 Max=  1.1444975D-03 conv= 1.00D-05.
 RLE energy=       -1.2171004681
 DE(Corr)=  -1.2170329     E(CORR)=     -1870.0969757     Delta=-6.66D-03
 NORM(A)=   0.10991666D+01
 Iteration Nr.   8
 **********************
 DD1Dir will call FoFMem   1 times, MxPair=       494
 NAB=   169 NAA=    78 NBB=    78.
 A-vector RMS=  5.9800326D-05 Max=  1.2719749D-03 conv= 1.00D-05.
 RLE energy=       -1.2171361689
 DE(Corr)=  -1.2172192     E(CORR)=     -1870.0971619     Delta=-1.86D-04
 NORM(A)=   0.10994808D+01
 Iteration Nr.   9
 **********************
 DD1Dir will call FoFMem   1 times, MxPair=       494
 NAB=   169 NAA=    78 NBB=    78.
 A-vector RMS=  3.0202916D-05 Max=  4.6661191D-04 conv= 1.00D-05.
 RLE energy=       -1.2171517582
 DE(Corr)=  -1.2170921     E(CORR)=     -1870.0970348     Delta= 1.27D-04
 NORM(A)=   0.10996556D+01
 Iteration Nr.  10
 **********************
 DD1Dir will call FoFMem   1 times, MxPair=       494
 NAB=   169 NAA=    78 NBB=    78.
 A-vector RMS=  1.6671699D-05 Max=  2.3927092D-04 conv= 1.00D-05.
 RLE energy=       -1.2170958382
 DE(Corr)=  -1.2171455     E(CORR)=     -1870.0970882     Delta=-5.34D-05
 NORM(A)=   0.10996487D+01
 Iteration Nr.  11
 **********************
 DD1Dir will call FoFMem   1 times, MxPair=       494
 NAB=   169 NAA=    78 NBB=    78.
 A-vector RMS=  5.6662437D-06 Max=  8.0747186D-05 conv= 1.00D-05.
 RLE energy=       -1.2171365234
 DE(Corr)=  -1.2171316     E(CORR)=     -1870.0970743     Delta= 1.39D-05
 NORM(A)=   0.10996301D+01
 Iteration Nr.  12
 **********************
 DD1Dir will call FoFMem   1 times, MxPair=       494
 NAB=   169 NAA=    78 NBB=    78.
 A-vector RMS=  2.3920253D-06 Max=  2.2334156D-05 conv= 1.00D-05.
 RLE energy=       -1.2171177702
 DE(Corr)=  -1.2171167     E(CORR)=     -1870.0970595     Delta= 1.49D-05
 NORM(A)=   0.10996336D+01
 Iteration Nr.  13
 **********************
 DD1Dir will call FoFMem   1 times, MxPair=       494
 NAB=   169 NAA=    78 NBB=    78.
 A-vector RMS=  2.0814915D-06 Max=  2.9064673D-05 conv= 1.00D-05.
 RLE energy=       -1.2171258539
 DE(Corr)=  -1.2171323     E(CORR)=     -1870.0970750     Delta=-1.56D-05
 NORM(A)=   0.10996310D+01
 Iteration Nr.  14
 **********************
 DD1Dir will call FoFMem   1 times, MxPair=       494
 NAB=   169 NAA=    78 NBB=    78.
 A-vector RMS=  8.4250081D-07 Max=  1.1567651D-05 conv= 1.00D-05.
 RLE energy=       -1.2171272426
 DE(Corr)=  -1.2171252     E(CORR)=     -1870.0970680     Delta= 7.05D-06
 NORM(A)=   0.10996334D+01
 Iteration Nr.  15
 **********************
 DD1Dir will call FoFMem   1 times, MxPair=       494
 NAB=   169 NAA=    78 NBB=    78.
 A-vector RMS=  2.9604161D-07 Max=  3.8585572D-06 conv= 1.00D-05.
 RLE energy=       -1.2171262020
 DE(Corr)=  -1.2171258     E(CORR)=     -1870.0970685     Delta=-5.53D-07
 NORM(A)=   0.10996344D+01
 Iteration Nr.  16
 **********************
 DD1Dir will call FoFMem   1 times, MxPair=       494
 NAB=   169 NAA=    78 NBB=    78.
 A-vector RMS=  1.5528514D-07 Max=  2.9246337D-06 conv= 1.00D-05.
 RLE energy=       -1.2171268437
 DE(Corr)=  -1.2171270     E(CORR)=     -1870.0970698     Delta=-1.24D-06
 NORM(A)=   0.10996346D+01
 Iteration Nr.  17
 **********************
 DD1Dir will call FoFMem   1 times, MxPair=       494
 NAB=   169 NAA=    78 NBB=    78.
 A-vector RMS=  1.1009578D-07 Max=  1.5825969D-06 conv= 1.00D-05.
 RLE energy=       -1.2171267728
 DE(Corr)=  -1.2171266     E(CORR)=     -1870.0970693     Delta= 4.62D-07
 NORM(A)=   0.10996350D+01
 Iteration Nr.  18
 **********************
 DD1Dir will call FoFMem   1 times, MxPair=       494
 NAB=   169 NAA=    78 NBB=    78.
 A-vector RMS=  3.5539961D-08 Max=  5.4240503D-07 conv= 1.00D-05.
 RLE energy=       -1.2171267636
 DE(Corr)=  -1.2171268     E(CORR)=     -1870.0970695     Delta=-2.23D-07
 NORM(A)=   0.10996352D+01
 Iteration Nr.  19
 **********************
 DD1Dir will call FoFMem   1 times, MxPair=       494
 NAB=   169 NAA=    78 NBB=    78.
 A-vector RMS=  2.9268679D-08 Max=  3.3365470D-07 conv= 1.00D-05.
 RLE energy=       -1.2171268360
 DE(Corr)=  -1.2171269     E(CORR)=     -1870.0970696     Delta=-7.37D-08
 NORM(A)=   0.10996352D+01
 CI/CC converged in   19 iterations to DelEn=-7.37D-08 Conv= 1.00D-07 ErrA1= 2.93D-08 Conv= 1.00D-05
 Wavefunction amplitudes converged. E(Corr)=     -1870.0970696    
 Largest amplitude= 7.73D-02
 Time for triples=    42533.65 seconds.
 T4(CCSD)= -0.56240588D-01
 T5(CCSD)=  0.86422113D-02
 CCSD(T)= -0.18701446680D+04
 Discarding MO integrals.
 Leave Link  913 at Mon Apr 16 13:15:04 2018, MaxMem= 21474836480 cpu:           48964.6 elap:            1561.2
 (Enter /home1/apps/gaussian/16rA.03/g16/l601.exe)
 Copying SCF densities to generalized density rwf, IOpCl= 0 IROHF=1.

 **********************************************************************

            Population analysis using the SCF density.

 **********************************************************************

 Orbital symmetries:
       Occupied  (SG) (SG) (SG) (PI) (PI) (SG) (SG) (SG) (PI) (PI)
                 (SG) (PI) (PI) (DLTA) (DLTA) (SG) (PI) (PI) (SG)
       Virtual   (SG) (PI) (PI) (SG) (SG) (PI) (PI) (SG) (SG) (SG)
                 (PI) (PI) (DLTA) (DLTA) (PI) (PI) (SG) (PI) (PI)
                 (SG) (SG) (SG) (DLTA) (DLTA) (PI) (PI) (SG) (DLTA)
                 (DLTA) (PI) (PI) (SG) (PI) (PI) (SG) (PI) (PI)
                 (SG) (PHI) (PHI) (DLTA) (DLTA) (SG) (PI) (PI)
                 (PHI) (PHI) (SG) (DLTA) (DLTA) (SG) (SG) (PI)
                 (PI) (DLTA) (DLTA) (PI) (PI) (DLTA) (DLTA) (SG)
                 (PI) (PI) (SG) (PI) (PI) (SG) (PI) (PI) (SG) (PI)
                 (PI) (PHI) (PHI) (DLTA) (DLTA) (SG) (SG) (PHI)
                 (PHI) (DLTA) (DLTA) (PI) (PI) (SG) (SG) (DLTA)
                 (DLTA) (DLTA) (DLTA) (PI) (PI) (PI) (PI) (?A)
                 (?A) (PHI) (PHI) (DLTA) (DLTA) (SG) (SG) (PI)
                 (PI) (PI) (PI) (SG) (SG) (PHI) (PHI) (DLTA) (DLTA)
                 (PI) (PI) (SG) (PI) (PI) (SG) (DLTA) (DLTA) (PI)
                 (PI) (SG) (SG) (PI) (PI) (SG) (SG) (?A) (?A) (PHI)
                 (PHI) (DLTA) (DLTA) (PI) (PI) (SG) (DLTA) (DLTA)
                 (PI) (PI) (SG) (PHI) (PHI) (DLTA) (DLTA) (PI)
                 (PI) (PI) (PI) (SG) (SG) (SG) (SG) (PI) (PI) (DLTA)
                 (DLTA) (PI) (PI) (SG) (SG) (?A) (?A) (PHI) (PHI)
                 (DLTA) (DLTA) (PI) (PI) (SG) (DLTA) (DLTA) (PI)
                 (PI) (SG) (PI) (PI) (SG) (SG) (SG) (DLTA) (DLTA)
                 (PI) (PI) (SG) (PI) (PI) (SG) (PI) (PI) (SG) (SG)
                 (SG) (DLTA) (DLTA) (PI) (PI) (SG) (PI) (PI) (SG)
                 (PI) (PI) (SG) (SG) (SG) (PI) (PI) (SG) (DLTA)
                 (DLTA) (PI) (PI) (SG) (PI) (PI) (SG) (SG) (SG)
                 (PI) (PI) (SG) (SG) (SG) (PI) (PI) (SG) (SG) (SG)
                 (PI) (PI) (SG) (SG) (SG) (PI) (PI) (SG) (SG) (SG)
                 (SG) (SG)
 The electronic state is 1-SG.
 Alpha  occ. eigenvalues -- -357.62854 -45.41326 -39.21360 -39.21290 -39.21290
 Alpha  occ. eigenvalues --  -20.51416  -5.89116  -3.98983  -3.95703  -3.95703
 Alpha  occ. eigenvalues --   -1.28016  -0.89042  -0.89042  -0.83608  -0.83608
 Alpha  occ. eigenvalues --   -0.79892  -0.43140  -0.43140  -0.39094
 Alpha virt. eigenvalues --   -0.02355   0.03126   0.03126   0.03594   0.04405
 Alpha virt. eigenvalues --    0.10458   0.10458   0.13668   0.18894   0.21362
 Alpha virt. eigenvalues --    0.22667   0.22667   0.25455   0.25455   0.30694
 Alpha virt. eigenvalues --    0.30694   0.31903   0.37737   0.37737   0.39678
 Alpha virt. eigenvalues --    0.63148   0.66744   0.76423   0.76423   0.85406
 Alpha virt. eigenvalues --    0.85406   0.87307   0.90427   0.90427   1.00454
 Alpha virt. eigenvalues --    1.00454   1.03224   1.11729   1.11729   1.17865
 Alpha virt. eigenvalues --    1.22112   1.22112   1.51957   1.80294   1.80294
 Alpha virt. eigenvalues --    1.88776   1.88776   1.91500   2.09286   2.09286
 Alpha virt. eigenvalues --    2.23002   2.23002   2.26895   2.29846   2.29846
 Alpha virt. eigenvalues --    2.49137   2.52805   2.59519   2.59519   2.59685
 Alpha virt. eigenvalues --    2.59685   2.65237   2.65237   2.85680   2.85680
 Alpha virt. eigenvalues --    3.22501   3.39486   3.39486   3.44033   3.52444
 Alpha virt. eigenvalues --    3.52444   4.26149   4.37928   4.37928   4.93469
 Alpha virt. eigenvalues --    5.33877   5.33877   5.34004   5.34004   5.39495
 Alpha virt. eigenvalues --    5.39495   5.43469   5.92002   6.56413   6.56413
 Alpha virt. eigenvalues --    6.57627   6.57627   6.72541   6.72541   6.92328
 Alpha virt. eigenvalues --    7.08909   7.12661   7.12661   7.18190   7.18190
 Alpha virt. eigenvalues --    7.43293   7.43293   7.59051   7.59051   7.73756
 Alpha virt. eigenvalues --    7.73756   7.74853   7.74853   8.07668   8.07668
 Alpha virt. eigenvalues --    8.35391   8.76885   8.79359   8.79359   9.18248
 Alpha virt. eigenvalues --    9.18248   9.34795  10.37961  13.73020  13.73020
 Alpha virt. eigenvalues --   13.82602  13.82602  14.04996  14.04996  14.71739
 Alpha virt. eigenvalues --   14.73782  14.73782  15.58891  15.80759  15.80759
 Alpha virt. eigenvalues --   16.00777  16.00777  16.20075  16.77667  18.61439
 Alpha virt. eigenvalues --   18.61439  18.95473  19.57667  20.15017  20.15017
 Alpha virt. eigenvalues --   20.15677  20.15677  20.28047  20.28047  20.78633
 Alpha virt. eigenvalues --   20.78633  21.23389  30.72568  30.72568  30.90087
 Alpha virt. eigenvalues --   30.90087  31.20283  35.89965  35.89965  35.96702
 Alpha virt. eigenvalues --   35.96702  36.00013  36.00013  36.15789  36.15789
 Alpha virt. eigenvalues --   36.26622  36.83573  39.98546  40.82363  43.76117
 Alpha virt. eigenvalues --   43.76117  43.93207  43.93207  44.13352  44.13352
 Alpha virt. eigenvalues --   44.32969  45.00377  47.14547  47.14547  47.15358
 Alpha virt. eigenvalues --   47.15358  47.23153  47.23153  47.55036  47.55036
 Alpha virt. eigenvalues --   47.91489  55.36070  55.36070  55.53626  55.53626
 Alpha virt. eigenvalues --   55.87529  66.74744  66.74744  67.31010  81.77414
 Alpha virt. eigenvalues --   88.33846  99.52265  99.52265  99.68199  99.68199
 Alpha virt. eigenvalues --   99.96204 113.58201 113.58201 114.52436 121.21838
 Alpha virt. eigenvalues --  121.21838 121.76233 178.96474 180.83051 212.92315
 Alpha virt. eigenvalues --  212.92315 213.05391 213.05391 213.27840 229.02394
 Alpha virt. eigenvalues --  229.02394 229.52550 261.78481 261.78481 262.62417
 Alpha virt. eigenvalues --  414.77658 429.65158 466.66231 466.66231 467.10966
 Alpha virt. eigenvalues --  640.26290 640.26290 640.34729 640.34729 640.49137
 Alpha virt. eigenvalues -- 1015.236641015.236641015.617731058.918811220.31349
 Alpha virt. eigenvalues -- 2313.149832313.149832313.461472546.856904466.82769
 Alpha virt. eigenvalues -- 5450.493535450.493535450.722635873.80193**********
 Alpha virt. eigenvalues -- **************************************************
 Alpha virt. eigenvalues -- **************************************************
 Alpha virt. eigenvalues -- ********************
     Molecular Orbital Coefficients:
                          15        16        17        18        19
                           O         O         O         O         O
     Eigenvalues --    -0.83608  -0.79892  -0.43140  -0.43140  -0.39094
   1 1   Zn 1S          0.00000   0.00000   0.00000   0.00000  -0.00000
   2        2S          0.00000   0.00000   0.00000   0.00000  -0.00001
   3        3S          0.00000   0.00001   0.00000   0.00000  -0.00003
   4        4S          0.00000   0.00001   0.00000   0.00000  -0.00009
   5        5S          0.00000   0.00003   0.00000   0.00000  -0.00022
   6        6S          0.00000   0.00008   0.00000   0.00000  -0.00057
   7        7S          0.00000   0.00021   0.00000   0.00000  -0.00144
   8        8S          0.00000   0.00054   0.00000   0.00000  -0.00357
   9        9S          0.00000   0.00112   0.00000   0.00000  -0.00781
  10       10S          0.00000   0.00223   0.00000   0.00000  -0.01450
  11       11S          0.00000   0.00214   0.00000   0.00000  -0.01607
  12       12S          0.00000  -0.00014   0.00000   0.00000   0.00570
  13       13S          0.00000  -0.01378   0.00000   0.00000   0.07620
  14       14S          0.00000   0.00019   0.00000   0.00000   0.08936
  15       15S          0.00000   0.04970   0.00000   0.00000  -0.09560
  16       16S          0.00000  -0.08593   0.00000   0.00000  -0.02245
  17       17S          0.00000   0.01915   0.00000   0.00000  -0.14282
  18       18S          0.00000  -0.12323   0.00000   0.00000   0.32575
  19       19S          0.00000   0.00151   0.00000   0.00000   0.23858
  20       20S          0.00000  -0.00634   0.00000   0.00000   0.04477
  21       21S          0.00000  -0.03523   0.00000   0.00000   0.03174
  22       22S          0.00000   0.11631   0.00000   0.00000  -0.23130
  23       23S          0.00000   0.00219   0.00000   0.00000   0.00017
  24       24PX         0.00000   0.00000   0.00001   0.00000   0.00000
  25       24PY         0.00000   0.00000   0.00000   0.00001   0.00000
  26       24PZ         0.00000   0.00000   0.00000   0.00000  -0.00000
  27       25PX         0.00000   0.00000   0.00002   0.00000   0.00000
  28       25PY         0.00000   0.00000   0.00000   0.00002   0.00000
  29       25PZ         0.00000   0.00000   0.00000   0.00000  -0.00002
  30       26PX         0.00000   0.00000   0.00011   0.00000   0.00000
  31       26PY         0.00000   0.00000   0.00000   0.00011   0.00000
  32       26PZ         0.00000   0.00001   0.00000   0.00000  -0.00008
  33       27PX         0.00000   0.00000   0.00043   0.00000   0.00000
  34       27PY         0.00000   0.00000   0.00000   0.00043   0.00000
  35       27PZ         0.00000   0.00003   0.00000   0.00000  -0.00032
  36       28PX         0.00000   0.00000   0.00144   0.00000   0.00000
  37       28PY         0.00000   0.00000   0.00000   0.00144   0.00000
  38       28PZ         0.00000   0.00013   0.00000   0.00000  -0.00106
  39       29PX         0.00000   0.00000   0.00415   0.00000   0.00000
  40       29PY         0.00000   0.00000   0.00000   0.00415   0.00000
  41       29PZ         0.00000   0.00031   0.00000   0.00000  -0.00308
  42       30PX         0.00000   0.00000   0.00938   0.00000   0.00000
  43       30PY         0.00000   0.00000   0.00000   0.00938   0.00000
  44       30PZ         0.00000   0.00087   0.00000   0.00000  -0.00690
  45       31PX         0.00000   0.00000   0.01588   0.00000   0.00000
  46       31PY         0.00000   0.00000   0.00000   0.01588   0.00000
  47       31PZ         0.00000   0.00090   0.00000   0.00000  -0.01185
  48       32PX         0.00000   0.00000   0.01476   0.00000   0.00000
  49       32PY         0.00000   0.00000   0.00000   0.01476   0.00000
  50       32PZ         0.00000   0.00318   0.00000   0.00000  -0.01030
  51       33PX         0.00000   0.00000  -0.01149   0.00000   0.00000
  52       33PY         0.00000   0.00000   0.00000  -0.01149   0.00000
  53       33PZ         0.00000   0.01452   0.00000   0.00000   0.01321
  54       34PX         0.00000   0.00000  -0.04235   0.00000   0.00000
  55       34PY         0.00000   0.00000   0.00000  -0.04235   0.00000
  56       34PZ         0.00000  -0.01104   0.00000   0.00000   0.02881
  57       35PX         0.00000   0.00000  -0.05806   0.00000   0.00000
  58       35PY         0.00000   0.00000   0.00000  -0.05806   0.00000
  59       35PZ         0.00000  -0.01387   0.00000   0.00000   0.05619
  60       36PX         0.00000   0.00000  -0.03468   0.00000   0.00000
  61       36PY         0.00000   0.00000   0.00000  -0.03468   0.00000
  62       36PZ         0.00000  -0.01894   0.00000   0.00000   0.01684
  63       37PX         0.00000   0.00000   0.06585   0.00000   0.00000
  64       37PY         0.00000   0.00000   0.00000   0.06585   0.00000
  65       37PZ         0.00000   0.02942   0.00000   0.00000  -0.02587
  66       38PX         0.00000   0.00000   0.09519   0.00000   0.00000
  67       38PY         0.00000   0.00000   0.00000   0.09519   0.00000
  68       38PZ         0.00000   0.00084   0.00000   0.00000   0.05040
  69       39PX         0.00000   0.00000   0.01836   0.00000   0.00000
  70       39PY         0.00000   0.00000   0.00000   0.01836   0.00000
  71       39PZ         0.00000  -0.00424   0.00000   0.00000   0.03176
  72       40PX         0.00000   0.00000   0.00384   0.00000   0.00000
  73       40PY         0.00000   0.00000   0.00000   0.00384   0.00000
  74       40PZ         0.00000  -0.01325   0.00000   0.00000  -0.00699
  75       41PX         0.00000   0.00000  -0.00391   0.00000   0.00000
  76       41PY         0.00000   0.00000   0.00000  -0.00391   0.00000
  77       41PZ         0.00000   0.01865   0.00000   0.00000  -0.00416
  78       42PX         0.00000   0.00000  -0.00454   0.00000   0.00000
  79       42PY         0.00000   0.00000   0.00000  -0.00454   0.00000
  80       42PZ         0.00000   0.00079   0.00000   0.00000  -0.00504
  81       43D 0        0.00000   0.00206   0.00000   0.00000  -0.00060
  82       43D+1        0.00000   0.00000   0.00083   0.00000   0.00000
  83       43D-1        0.00000   0.00000   0.00000   0.00083   0.00000
  84       43D+2        0.00000   0.00000   0.00000   0.00000   0.00000
  85       43D-2        0.00248   0.00000   0.00000   0.00000   0.00000
  86       44D 0        0.00000   0.01581   0.00000   0.00000  -0.00451
  87       44D+1        0.00000   0.00000   0.00634   0.00000   0.00000
  88       44D-1        0.00000   0.00000   0.00000   0.00634   0.00000
  89       44D+2        0.00000   0.00000   0.00000   0.00000   0.00000
  90       44D-2        0.01886   0.00000   0.00000   0.00000   0.00000
  91       45D 0        0.00000   0.06432   0.00000   0.00000  -0.01869
  92       45D+1        0.00000   0.00000   0.02592   0.00000   0.00000
  93       45D-1        0.00000   0.00000   0.00000   0.02592   0.00000
  94       45D+2        0.00000   0.00000   0.00000   0.00000   0.00000
  95       45D-2        0.07753   0.00000   0.00000   0.00000   0.00000
  96       46D 0        0.00000   0.17681   0.00000   0.00000  -0.04591
  97       46D+1        0.00000   0.00000   0.06942   0.00000   0.00000
  98       46D-1        0.00000   0.00000   0.00000   0.06942   0.00000
  99       46D+2        0.00000   0.00000   0.00000   0.00000   0.00000
 100       46D-2        0.19993   0.00000   0.00000   0.00000   0.00000
 101       47D 0        0.00000   0.44081   0.00000   0.00000  -0.02456
 102       47D+1        0.00000   0.00000   0.14310   0.00000   0.00000
 103       47D-1        0.00000   0.00000   0.00000   0.14310   0.00000
 104       47D+2        0.00000   0.00000   0.00000   0.00000  -0.00000
 105       47D-2        0.29798   0.00000   0.00000   0.00000   0.00000
 106       48D 0        0.00000   0.31867   0.00000   0.00000  -0.08414
 107       48D+1        0.00000   0.00000   0.12320   0.00000   0.00000
 108       48D-1        0.00000   0.00000   0.00000   0.12320   0.00000
 109       48D+2        0.00000   0.00000   0.00000   0.00000   0.00000
 110       48D-2        0.36082   0.00000   0.00000   0.00000   0.00000
 111       49D 0        0.00000   0.22612   0.00000   0.00000  -0.06218
 112       49D+1        0.00000   0.00000   0.07432   0.00000   0.00000
 113       49D-1        0.00000   0.00000   0.00000   0.07432   0.00000
 114       49D+2        0.00000   0.00000   0.00000   0.00000   0.00000
 115       49D-2        0.27165   0.00000   0.00000   0.00000   0.00000
 116       50D 0        0.00000   0.08065   0.00000   0.00000  -0.03940
 117       50D+1        0.00000   0.00000   0.03504   0.00000   0.00000
 118       50D-1        0.00000   0.00000   0.00000   0.03504   0.00000
 119       50D+2        0.00000   0.00000   0.00000   0.00000   0.00000
 120       50D-2        0.09714   0.00000   0.00000   0.00000   0.00000
 121       51D 0        0.00000  -0.01469   0.00000   0.00000  -0.00503
 122       51D+1        0.00000   0.00000  -0.00277   0.00000   0.00000
 123       51D-1        0.00000   0.00000   0.00000  -0.00277   0.00000
 124       51D+2        0.00000   0.00000   0.00000   0.00000   0.00000
 125       51D-2        0.00414   0.00000   0.00000   0.00000   0.00000
 126       52D 0        0.00000  -0.16393   0.00000   0.00000  -0.05407
 127       52D+1        0.00000   0.00000  -0.03289   0.00000   0.00000
 128       52D-1        0.00000   0.00000   0.00000  -0.03289   0.00000
 129       52D+2        0.00000   0.00000   0.00000   0.00000   0.00000
 130       52D-2        0.03154   0.00000   0.00000   0.00000   0.00000
 131       53D 0        0.00000   0.00626   0.00000   0.00000  -0.02746
 132       53D+1        0.00000   0.00000   0.00903   0.00000   0.00000
 133       53D-1        0.00000   0.00000   0.00000   0.00903   0.00000
 134       53D+2        0.00000   0.00000   0.00000   0.00000   0.00000
 135       53D-2        0.00390   0.00000   0.00000   0.00000   0.00000
 136       54F 0        0.00000   0.00003   0.00000   0.00000  -0.00058
 137       54F+1        0.00000   0.00000   0.00050   0.00000   0.00000
 138       54F-1        0.00000   0.00000   0.00000   0.00050   0.00000
 139       54F+2        0.00000   0.00000   0.00000   0.00000  -0.00000
 140       54F-2        0.00029   0.00000   0.00000   0.00000   0.00000
 141       54F+3        0.00000   0.00000  -0.00000   0.00000   0.00000
 142       54F-3        0.00000   0.00000   0.00000  -0.00000   0.00000
 143       55F 0        0.00000   0.00116   0.00000   0.00000  -0.00130
 144       55F+1        0.00000   0.00000   0.00146   0.00000   0.00000
 145       55F-1        0.00000   0.00000   0.00000   0.00146   0.00000
 146       55F+2        0.00000   0.00000   0.00000   0.00000  -0.00000
 147       55F-2        0.00095   0.00000   0.00000   0.00000   0.00000
 148       55F+3        0.00000   0.00000  -0.00000   0.00000   0.00000
 149       55F-3        0.00000   0.00000   0.00000  -0.00000   0.00000
 150       56F 0        0.00000  -0.00387   0.00000   0.00000  -0.00666
 151       56F+1        0.00000   0.00000   0.00619   0.00000   0.00000
 152       56F-1        0.00000   0.00000   0.00000   0.00619   0.00000
 153       56F+2        0.00000   0.00000   0.00000   0.00000  -0.00000
 154       56F-2        0.00124   0.00000   0.00000   0.00000   0.00000
 155       56F+3        0.00000   0.00000   0.00000   0.00000   0.00000
 156       56F-3        0.00000   0.00000   0.00000  -0.00000   0.00000
 157       57F 0        0.00000   0.00891   0.00000   0.00000  -0.00728
 158       57F+1        0.00000   0.00000   0.01460   0.00000   0.00000
 159       57F-1        0.00000   0.00000   0.00000   0.01460   0.00000
 160       57F+2        0.00000   0.00000   0.00000   0.00000  -0.00000
 161       57F-2        0.00541   0.00000   0.00000   0.00000   0.00000
 162       57F+3        0.00000   0.00000   0.00000   0.00000   0.00000
 163       57F-3        0.00000   0.00000   0.00000   0.00000   0.00000
 164       58G 0        0.00000   0.00023   0.00000   0.00000   0.00011
 165       58G+1        0.00000   0.00000  -0.00014   0.00000   0.00000
 166       58G-1        0.00000   0.00000   0.00000  -0.00014   0.00000
 167       58G+2        0.00000   0.00000   0.00000   0.00000   0.00000
 168       58G-2        0.00013   0.00000   0.00000   0.00000   0.00000
 169       58G+3        0.00000   0.00000  -0.00000   0.00000   0.00000
 170       58G-3        0.00000   0.00000   0.00000  -0.00000   0.00000
 171       58G+4        0.00000  -0.00000   0.00000   0.00000   0.00000
 172       58G-4       -0.00000   0.00000   0.00000   0.00000   0.00000
 173       59G 0        0.00000  -0.00056   0.00000   0.00000  -0.00036
 174       59G+1        0.00000   0.00000   0.00041   0.00000   0.00000
 175       59G-1        0.00000   0.00000   0.00000   0.00041   0.00000
 176       59G+2        0.00000  -0.00000   0.00000   0.00000   0.00000
 177       59G-2       -0.00014   0.00000   0.00000   0.00000   0.00000
 178       59G+3        0.00000   0.00000   0.00000   0.00000   0.00000
 179       59G-3        0.00000   0.00000   0.00000   0.00000   0.00000
 180       59G+4        0.00000   0.00000   0.00000   0.00000  -0.00000
 181       59G-4       -0.00000   0.00000   0.00000   0.00000   0.00000
 182       60G 0        0.00000   0.00399   0.00000   0.00000   0.00176
 183       60G+1        0.00000   0.00000  -0.00177   0.00000   0.00000
 184       60G-1        0.00000   0.00000   0.00000  -0.00177   0.00000
 185       60G+2        0.00000   0.00000   0.00000   0.00000   0.00000
 186       60G-2        0.00155   0.00000   0.00000   0.00000   0.00000
 187       60G+3        0.00000   0.00000  -0.00000   0.00000   0.00000
 188       60G-3        0.00000   0.00000   0.00000  -0.00000   0.00000
 189       60G+4        0.00000   0.00000   0.00000   0.00000   0.00000
 190       60G-4        0.00000   0.00000   0.00000   0.00000   0.00000
 191 2   O  1S          0.00000   0.00006   0.00000   0.00000   0.00003
 192        2S          0.00000   0.00033   0.00000   0.00000   0.00015
 193        3S          0.00000   0.00164   0.00000   0.00000   0.00074
 194        4S          0.00000   0.00651   0.00000   0.00000   0.00292
 195        5S          0.00000   0.02018   0.00000   0.00000   0.00927
 196        6S          0.00000   0.04409   0.00000   0.00000   0.02311
 197        7S          0.00000   0.05140   0.00000   0.00000   0.02887
 198        8S          0.00000  -0.20649   0.00000   0.00000  -0.10339
 199        9S          0.00000  -0.05291   0.00000   0.00000  -0.02976
 200       10S          0.00000  -0.21903   0.00000   0.00000  -0.11473
 201       11S          0.00000   0.00918   0.00000   0.00000  -0.00138
 202       12S          0.00000   0.00174   0.00000   0.00000  -0.00124
 203       13S          0.00000  -0.03973   0.00000   0.00000  -0.00917
 204       14PX         0.00000   0.00000   0.00721   0.00000   0.00000
 205       14PY         0.00000   0.00000   0.00000   0.00721   0.00000
 206       14PZ         0.00000   0.00229   0.00000   0.00000   0.00559
 207       15PX         0.00000   0.00000   0.07809   0.00000   0.00000
 208       15PY         0.00000   0.00000   0.00000   0.07809   0.00000
 209       15PZ         0.00000   0.02855   0.00000   0.00000   0.06154
 210       16PX         0.00000   0.00000   0.25839   0.00000   0.00000
 211       16PY         0.00000   0.00000   0.00000   0.25839   0.00000
 212       16PZ         0.00000   0.10389   0.00000   0.00000   0.20679
 213       17PX         0.00000   0.00000   0.41575   0.00000   0.00000
 214       17PY         0.00000   0.00000   0.00000   0.41575   0.00000
 215       17PZ         0.00000   0.15015   0.00000   0.00000   0.32716
 216       18PX         0.00000   0.00000   0.35643   0.00000   0.00000
 217       18PY         0.00000   0.00000   0.00000   0.35643   0.00000
 218       18PZ         0.00000   0.06201   0.00000   0.00000   0.26698
 219       19PX         0.00000   0.00000   0.00732   0.00000   0.00000
 220       19PY         0.00000   0.00000   0.00000   0.00732   0.00000
 221       19PZ         0.00000   0.00418   0.00000   0.00000   0.00623
 222       20PX         0.00000   0.00000   0.00323   0.00000   0.00000
 223       20PY         0.00000   0.00000   0.00000   0.00323   0.00000
 224       20PZ         0.00000   0.00147   0.00000   0.00000   0.00264
 225       21PX         0.00000   0.00000   0.05763   0.00000   0.00000
 226       21PY         0.00000   0.00000   0.00000   0.05763   0.00000
 227       21PZ         0.00000  -0.00208   0.00000   0.00000   0.04896
 228       22D 0        0.00000   0.01136   0.00000   0.00000   0.00382
 229       22D+1        0.00000   0.00000   0.00610   0.00000   0.00000
 230       22D-1        0.00000   0.00000   0.00000   0.00610   0.00000
 231       22D+2        0.00000   0.00000   0.00000   0.00000   0.00000
 232       22D-2        0.00146   0.00000   0.00000   0.00000   0.00000
 233       23D 0        0.00000   0.01919   0.00000   0.00000   0.01197
 234       23D+1        0.00000   0.00000   0.02539   0.00000   0.00000
 235       23D-1        0.00000   0.00000   0.00000   0.02539   0.00000
 236       23D+2        0.00000   0.00000   0.00000   0.00000   0.00000
 237       23D-2        0.00540   0.00000   0.00000   0.00000   0.00000
 238       24D 0        0.00000   0.00040   0.00000   0.00000   0.00014
 239       24D+1        0.00000   0.00000   0.00024   0.00000   0.00000
 240       24D-1        0.00000   0.00000   0.00000   0.00024   0.00000
 241       24D+2        0.00000   0.00000   0.00000   0.00000   0.00000
 242       24D-2        0.00007   0.00000   0.00000   0.00000   0.00000
 243       25D 0        0.00000   0.00290   0.00000   0.00000   0.01077
 244       25D+1        0.00000   0.00000   0.02807   0.00000   0.00000
 245       25D-1        0.00000   0.00000   0.00000   0.02807   0.00000
 246       25D+2        0.00000  -0.00000   0.00000   0.00000   0.00000
 247       25D-2       -0.00142   0.00000   0.00000   0.00000   0.00000
 248       26F 0        0.00000   0.00607   0.00000   0.00000   0.00115
 249       26F+1        0.00000   0.00000   0.00390   0.00000   0.00000
 250       26F-1        0.00000   0.00000   0.00000   0.00390   0.00000
 251       26F+2        0.00000   0.00000   0.00000   0.00000   0.00000
 252       26F-2        0.00174   0.00000   0.00000   0.00000   0.00000
 253       26F+3        0.00000   0.00000  -0.00000   0.00000   0.00000
 254       26F-3        0.00000   0.00000   0.00000  -0.00000   0.00000
 255       27F 0        0.00000   0.00095   0.00000   0.00000   0.00279
 256       27F+1        0.00000   0.00000   0.00506   0.00000   0.00000
 257       27F-1        0.00000   0.00000   0.00000   0.00506   0.00000
 258       27F+2        0.00000  -0.00000   0.00000   0.00000   0.00000
 259       27F-2        0.00124   0.00000   0.00000   0.00000   0.00000
 260       27F+3        0.00000   0.00000  -0.00000   0.00000   0.00000
 261       27F-3        0.00000   0.00000   0.00000  -0.00000   0.00000
                          20        21        22        23        24
                           V         V         V         V         V
     Eigenvalues --    -0.02355   0.03126   0.03126   0.03594   0.04405
   1 1   Zn 1S         -0.00000   0.00000   0.00000  -0.00000   0.00000
   2        2S         -0.00000   0.00000   0.00000  -0.00000   0.00000
   3        3S         -0.00000   0.00000   0.00000  -0.00001   0.00000
   4        4S         -0.00001   0.00000   0.00000  -0.00001   0.00000
   5        5S         -0.00002   0.00000   0.00000  -0.00003   0.00001
   6        6S         -0.00004   0.00000   0.00000  -0.00008   0.00003
   7        7S         -0.00011   0.00000   0.00000  -0.00022   0.00006
   8        8S         -0.00027   0.00000   0.00000  -0.00049   0.00016
   9        9S         -0.00060   0.00000   0.00000  -0.00125   0.00029
  10       10S         -0.00106   0.00000   0.00000  -0.00187   0.00072
  11       11S         -0.00127   0.00000   0.00000  -0.00307   0.00040
  12       12S          0.00063   0.00000   0.00000   0.00297   0.00063
  13       13S          0.00491   0.00000   0.00000   0.00397  -0.00617
  14       14S          0.01105   0.00000   0.00000   0.05517   0.01371
  15       15S          0.00836   0.00000   0.00000   0.10300   0.05413
  16       16S         -0.08397   0.00000   0.00000  -0.44811  -0.18935
  17       17S         -0.03986   0.00000   0.00000  -0.15482  -0.02151
  18       18S         -0.08807   0.00000   0.00000   0.64851  -0.62109
  19       19S          0.33959   0.00000   0.00000  -0.79782  -1.59810
  20       20S          0.00964   0.00000   0.00000   1.87347  -3.21037
  21       21S         -0.00864   0.00000   0.00000  -0.09203  -0.04209
  22       22S          0.07917   0.00000   0.00000   0.44092   0.20776
  23       23S          0.54720   0.00000   0.00000  -1.53769   2.12724
  24       24PX         0.00000   0.00000   0.00000   0.00000   0.00000
  25       24PY         0.00000   0.00000   0.00000   0.00000   0.00000
  26       24PZ         0.00001   0.00000   0.00000   0.00000  -0.00000
  27       25PX         0.00000   0.00000   0.00000   0.00000   0.00000
  28       25PY         0.00000   0.00000   0.00000   0.00000   0.00000
  29       25PZ         0.00003   0.00000   0.00000   0.00002  -0.00001
  30       26PX         0.00000   0.00000   0.00002   0.00000   0.00000
  31       26PY         0.00000   0.00002   0.00000   0.00000   0.00000
  32       26PZ         0.00014   0.00000   0.00000   0.00009  -0.00002
  33       27PX         0.00000   0.00000   0.00005   0.00000   0.00000
  34       27PY         0.00000   0.00005   0.00000   0.00000   0.00000
  35       27PZ         0.00053   0.00000   0.00000   0.00035  -0.00009
  36       28PX         0.00000   0.00000   0.00024   0.00000   0.00000
  37       28PY         0.00000   0.00024   0.00000   0.00000   0.00000
  38       28PZ         0.00179   0.00000   0.00000   0.00119  -0.00031
  39       29PX         0.00000   0.00000   0.00048   0.00000   0.00000
  40       29PY         0.00000   0.00048   0.00000   0.00000   0.00000
  41       29PZ         0.00518   0.00000   0.00000   0.00343  -0.00090
  42       30PX         0.00000   0.00000   0.00169   0.00000   0.00000
  43       30PY         0.00000   0.00169   0.00000   0.00000   0.00000
  44       30PZ         0.01159   0.00000   0.00000   0.00775  -0.00205
  45       31PX         0.00000   0.00000   0.00102   0.00000   0.00000
  46       31PY         0.00000   0.00102   0.00000   0.00000   0.00000
  47       31PZ         0.01998   0.00000   0.00000   0.01315  -0.00340
  48       32PX         0.00000   0.00000   0.00841   0.00000   0.00000
  49       32PY         0.00000   0.00841   0.00000   0.00000   0.00000
  50       32PZ         0.01711   0.00000   0.00000   0.01211  -0.00342
  51       33PX         0.00000   0.00000   0.04816   0.00000   0.00000
  52       33PY         0.00000   0.04816   0.00000   0.00000   0.00000
  53       33PZ        -0.02424   0.00000   0.00000  -0.01060   0.00093
  54       34PX         0.00000   0.00000  -0.03832   0.00000   0.00000
  55       34PY         0.00000  -0.03832   0.00000   0.00000   0.00000
  56       34PZ        -0.04604   0.00000   0.00000  -0.03399   0.01015
  57       35PX         0.00000   0.00000  -0.20643   0.00000   0.00000
  58       35PY         0.00000  -0.20643   0.00000   0.00000   0.00000
  59       35PZ        -0.03996   0.00000   0.00000  -0.04549   0.02379
  60       36PX         0.00000   0.00000   0.02641   0.00000   0.00000
  61       36PY         0.00000   0.02641   0.00000   0.00000   0.00000
  62       36PZ        -0.05039   0.00000   0.00000  -0.02010  -0.00729
  63       37PX         0.00000   0.00000  -0.02145   0.00000   0.00000
  64       37PY         0.00000  -0.02145   0.00000   0.00000   0.00000
  65       37PZ         0.09301   0.00000   0.00000  -0.06233   0.16449
  66       38PX         0.00000   0.00000   0.18276   0.00000   0.00000
  67       38PY         0.00000   0.18276   0.00000   0.00000   0.00000
  68       38PZ         0.17718   0.00000   0.00000   0.02134   0.68398
  69       39PX         0.00000   0.00000  -0.06730   0.00000   0.00000
  70       39PY         0.00000  -0.06730   0.00000   0.00000   0.00000
  71       39PZ         0.30250   0.00000   0.00000   0.67740   1.06902
  72       40PX         0.00000   0.00000  -0.04338   0.00000   0.00000
  73       40PY         0.00000  -0.04338   0.00000   0.00000   0.00000
  74       40PZ         0.01357   0.00000   0.00000   0.00408   0.00057
  75       41PX         0.00000   0.00000   0.19937   0.00000   0.00000
  76       41PY         0.00000   0.19937   0.00000   0.00000   0.00000
  77       41PZ        -0.03873   0.00000   0.00000  -0.00738  -0.00844
  78       42PX         0.00000   0.00000   1.11972   0.00000   0.00000
  79       42PY         0.00000   1.11972   0.00000   0.00000   0.00000
  80       42PZ         0.20627   0.00000   0.00000  -1.00587  -1.09281
  81       43D 0        0.00043   0.00000   0.00000   0.00026  -0.00000
  82       43D+1        0.00000   0.00000  -0.00011   0.00000   0.00000
  83       43D-1        0.00000  -0.00011   0.00000   0.00000   0.00000
  84       43D+2       -0.00000   0.00000   0.00000   0.00000   0.00000
  85       43D-2        0.00000   0.00000   0.00000   0.00000   0.00000
  86       44D 0        0.00326   0.00000   0.00000   0.00191   0.00006
  87       44D+1        0.00000   0.00000  -0.00089   0.00000   0.00000
  88       44D-1        0.00000  -0.00089   0.00000   0.00000   0.00000
  89       44D+2       -0.00000   0.00000   0.00000   0.00000   0.00000
  90       44D-2        0.00000   0.00000   0.00000   0.00000   0.00000
  91       45D 0        0.01336   0.00000   0.00000   0.00827  -0.00022
  92       45D+1        0.00000   0.00000  -0.00356   0.00000   0.00000
  93       45D-1        0.00000  -0.00356   0.00000   0.00000   0.00000
  94       45D+2       -0.00000   0.00000   0.00000   0.00000   0.00000
  95       45D-2        0.00000   0.00000   0.00000   0.00000   0.00000
  96       46D 0        0.03503   0.00000   0.00000   0.01466   0.00677
  97       46D+1        0.00000   0.00000  -0.01068   0.00000   0.00000
  98       46D-1        0.00000  -0.01068   0.00000   0.00000   0.00000
  99       46D+2       -0.00000   0.00000   0.00000   0.00000   0.00000
 100       46D-2        0.00000   0.00000   0.00000   0.00000   0.00000
 101       47D 0        0.05888   0.00000   0.00000  -0.08840   0.13091
 102       47D+1        0.00000   0.00000  -0.03825   0.00000   0.00000
 103       47D-1        0.00000  -0.03825   0.00000   0.00000   0.00000
 104       47D+2       -0.00000   0.00000   0.00000  -0.00000   0.00000
 105       47D-2        0.00000   0.00000   0.00000   0.00000   0.00000
 106       48D 0        0.06405   0.00000   0.00000   0.02657   0.01239
 107       48D+1        0.00000   0.00000  -0.01828   0.00000   0.00000
 108       48D-1        0.00000  -0.01828   0.00000   0.00000   0.00000
 109       48D+2       -0.00000   0.00000   0.00000   0.00000   0.00000
 110       48D-2        0.00000   0.00000   0.00000   0.00000   0.00000
 111       49D 0        0.03849   0.00000   0.00000   0.05131  -0.03131
 112       49D+1        0.00000   0.00000  -0.00898   0.00000   0.00000
 113       49D-1        0.00000  -0.00898   0.00000   0.00000   0.00000
 114       49D+2       -0.00000   0.00000   0.00000   0.00000   0.00000
 115       49D-2        0.00000   0.00000   0.00000   0.00000   0.00000
 116       50D 0        0.03807   0.00000   0.00000   0.06383  -0.10679
 117       50D+1        0.00000   0.00000  -0.02068   0.00000   0.00000
 118       50D-1        0.00000  -0.02068   0.00000   0.00000   0.00000
 119       50D+2       -0.00000   0.00000   0.00000  -0.00000  -0.00000
 120       50D-2        0.00000   0.00000   0.00000   0.00000   0.00000
 121       51D 0       -0.00015   0.00000   0.00000   0.01150  -0.01215
 122       51D+1        0.00000   0.00000   0.00222   0.00000   0.00000
 123       51D-1        0.00000   0.00222   0.00000   0.00000   0.00000
 124       51D+2        0.00000   0.00000   0.00000  -0.00000  -0.00000
 125       51D-2        0.00000   0.00000   0.00000   0.00000   0.00000
 126       52D 0       -0.00219   0.00000   0.00000   0.12213  -0.13043
 127       52D+1        0.00000   0.00000   0.02276   0.00000   0.00000
 128       52D-1        0.00000   0.02276   0.00000   0.00000   0.00000
 129       52D+2        0.00000   0.00000   0.00000   0.00000  -0.00000
 130       52D-2        0.00000   0.00000   0.00000   0.00000   0.00000
 131       53D 0        0.06907   0.00000   0.00000   0.00680  -0.25166
 132       53D+1        0.00000   0.00000   0.00861   0.00000   0.00000
 133       53D-1        0.00000   0.00861   0.00000   0.00000   0.00000
 134       53D+2       -0.00000   0.00000   0.00000   0.00000  -0.00000
 135       53D-2        0.00000   0.00000   0.00000   0.00000   0.00000
 136       54F 0        0.00033   0.00000   0.00000   0.00006   0.00001
 137       54F+1        0.00000   0.00000  -0.00013   0.00000   0.00000
 138       54F-1        0.00000  -0.00013   0.00000   0.00000   0.00000
 139       54F+2        0.00000   0.00000   0.00000  -0.00000  -0.00000
 140       54F-2        0.00000   0.00000   0.00000   0.00000   0.00000
 141       54F+3        0.00000   0.00000   0.00000   0.00000   0.00000
 142       54F-3        0.00000  -0.00000   0.00000   0.00000   0.00000
 143       55F 0        0.00046   0.00000   0.00000   0.00080  -0.00015
 144       55F+1        0.00000   0.00000  -0.00006   0.00000   0.00000
 145       55F-1        0.00000  -0.00006   0.00000   0.00000   0.00000
 146       55F+2        0.00000   0.00000   0.00000  -0.00000  -0.00000
 147       55F-2        0.00000   0.00000   0.00000   0.00000   0.00000
 148       55F+3        0.00000   0.00000   0.00000   0.00000   0.00000
 149       55F-3        0.00000   0.00000   0.00000   0.00000   0.00000
 150       56F 0        0.00370   0.00000   0.00000   0.00047   0.00010
 151       56F+1        0.00000   0.00000  -0.00174   0.00000   0.00000
 152       56F-1        0.00000  -0.00174   0.00000   0.00000   0.00000
 153       56F+2        0.00000   0.00000   0.00000  -0.00000  -0.00000
 154       56F-2        0.00000   0.00000   0.00000   0.00000   0.00000
 155       56F+3        0.00000   0.00000  -0.00000   0.00000   0.00000
 156       56F-3        0.00000  -0.00000   0.00000   0.00000   0.00000
 157       57F 0        0.00718   0.00000   0.00000  -0.00607   0.01528
 158       57F+1        0.00000   0.00000   0.00120   0.00000   0.00000
 159       57F-1        0.00000   0.00120   0.00000   0.00000   0.00000
 160       57F+2        0.00000   0.00000   0.00000  -0.00000  -0.00000
 161       57F-2        0.00000   0.00000   0.00000   0.00000   0.00000
 162       57F+3        0.00000   0.00000   0.00000   0.00000   0.00000
 163       57F-3        0.00000   0.00000   0.00000   0.00000   0.00000
 164       58G 0       -0.00009   0.00000   0.00000   0.00012  -0.00012
 165       58G+1        0.00000   0.00000   0.00002   0.00000   0.00000
 166       58G-1        0.00000   0.00002   0.00000   0.00000   0.00000
 167       58G+2       -0.00000   0.00000   0.00000  -0.00000   0.00000
 168       58G-2        0.00000   0.00000   0.00000   0.00000   0.00000
 169       58G+3        0.00000   0.00000   0.00000   0.00000   0.00000
 170       58G-3        0.00000   0.00000   0.00000   0.00000   0.00000
 171       58G+4       -0.00000   0.00000   0.00000  -0.00000  -0.00000
 172       58G-4        0.00000   0.00000   0.00000   0.00000   0.00000
 173       59G 0        0.00033   0.00000   0.00000  -0.00052   0.00048
 174       59G+1        0.00000   0.00000  -0.00006   0.00000   0.00000
 175       59G-1        0.00000  -0.00006   0.00000   0.00000   0.00000
 176       59G+2        0.00000   0.00000   0.00000   0.00000   0.00000
 177       59G-2        0.00000   0.00000   0.00000   0.00000   0.00000
 178       59G+3        0.00000   0.00000  -0.00000   0.00000   0.00000
 179       59G-3        0.00000  -0.00000   0.00000   0.00000   0.00000
 180       59G+4        0.00000   0.00000   0.00000   0.00000   0.00000
 181       59G-4        0.00000   0.00000   0.00000   0.00000   0.00000
 182       60G 0       -0.00137   0.00000   0.00000   0.00101  -0.00118
 183       60G+1        0.00000   0.00000   0.00020   0.00000   0.00000
 184       60G-1        0.00000   0.00020   0.00000   0.00000   0.00000
 185       60G+2       -0.00000   0.00000   0.00000   0.00000   0.00000
 186       60G-2        0.00000   0.00000   0.00000   0.00000   0.00000
 187       60G+3        0.00000   0.00000   0.00000   0.00000   0.00000
 188       60G-3        0.00000   0.00000   0.00000   0.00000   0.00000
 189       60G+4       -0.00000   0.00000   0.00000   0.00000  -0.00000
 190       60G-4        0.00000   0.00000   0.00000   0.00000   0.00000
[...]
  45       31PX         0.68392   0.34196   0.34196   0.00000
  46       31PY         0.68392   0.34196   0.34196   0.00000
  47       31PZ         0.68396   0.34198   0.34198   0.00000
  48       32PX         0.57477   0.28739   0.28739   0.00000
  49       32PY         0.57477   0.28739   0.28739   0.00000
  50       32PZ         0.57429   0.28715   0.28715   0.00000
  51       33PX         0.28533   0.14266   0.14266   0.00000
  52       33PY         0.28533   0.14266   0.14266   0.00000
  53       33PZ         0.27376   0.13688   0.13688   0.00000
  54       34PX         0.56124   0.28062   0.28062   0.00000
  55       34PY         0.56124   0.28062   0.28062   0.00000
  56       34PZ         0.57613   0.28806   0.28806   0.00000
  57       35PX         0.75648   0.37824   0.37824   0.00000
  58       35PY         0.75648   0.37824   0.37824   0.00000
  59       35PZ         0.83438   0.41719   0.41719   0.00000
  60       36PX         0.44165   0.22082   0.22082   0.00000
  61       36PY         0.44165   0.22082   0.22082   0.00000
  62       36PZ         0.43985   0.21993   0.21993   0.00000
  63       37PX         0.08158   0.04079   0.04079   0.00000
  64       37PY         0.08158   0.04079   0.04079   0.00000
  65       37PZ         0.03139   0.01569   0.01569   0.00000
  66       38PX         0.09498   0.04749   0.04749   0.00000
  67       38PY         0.09498   0.04749   0.04749   0.00000
  68       38PZ        -0.01649  -0.00824  -0.00824   0.00000
  69       39PX         0.01309   0.00654   0.00654   0.00000
  70       39PY         0.01309   0.00654   0.00654   0.00000
  71       39PZ         0.00578   0.00289   0.00289   0.00000
  72       40PX        -0.01529  -0.00765  -0.00765   0.00000
  73       40PY        -0.01529  -0.00765  -0.00765   0.00000
  74       40PZ        -0.00697  -0.00349  -0.00349   0.00000
  75       41PX         0.11160   0.05580   0.05580   0.00000
  76       41PY         0.11160   0.05580   0.05580   0.00000
  77       41PZ         0.02816   0.01408   0.01408   0.00000
  78       42PX        -0.00140  -0.00070  -0.00070   0.00000
  79       42PY        -0.00140  -0.00070  -0.00070   0.00000
  80       42PZ        -0.00087  -0.00044  -0.00044   0.00000
  81       43D 0        0.00017   0.00008   0.00008   0.00000
  82       43D+1        0.00020   0.00010   0.00010   0.00000
  83       43D-1        0.00020   0.00010   0.00010   0.00000
  84       43D+2        0.00020   0.00010   0.00010   0.00000
  85       43D-2        0.00020   0.00010   0.00010   0.00000
  86       44D 0        0.00521   0.00261   0.00261   0.00000
  87       44D+1        0.00610   0.00305   0.00305   0.00000
  88       44D-1        0.00610   0.00305   0.00305   0.00000
  89       44D+2        0.00604   0.00302   0.00302   0.00000
  90       44D-2        0.00604   0.00302   0.00302   0.00000
  91       45D 0        0.05056   0.02528   0.02528   0.00000
  92       45D+1        0.05939   0.02969   0.02969   0.00000
  93       45D-1        0.05939   0.02969   0.02969   0.00000
  94       45D+2        0.05910   0.02955   0.02955   0.00000
  95       45D-2        0.05910   0.02955   0.02955   0.00000
  96       46D 0        0.23778   0.11889   0.11889   0.00000
  97       46D+1        0.26790   0.13395   0.13395   0.00000
  98       46D-1        0.26790   0.13395   0.13395   0.00000
  99       46D+2        0.26006   0.13003   0.13003   0.00000
 100       46D-2        0.26006   0.13003   0.13003   0.00000
 101       47D 0        0.78275   0.39138   0.39138   0.00000
 102       47D+1        0.65496   0.32748   0.32748   0.00000
 103       47D-1        0.65496   0.32748   0.32748   0.00000
 104       47D+2        0.51044   0.25522   0.25522   0.00000
 105       47D-2        0.51044   0.25522   0.25522   0.00000
 106       48D 0        0.60834   0.30417   0.30417   0.00000
 107       48D+1        0.65197   0.32599   0.32599   0.00000
 108       48D-1        0.65197   0.32599   0.32599   0.00000
 109       48D+2        0.64214   0.32107   0.32107   0.00000
 110       48D-2        0.64214   0.32107   0.32107   0.00000
 111       49D 0        0.35545   0.17772   0.17772   0.00000
 112       49D+1        0.37181   0.18591   0.18591   0.00000
 113       49D-1        0.37181   0.18591   0.18591   0.00000
 114       49D+2        0.38384   0.19192   0.19192   0.00000
 115       49D-2        0.38384   0.19192   0.19192   0.00000
 116       50D 0        0.05539   0.02769   0.02769   0.00000
 117       50D+1        0.06078   0.03039   0.03039   0.00000
 118       50D-1        0.06078   0.03039   0.03039   0.00000
 119       50D+2        0.07548   0.03774   0.03774   0.00000
 120       50D-2        0.07548   0.03774   0.03774   0.00000
 121       51D 0       -0.02113  -0.01056  -0.01056   0.00000
 122       51D+1       -0.00595  -0.00298  -0.00298   0.00000
 123       51D-1       -0.00595  -0.00298  -0.00298   0.00000
 124       51D+2        0.00591   0.00295   0.00295   0.00000
 125       51D-2        0.00591   0.00295   0.00295   0.00000
 126       52D 0       -0.28984  -0.14492  -0.14492   0.00000
 127       52D+1       -0.08654  -0.04327  -0.04327   0.00000
 128       52D-1       -0.08654  -0.04327  -0.04327   0.00000
 129       52D+2        0.05444   0.02722   0.02722   0.00000
 130       52D-2        0.05444   0.02722   0.02722   0.00000
 131       53D 0        0.01223   0.00612   0.00612   0.00000
 132       53D+1       -0.00443  -0.00221  -0.00221   0.00000
 133       53D-1       -0.00443  -0.00221  -0.00221   0.00000
 134       53D+2        0.00115   0.00057   0.00057   0.00000
 135       53D-2        0.00115   0.00057   0.00057   0.00000
 136       54F 0        0.00001   0.00000   0.00000   0.00000
 137       54F+1        0.00000   0.00000   0.00000   0.00000
 138       54F-1        0.00000   0.00000   0.00000   0.00000
 139       54F+2        0.00000   0.00000   0.00000   0.00000
 140       54F-2        0.00000   0.00000   0.00000   0.00000
 141       54F+3        0.00000   0.00000   0.00000   0.00000
 142       54F-3        0.00000   0.00000   0.00000   0.00000
 143       55F 0        0.00006   0.00003   0.00003   0.00000
 144       55F+1        0.00005   0.00002   0.00002   0.00000
 145       55F-1        0.00005   0.00002   0.00002   0.00000
 146       55F+2        0.00000   0.00000   0.00000   0.00000
 147       55F-2        0.00000   0.00000   0.00000   0.00000
 148       55F+3        0.00000   0.00000   0.00000   0.00000
 149       55F-3        0.00000   0.00000   0.00000   0.00000
 150       56F 0        0.00218   0.00109   0.00109   0.00000
 151       56F+1        0.00125   0.00062   0.00062   0.00000
 152       56F-1        0.00125   0.00062   0.00062   0.00000
 153       56F+2        0.00001   0.00001   0.00001   0.00000
 154       56F-2        0.00001   0.00001   0.00001   0.00000
 155       56F+3        0.00000   0.00000   0.00000   0.00000
 156       56F-3        0.00000   0.00000   0.00000   0.00000
 157       57F 0        0.00170   0.00085   0.00085   0.00000
 158       57F+1        0.00877   0.00439   0.00439   0.00000
 159       57F-1        0.00877   0.00439   0.00439   0.00000
 160       57F+2        0.00004   0.00002   0.00002   0.00000
 161       57F-2        0.00004   0.00002   0.00002   0.00000
 162       57F+3       -0.00000  -0.00000  -0.00000   0.00000
 163       57F-3       -0.00000  -0.00000  -0.00000   0.00000
 164       58G 0        0.00000   0.00000   0.00000   0.00000
 165       58G+1        0.00000   0.00000   0.00000   0.00000
 166       58G-1        0.00000   0.00000   0.00000   0.00000
 167       58G+2        0.00000   0.00000   0.00000   0.00000
 168       58G-2        0.00000   0.00000   0.00000   0.00000
 169       58G+3       -0.00000  -0.00000  -0.00000   0.00000
 170       58G-3       -0.00000  -0.00000  -0.00000   0.00000
 171       58G+4        0.00000   0.00000   0.00000   0.00000
 172       58G-4       -0.00000  -0.00000  -0.00000   0.00000
 173       59G 0       -0.00001  -0.00001  -0.00001   0.00000
 174       59G+1       -0.00001  -0.00000  -0.00000   0.00000
 175       59G-1       -0.00001  -0.00000  -0.00000   0.00000
 176       59G+2       -0.00000  -0.00000  -0.00000   0.00000
 177       59G-2       -0.00000  -0.00000  -0.00000   0.00000
 178       59G+3       -0.00000  -0.00000  -0.00000   0.00000
 179       59G-3        0.00000   0.00000   0.00000   0.00000
 180       59G+4        0.00000   0.00000   0.00000   0.00000
 181       59G-4       -0.00000  -0.00000  -0.00000   0.00000
 182       60G 0        0.00045   0.00023   0.00023   0.00000
 183       60G+1        0.00028   0.00014   0.00014   0.00000
 184       60G-1        0.00028   0.00014   0.00014   0.00000
 185       60G+2        0.00001   0.00000   0.00000   0.00000
 186       60G-2        0.00001   0.00000   0.00000   0.00000
 187       60G+3       -0.00000  -0.00000  -0.00000   0.00000
 188       60G-3       -0.00000  -0.00000  -0.00000   0.00000
 189       60G+4        0.00000   0.00000   0.00000   0.00000
 190       60G-4        0.00000   0.00000   0.00000   0.00000
 191 2   O  1S          0.00005   0.00003   0.00003   0.00000
 192        2S          0.00109   0.00054   0.00054   0.00000
 193        3S          0.01318   0.00659   0.00659   0.00000
 194        4S          0.09642   0.04821   0.04821   0.00000
 195        5S          0.40530   0.20265   0.20265   0.00000
 196        6S          0.80643   0.40322   0.40322   0.00000
 197        7S          0.50446   0.25223   0.25223   0.00000
 198        8S          1.01515   0.50757   0.50757   0.00000
 199        9S          0.25393   0.12696   0.12696   0.00000
 200       10S          0.80420   0.40210   0.40210   0.00000
 201       11S          0.07093   0.03547   0.03547   0.00000
 202       12S          0.04174   0.02087   0.02087   0.00000
 203       13S          0.12731   0.06365   0.06365   0.00000
 204       14PX         0.00187   0.00093   0.00093   0.00000
 205       14PY         0.00187   0.00093   0.00093   0.00000
 206       14PZ         0.00136   0.00068   0.00068   0.00000
 207       15PX         0.06293   0.03147   0.03147   0.00000
 208       15PY         0.06293   0.03147   0.03147   0.00000
 209       15PZ         0.04799   0.02399   0.02399   0.00000
 210       16PX         0.38055   0.19028   0.19028   0.00000
 211       16PY         0.38055   0.19028   0.19028   0.00000
 212       16PZ         0.30574   0.15287   0.15287   0.00000
 213       17PX         0.77670   0.38835   0.38835   0.00000
 214       17PY         0.77670   0.38835   0.38835   0.00000
 215       17PZ         0.60805   0.30403   0.30403   0.00000
 216       18PX         0.56128   0.28064   0.28064   0.00000
 217       18PY         0.56128   0.28064   0.28064   0.00000
 218       18PZ         0.42157   0.21078   0.21078   0.00000
 219       19PX         0.00374   0.00187   0.00187   0.00000
 220       19PY         0.00374   0.00187   0.00187   0.00000
 221       19PZ         0.00335   0.00168   0.00168   0.00000
 222       20PX         0.00053   0.00026   0.00026   0.00000
 223       20PY         0.00053   0.00026   0.00026   0.00000
 224       20PZ         0.00043   0.00022   0.00022   0.00000
 225       21PX         0.05189   0.02595   0.02595   0.00000
 226       21PY         0.05189   0.02595   0.02595   0.00000
 227       21PZ         0.05966   0.02983   0.02983   0.00000
 228       22D 0        0.00260   0.00130   0.00130   0.00000
 229       22D+1        0.00123   0.00061   0.00061   0.00000
 230       22D-1        0.00123   0.00061   0.00061   0.00000
 231       22D+2        0.00004   0.00002   0.00002   0.00000
 232       22D-2        0.00004   0.00002   0.00002   0.00000
 233       23D 0        0.00713   0.00357   0.00357   0.00000
 234       23D+1        0.01043   0.00521   0.00521   0.00000
 235       23D-1        0.01043   0.00521   0.00521   0.00000
 236       23D+2        0.00086   0.00043   0.00043   0.00000
 237       23D-2        0.00086   0.00043   0.00043   0.00000
 238       24D 0        0.00001   0.00000   0.00000   0.00000
 239       24D+1        0.00000   0.00000   0.00000   0.00000
 240       24D-1        0.00000   0.00000   0.00000   0.00000
 241       24D+2        0.00000   0.00000   0.00000   0.00000
 242       24D-2        0.00000   0.00000   0.00000   0.00000
 243       25D 0       -0.00014  -0.00007  -0.00007   0.00000
 244       25D+1        0.00362   0.00181   0.00181   0.00000
 245       25D-1        0.00362   0.00181   0.00181   0.00000
 246       25D+2       -0.00038  -0.00019  -0.00019   0.00000
 247       25D-2       -0.00038  -0.00019  -0.00019   0.00000
 248       26F 0        0.00191   0.00095   0.00095   0.00000
 249       26F+1        0.00126   0.00063   0.00063   0.00000
 250       26F-1        0.00126   0.00063   0.00063   0.00000
 251       26F+2        0.00016   0.00008   0.00008   0.00000
 252       26F-2        0.00016   0.00008   0.00008   0.00000
 253       26F+3       -0.00000  -0.00000  -0.00000   0.00000
 254       26F-3        0.00000   0.00000   0.00000   0.00000
 255       27F 0       -0.00083  -0.00042  -0.00042   0.00000
 256       27F+1        0.00047   0.00024   0.00024   0.00000
 257       27F-1        0.00047   0.00024   0.00024   0.00000
 258       27F+2        0.00047   0.00023   0.00023   0.00000
 259       27F-2        0.00047   0.00023   0.00023   0.00000
 260       27F+3        0.00000   0.00000   0.00000   0.00000
 261       27F-3       -0.00000  -0.00000  -0.00000   0.00000
          Condensed to atoms (all electrons):
               1          2
     1  Zn  28.587405   0.098295
     2  O    0.098295   9.216005
          Atomic-Atomic Spin Densities.
               1          2
     1  Zn   0.000000   0.000000
     2  O    0.000000   0.000000
 Mulliken charges and spin densities:
               1          2
     1  Zn   1.314300   0.000000
     2  O   -1.314300   0.000000
 Sum of Mulliken charges =   0.00000   0.00000
 Mulliken charges and spin densities with hydrogens summed into heavy atoms:
               1          2
     1  Zn   1.314300   0.000000
     2  O   -1.314300   0.000000
 Electronic spatial extent (au):  <R**2>=             79.9629
 Charge=             -0.0000 electrons
 Dipole moment (field-independent basis, Debye):
    X=              0.0000    Y=              0.0000    Z=              5.6435  Tot=              5.6435
 Quadrupole moment (field-independent basis, Debye-Ang):
   XX=            -18.2241   YY=            -18.2241   ZZ=            -19.8369
   XY=              0.0000   XZ=              0.0000   YZ=              0.0000
 Traceless Quadrupole moment (field-independent basis, Debye-Ang):
   XX=              0.5376   YY=              0.5376   ZZ=             -1.0752
   XY=              0.0000   XZ=              0.0000   YZ=              0.0000
 Octapole moment (field-independent basis, Debye-Ang**2):
  XXX=              0.0000  YYY=              0.0000  ZZZ=             15.7164  XYY=              0.0000
  XXY=              0.0000  XXZ=              3.9958  XZZ=              0.0000  YZZ=              0.0000
  YYZ=              3.9958  XYZ=              0.0000
 Hexadecapole moment (field-independent basis, Debye-Ang**3):
 XXXX=            -18.6678 YYYY=            -18.6678 ZZZZ=            -61.8706 XXXY=              0.0000
 XXXZ=              0.0000 YYYX=              0.0000 YYYZ=              0.0000 ZZZX=              0.0000
 ZZZY=              0.0000 XXYY=             -6.2226 XXZZ=            -13.4160 YYZZ=            -13.4160
 XXYZ=              0.0000 YYXZ=              0.0000 ZZXY=              0.0000
 N-N= 9.769425432369D+01 E-N=-4.771469718016D+03  KE= 1.969873771039D+03
 Symmetry A1   KE= 1.490844561828D+03
 Symmetry A2   KE= 2.251784649128D+01
 Symmetry B1   KE= 2.282556813623D+02
 Symmetry B2   KE= 2.282556813597D+02
 Symmetry A1   SP= 0.000000000000D+00
 Symmetry A2   SP= 0.000000000000D+00
 Symmetry B1   SP= 0.000000000000D+00
 Symmetry B2   SP= 0.000000000000D+00
 Orbital energies and kinetic energies (alpha):
                                 1                 2
  15         O                -0.836083         11.258923
  16         O                -0.798919          8.658492
  17         O                -0.431396          3.304519
  18         O                -0.431396          3.304519
  19         O                -0.390937          3.067791
  20         V                -0.023553          1.040376
  21         V                 0.031264          0.094469
  22         V                 0.031264          0.094469
  23         V                 0.035937          0.466325
  24         V                 0.044052          0.061010
 Total kinetic energy from orbitals= 1.969873771039D+03
 FoFCou: FMM=F IPFlag=           8 FMFlag=           0 FMFlg1=           0
         NFxFlg=           0 DoJE=F BraDBF=T KetDBF=F FulRan=T
         wScrn=  0.000000 ICntrl=   2000500 IOpCl=  0 I1Cent=           5 NGrid=           0
         NMat0=    1 NMatS0=      1 NMatT0=    0 NMatD0=    1 NMtDS0=    0 NMtDT0=    0
 Symmetry not used in FoFCou.
                          Isotropic Fermi Contact Couplings
        Atom                 a.u.       MegaHertz       Gauss      10(-4) cm-1
     1  Zn(67)             0.00000       0.00000       0.00000       0.00000
     2  O(17)              0.00000      -0.00000      -0.00000      -0.00000
 --------------------------------------------------------
       Center         ----  Spin Dipole Couplings  ----
                      3XX-RR        3YY-RR        3ZZ-RR
 --------------------------------------------------------
     1   Atom        0.000000      0.000000      0.000000
     2   Atom        0.000000      0.000000      0.000000
 --------------------------------------------------------
                        XY            XZ            YZ
 --------------------------------------------------------
     1   Atom        0.000000      0.000000      0.000000
     2   Atom        0.000000      0.000000      0.000000
 --------------------------------------------------------


 ---------------------------------------------------------------------------------
              Anisotropic Spin Dipole Couplings in Principal Axis System
 ---------------------------------------------------------------------------------

       Atom             a.u.   MegaHertz   Gauss  10(-4) cm-1        Axes

              Baa     0.0000     0.000     0.000     0.000  1.0000  0.0000  0.0000
     1 Zn(67) Bbb     0.0000     0.000     0.000     0.000 -0.0000  1.0000  0.0000
              Bcc     0.0000     0.000     0.000     0.000  0.0000  0.0000  1.0000
 
              Baa     0.0000    -0.000    -0.000    -0.000  1.0000  0.0000  0.0000
     2 O(17)  Bbb     0.0000    -0.000    -0.000    -0.000 -0.0000  1.0000  0.0000
              Bcc     0.0000    -0.000    -0.000    -0.000  0.0000  0.0000  1.0000
 

 ---------------------------------------------------------------------------------

 No NMR shielding tensors so no spin-rotation constants.
 Leave Link  601 at Mon Apr 16 13:15:04 2018, MaxMem= 21474836480 cpu:              16.0 elap:               0.5
 (Enter /home1/apps/gaussian/16rA.03/g16/l9999.exe)

 Test job not archived.
 1\1\GINC-C499-081\SP\ROCCSD(T)-RW\Gen\O1Zn1\GWANG18\16-Apr-2018\0\\#P 
 ROCCSD(T)=(MaxCyc=150, Window=(7,0))/Gen SCF=(maxcycle=400) Integral(D
 KHSO, NoXCTest) Pop=Regular MaxDisk=500GB Guess=Read IOp(5/15=2)\\ZnO\
 \0,1\Zn,0,0.,0.,0.\O,0,0.,0.,1.3\\Version=ES64L-G16RevA.03\State=1-SG\
 HF=-1868.8799428\MP2=-1870.2379762\MP3=-1870.0223563\PUHF=-1868.879942
 8\PMP2-0=-1870.2379762\MP4SDQ=-1870.1553137\CCSD=-1870.0970696\CCSD(T)
 =-1870.144668\RMSD=4.818e-09\PG=C*V [C*(O1Zn1)]\\@


 BOOKS ARE LIGHTHOUSES ERECTED IN THE GREAT SEA OF TIME.
     -- E.P.WHIPPLE
 Job cpu time:       0 days 14 hours  1 minutes 23.5 seconds.
 Elapsed time:       0 days  0 hours 26 minutes 50.5 seconds.
 File lengths (MBytes):  RWF=   5073 Int=      0 D2E=      0 Chk=      8 Scr=      1
 Normal termination of Gaussian 16 at Mon Apr 16 13:15:04 2018.
