 Entering Gaussian System, Link 0=g16
 Initial command:
 /home1/apps/gaussian/16rA.03/g16/l1.exe "/tmp/Gau-79665.inp" -scrdir="/tmp/"
 Entering Link 1 = /home1/apps/gaussian/16rA.03/g16/l1.exe PID=     79666.
  
 Copyright (c) 1988,1990,1992,1993,1995,1998,2003,2009,2016,
            Gaussian, Inc.  All Rights Reserved.
  
 This is part of the Gaussian(R) 16 program.  It is based on
 the Gaussian(R) 09 system (copyright 2009, Gaussian, Inc.),
 the Gaussian(R) 03 system (copyright 2003, Gaussian, Inc.),
 the Gaussian(R) 98 system (copyright 1998, Gaussian, Inc.),
 the Gaussian(R) 94 system (copyright 1995, Gaussian, Inc.),
 the Gaussian 92(TM) system (copyright 1992, Gaussian, Inc.),
 the Gaussian 90(TM) system (copyright 1990, Gaussian, Inc.),
 the Gaussian 88(TM) system (copyright 1988, Gaussian, Inc.),
 the Gaussian 86(TM) system (copyright 1986, Carnegie Mellon
 University), and the Gaussian 82(TM) system (copyright 1983,
 Carnegie Mellon University). Gaussian is a federally registered
 trademark of Gaussian, Inc.
  
 This software contains proprietary and confidential information,
 including trade secrets, belonging to Gaussian, Inc.
  
 This software is provided under written license and may be
 used, copied, transmitted, or stored only in accord with that
 written license.
  
 The following legend is applicable only to US Government
 contracts under FAR:
  
                    RESTRICTED RIGHTS LEGEND
  
 Use, reproduction and disclosure by the US Government is
 subject to restrictions as set forth in subparagraphs (a)
 and (c) of the Commercial Computer Software - Restricted
 Rights clause in FAR 52.227-19.
  
 Gaussian, Inc.
 340 Quinnipiac St., Bldg. 40, Wallingford CT 06492
  
  
 ---------------------------------------------------------------
 Warning -- This program may not be used in any manner that
 competes with the business of Gaussian, Inc. or will provide
 assistance to any competitor of Gaussian, Inc.  The licensee
 of this program is prohibited from giving any competitor of
 Gaussian, Inc. access to this program.  By using this program,
 the user acknowledges that Gaussian, Inc. is engaged in the
 business of creating and licensing software in the field of
 computational chemistry and represents and warrants to the
 licensee that it is not a competitor of Gaussian, Inc. and that
 it will not use this program in any manner prohibited above.
 ---------------------------------------------------------------
  

 Cite this work as:
 Gaussian 16, Revision A.03,
 M. J. Frisch, G. W. Trucks, H. B. Schlegel, G. E. Scuseria, 
 M. A. Robb, J. R. Cheeseman, G. Scalmani, V. Barone, 
 G. A. Petersson, H. Nakatsuji, X. Li, M. Caricato, A. V. Marenich, 
 J. Bloino, B. G. Janesko, R. Gomperts, B. Mennucci, H. P. Hratchian, 
 J. V. Ortiz, A. F. Izmaylov, J. L. Sonnenberg, D. Williams-Young, 
 F. Ding, F. Lipparini, F. Egidi, J. Goings, B. Peng, A. Petrone, 
 T. Henderson, D. Ranasinghe, V. G. Zakrzewski, J. Gao, N. Rega, 
 G. Zheng, W. Liang, M. Hada, M. Ehara, K. Toyota, R. Fukuda, 
 J. Hasegawa, M. Ishida, T. Nakajima, Y. Honda, O. Kitao, H. Nakai, 
 T. Vreven, K. Throssell, J. A. Montgomery, Jr., J. E. Peralta, 
 F. Ogliaro, M. J. Bearpark, J. J. Heyd, E. N. Brothers, K. N. Kudin, 
 V. N. Staroverov, T. A. Keith, R. Kobayashi, J. Normand, 
 K. Raghavachari, A. P. Rendell, J. C. Burant, S. S. Iyengar, 
 J. Tomasi, M. Cossi, J. M. Millam, M. Klene, C. Adamo, R. Cammi, 
 J. W. Ochterski, R. L. Martin, K. Morokuma, O. Farkas, 
 J. B. Foresman, and D. J. Fox, Gaussian, Inc., Wallingford CT, 2016.
 
 ******************************************
 Gaussian 16:  ES64L-G16RevA.03 25-Dec-2016
                 5-Mar-2018 
 ******************************************
 %MEM=80GB
 %CPU=0-15
 SetSPE:  set environment variable "MP_BIND" = "yes"
 SetSPE:  set environment variable "MP_BLIST" = "0,1,2,3,4,5,6,7,8,9,10,11,12,13,14,15"
 Will use up to   16 processors via shared memory.
 %RWF=/scratch/04843/aannabe/gaussian/
 %Int=/scratch/04843/aannabe/gaussian/
 %D2E=/scratch/04843/aannabe/gaussian/
 %NoSave
 %CHK=ScO
 ----------------------------------------------------------------------
 #P ROCCSD(T)=(maxcyc=150, Full, SaveAmplitudes, ReadAmplitudes)/Gen 5d
  7f SCF=(maxcycles=300) Integral(NoXCTest) MaxDisk=500GB Pop=Regular P
 seudo=Read Guess=Read
 ----------------------------------------------------------------------
 1/38=1,172=1/1;
 2/12=2,17=6,18=5,40=1/2;
 3/5=7,8=11,11=2,16=1,17=8,25=1,30=1,47=8,116=101/1,2,3;
 4/5=1/1;
 5/5=2,7=300,38=6/2;
 8/5=-1,6=4,9=120000,10=90,24=1/1,4;
 9/5=7,6=150,14=2,77=1/13;
 6//1;
 99/5=1,9=1/99;
 Leave Link    1 at Mon Mar  5 18:26:43 2018, MaxMem= 10737418240 cpu:               3.5 elap:               0.2
 (Enter /home1/apps/gaussian/16rA.03/g16/l101.exe)
 ---
 ScO
 ---
 Symbolic Z-matrix:
 Charge =  0 Multiplicity = 2
 Sc                    0.        0.        0. 
 O                     0.        0.        2. 
 
 ITRead=  0  0
 MicOpt= -1 -1
 NAtoms=      2 NQM=        2 NQMF=       0 NMMI=      0 NMMIF=      0
                NMic=       0 NMicF=      0.
                    Isotopes and Nuclear Properties:
 (Nuclear quadrupole moments (NQMom) in fm**2, nuclear magnetic moments (NMagM)
  in nuclear magnetons)

  Atom         1           2
 IAtWgt=          45          16
 AtmWgt=  44.9559136  15.9949146
 NucSpn=           7           0
 AtZEff=  -0.0000000  -0.0000000
 NQMom=  -22.0000000   0.0000000
 NMagM=    4.7564830   0.0000000
 AtZNuc=  21.0000000   8.0000000
 Leave Link  101 at Mon Mar  5 18:26:43 2018, MaxMem= 10737418240 cpu:               1.5 elap:               0.1
 (Enter /home1/apps/gaussian/16rA.03/g16/l202.exe)
                          Input orientation:                          
 ---------------------------------------------------------------------
 Center     Atomic      Atomic             Coordinates (Angstroms)
 Number     Number       Type             X           Y           Z
 ---------------------------------------------------------------------
      1         21           0        0.000000    0.000000    0.000000
      2          8           0        0.000000    0.000000    2.000000
 ---------------------------------------------------------------------
 Stoichiometry    OSc(2)
 Framework group  C*V[C*(OSc)]
 Deg. of freedom     1
 Full point group                 C*V     NOp   4
 Largest Abelian subgroup         C2V     NOp   4
 Largest concise Abelian subgroup C1      NOp   1
                         Standard orientation:                         
 ---------------------------------------------------------------------
 Center     Atomic      Atomic             Coordinates (Angstroms)
 Number     Number       Type             X           Y           Z
 ---------------------------------------------------------------------
      1         21           0        0.000000    0.000000    0.551724
      2          8           0        0.000000    0.000000   -1.448276
 ---------------------------------------------------------------------
 Rotational constants (GHZ):           0.0000000          10.7094721          10.7094721
 Leave Link  202 at Mon Mar  5 18:26:43 2018, MaxMem= 10737418240 cpu:               0.4 elap:               0.1
 (Enter /home1/apps/gaussian/16rA.03/g16/l301.exe)
 General basis read from cards:  (5D, 7F)
 Centers:       1
 S 1 1.00
     Exponent=  8.4179090000D+06 Coefficients=  1.0000000000D+00
 S 1 1.00
     Exponent=  1.2603120000D+06 Coefficients=  1.0000000000D+00
 S 1 1.00
     Exponent=  2.8679840000D+05 Coefficients=  1.0000000000D+00
 S 1 1.00
     Exponent=  8.1234690000D+04 Coefficients=  1.0000000000D+00
 S 1 1.00
     Exponent=  2.6503110000D+04 Coefficients=  1.0000000000D+00
 S 1 1.00
     Exponent=  9.5687010000D+03 Coefficients=  1.0000000000D+00
 S 1 1.00
     Exponent=  3.7324970000D+03 Coefficients=  1.0000000000D+00
 S 1 1.00
     Exponent=  1.5484220000D+03 Coefficients=  1.0000000000D+00
 S 1 1.00
     Exponent=  6.7554200000D+02 Coefficients=  1.0000000000D+00
 S 1 1.00
     Exponent=  3.0725220000D+02 Coefficients=  1.0000000000D+00
 S 1 1.00
     Exponent=  1.4466720000D+02 Coefficients=  1.0000000000D+00
 S 1 1.00
     Exponent=  7.0043870000D+01 Coefficients=  1.0000000000D+00
 S 1 1.00
     Exponent=  3.4322500000D+01 Coefficients=  1.0000000000D+00
 S 1 1.00
     Exponent=  1.5612240000D+01 Coefficients=  1.0000000000D+00
 S 1 1.00
     Exponent=  7.7437220000D+00 Coefficients=  1.0000000000D+00
 S 1 1.00
     Exponent=  3.8442600000D+00 Coefficients=  1.0000000000D+00
 S 1 1.00
     Exponent=  1.7197660000D+00 Coefficients=  1.0000000000D+00
 S 1 1.00
     Exponent=  8.3252300000D-01 Coefficients=  1.0000000000D+00
 S 1 1.00
     Exponent=  3.8556400000D-01 Coefficients=  1.0000000000D+00
 S 1 1.00
     Exponent=  9.6700000000D-02 Coefficients=  1.0000000000D+00
 S 1 1.00
     Exponent=  4.7778000000D-02 Coefficients=  1.0000000000D+00
 S 1 1.00
     Exponent=  2.2363000000D-02 Coefficients=  1.0000000000D+00
 S 1 1.00
     Exponent=  3.1672000000D+00 Coefficients=  1.0000000000D+00
 S 1 1.00
     Exponent=  1.6879000000D+00 Coefficients=  1.0000000000D+00
 S 1 1.00
     Exponent=  1.0470000000D-02 Coefficients=  1.0000000000D+00
 P 1 1.00
     Exponent=  2.2640970000D+04 Coefficients=  1.0000000000D+00
 P 1 1.00
     Exponent=  5.3575450000D+03 Coefficients=  1.0000000000D+00
 P 1 1.00
     Exponent=  1.7403730000D+03 Coefficients=  1.0000000000D+00
 P 1 1.00
     Exponent=  6.6661630000D+02 Coefficients=  1.0000000000D+00
 P 1 1.00
     Exponent=  2.8363840000D+02 Coefficients=  1.0000000000D+00
 P 1 1.00
     Exponent=  1.2979760000D+02 Coefficients=  1.0000000000D+00
 P 1 1.00
     Exponent=  6.2679560000D+01 Coefficients=  1.0000000000D+00
 P 1 1.00
     Exponent=  3.1504410000D+01 Coefficients=  1.0000000000D+00
 P 1 1.00
     Exponent=  1.6235250000D+01 Coefficients=  1.0000000000D+00
 P 1 1.00
     Exponent=  8.5183240000D+00 Coefficients=  1.0000000000D+00
 P 1 1.00
     Exponent=  4.5190050000D+00 Coefficients=  1.0000000000D+00
 P 1 1.00
     Exponent=  2.3665910000D+00 Coefficients=  1.0000000000D+00
 P 1 1.00
     Exponent=  1.2152350000D+00 Coefficients=  1.0000000000D+00
 P 1 1.00
     Exponent=  6.1434800000D-01 Coefficients=  1.0000000000D+00
 P 1 1.00
     Exponent=  3.0074500000D-01 Coefficients=  1.0000000000D+00
 P 1 1.00
     Exponent=  1.2583400000D-01 Coefficients=  1.0000000000D+00
 P 1 1.00
     Exponent=  5.4719000000D-02 Coefficients=  1.0000000000D+00
 P 1 1.00
     Exponent=  2.3488000000D-02 Coefficients=  1.0000000000D+00
 P 1 1.00
     Exponent=  4.0719000000D+00 Coefficients=  1.0000000000D+00
 P 1 1.00
     Exponent=  9.9940000000D-01 Coefficients=  1.0000000000D+00
 P 1 1.00
     Exponent=  1.0080000000D-02 Coefficients=  1.0000000000D+00
 D 1 1.00
     Exponent=  1.4802800000D+02 Coefficients=  1.0000000000D+00
 D 1 1.00
     Exponent=  4.3852800000D+01 Coefficients=  1.0000000000D+00
 D 1 1.00
     Exponent=  1.6664600000D+01 Coefficients=  1.0000000000D+00
 D 1 1.00
     Exponent=  6.9789300000D+00 Coefficients=  1.0000000000D+00
 D 1 1.00
     Exponent=  3.1236900000D+00 Coefficients=  1.0000000000D+00
 D 1 1.00
     Exponent=  1.4468700000D+00 Coefficients=  1.0000000000D+00
 D 1 1.00
     Exponent=  6.6740700000D-01 Coefficients=  1.0000000000D+00
 D 1 1.00
     Exponent=  3.0163300000D-01 Coefficients=  1.0000000000D+00
 D 1 1.00
     Exponent=  1.3267400000D-01 Coefficients=  1.0000000000D+00
 D 1 1.00
     Exponent=  5.6739000000D-02 Coefficients=  1.0000000000D+00
 D 1 1.00
     Exponent=  2.3175000000D-02 Coefficients=  1.0000000000D+00
 D 1 1.00
     Exponent=  2.1282000000D+00 Coefficients=  1.0000000000D+00
 D 1 1.00
     Exponent=  9.6910000000D-01 Coefficients=  1.0000000000D+00
 D 1 1.00
     Exponent=  9.4700000000D-03 Coefficients=  1.0000000000D+00
 F 1 1.00
     Exponent=  2.7590000000D+00 Coefficients=  1.0000000000D+00
 F 1 1.00
     Exponent=  1.0490000000D+00 Coefficients=  1.0000000000D+00
 F 1 1.00
     Exponent=  3.9890000000D-01 Coefficients=  1.0000000000D+00
 F 1 1.00
     Exponent=  1.1060000000D-01 Coefficients=  1.0000000000D+00
 F 1 1.00
     Exponent=  3.0670000000D-02 Coefficients=  1.0000000000D+00
 G 1 1.00
     Exponent=  2.4852000000D+00 Coefficients=  1.0000000000D+00
 G 1 1.00
     Exponent=  9.0670000000D-01 Coefficients=  1.0000000000D+00
 G 1 1.00
     Exponent=  2.5300000000D-01 Coefficients=  1.0000000000D+00
 G 1 1.00
     Exponent=  7.0600000000D-02 Coefficients=  1.0000000000D+00
 H 1 1.00
     Exponent=  2.0405000000D+00 Coefficients=  1.0000000000D+00
 H 1 1.00
     Exponent=  4.9340000000D-01 Coefficients=  1.0000000000D+00
 H 1 1.00
     Exponent=  1.1931000000D-01 Coefficients=  1.0000000000D+00
 ****
 Centers:       2
 S 1 1.00
     Exponent=  6.1420000000D+04 Coefficients=  1.0000000000D+00
 S 1 1.00
     Exponent=  9.1990000000D+03 Coefficients=  1.0000000000D+00
 S 1 1.00
     Exponent=  2.0910000000D+03 Coefficients=  1.0000000000D+00
 S 1 1.00
     Exponent=  5.9090000000D+02 Coefficients=  1.0000000000D+00
 S 1 1.00
     Exponent=  1.9230000000D+02 Coefficients=  1.0000000000D+00
 S 1 1.00
     Exponent=  6.9320000000D+01 Coefficients=  1.0000000000D+00
 S 1 1.00
     Exponent=  2.6970000000D+01 Coefficients=  1.0000000000D+00
 S 1 1.00
     Exponent=  1.1100000000D+01 Coefficients=  1.0000000000D+00
 S 1 1.00
     Exponent=  4.6820000000D+00 Coefficients=  1.0000000000D+00
 S 1 1.00
     Exponent=  1.4280000000D+00 Coefficients=  1.0000000000D+00
 S 1 1.00
     Exponent=  5.5470000000D-01 Coefficients=  1.0000000000D+00
 S 1 1.00
     Exponent=  2.0670000000D-01 Coefficients=  1.0000000000D+00
 S 1 1.00
     Exponent=  1.2974000000D+01 Coefficients=  1.0000000000D+00
 S 1 1.00
     Exponent=  3.4900000000D+01 Coefficients=  1.0000000000D+00
 S 1 1.00
     Exponent=  9.3881000000D+01 Coefficients=  1.0000000000D+00
 S 1 1.00
     Exponent=  6.9590000000D-02 Coefficients=  1.0000000000D+00
 P 1 1.00
     Exponent=  6.3420000000D+01 Coefficients=  1.0000000000D+00
 P 1 1.00
     Exponent=  1.4660000000D+01 Coefficients=  1.0000000000D+00
 P 1 1.00
     Exponent=  4.4590000000D+00 Coefficients=  1.0000000000D+00
 P 1 1.00
     Exponent=  1.5310000000D+00 Coefficients=  1.0000000000D+00
 P 1 1.00
     Exponent=  5.3020000000D-01 Coefficients=  1.0000000000D+00
 P 1 1.00
     Exponent=  1.7500000000D-01 Coefficients=  1.0000000000D+00
 P 1 1.00
     Exponent=  1.4475000000D+01 Coefficients=  1.0000000000D+00
 P 1 1.00
     Exponent=  4.2730000000D+01 Coefficients=  1.0000000000D+00
 P 1 1.00
     Exponent=  1.2614000000D+02 Coefficients=  1.0000000000D+00
 P 1 1.00
     Exponent=  5.3480000000D-02 Coefficients=  1.0000000000D+00
 D 1 1.00
     Exponent=  3.7750000000D+00 Coefficients=  1.0000000000D+00
 D 1 1.00
     Exponent=  1.3000000000D+00 Coefficients=  1.0000000000D+00
 D 1 1.00
     Exponent=  4.4400000000D-01 Coefficients=  1.0000000000D+00
 D 1 1.00
     Exponent=  1.4927000000D+01 Coefficients=  1.0000000000D+00
 D 1 1.00
     Exponent=  5.7544000000D+01 Coefficients=  1.0000000000D+00
 D 1 1.00
     Exponent=  1.5400000000D-01 Coefficients=  1.0000000000D+00
 F 1 1.00
     Exponent=  2.6660000000D+00 Coefficients=  1.0000000000D+00
 F 1 1.00
     Exponent=  8.5900000000D-01 Coefficients=  1.0000000000D+00
 F 1 1.00
     Exponent=  2.6483000000D+01 Coefficients=  1.0000000000D+00
 F 1 1.00
     Exponent=  3.2400000000D-01 Coefficients=  1.0000000000D+00
 G 1 1.00
     Exponent=  1.8460000000D+00 Coefficients=  1.0000000000D+00
 G 1 1.00
     Exponent=  7.1400000000D-01 Coefficients=  1.0000000000D+00
 ****
 ======================================================================================================
                                       Pseudopotential Parameters
 ======================================================================================================
  Center     Atomic      Valence      Angular      Power
  Number     Number     Electrons     Momentum     of R      Exponent        Coefficient   SO-Coeffient
 ======================================================================================================
    1         21           11
                                      D and up 
                                                     1       16.0329867       11.00000000    0.00000000
                                                     3       14.0886961      176.36285342    0.00000000
                                                     2       11.9069766      -83.68643284    0.00000000
                                                     2        3.6497651        0.44399753    0.00000000
                                      S - D
                                                     2       11.5075950      153.96296864    0.00000000
                                                     2        5.0410402       14.92860892    0.00000000
                                      P - D
                                                     2       11.4627925       97.21711637    0.00000000
                                                     2        4.7640754       10.84896441    0.00000000
    2          8            6
                                      P and up 
                                                     1       12.3099700        6.00000000    0.00000000
                                                     3       14.7696200       73.85984000    0.00000000
                                                     2       13.7141900      -47.87600000    0.00000000
                                      S - P
                                                     2       13.6551200       85.86406000    0.00000000
 ======================================================================================================
 Ernie: Thresh=  0.10000D-02 Tol=  0.10000D-05 Strict=F.
 There are   213 symmetry adapted cartesian basis functions of A1  symmetry.
 There are    56 symmetry adapted cartesian basis functions of A2  symmetry.
 There are   114 symmetry adapted cartesian basis functions of B1  symmetry.
 There are   114 symmetry adapted cartesian basis functions of B2  symmetry.
 There are   157 symmetry adapted basis functions of A1  symmetry.
 There are    47 symmetry adapted basis functions of A2  symmetry.
 There are    90 symmetry adapted basis functions of B1  symmetry.
 There are    90 symmetry adapted basis functions of B2  symmetry.
   384 basis functions,   497 primitive gaussians,   497 cartesian basis functions
     9 alpha electrons        8 beta electrons
       nuclear repulsion energy        17.4628479604 Hartrees.
 IExCor=    0 DFT=F Ex=HF Corr=None ExCW=0 ScaHFX=  1.000000
 ScaDFX=  1.000000  1.000000  1.000000  1.000000 ScalE2=  1.000000  1.000000
 IRadAn=      5 IRanWt=     -1 IRanGd=            0 ICorTp=0 IEmpDi=  4
 NAtoms=    2 NActive=    2 NUniq=    2 SFac= 1.00D+00 NAtFMM=   60 NAOKFM=F Big=F
 Integral buffers will be    131072 words long.
 Raffenetti 2 integral format.
 Two-electron integral symmetry is turned on.
 Leave Link  301 at Mon Mar  5 18:26:44 2018, MaxMem= 10737418240 cpu:               4.5 elap:               0.3
 (Enter /home1/apps/gaussian/16rA.03/g16/l302.exe)
 NPDir=0 NMtPBC=     1 NCelOv=     1 NCel=       1 NClECP=     1 NCelD=      1
         NCelK=      1 NCelE2=     1 NClLst=     1 CellRange=     0.0.
 One-electron integrals computed using PRISM.
 One-electron integral symmetry used in STVInt
   4 Symmetry operations used in ECPInt.
 ECPInt:  NShTT=    6105 NPrTT=    6105 LenC2=    5540 LenP2D=    5539.
 LDataN:  DoStor=T MaxTD1=10 Len=  848
 NBasis=   384 RedAO= T EigKep=  1.26D-06  NBF=   157    47    90    90
 NBsUse=   383 1.00D-06 EigRej=  9.42D-09 NBFU=   156    47    90    90
 Leave Link  302 at Mon Mar  5 18:26:46 2018, MaxMem= 10737418240 cpu:              40.2 elap:               2.5
 (Enter /home1/apps/gaussian/16rA.03/g16/l303.exe)
 DipDrv:  MaxL=1.
 Leave Link  303 at Mon Mar  5 18:26:47 2018, MaxMem= 10737418240 cpu:               1.9 elap:               0.2
 (Enter /home1/apps/gaussian/16rA.03/g16/l401.exe)
 Initial guess from the checkpoint file:  "ScO.chk"
 B after Tr=     0.000000    0.000000    0.000000
         Rot=    1.000000    0.000000    0.000000    0.000000 Ang=   0.00 deg.
 Guess basis will be translated and rotated to current coordinates.
 JPrj=2 DoOrth=T DoCkMO=T.
 Initial guess orbital symmetries:
       Occupied  (SG) (PI) (PI) (SG) (SG) (SG) (PI) (PI) (SG)
       Virtual   (PI) (PI) (SG) (SG) (PI) (PI) (DLTA) (DLTA) (SG)
                 (PI) (PI) (SG) (DLTA) (DLTA) (SG) (PI) (PI) (SG)
                 (DLTA) (DLTA) (PI) (PI) (SG) (PHI) (PHI) (PI)
                 (PI) (SG) (DLTA) (DLTA) (PI) (PI) (SG) (SG) (PI)
                 (PI) (SG) (DLTA) (DLTA) (SG) (PI) (PI) (?A) (?A)
                 (SG) (DLTA) (DLTA) (PHI) (PHI) (PI) (PI) (PI)
                 (PI) (SG) (PHI) (PHI) (DLTA) (DLTA) (SG) (PI)
                 (PI) (SG) (DLTA) (DLTA) (PI) (PI) (SG) (DLTA)
                 (DLTA) (SG) (PI) (PI) (SG) (SG) (PI) (PI) (PI)
                 (PI) (SG) (DLTA) (DLTA) (?A) (?A) (PHI) (PHI)
                 (SG) (PI) (PI) (SG) (PHI) (PHI) (DLTA) (DLTA)
                 (PI) (PI) (SG) (PHI) (PHI) (DLTA) (DLTA) (DLTA)
                 (DLTA) (PI) (PI) (SG) (DLTA) (DLTA) (PI) (PI)
                 (SG) (PI) (PI) (SG) (SG) (PI) (PI) (SG) (PI) (PI)
                 (SG) (SG) (DLTA) (DLTA) (PI) (PI) (SG) (PHI) (PHI)
                 (DLTA) (DLTA) (PI) (PI) (PHI) (PHI) (DLTA) (DLTA)
                 (SG) (PI) (PI) (SG) (DLTA) (DLTA) (PI) (PI) (?A)
                 (?A) (PHI) (PHI) (DLTA) (DLTA) (PI) (PI) (SG)
                 (SG) (SG) (PI) (PI) (SG) (DLTA) (DLTA) (PI) (PI)
                 (SG) (PI) (PI) (SG) (SG) (SG) (PI) (PI) (SG) (DLTA)
                 (DLTA) (PI) (PI) (SG) (SG) (PI) (PI) (SG) (SG)
                 (DLTA) (DLTA) (PI) (PI) (SG) (PI) (PI) (SG) (DLTA)
                 (DLTA) (PI) (PI) (SG) (SG) (SG) (PI) (PI) (SG)
                 (PI) (PI) (SG) (SG) (SG) (PI) (PI) (SG) (DLTA)
                 (DLTA) (PI) (PI) (SG) (SG) (SG) (PI) (PI) (SG)
                 (PI) (PI) (SG) (SG) (SG) (PI) (PI) (SG) (SG) (PI)
                 (PI) (SG) (SG) (SG) (PI) (PI) (SG) (SG) (SG) (PI)
                 (PI) (SG) (SG) (SG) (SG) (PI) (PI) (SG) (SG) (SG)
                 (SG) (SG) (SG) (SG) (DLTA) (SG) (SG) (SG) (SG)
                 (DLTA) (SG) (DLTA) (SG) (DLTA) (SG) (SG) (SG)
                 (DLTA) (SG) (SG) (DLTA) (SG) (?A) (SG) (DLTA)
                 (DLTA) (?A) (DLTA) (SG) (SG) (DLTA) (SG) (SG)
                 (?A) (SG) (DLTA) (?A) (DLTA) (SG) (SG) (DLTA)
                 (DLTA) (SG) (?A) (?A) (DLTA) (DLTA) (DLTA) (DLTA)
                 (DLTA) (DLTA) (?A) (DLTA) (DLTA) (?A) (DLTA) (DLTA)
                 (?A) (DLTA) (?A) (DLTA) (DLTA) (DLTA) (?A) (?A)
                 (PI) (PI) (PI) (PI) (PI) (PI) (PI) (PI) (PHI)
                 (PI) (PHI) (PI) (PI) (PI) (PHI) (PI) (PHI) (PI)
                 (PI) (PHI) (PI) (?B) (PHI) (PHI) (PI) (PI) (PHI)
                 (PI) (?B) (PHI) (?B) (PI) (PI) (PI) (PI) (PI)
                 (PI) (PI) (PI) (PHI) (PI) (PHI) (PI) (PI) (PI)
                 (PHI) (PI) (PHI) (PI) (PI) (PHI) (PI) (?B) (PHI)
                 (PHI) (PI) (PI) (PHI) (PI) (?B) (PHI) (?B)
 The electronic state of the initial guess is 2-SG.
 Leave Link  401 at Mon Mar  5 18:26:47 2018, MaxMem= 10737418240 cpu:              12.4 elap:               0.9
 (Enter /home1/apps/gaussian/16rA.03/g16/l502.exe)
 Keep R1 and R2 ints in memory in symmetry-blocked form, NReq=3425113631.
 FoFCou: FMM=F IPFlag=           8 FMFlag=           0 FMFlg1=           0
         NFxFlg=           0 DoJE=F BraDBF=F KetDBF=F FulRan=T
         wScrn=  0.000000 ICntrl=       600 IOpCl=  0 I1Cent=           0 NGrid=           0
         NMat0=    1 NMatS0=  73920 NMatT0=    0 NMatD0=    1 NMtDS0=    0 NMtDT0=    0
 Petite list used in FoFCou.
 Restricted open shell SCF:
 Using DIIS extrapolation, IDIIS=  1040.
 NGot= 10737418240 LenX=  9351093905 LenY=  9350846399
 Requested convergence on RMS density matrix=1.00D-08 within 300 cycles.
 Requested convergence on MAX density matrix=1.00D-06.
 Requested convergence on             energy=1.00D-06.
 No special actions if energy rises.

 Cycle   1  Pass 1  IDiag  1:
 E= -61.8969957002916    
 DIIS: error= 1.47D-01 at cycle   1 NSaved=   1.
 NSaved= 1 IEnMin= 1 EnMin= -61.8969957002916     IErMin= 1 ErrMin= 1.47D-01
 ErrMax= 1.47D-01  0.00D+00 EMaxC= 1.00D-01 BMatC= 6.02D+00 BMatP= 6.02D+00
 IDIUse=3 WtCom= 0.00D+00 WtEn= 1.00D+00
 Coeff-Com:  0.100D+01
 Coeff-En:   0.100D+01
 Coeff:      0.100D+01
 Gap=     0.096 Goal=   None    Shift=    0.000
 GapD=    0.096 DampG=0.500 DampE=0.125 DampFc=0.1250 IDamp=-1.
 Damping current iteration by 1.25D-01
 RMSDP=1.42D-03 MaxDP=8.06D-02              OVMax= 3.72D-03

 Cycle   2  Pass 1  IDiag  1:
 E= -61.8970787680726     Delta-E=       -0.000083067781 Rises=F Damp=T
 DIIS: error= 1.29D-01 at cycle   2 NSaved=   2.
 NSaved= 2 IEnMin= 2 EnMin= -61.8970787680726     IErMin= 2 ErrMin= 1.29D-01
 ErrMax= 1.29D-01  0.00D+00 EMaxC= 1.00D-01 BMatC= 4.61D+00 BMatP= 6.02D+00
 IDIUse=3 WtCom= 0.00D+00 WtEn= 1.00D+00
 Coeff-Com: -0.700D+01 0.800D+01
 Coeff-En:   0.000D+00 0.100D+01
 Coeff:      0.000D+00 0.100D+01
 Gap=     0.096 Goal=   None    Shift=    0.000
 RMSDP=1.24D-03 MaxDP=7.07D-02 DE=-8.31D-05 OVMax= 9.32D-04

 Cycle   3  Pass 1  IDiag  1:
 E= -61.8976792325881     Delta-E=       -0.000600464515 Rises=F Damp=F
 DIIS: error= 1.06D-04 at cycle   3 NSaved=   3.
 NSaved= 3 IEnMin= 3 EnMin= -61.8976792325881     IErMin= 3 ErrMin= 1.06D-04
 ErrMax= 1.06D-04  0.00D+00 EMaxC= 1.00D-01 BMatC= 3.44D-06 BMatP= 4.61D+00
 IDIUse=3 WtCom= 9.99D-01 WtEn= 1.06D-03
 Coeff-Com:  0.104D+00-0.119D+00 0.101D+01
 Coeff-En:   0.000D+00 0.000D+00 0.100D+01
 Coeff:      0.104D+00-0.118D+00 0.101D+01
 Gap=     0.096 Goal=   None    Shift=    0.000
 RMSDP=5.51D-05 MaxDP=8.49D-03 DE=-6.00D-04 OVMax= 1.16D-03

 Cycle   4  Pass 1  IDiag  1:
 E= -61.8976807590551     Delta-E=       -0.000001526467 Rises=F Damp=F
 DIIS: error= 8.86D-05 at cycle   4 NSaved=   4.
 NSaved= 4 IEnMin= 4 EnMin= -61.8976807590551     IErMin= 4 ErrMin= 8.86D-05
 ErrMax= 8.86D-05  0.00D+00 EMaxC= 1.00D-01 BMatC= 7.91D-07 BMatP= 3.44D-06
 IDIUse=1 WtCom= 1.00D+00 WtEn= 0.00D+00
 Coeff-Com:  0.230D-01-0.263D-01 0.233D+00 0.770D+00
 Coeff:      0.230D-01-0.263D-01 0.233D+00 0.770D+00
 Gap=     0.096 Goal=   None    Shift=    0.000
 RMSDP=1.18D-05 MaxDP=2.41D-03 DE=-1.53D-06 OVMax= 8.44D-04

 Cycle   5  Pass 1  IDiag  1:
 E= -61.8976810016556     Delta-E=       -0.000000242601 Rises=F Damp=F
 DIIS: error= 7.55D-05 at cycle   5 NSaved=   5.
 NSaved= 5 IEnMin= 5 EnMin= -61.8976810016556     IErMin= 5 ErrMin= 7.55D-05
 ErrMax= 7.55D-05  0.00D+00 EMaxC= 1.00D-01 BMatC= 5.72D-07 BMatP= 7.91D-07
 IDIUse=1 WtCom= 1.00D+00 WtEn= 0.00D+00
 Coeff-Com:  0.148D+00-0.169D+00-0.278D-01 0.463D+00 0.586D+00
 Coeff:      0.148D+00-0.169D+00-0.278D-01 0.463D+00 0.586D+00
 Gap=     0.096 Goal=   None    Shift=    0.000
 RMSDP=5.28D-06 MaxDP=1.30D-03 DE=-2.43D-07 OVMax= 2.89D-04

 Cycle   6  Pass 1  IDiag  1:
 E= -61.8976814727464     Delta-E=       -0.000000471091 Rises=F Damp=F
 DIIS: error= 3.33D-06 at cycle   6 NSaved=   6.
 NSaved= 6 IEnMin= 6 EnMin= -61.8976814727464     IErMin= 6 ErrMin= 3.33D-06
 ErrMax= 3.33D-06  0.00D+00 EMaxC= 1.00D-01 BMatC= 1.48D-09 BMatP= 5.72D-07
 IDIUse=1 WtCom= 1.00D+00 WtEn= 0.00D+00
 Coeff-Com:  0.103D+00-0.118D+00 0.908D-02 0.393D-01 0.650D-01 0.901D+00
 Coeff:      0.103D+00-0.118D+00 0.908D-02 0.393D-01 0.650D-01 0.901D+00
 Gap=     0.096 Goal=   None    Shift=    0.000
 RMSDP=1.40D-06 MaxDP=3.71D-04 DE=-4.71D-07 OVMax= 8.20D-05

 Cycle   7  Pass 1  IDiag  1:
 E= -61.8976814726691     Delta-E=        0.000000000077 Rises=F Damp=F
 DIIS: error= 2.47D-06 at cycle   7 NSaved=   7.
 NSaved= 7 IEnMin= 6 EnMin= -61.8976814727464     IErMin= 7 ErrMin= 2.47D-06
 ErrMax= 2.47D-06  0.00D+00 EMaxC= 1.00D-01 BMatC= 9.22D-10 BMatP= 1.48D-09
 IDIUse=1 WtCom= 1.00D+00 WtEn= 0.00D+00
 Coeff-Com:  0.969D-01-0.111D+00 0.178D-01-0.272D-01-0.307D-01 0.174D+00
 Coeff-Com:  0.880D+00
 Coeff:      0.969D-01-0.111D+00 0.178D-01-0.272D-01-0.307D-01 0.174D+00
 Coeff:      0.880D+00
 Gap=     0.096 Goal=   None    Shift=    0.000
 RMSDP=4.39D-07 MaxDP=5.88D-05 DE= 7.73D-11 OVMax= 4.84D-05

 Cycle   8  Pass 1  IDiag  1:
 E= -61.8976814740746     Delta-E=       -0.000000001406 Rises=F Damp=F
 DIIS: error= 2.18D-06 at cycle   8 NSaved=   8.
 NSaved= 8 IEnMin= 8 EnMin= -61.8976814740746     IErMin= 8 ErrMin= 2.18D-06
 ErrMax= 2.18D-06  0.00D+00 EMaxC= 1.00D-01 BMatC= 5.37D-10 BMatP= 9.22D-10
 IDIUse=1 WtCom= 1.00D+00 WtEn= 0.00D+00
 Coeff-Com:  0.799D-01-0.913D-01 0.139D-01-0.798D-02-0.861D-02-0.557D-01
 Coeff-Com:  0.175D+00 0.895D+00
 Coeff:      0.799D-01-0.913D-01 0.139D-01-0.798D-02-0.861D-02-0.557D-01
 Coeff:      0.175D+00 0.895D+00
 Gap=     0.096 Goal=   None    Shift=    0.000
 RMSDP=4.79D-07 MaxDP=1.53D-04 DE=-1.41D-09 OVMax= 1.13D-05

 Cycle   9  Pass 1  IDiag  1:
 E= -61.8976814743272     Delta-E=       -0.000000000253 Rises=F Damp=F
 DIIS: error= 1.78D-06 at cycle   9 NSaved=   9.
 NSaved= 9 IEnMin= 9 EnMin= -61.8976814743272     IErMin= 9 ErrMin= 1.78D-06
 ErrMax= 1.78D-06  0.00D+00 EMaxC= 1.00D-01 BMatC= 3.92D-10 BMatP= 5.37D-10
 IDIUse=1 WtCom= 1.00D+00 WtEn= 0.00D+00
 Coeff-Com:  0.533D-01-0.609D-01 0.771D-02 0.100D-01 0.133D-01-0.655D-01
 Coeff-Com: -0.321D+00-0.414D+00 0.178D+01
 Coeff:      0.533D-01-0.609D-01 0.771D-02 0.100D-01 0.133D-01-0.655D-01
 Coeff:     -0.321D+00-0.414D+00 0.178D+01
 Gap=     0.096 Goal=   None    Shift=    0.000
 RMSDP=7.96D-07 MaxDP=2.49D-04 DE=-2.53D-10 OVMax= 1.79D-05

 Cycle  10  Pass 1  IDiag  1:
 E= -61.8976814748542     Delta-E=       -0.000000000527 Rises=F Damp=F
 DIIS: error= 1.18D-06 at cycle  10 NSaved=  10.
 NSaved=10 IEnMin=10 EnMin= -61.8976814748542     IErMin=10 ErrMin= 1.18D-06
 ErrMax= 1.18D-06  0.00D+00 EMaxC= 1.00D-01 BMatC= 1.67D-10 BMatP= 3.92D-10
 IDIUse=1 WtCom= 1.00D+00 WtEn= 0.00D+00
 Coeff-Com:  0.307D-01-0.351D-01 0.508D-02-0.241D-02-0.188D-02 0.350D-01
 Coeff-Com:  0.837D-01-0.337D+00-0.362D+00 0.158D+01
 Coeff:      0.307D-01-0.351D-01 0.508D-02-0.241D-02-0.188D-02 0.350D-01
 Coeff:      0.837D-01-0.337D+00-0.362D+00 0.158D+01
 Gap=     0.096 Goal=   None    Shift=    0.000
 RMSDP=6.14D-07 MaxDP=1.93D-04 DE=-5.27D-10 OVMax= 1.37D-05

 Cycle  11  Pass 1  IDiag  1:
 E= -61.8976814750940     Delta-E=       -0.000000000240 Rises=F Damp=F
 DIIS: error= 6.91D-07 at cycle  11 NSaved=  11.
 NSaved=11 IEnMin=11 EnMin= -61.8976814750940     IErMin=11 ErrMin= 6.91D-07
 ErrMax= 6.91D-07  0.00D+00 EMaxC= 1.00D-01 BMatC= 5.51D-11 BMatP= 1.67D-10
 IDIUse=1 WtCom= 1.00D+00 WtEn= 0.00D+00
 Coeff-Com:  0.225D-01-0.257D-01 0.388D-02-0.318D-02-0.315D-02 0.248D-01
 Coeff-Com:  0.996D-01-0.117D+00-0.362D+00 0.523D+00 0.837D+00
 Coeff:      0.225D-01-0.257D-01 0.388D-02-0.318D-02-0.315D-02 0.248D-01
 Coeff:      0.996D-01-0.117D+00-0.362D+00 0.523D+00 0.837D+00
 Gap=     0.096 Goal=   None    Shift=    0.000
 RMSDP=2.53D-07 MaxDP=7.96D-05 DE=-2.40D-10 OVMax= 5.13D-06

 Cycle  12  Pass 1  IDiag  1:
 E= -61.8976814751444     Delta-E=       -0.000000000050 Rises=F Damp=F
 DIIS: error= 5.01D-07 at cycle  12 NSaved=  12.
 NSaved=12 IEnMin=12 EnMin= -61.8976814751444     IErMin=12 ErrMin= 5.01D-07
 ErrMax= 5.01D-07  0.00D+00 EMaxC= 1.00D-01 BMatC= 2.99D-11 BMatP= 5.51D-11
 IDIUse=1 WtCom= 1.00D+00 WtEn= 0.00D+00
 Coeff-Com:  0.174D-01-0.199D-01 0.284D-02-0.276D-03 0.143D-03-0.446D-02
 Coeff-Com:  0.148D-02-0.147D-01 0.138D+00-0.279D+00-0.631D-02 0.116D+01
 Coeff:      0.174D-01-0.199D-01 0.284D-02-0.276D-03 0.143D-03-0.446D-02
 Coeff:      0.148D-02-0.147D-01 0.138D+00-0.279D+00-0.631D-02 0.116D+01
 Gap=     0.096 Goal=   None    Shift=    0.000
 RMSDP=1.44D-07 MaxDP=4.54D-05 DE=-5.03D-11 OVMax= 3.51D-06

 Cycle  13  Pass 1  IDiag  1:
 E= -61.8976814751697     Delta-E=       -0.000000000025 Rises=F Damp=F
 DIIS: error= 3.88D-07 at cycle  13 NSaved=  13.
 NSaved=13 IEnMin=13 EnMin= -61.8976814751697     IErMin=13 ErrMin= 3.88D-07
 ErrMax= 3.88D-07  0.00D+00 EMaxC= 1.00D-01 BMatC= 1.78D-11 BMatP= 2.99D-11
 IDIUse=1 WtCom= 1.00D+00 WtEn= 0.00D+00
 Coeff-Com:  0.131D-01-0.150D-01 0.209D-02 0.350D-03 0.828D-03-0.525D-02
 Coeff-Com: -0.167D-01-0.398D-01 0.162D+00-0.778D-01-0.340D+00 0.487D-01
 Coeff-Com:  0.127D+01
 Coeff:      0.131D-01-0.150D-01 0.209D-02 0.350D-03 0.828D-03-0.525D-02
 Coeff:     -0.167D-01-0.398D-01 0.162D+00-0.778D-01-0.340D+00 0.487D-01
 Coeff:      0.127D+01
 Gap=     0.096 Goal=   None    Shift=    0.000
 RMSDP=1.21D-07 MaxDP=3.81D-05 DE=-2.53D-11 OVMax= 2.90D-06

 Cycle  14  Pass 1  IDiag  1:
 E= -61.8976814751856     Delta-E=       -0.000000000016 Rises=F Damp=F
 DIIS: error= 2.93D-07 at cycle  14 NSaved=  14.
 NSaved=14 IEnMin=14 EnMin= -61.8976814751856     IErMin=14 ErrMin= 2.93D-07
 ErrMax= 2.93D-07  0.00D+00 EMaxC= 1.00D-01 BMatC= 1.01D-11 BMatP= 1.78D-11
 IDIUse=1 WtCom= 1.00D+00 WtEn= 0.00D+00
 Coeff-Com:  0.370D-02-0.423D-02 0.628D-03-0.467D-03-0.443D-03 0.538D-02
 Coeff-Com:  0.178D-01-0.389D-01-0.707D-01 0.207D+00 0.607D-01-0.522D+00
 Coeff-Com: -0.174D+01 0.308D+01
 Coeff:      0.370D-02-0.423D-02 0.628D-03-0.467D-03-0.443D-03 0.538D-02
 Coeff:      0.178D-01-0.389D-01-0.707D-01 0.207D+00 0.607D-01-0.522D+00
 Coeff:     -0.174D+01 0.308D+01
 Gap=     0.096 Goal=   None    Shift=    0.000
 RMSDP=2.70D-07 MaxDP=8.48D-05 DE=-1.59D-11 OVMax= 6.40D-06

 Cycle  15  Pass 1  IDiag  1:
 E= -61.8976814752050     Delta-E=       -0.000000000019 Rises=F Damp=F
 DIIS: error= 8.27D-08 at cycle  15 NSaved=  15.
 NSaved=15 IEnMin=15 EnMin= -61.8976814752050     IErMin=15 ErrMin= 8.27D-08
 ErrMax= 8.27D-08  0.00D+00 EMaxC= 1.00D-01 BMatC= 8.12D-13 BMatP= 1.01D-11
 IDIUse=1 WtCom= 1.00D+00 WtEn= 0.00D+00
 Coeff-Com:  0.130D-02-0.149D-02 0.220D-03-0.116D-03-0.101D-03 0.555D-03
 Coeff-Com:  0.376D-02-0.336D-02-0.657D-02-0.185D-04 0.380D-01 0.680D-01
 Coeff-Com: -0.303D+00 0.287D-02 0.120D+01
 Coeff:      0.130D-02-0.149D-02 0.220D-03-0.116D-03-0.101D-03 0.555D-03
 Coeff:      0.376D-02-0.336D-02-0.657D-02-0.185D-04 0.380D-01 0.680D-01
 Coeff:     -0.303D+00 0.287D-02 0.120D+01
 Gap=     0.096 Goal=   None    Shift=    0.000
 RMSDP=6.75D-08 MaxDP=2.13D-05 DE=-1.94D-11 OVMax= 1.66D-06

 Cycle  16  Pass 1  IDiag  1:
 E= -61.8976814752064     Delta-E=       -0.000000000001 Rises=F Damp=F
 DIIS: error= 2.93D-08 at cycle  16 NSaved=  16.
 NSaved=16 IEnMin=16 EnMin= -61.8976814752064     IErMin=16 ErrMin= 2.93D-08
 ErrMax= 2.93D-08  0.00D+00 EMaxC= 1.00D-01 BMatC= 9.98D-14 BMatP= 8.12D-13
 IDIUse=1 WtCom= 1.00D+00 WtEn= 0.00D+00
 Large coefficients: NSaved= 16 BigCof=    0.00 CofMax=   10.00 Det=-3.71D-16
 Inversion failed.  Reducing to 15 matrices.
 Coeff-Com:  0.553D-10-0.122D-05 0.289D-04 0.349D-04-0.620D-03-0.139D-02
 Coeff-Com:  0.410D-02 0.874D-02-0.311D-01-0.230D-03 0.977D-01 0.151D+00
 Coeff-Com: -0.520D+00 0.455D+00 0.837D+00
 Coeff:      0.553D-10-0.122D-05 0.289D-04 0.349D-04-0.620D-03-0.139D-02
 Coeff:      0.410D-02 0.874D-02-0.311D-01-0.230D-03 0.977D-01 0.151D+00
 Coeff:     -0.520D+00 0.455D+00 0.837D+00
 Gap=     0.096 Goal=   None    Shift=    0.000
 RMSDP=3.80D-08 MaxDP=1.19D-05 DE=-1.39D-12 OVMax= 8.80D-07

 Cycle  17  Pass 1  IDiag  1:
 E= -61.8976814752066     Delta-E=       -0.000000000000 Rises=F Damp=F
 DIIS: error= 5.17D-10 at cycle  17 NSaved=  16.
 NSaved=16 IEnMin=16 EnMin= -61.8976814752066     IErMin=16 ErrMin= 5.17D-10
 ErrMax= 5.17D-10  0.00D+00 EMaxC= 1.00D-01 BMatC= 3.19D-17 BMatP= 9.98D-14
 IDIUse=1 WtCom= 1.00D+00 WtEn= 0.00D+00
 Large coefficients: NSaved= 16 BigCof=    0.00 CofMax=   10.00 Det=-1.52D-16
 Inversion failed.  Reducing to 15 matrices.
 Coeff-Com: -0.157D-05 0.211D-04 0.271D-04-0.193D-03-0.796D-03 0.326D-03
 Coeff-Com:  0.357D-02-0.362D-02-0.949D-02 0.525D-03 0.767D-01-0.412D-01
 Coeff-Com: -0.151D+00 0.242D-01 0.110D+01
 Coeff:     -0.157D-05 0.211D-04 0.271D-04-0.193D-03-0.796D-03 0.326D-03
 Coeff:      0.357D-02-0.362D-02-0.949D-02 0.525D-03 0.767D-01-0.412D-01
 Coeff:     -0.151D+00 0.242D-01 0.110D+01
 Gap=     0.096 Goal=   None    Shift=    0.000
 RMSDP=2.04D-10 MaxDP=3.68D-08 DE=-1.42D-13 OVMax= 1.51D-08

 SCF Done:  E(ROHF) =  -61.8976814752     A.U. after   17 cycles
            NFock= 17  Conv=0.20D-09     -V/T= 3.0955
 <Sx>= 0.0000 <Sy>= 0.0000 <Sz>= 0.5000 <S**2>= 0.7500 S= 0.5000
 <L.S>=  0.00000000000    
 KE= 2.953899659462D+01 PE=-1.679420240403D+02 EE= 5.904249801013D+01
 Annihilation of the first spin contaminant:
 S**2 before annihilation     0.7500,   after     0.7500
 Leave Link  502 at Mon Mar  5 18:28:56 2018, MaxMem= 10737418240 cpu:            1826.2 elap:             128.9
 (Enter /home1/apps/gaussian/16rA.03/g16/l801.exe)
 Windowed orbitals will be sorted by symmetry type.
 GenMOA:  NOpAll=  4 NOp2=4 NOpUse=  4 JSym2X=1
 FoFJK:  IHMeth= 1 ICntrl=       0 DoSepK=F KAlg= 0 I1Cent=           0 FoldK=F
 IRaf=         0 NMat=       1 IRICut=       1 DoRegI=T DoRafI=F ISym2E= 1 IDoP0=0 IntGTp=1.
 FoFCou: FMM=F IPFlag=           8 FMFlag=      100000 FMFlg1=           0
         NFxFlg=           0 DoJE=F BraDBF=F KetDBF=F FulRan=T
         wScrn=  0.000000 ICntrl=         0 IOpCl=  1 I1Cent=           0 NGrid=           0
         NMat0=    1 NMatS0=      1 NMatT0=    0 NMatD0=    1 NMtDS0=    0 NMtDT0=    0
 Petite list used in FoFCou.
 <Sx>= 0.0000 <Sy>= 0.0000 <Sz>= 0.5000 <S**2>= 0.7500 S= 0.5000
 Range of M.O.s used for correlation:     1   383
 NBasis=   384 NAE=     9 NBE=     8 NFC=     0 NFV=     0
 NROrb=    383 NOA=     9 NOB=     8 NVA=   374 NVB=   375

 **** Warning!!: The largest alpha MO coefficient is  0.31163126D+03


 **** Warning!!: The largest beta MO coefficient is  0.31162963D+03

 Singles contribution to E2=   -0.2435927248D-03
 Leave Link  801 at Mon Mar  5 18:29:30 2018, MaxMem= 10737418240 cpu:             525.5 elap:              32.9
 (Enter /home1/apps/gaussian/16rA.03/g16/l804.exe)
 Open-shell transformation, MDV= 10737418240 ITran=4 ISComp=2.
 Unit  1 TFree=       4459698 TCopy=       3230129.
 Semi-Direct transformation.
 ModeAB=           4 MOrb=             9 LenV=   10733052957
 LASXX=     63702177 LTotXX=    63702177 LenRXX=   128059521
 LTotAB=    64357344 MaxLAS=   420247899 LenRXY=           0
 NonZer=   191761698 LenScr=   288771072 LnRSAI=   420247899
 LnScr1=   632844288 LExtra=    17918610 Total=   1487841390
 MaxDsk= 67108864000 SrtSym=           T ITran=            4
 DoSDTr:  NPSUse= 16
 JobTyp=1 Pass  1:  I=   1 to   9.
 (rs|ai) integrals will be sorted in core.
 Complete sort for first half transformation.
 First half transformation complete.
 Complete sort for second half transformation.
 Second half transformation complete.
 ModeAB=           4 MOrb=             8 LenV=   10733052957
 LASXX=     56573606 LTotXX=    56573606 LenRXX=   111007430
 LTotAB=    54433824 MaxLAS=   373553688 LenRXY=           0
 NonZer=   167581036 LenScr=   252357632 LnRSAI=   373553688
 LnScr1=   562528256 LExtra=   145978131 Total=   1445425137
 MaxDsk= 67108864000 SrtSym=           T ITran=            4
 DoSDTr:  NPSUse= 16
 JobTyp=2 Pass  1:  I=   1 to   8.
 (rs|ai) integrals will be sorted in core.
 Complete sort for first half transformation.
 First half transformation complete.
 Complete sort for second half transformation.
 Second half transformation complete.
 Spin components of T(2) and E(2):
     alpha-alpha T2 =       0.3651471858D-01 E2=     -0.1003163559D+00
     alpha-beta  T2 =       0.1564676776D+00 E2=     -0.5332920344D+00
     beta-beta   T2 =       0.3223870752D-01 E2=     -0.9131255819D-01
 ANorm=    0.1107008596D+01
 E2 =    -0.7251645412D+00 EUMP2 =    -0.62622846016425D+02
 (S**2,0)=  0.75000D+00           (S**2,1)=  0.75000D+00
 E(PUHF)=      -0.61897681475D+02        E(PMP2)=      -0.62622846016D+02
 Recovering and transforming amplitudes from chk file.
 B after Tr=     0.000000    0.000000    0.000000
         Rot=    1.000000    0.000000    0.000000    0.000000 Ang=   0.00 deg.
 Alpha occ  Sing. vals= 9.999997D-01 9.999997D-01 9.999996D-01 9.999996D-01 9.999971D-01 9.999968D-01 9.999767D-01 9.999703D-01 9.999703D-01
 Alpha occ  NOrbO=     9 NOrbN=     9 NSVal=     9 ThrEig=  0.900000.
 TrMax= 1.000000D+00 PrMax= 1.000000D+00 Trace(Pr)= 9.000000D+00
 B after Tr=     0.000000    0.000000    0.000000
         Rot=    1.000000    0.000000    0.000000    0.000000 Ang=   0.00 deg.
 Alpha virt Sing. vals= 1.000000D+00 1.000000D+00 1.000000D+00 1.000000D+00 1.000000D+00 1.000000D+00 1.000000D+00 1.000000D+00 1.000000D+00 1.000000D+00
 Alpha virt Sing. vals= 1.000000D+00 1.000000D+00 1.000000D+00 1.000000D+00 1.000000D+00 1.000000D+00 1.000000D+00 1.000000D+00 1.000000D+00 1.000000D+00
 Alpha virt Sing. vals= 1.000000D+00 1.000000D+00 1.000000D+00 1.000000D+00 1.000000D+00 1.000000D+00 1.000000D+00 1.000000D+00 1.000000D+00 1.000000D+00
 Alpha virt Sing. vals= 1.000000D+00 1.000000D+00 1.000000D+00 1.000000D+00 1.000000D+00 1.000000D+00 1.000000D+00 9.999999D-01 9.999999D-01 9.999999D-01
 Alpha virt Sing. vals= 9.999999D-01 9.999999D-01 9.999999D-01 9.999997D-01 9.999997D-01 9.999996D-01 9.999994D-01 9.999993D-01 9.999991D-01 9.999991D-01
 Alpha virt Sing. vals= 9.999991D-01 9.999991D-01 9.999990D-01 9.999990D-01 9.999980D-01 9.999976D-01 9.999975D-01 9.999975D-01 9.999973D-01 9.999973D-01
 Alpha virt Sing. vals= 9.999973D-01 9.999950D-01 9.999950D-01 9.999950D-01 9.999938D-01 9.999925D-01 9.999919D-01 9.999919D-01 9.999911D-01 9.999906D-01
 Alpha virt Sing. vals= 9.999906D-01 9.999905D-01 9.999905D-01 9.999888D-01 9.999872D-01 9.999864D-01 9.999864D-01 9.999860D-01 9.999804D-01 9.999757D-01
 Alpha virt Sing. vals= 9.999757D-01 9.999634D-01 9.999607D-01 9.999607D-01 9.999539D-01 9.999439D-01 9.999335D-01 9.999335D-01 9.999280D-01 9.999221D-01
 Alpha virt Sing. vals= 9.999133D-01 9.999133D-01 9.999021D-01 9.998881D-01 9.998834D-01 9.998834D-01 9.998832D-01 9.998832D-01 9.998399D-01 9.998300D-01
 Alpha virt Sing. vals= 9.998300D-01 9.997974D-01 9.997502D-01 9.997443D-01 9.997443D-01 9.997407D-01 9.997407D-01 9.997407D-01 9.997393D-01 9.997393D-01
 Alpha virt Sing. vals= 9.996343D-01 9.996273D-01 9.996094D-01 9.996094D-01 9.995814D-01 9.995330D-01 9.995295D-01 9.995295D-01 9.994930D-01 9.994930D-01
 Alpha virt Sing. vals= 9.992853D-01 9.992236D-01 9.992236D-01 9.991282D-01 9.991282D-01 9.990933D-01 9.990933D-01 9.990324D-01 9.990324D-01 9.989062D-01
 Alpha virt Sing. vals= 9.988958D-01 9.988958D-01 9.987822D-01 9.987768D-01 9.987768D-01 9.987751D-01 9.987751D-01 9.985282D-01 9.983450D-01 9.983368D-01
 Alpha virt Sing. vals= 9.983368D-01 9.982930D-01 9.982930D-01 9.982231D-01 9.981142D-01 9.981142D-01 9.978615D-01 9.977823D-01 9.977823D-01 9.977148D-01
 Alpha virt Sing. vals= 9.976343D-01 9.976343D-01 9.973665D-01 9.973665D-01 9.973174D-01 9.965028D-01 9.962382D-01 9.962382D-01 9.956423D-01 9.954454D-01
 Alpha virt Sing. vals= 9.954454D-01 9.949614D-01 9.949614D-01 9.948339D-01 9.947380D-01 9.947380D-01 9.947376D-01 9.946776D-01 9.946776D-01 9.944762D-01
 Alpha virt Sing. vals= 9.944762D-01 9.942790D-01 9.942790D-01 9.941671D-01 9.941671D-01 9.933556D-01 9.926661D-01 9.926661D-01 9.925738D-01 9.925738D-01
 Alpha virt Sing. vals= 9.922534D-01 9.905854D-01 9.905854D-01 9.889619D-01 9.888405D-01 9.888405D-01 9.877755D-01 9.858053D-01 9.837057D-01 9.837057D-01
 Alpha virt Sing. vals= 9.800615D-01 9.796333D-01 9.796333D-01 9.778573D-01 9.778573D-01 9.777136D-01 9.777136D-01 9.776842D-01 9.771856D-01 9.771856D-01
 Alpha virt Sing. vals= 9.767372D-01 9.767372D-01 9.767116D-01 9.767116D-01 9.765740D-01 9.765740D-01 9.714877D-01 9.713547D-01 9.713547D-01 9.703549D-01
 Alpha virt Sing. vals= 9.703549D-01 9.603107D-01 9.469377D-01 9.430292D-01 9.428629D-01 9.428629D-01 9.421665D-01 9.421665D-01 9.354384D-01 9.354384D-01
 Alpha virt Sing. vals= 9.350838D-01 9.350483D-01 9.350483D-01 9.331710D-01 9.311358D-01 9.287506D-01 9.287506D-01 9.264099D-01 9.264099D-01 9.202157D-01
 Alpha virt Sing. vals= 9.202157D-01 9.169569D-01 9.047056D-01 9.047056D-01 8.980754D-01 8.980754D-01 8.980152D-01 8.980152D-01 8.900464D-01 8.859782D-01
 Alpha virt Sing. vals= 8.859782D-01 8.852283D-01 8.852283D-01 8.836603D-01 8.836603D-01 8.824358D-01 8.824358D-01 8.337444D-01 4.529081D-01
 Alpha virt NOrbO=   249 NOrbN=   374 NSVal=   234 ThrEig=  0.900000.
 TrMax= 9.999117D-01 PrMax= 9.999200D-01 Trace(Pr)= 2.340000D+02
 B after Tr=     0.000000    0.000000    0.000000
         Rot=    1.000000    0.000000    0.000000    0.000000 Ang=   0.00 deg.
 Beta  occ  Sing. vals= 9.999997D-01 9.999997D-01 9.999996D-01 9.999996D-01 9.999968D-01 9.999770D-01 9.999703D-01 9.999703D-01
 Beta  occ  NOrbO=     8 NOrbN=     8 NSVal=     8 ThrEig=  0.900000.
 TrMax= 1.000000D+00 PrMax= 1.000000D+00 Trace(Pr)= 8.000000D+00
 B after Tr=     0.000000    0.000000    0.000000
         Rot=    1.000000    0.000000    0.000000    0.000000 Ang=   0.00 deg.
 Beta  virt Sing. vals= 1.000000D+00 1.000000D+00 1.000000D+00 1.000000D+00 1.000000D+00 1.000000D+00 1.000000D+00 1.000000D+00 1.000000D+00 1.000000D+00
 Beta  virt Sing. vals= 1.000000D+00 1.000000D+00 1.000000D+00 1.000000D+00 1.000000D+00 1.000000D+00 1.000000D+00 1.000000D+00 1.000000D+00 1.000000D+00
 Beta  virt Sing. vals= 1.000000D+00 1.000000D+00 1.000000D+00 1.000000D+00 1.000000D+00 1.000000D+00 1.000000D+00 1.000000D+00 1.000000D+00 1.000000D+00
 Beta  virt Sing. vals= 1.000000D+00 1.000000D+00 1.000000D+00 1.000000D+00 1.000000D+00 1.000000D+00 1.000000D+00 1.000000D+00 9.999999D-01 9.999999D-01
 Beta  virt Sing. vals= 9.999999D-01 9.999999D-01 9.999999D-01 9.999999D-01 9.999997D-01 9.999997D-01 9.999996D-01 9.999994D-01 9.999993D-01 9.999991D-01
 Beta  virt Sing. vals= 9.999991D-01 9.999991D-01 9.999991D-01 9.999990D-01 9.999990D-01 9.999980D-01 9.999976D-01 9.999975D-01 9.999975D-01 9.999973D-01
 Beta  virt Sing. vals= 9.999973D-01 9.999973D-01 9.999950D-01 9.999950D-01 9.999950D-01 9.999938D-01 9.999924D-01 9.999919D-01 9.999919D-01 9.999911D-01
 Beta  virt Sing. vals= 9.999906D-01 9.999906D-01 9.999905D-01 9.999905D-01 9.999887D-01 9.999872D-01 9.999864D-01 9.999864D-01 9.999859D-01 9.999804D-01
 Beta  virt Sing. vals= 9.999757D-01 9.999757D-01 9.999634D-01 9.999607D-01 9.999607D-01 9.999539D-01 9.999439D-01 9.999335D-01 9.999335D-01 9.999280D-01
 Beta  virt Sing. vals= 9.999221D-01 9.999133D-01 9.999133D-01 9.999020D-01 9.998881D-01 9.998834D-01 9.998834D-01 9.998832D-01 9.998832D-01 9.998399D-01
 Beta  virt Sing. vals= 9.998300D-01 9.998300D-01 9.997974D-01 9.997502D-01 9.997443D-01 9.997443D-01 9.997407D-01 9.997407D-01 9.997407D-01 9.997393D-01
 Beta  virt Sing. vals= 9.997393D-01 9.996343D-01 9.996273D-01 9.996094D-01 9.996094D-01 9.995814D-01 9.995330D-01 9.995295D-01 9.995295D-01 9.994930D-01
 Beta  virt Sing. vals= 9.994930D-01 9.992853D-01 9.992236D-01 9.992236D-01 9.991282D-01 9.991282D-01 9.990933D-01 9.990933D-01 9.990324D-01 9.990324D-01
 Beta  virt Sing. vals= 9.989062D-01 9.988958D-01 9.988958D-01 9.987822D-01 9.987768D-01 9.987768D-01 9.987751D-01 9.987751D-01 9.985281D-01 9.983450D-01
 Beta  virt Sing. vals= 9.983368D-01 9.983368D-01 9.982930D-01 9.982930D-01 9.982230D-01 9.981142D-01 9.981142D-01 9.978615D-01 9.977823D-01 9.977823D-01
 Beta  virt Sing. vals= 9.977148D-01 9.976343D-01 9.976343D-01 9.973665D-01 9.973665D-01 9.973170D-01 9.965028D-01 9.962382D-01 9.962382D-01 9.956423D-01
 Beta  virt Sing. vals= 9.954454D-01 9.954454D-01 9.949614D-01 9.949614D-01 9.948339D-01 9.947380D-01 9.947380D-01 9.947376D-01 9.946776D-01 9.946776D-01
 Beta  virt Sing. vals= 9.944762D-01 9.944762D-01 9.942790D-01 9.942790D-01 9.941671D-01 9.941671D-01 9.933555D-01 9.926661D-01 9.926661D-01 9.925738D-01
 Beta  virt Sing. vals= 9.925738D-01 9.922534D-01 9.905854D-01 9.905854D-01 9.889618D-01 9.888405D-01 9.888405D-01 9.877755D-01 9.858052D-01 9.837057D-01
 Beta  virt Sing. vals= 9.837057D-01 9.800615D-01 9.796333D-01 9.796333D-01 9.778573D-01 9.778573D-01 9.777136D-01 9.777136D-01 9.776839D-01 9.771856D-01
 Beta  virt Sing. vals= 9.771856D-01 9.767372D-01 9.767372D-01 9.767116D-01 9.767116D-01 9.765740D-01 9.765740D-01 9.714877D-01 9.713547D-01 9.713547D-01
 Beta  virt Sing. vals= 9.703549D-01 9.703549D-01 9.603105D-01 9.469377D-01 9.430292D-01 9.428629D-01 9.428629D-01 9.421665D-01 9.421665D-01 9.354384D-01
 Beta  virt Sing. vals= 9.354384D-01 9.350838D-01 9.350483D-01 9.350483D-01 9.331710D-01 9.311357D-01 9.287506D-01 9.287506D-01 9.264099D-01 9.264099D-01
 Beta  virt Sing. vals= 9.202157D-01 9.202157D-01 9.169569D-01 9.047056D-01 9.047056D-01 8.980754D-01 8.980754D-01 8.980152D-01 8.980152D-01 8.900464D-01
 Beta  virt Sing. vals= 8.859782D-01 8.859782D-01 8.852283D-01 8.852283D-01 8.836603D-01 8.836603D-01 8.824358D-01 8.824358D-01 8.337443D-01 4.529081D-01
 Beta  virt NOrbO=   250 NOrbN=   375 NSVal=   235 ThrEig=  0.900000.
 TrMax= 9.999906D-01 PrMax= 9.999927D-01 Trace(Pr)= 2.350000D+02
 Leave Link  804 at Mon Mar  5 18:42:06 2018, MaxMem= 10737418240 cpu:           12080.2 elap:             756.3
 (Enter /home1/apps/gaussian/16rA.03/g16/l913.exe)
 CIDS:  MDV= 10737418240.
 IFCWin=0 IBDFC=1 NFBD=     0     0 NFCmp=     0     0 NFFFC=     0     0
 Amplitudes recovered.
 Using DD4UQ or CC4UQ for all iterations.
 Keep R2 and R3 ints in memory in symmetry-blocked form, NReq=3425131966.
 FoFCou: FMM=F IPFlag=           8 FMFlag=           0 FMFlg1=           0
         NFxFlg=           0 DoJE=F BraDBF=F KetDBF=F FulRan=T
         wScrn=  0.000000 ICntrl=       600 IOpCl=  0 I1Cent=           0 NGrid=           0
         NMat0=    1 NMatS0=  73920 NMatT0=    0 NMatD0=    1 NMtDS0=    0 NMtDT0=    0
 Petite list used in FoFCou.
 CIDS: In Core Option IDoMem=           1.
 CCSD(T)
 =======
 Iterations= 150 Convergence= 0.100D-06
 Produce multiple copies of IABC intergrals
 Iteration Nr.   1
 **********************
 DD1Dir will call FoFMem   1 times, MxPair=       208
 NAB=    72 NAA=    36 NBB=    28.
 Maximum subspace dimension=  5
 A-vector RMS=  1.5070346D-04 Max=  1.3451914D-03 conv= 1.00D-05.
 RLE energy=       -0.7024891085
 DE(Corr)= -0.70219213     E(Corr)=     -62.599873609    
 NORM(A)=   0.11450327D+01
 Iteration Nr.   2
 **********************
 DD1Dir will call FoFMem   1 times, MxPair=       208
 NAB=    72 NAA=    36 NBB=    28.
 A-vector RMS=  1.3701175D-04 Max=  1.4846062D-03 conv= 1.00D-05.
 RLE energy=       -0.7021326418
 DE(Corr)= -0.70216876     E(CORR)=     -62.599850239     Delta= 2.34D-05
 NORM(A)=   0.11463485D+01
 Iteration Nr.   3
 **********************
 DD1Dir will call FoFMem   1 times, MxPair=       208
 NAB=    72 NAA=    36 NBB=    28.
 A-vector RMS=  1.1015296D-04 Max=  1.1375388D-03 conv= 1.00D-05.
 RLE energy=       -0.7029767041
 DE(Corr)= -0.70339107     E(CORR)=     -62.601072541     Delta=-1.22D-03
 NORM(A)=   0.11462931D+01
 Iteration Nr.   4
 **********************
 DD1Dir will call FoFMem   1 times, MxPair=       208
 NAB=    72 NAA=    36 NBB=    28.
 A-vector RMS=  8.7713881D-05 Max=  1.0133762D-03 conv= 1.00D-05.
 RLE energy=       -0.7027259585
 DE(Corr)= -0.70236044     E(CORR)=     -62.600041919     Delta= 1.03D-03
 NORM(A)=   0.11468114D+01
 Iteration Nr.   5
 **********************
 DD1Dir will call FoFMem   1 times, MxPair=       208
 NAB=    72 NAA=    36 NBB=    28.
 A-vector RMS=  1.9675334D-05 Max=  3.3840147D-04 conv= 1.00D-05.
 RLE energy=       -0.7027698106
 DE(Corr)= -0.70282462     E(CORR)=     -62.600506093     Delta=-4.64D-04
 NORM(A)=   0.11472309D+01
 Iteration Nr.   6
 **********************
 DD1Dir will call FoFMem   1 times, MxPair=       208
 NAB=    72 NAA=    36 NBB=    28.
 A-vector RMS=  2.1530061D-05 Max=  3.7346488D-04 conv= 1.00D-05.
 RLE energy=       -0.7027812548
 DE(Corr)= -0.70276549     E(CORR)=     -62.600446962     Delta= 5.91D-05
 NORM(A)=   0.11475740D+01
 Iteration Nr.   7
 **********************
 DD1Dir will call FoFMem   1 times, MxPair=       208
 NAB=    72 NAA=    36 NBB=    28.
 A-vector RMS=  9.8636569D-06 Max=  1.1818545D-04 conv= 1.00D-05.
 RLE energy=       -0.7027898940
 DE(Corr)= -0.70278632     E(CORR)=     -62.600467795     Delta=-2.08D-05
 NORM(A)=   0.11476626D+01
 Iteration Nr.   8
 **********************
 DD1Dir will call FoFMem   1 times, MxPair=       208
 NAB=    72 NAA=    36 NBB=    28.
 A-vector RMS=  7.1493350D-06 Max=  1.7083062D-04 conv= 1.00D-05.
 RLE energy=       -0.7027795296
 DE(Corr)= -0.70278976     E(CORR)=     -62.600471235     Delta=-3.44D-06
 NORM(A)=   0.11477321D+01
 Iteration Nr.   9
 **********************
 DD1Dir will call FoFMem   1 times, MxPair=       208
 NAB=    72 NAA=    36 NBB=    28.
 A-vector RMS=  5.4040872D-06 Max=  6.4628740D-05 conv= 1.00D-05.
 RLE energy=       -0.7028127387
 DE(Corr)= -0.70280359     E(CORR)=     -62.600485067     Delta=-1.38D-05
 NORM(A)=   0.11477236D+01
 Iteration Nr.  10
 **********************
 DD1Dir will call FoFMem   1 times, MxPair=       208
 NAB=    72 NAA=    36 NBB=    28.
 A-vector RMS=  5.3493506D-06 Max=  5.4677477D-05 conv= 1.00D-05.
 RLE energy=       -0.7027800160
 DE(Corr)= -0.70276076     E(CORR)=     -62.600442237     Delta= 4.28D-05
 NORM(A)=   0.11477558D+01
 Iteration Nr.  11
 **********************
 DD1Dir will call FoFMem   1 times, MxPair=       208
 NAB=    72 NAA=    36 NBB=    28.
 A-vector RMS=  4.2290382D-06 Max=  5.9045894D-05 conv= 1.00D-05.
 RLE energy=       -0.7027928542
 DE(Corr)= -0.70280949     E(CORR)=     -62.600490962     Delta=-4.87D-05
 NORM(A)=   0.11477524D+01
 Iteration Nr.  12
 **********************
 DD1Dir will call FoFMem   1 times, MxPair=       208
 NAB=    72 NAA=    36 NBB=    28.
 A-vector RMS=  1.1393096D-06 Max=  1.9352378D-05 conv= 1.00D-05.
 RLE energy=       -0.7027920841
 DE(Corr)= -0.70279026     E(CORR)=     -62.600471738     Delta= 1.92D-05
 NORM(A)=   0.11477538D+01
 Iteration Nr.  13
 **********************
 DD1Dir will call FoFMem   1 times, MxPair=       208
 NAB=    72 NAA=    36 NBB=    28.
 A-vector RMS=  1.5046353D-06 Max=  2.3189884D-05 conv= 1.00D-05.
 RLE energy=       -0.7027914345
 DE(Corr)= -0.70279271     E(CORR)=     -62.600474183     Delta=-2.45D-06
 NORM(A)=   0.11477525D+01
 Iteration Nr.  14
 **********************
 DD1Dir will call FoFMem   1 times, MxPair=       208
 NAB=    72 NAA=    36 NBB=    28.
 A-vector RMS=  5.1380463D-07 Max=  6.4773126D-06 conv= 1.00D-05.
 RLE energy=       -0.7027918871
 DE(Corr)= -0.70279330     E(CORR)=     -62.600474772     Delta=-5.89D-07
 NORM(A)=   0.11477513D+01
 Iteration Nr.  15
 **********************
 DD1Dir will call FoFMem   1 times, MxPair=       208
 NAB=    72 NAA=    36 NBB=    28.
 A-vector RMS=  8.0263942D-07 Max=  2.1037434D-05 conv= 1.00D-05.
 RLE energy=       -0.7027941780
 DE(Corr)= -0.70279286     E(CORR)=     -62.600474334     Delta= 4.38D-07
 NORM(A)=   0.11477486D+01
 Iteration Nr.  16
 **********************
 DD1Dir will call FoFMem   1 times, MxPair=       208
 NAB=    72 NAA=    36 NBB=    28.
 A-vector RMS=  5.2134502D-07 Max=  5.0755242D-06 conv= 1.00D-05.
 RLE energy=       -0.7027902152
 DE(Corr)= -0.70278974     E(CORR)=     -62.600471211     Delta= 3.12D-06
 NORM(A)=   0.11477492D+01
 Iteration Nr.  17
 **********************
 DD1Dir will call FoFMem   1 times, MxPair=       208
 NAB=    72 NAA=    36 NBB=    28.
 A-vector RMS=  5.9400723D-07 Max=  6.8917364D-06 conv= 1.00D-05.
 RLE energy=       -0.7027929414
 DE(Corr)= -0.70279522     E(CORR)=     -62.600476700     Delta=-5.49D-06
 NORM(A)=   0.11477466D+01
 Iteration Nr.  18
 **********************
 DD1Dir will call FoFMem   1 times, MxPair=       208
 NAB=    72 NAA=    36 NBB=    28.
 A-vector RMS=  3.5020164D-07 Max=  7.1724886D-06 conv= 1.00D-05.
 RLE energy=       -0.7027924482
 DE(Corr)= -0.70279124     E(CORR)=     -62.600472715     Delta= 3.98D-06
 NORM(A)=   0.11477461D+01
 Iteration Nr.  19
 **********************
 DD1Dir will call FoFMem   1 times, MxPair=       208
 NAB=    72 NAA=    36 NBB=    28.
 A-vector RMS=  1.7297203D-07 Max=  2.2129049D-06 conv= 1.00D-05.
 RLE energy=       -0.7027922735
 DE(Corr)= -0.70279207     E(CORR)=     -62.600473545     Delta=-8.30D-07
 NORM(A)=   0.11477449D+01
 Iteration Nr.  20
 **********************
 DD1Dir will call FoFMem   1 times, MxPair=       208
 NAB=    72 NAA=    36 NBB=    28.
 A-vector RMS=  1.8242047D-07 Max=  2.9912170D-06 conv= 1.00D-05.
 RLE energy=       -0.7027923661
 DE(Corr)= -0.70279213     E(CORR)=     -62.600473610     Delta=-6.56D-08
 NORM(A)=   0.11477445D+01
 CI/CC converged in   20 iterations to DelEn=-6.56D-08 Conv= 1.00D-07 ErrA1= 1.82D-07 Conv= 1.00D-05
 Wavefunction amplitudes converged. E(Corr)=     -62.600473610    
 Dominant configurations:
 ***********************
 Spin Case        I    J    A    B          Value
    AA            9        12           -0.103327D+00
 Largest amplitude= 1.03D-01
 Time for triples=    43544.39 seconds.
 T4(CCSD)= -0.73793701D-01
 T5(CCSD)=  0.20114289D-01
 CCSD(T)= -0.62654153022D+02
 Discarding MO integrals.
 Leave Link  913 at Mon Mar  5 19:43:29 2018, MaxMem= 10737418240 cpu:           58833.5 elap:            3682.4
 (Enter /home1/apps/gaussian/16rA.03/g16/l601.exe)
 Copying SCF densities to generalized density rwf, IOpCl= 0 IROHF=1.

 **********************************************************************

            Population analysis using the SCF density.

 **********************************************************************

 Orbital symmetries:
       Occupied  (SG) (PI) (PI) (SG) (SG) (SG) (PI) (PI) (SG)
       Virtual   (PI) (PI) (SG) (SG) (DLTA) (DLTA) (PI) (PI) (PI)
                 (PI) (SG) (SG) (DLTA) (DLTA) (SG) (PI) (PI) (DLTA)
                 (DLTA) (PI) (PI) (SG) (SG) (PI) (PI) (PHI) (PHI)
                 (SG) (DLTA) (DLTA) (PI) (PI) (SG) (DLTA) (DLTA)
                 (SG) (PI) (PI) (SG) (PI) (PI) (SG) (SG) (DLTA)
                 (DLTA) (PI) (PI) (?A) (?A) (PHI) (PHI) (PI) (PI)
                 (PHI) (PHI) (DLTA) (DLTA) (SG) (SG) (SG) (PI)
                 (PI) (DLTA) (DLTA) (PI) (PI) (SG) (?B) (?B) (PI)
                 (PI) (DLTA) (DLTA) (?A) (?A) (PHI) (PHI) (SG)
                 (PI) (PI) (DLTA) (DLTA) (SG) (SG) (PI) (PI) (SG)
                 (PI) (PI) (?A) (?A) (PHI) (PHI) (SG) (PI) (PI)
                 (DLTA) (DLTA) (SG) (DLTA) (DLTA) (PHI) (PHI) (DLTA)
                 (DLTA) (PI) (PI) (SG) (PI) (PI) (SG) (PHI) (PHI)
                 (DLTA) (DLTA) (SG) (PI) (PI) (DLTA) (DLTA) (SG)
                 (PI) (PI) (SG) (PI) (PI) (SG) (?B) (?B) (?A) (?A)
                 (PHI) (PHI) (DLTA) (DLTA) (PI) (PI) (PI) (PI)
                 (SG) (DLTA) (DLTA) (SG) (PI) (PI) (SG) (DLTA)
                 (DLTA) (PHI) (PHI) (?A) (?A) (PI) (PI) (SG) (PHI)
                 (PHI) (?A) (?A) (DLTA) (DLTA) (PHI) (PHI) (PI)
                 (PI) (SG) (PHI) (PHI) (SG) (DLTA) (DLTA) (DLTA)
                 (DLTA) (PI) (PI) (SG) (PI) (PI) (DLTA) (DLTA)
                 (SG) (SG) (PI) (PI) (DLTA) (DLTA) (PI) (PI) (SG)
                 (SG) (PI) (PI) (SG) (PI) (PI) (PHI) (PHI) (DLTA)
                 (DLTA) (PI) (PI) (SG) (DLTA) (DLTA) (PI) (PI)
                 (SG) (SG) (?A) (?A) (PHI) (PHI) (PI) (PI) (DLTA)
                 (DLTA) (PI) (PI) (SG) (SG) (?B) (?B) (?A) (?A)
                 (PHI) (PHI) (DLTA) (DLTA) (SG) (PI) (PI) (?A)
                 (?A) (PHI) (PHI) (DLTA) (DLTA) (SG) (PI) (PI)
                 (PHI) (PHI) (DLTA) (DLTA) (PI) (PI) (SG) (DLTA)
                 (DLTA) (SG) (PI) (PI) (SG) (SG) (DLTA) (DLTA)
                 (PI) (PI) (SG) (PI) (PI) (SG) (PI) (PI) (SG) (SG)
                 (DLTA) (DLTA) (PI) (PI) (SG) (SG) (PI) (PI) (SG)
                 (DLTA) (DLTA) (PI) (PI) (SG) (SG) (PI) (PI) (SG)
                 (DLTA) (DLTA) (PI) (PI) (SG) (SG) (PI) (PI) (SG)
                 (PHI) (PHI) (DLTA) (DLTA) (PI) (PI) (SG) (PI)
                 (PI) (SG) (SG) (SG) (PI) (PI) (SG) (DLTA) (DLTA)
                 (PI) (PI) (SG) (PI) (PI) (SG) (SG) (DLTA) (DLTA)
                 (PI) (PI) (SG) (SG) (PI) (PI) (SG) (SG) (PI) (PI)
                 (SG) (SG) (DLTA) (DLTA) (PI) (PI) (SG) (SG) (SG)
                 (PI) (PI) (SG) (PI) (PI) (SG) (SG) (SG) (PI) (PI)
                 (SG) (SG) (SG) (PI) (PI) (SG) (SG) (SG) (PI) (PI)
                 (SG) (SG) (PI) (PI) (SG) (SG) (SG) (PI) (PI) (SG)
                 (SG) (SG) (SG) (SG) (SG) (SG)
 The electronic state is 2-SG.
 Alpha  occ. eigenvalues --   -2.73918  -1.70812  -1.70812  -1.70286  -1.09791
 Alpha  occ. eigenvalues --   -0.38945  -0.34741  -0.34741  -0.28357
 Alpha virt. eigenvalues --   -0.01341  -0.01341   0.00487   0.01616   0.02375
 Alpha virt. eigenvalues --    0.02375   0.02519   0.02519   0.03042   0.03301
 Alpha virt. eigenvalues --    0.03301   0.04045   0.04394   0.04394   0.08634
 Alpha virt. eigenvalues --    0.08935   0.08935   0.09444   0.09444   0.09609
 Alpha virt. eigenvalues --    0.09609   0.09767   0.11066   0.11947   0.11947
 Alpha virt. eigenvalues --    0.12095   0.12095   0.12838   0.13209   0.13209
 Alpha virt. eigenvalues --    0.15124   0.15124   0.22890   0.23999   0.23999
 Alpha virt. eigenvalues --    0.24013   0.25595   0.25595   0.28095   0.28867
 Alpha virt. eigenvalues --    0.28867   0.31891   0.33665   0.34190   0.34190
 Alpha virt. eigenvalues --    0.34220   0.34220   0.34700   0.34700   0.35618
 Alpha virt. eigenvalues --    0.35618   0.40194   0.40194   0.42645   0.42645
 Alpha virt. eigenvalues --    0.44096   0.44096   0.48064   0.50626   0.55997
 Alpha virt. eigenvalues --    0.56432   0.56432   0.58217   0.58217   0.63892
 Alpha virt. eigenvalues --    0.63892   0.69327   0.71209   0.71209   0.72096
 Alpha virt. eigenvalues --    0.72096   0.72544   0.72544   0.72775   0.72775
 Alpha virt. eigenvalues --    0.72983   0.72983   0.76906   0.79493   0.79493
 Alpha virt. eigenvalues --    0.80106   0.80106   0.85615   1.11039   1.11465
 Alpha virt. eigenvalues --    1.11465   1.14142   1.20984   1.20984   1.22491
 Alpha virt. eigenvalues --    1.22491   1.23637   1.23637   1.29059   1.29594
 Alpha virt. eigenvalues --    1.29594   1.30577   1.30577   1.33080   1.34439
 Alpha virt. eigenvalues --    1.34439   1.35460   1.35460   1.38553   1.38553
 Alpha virt. eigenvalues --    1.38962   1.38962   1.56375   1.56411   1.56411
 Alpha virt. eigenvalues --    1.64035   1.66980   1.66980   1.82914   1.82914
 Alpha virt. eigenvalues --    1.83483   1.95493   1.95493   1.98453   1.98453
 Alpha virt. eigenvalues --    2.15009   2.36117   2.36117   2.45509   2.73396
 Alpha virt. eigenvalues --    2.73396   2.78798   2.85271   2.85271   2.87276
 Alpha virt. eigenvalues --    2.87276   2.87357   2.87357   2.92406   2.92406
 Alpha virt. eigenvalues --    2.94870   2.94870   2.98734   2.98734   2.99938
 Alpha virt. eigenvalues --    3.06539   3.06539   3.13613   3.31151   3.31151
 Alpha virt. eigenvalues --    3.53152   3.68810   3.68810   3.69361   3.69361
 Alpha virt. eigenvalues --    3.81783   3.81783   3.83729   3.83729   3.98432
 Alpha virt. eigenvalues --    4.00554   4.00554   4.11703   4.11703   4.12119
 Alpha virt. eigenvalues --    4.12119   4.14095   4.14095   4.18921   4.18921
 Alpha virt. eigenvalues --    4.26573   4.34892   4.34892   4.36403   4.40763
 Alpha virt. eigenvalues --    4.40763   4.56642   4.56642   4.60239   4.60239
 Alpha virt. eigenvalues --    4.66428   4.76361   4.76361   4.77825   4.77825
 Alpha virt. eigenvalues --    5.02106   5.40384   5.52172   5.52172   5.65537
 Alpha virt. eigenvalues --    5.65537   5.71875   5.71875   5.75924   5.86224
 Alpha virt. eigenvalues --    5.89470   5.89470   6.45834   9.53165   9.53165
 Alpha virt. eigenvalues --    9.69318   9.69318   9.75916   9.75916  10.07131
 Alpha virt. eigenvalues --   10.07131  10.12178  10.19007  10.19007  10.25618
 Alpha virt. eigenvalues --   10.25618  10.32261  10.33034  10.79709  10.79709
 Alpha virt. eigenvalues --   10.84685  10.84685  10.99055  10.99055  11.02468
 Alpha virt. eigenvalues --   11.02468  11.05002  11.05002  11.12216  11.25645
 Alpha virt. eigenvalues --   11.30560  11.30560  11.31768  11.31768  11.35493
 Alpha virt. eigenvalues --   11.35493  11.43093  11.43093  11.46604  11.49037
 Alpha virt. eigenvalues --   11.49037  11.67413  11.67413  11.68768  11.68768
 Alpha virt. eigenvalues --   11.74838  11.74838  11.83571  11.93720  11.93720
 Alpha virt. eigenvalues --   12.08233  12.08233  12.14857  12.14857  12.37573
 Alpha virt. eigenvalues --   12.37573  12.71857  12.83424  12.83424  12.98988
 Alpha virt. eigenvalues --   13.18494  13.18494  13.59564  14.00210  17.70867
 Alpha virt. eigenvalues --   17.70867  17.77221  17.77221  17.87845  19.95610
 Alpha virt. eigenvalues --   19.95610  20.12681  28.02526  28.02526  28.11293
 Alpha virt. eigenvalues --   28.81757  31.42364  31.42364  31.47572  31.47572
 Alpha virt. eigenvalues --   31.56915  34.38222  34.79954  34.79954  34.94123
 Alpha virt. eigenvalues --   46.81289  46.81289  46.96438  46.96438  47.15866
 Alpha virt. eigenvalues --   58.20939  59.69354  59.69354  59.81261  64.99215
 Alpha virt. eigenvalues --   64.99215  65.03176  65.03176  65.11644  67.82331
 Alpha virt. eigenvalues --   69.48175  69.48175  70.09748 103.02094 103.02094
 Alpha virt. eigenvalues --  103.02752 103.02752 103.04247 103.04247 103.06359
 Alpha virt. eigenvalues --  103.64166 103.64166 103.74826 107.08443 121.16471
 Alpha virt. eigenvalues --  154.27129 154.27129 154.80750 172.48164 172.48164
 Alpha virt. eigenvalues --  172.50911 172.50911 172.57074 184.74499 184.74499
 Alpha virt. eigenvalues --  184.84404 186.27508 206.78469 206.78469 206.86712
 Alpha virt. eigenvalues --  206.86712 206.96520 209.60086 324.51617 324.51617
 Alpha virt. eigenvalues --  325.00094 338.05736 340.92268 340.92268 341.01523
 Alpha virt. eigenvalues --  357.60121 593.41967 593.41967 593.43643 593.43643
 Alpha virt. eigenvalues --  593.47650 611.75678 640.69489 657.69080 657.69080
 Alpha virt. eigenvalues --  657.77669 690.78665 690.78665 691.232741089.64839
 Alpha virt. eigenvalues -- 1268.070631343.964011343.964011344.042252261.99474
 Alpha virt. eigenvalues -- 2628.355492954.874522954.874522954.944295717.22430
 Alpha virt. eigenvalues -- 6140.690787161.943437161.943437162.00379**********
 Alpha virt. eigenvalues -- **************************************************
 Alpha virt. eigenvalues -- **************************************************
 Alpha virt. eigenvalues -- ****************************************
     Molecular Orbital Coefficients:
                           4         5         6         7         8
                           O         O         O         O         O
     Eigenvalues --    -1.70286  -1.09791  -0.38945  -0.34741  -0.34741
   1 1   Sc 1S          0.00000   0.00000   0.00000   0.00000   0.00000
   2        2S         -0.00000  -0.00000  -0.00000   0.00000   0.00000
   3        3S          0.00000   0.00000   0.00000   0.00000   0.00000
   4        4S         -0.00000  -0.00000  -0.00000   0.00000   0.00000
   5        5S          0.00000   0.00000   0.00000   0.00000   0.00000
   6        6S         -0.00000  -0.00000  -0.00000   0.00000   0.00000
   7        7S          0.00000   0.00000   0.00000   0.00000   0.00000
   8        8S         -0.00000  -0.00000  -0.00001   0.00000   0.00000
   9        9S          0.00000   0.00001   0.00002   0.00000   0.00000
  10       10S         -0.00001  -0.00002  -0.00005   0.00000   0.00000
  11       11S          0.00002   0.00007   0.00014   0.00000   0.00000
  12       12S         -0.00007  -0.00022  -0.00041   0.00000   0.00000
  13       13S          0.00024   0.00081   0.00158   0.00000   0.00000
  14       14S         -0.00135  -0.00467  -0.00935   0.00000   0.00000
  15       15S          0.00175   0.00549   0.01113   0.00000   0.00000
  16       16S          0.01148   0.04999   0.10417   0.00000   0.00000
  17       17S         -0.00274  -0.00374  -0.00712   0.00000   0.00000
  18       18S         -0.02297  -0.07378  -0.15992   0.00000   0.00000
  19       19S          0.01516  -0.01501  -0.06426   0.00000   0.00000
  20       20S          0.01207   0.01578   0.13004   0.00000   0.00000
  21       21S          0.00401  -0.01541  -0.01537   0.00000   0.00000
  22       22S          0.00174   0.00619   0.02343   0.00000   0.00000
  23       23S         -0.00496  -0.03216  -0.06862   0.00000   0.00000
  24       24S         -0.00239   0.00259   0.00529   0.00000   0.00000
  25       25S         -0.00060  -0.00093  -0.00273   0.00000   0.00000
  26       26PX         0.00000   0.00000   0.00000   0.00000   0.00000
  27       26PY         0.00000   0.00000   0.00000   0.00000   0.00000
  28       26PZ        -0.00000  -0.00000  -0.00000   0.00000   0.00000
  29       27PX         0.00000   0.00000   0.00000   0.00000  -0.00000
  30       27PY         0.00000   0.00000   0.00000  -0.00000   0.00000
  31       27PZ         0.00000   0.00000   0.00000   0.00000   0.00000
  32       28PX         0.00000   0.00000   0.00000   0.00000   0.00000
  33       28PY         0.00000   0.00000   0.00000   0.00000   0.00000
  34       28PZ        -0.00000  -0.00000  -0.00000   0.00000   0.00000
  35       29PX         0.00000   0.00000   0.00000   0.00000  -0.00000
  36       29PY         0.00000   0.00000   0.00000  -0.00000   0.00000
  37       29PZ         0.00001   0.00000   0.00000   0.00000   0.00000
  38       30PX         0.00000   0.00000   0.00000   0.00000   0.00000
  39       30PY         0.00000   0.00000   0.00000   0.00000   0.00000
  40       30PZ        -0.00002  -0.00000  -0.00000   0.00000   0.00000
  41       31PX         0.00000   0.00000   0.00000   0.00000  -0.00001
  42       31PY         0.00000   0.00000   0.00000  -0.00001   0.00000
  43       31PZ         0.00008   0.00001   0.00001   0.00000   0.00000
  44       32PX         0.00000   0.00000   0.00000   0.00000   0.00002
  45       32PY         0.00000   0.00000   0.00000   0.00002   0.00000
  46       32PZ        -0.00026  -0.00004  -0.00002   0.00000   0.00000
  47       33PX         0.00000   0.00000   0.00000   0.00000  -0.00006
  48       33PY         0.00000   0.00000   0.00000  -0.00006   0.00000
  49       33PZ         0.00059   0.00011   0.00004   0.00000   0.00000
  50       34PX         0.00000   0.00000   0.00000   0.00000  -0.00053
  51       34PY         0.00000   0.00000   0.00000  -0.00053   0.00000
  52       34PZ         0.00774   0.00118   0.00116   0.00000   0.00000
  53       35PX         0.00000   0.00000   0.00000   0.00000   0.00489
  54       35PY         0.00000   0.00000   0.00000   0.00489   0.00000
  55       35PZ        -0.06581  -0.01040  -0.00968   0.00000   0.00000
  56       36PX         0.00000   0.00000   0.00000   0.00000   0.00049
  57       36PY         0.00000   0.00000   0.00000   0.00049   0.00000
  58       36PZ         0.00582  -0.00003   0.01290   0.00000   0.00000
  59       37PX         0.00000   0.00000   0.00000   0.00000  -0.01449
  60       37PY         0.00000   0.00000   0.00000  -0.01449   0.00000
  61       37PZ         0.18799   0.03060   0.03481   0.00000   0.00000
  62       38PX         0.00000   0.00000   0.00000   0.00000  -0.03486
  63       38PY         0.00000   0.00000   0.00000  -0.03486   0.00000
  64       38PZ         0.39777   0.06390   0.03228   0.00000   0.00000
  65       39PX         0.00000   0.00000   0.00000   0.00000  -0.04138
  66       39PY         0.00000   0.00000   0.00000  -0.04138   0.00000
  67       39PZ         0.39023   0.06414   0.04851   0.00000   0.00000
  68       40PX         0.00000   0.00000   0.00000   0.00000  -0.00261
  69       40PY         0.00000   0.00000   0.00000  -0.00261   0.00000
  70       40PZ         0.14673   0.01490   0.00970   0.00000   0.00000
  71       41PX         0.00000   0.00000   0.00000   0.00000   0.04460
  72       41PY         0.00000   0.00000   0.00000   0.04460   0.00000
  73       41PZ         0.00543  -0.00240  -0.01807   0.00000   0.00000
  74       42PX         0.00000   0.00000   0.00000   0.00000   0.02939
  75       42PY         0.00000   0.00000   0.00000   0.02939   0.00000
  76       42PZ        -0.00490  -0.00006  -0.00672   0.00000   0.00000
  77       43PX         0.00000   0.00000   0.00000   0.00000  -0.00934
  78       43PY         0.00000   0.00000   0.00000  -0.00934   0.00000
  79       43PZ         0.00037  -0.00138  -0.01010   0.00000   0.00000
  80       44PX         0.00000   0.00000   0.00000   0.00000   0.00230
  81       44PY         0.00000   0.00000   0.00000   0.00230   0.00000
  82       44PZ        -0.04869  -0.00643  -0.02107   0.00000   0.00000
  83       45PX         0.00000   0.00000   0.00000   0.00000   0.00415
  84       45PY         0.00000   0.00000   0.00000   0.00415   0.00000
  85       45PZ         0.00640   0.00485   0.03362   0.00000   0.00000
  86       46PX         0.00000   0.00000   0.00000   0.00000   0.00224
  87       46PY         0.00000   0.00000   0.00000   0.00224   0.00000
  88       46PZ         0.00002  -0.00017  -0.00025   0.00000   0.00000
  89       47D 0        0.00000   0.00000   0.00000   0.00000   0.00000
  90       47D+1        0.00000   0.00000   0.00000   0.00000  -0.00000
  91       47D-1        0.00000   0.00000   0.00000  -0.00000   0.00000
  92       47D+2        0.00000   0.00000   0.00000   0.00000   0.00000
  93       47D-2        0.00000   0.00000   0.00000   0.00000   0.00000
  94       48D 0        0.00000   0.00001   0.00008   0.00000   0.00000
  95       48D+1        0.00000   0.00000   0.00000   0.00000  -0.00006
  96       48D-1        0.00000   0.00000   0.00000  -0.00006   0.00000
  97       48D+2       -0.00000  -0.00000  -0.00000   0.00000   0.00000
  98       48D-2        0.00000   0.00000   0.00000   0.00000   0.00000
  99       49D 0        0.00032   0.00103   0.00514   0.00000   0.00000
 100       49D+1        0.00000   0.00000   0.00000   0.00000  -0.00370
 101       49D-1        0.00000   0.00000   0.00000  -0.00370   0.00000
 102       49D+2        0.00000   0.00000   0.00000   0.00000   0.00000
 103       49D-2        0.00000   0.00000   0.00000   0.00000   0.00000
 104       50D 0        0.00133   0.00438   0.02188   0.00000   0.00000
 105       50D+1        0.00000   0.00000   0.00000   0.00000  -0.01583
 106       50D-1        0.00000   0.00000   0.00000  -0.01583   0.00000
 107       50D+2       -0.00000  -0.00000  -0.00000   0.00000   0.00000
 108       50D-2        0.00000   0.00000   0.00000   0.00000   0.00000
 109       51D 0        0.00285   0.00862   0.04297   0.00000   0.00000
 110       51D+1        0.00000   0.00000   0.00000   0.00000  -0.03027
 111       51D-1        0.00000   0.00000   0.00000  -0.03027   0.00000
 112       51D+2        0.00000   0.00000   0.00000   0.00000   0.00000
 113       51D-2        0.00000   0.00000   0.00000   0.00000   0.00000
 114       52D 0        0.00563   0.01613   0.07724   0.00000   0.00000
 115       52D+1        0.00000   0.00000   0.00000   0.00000  -0.05062
 116       52D-1        0.00000   0.00000   0.00000  -0.05062   0.00000
 117       52D+2        0.00000   0.00000   0.00000   0.00000   0.00000
 118       52D-2        0.00000   0.00000   0.00000   0.00000   0.00000
 119       53D 0        0.01173   0.02612   0.10975   0.00000   0.00000
 120       53D+1        0.00000   0.00000   0.00000   0.00000  -0.07174
 121       53D-1        0.00000   0.00000   0.00000  -0.07174   0.00000
 122       53D+2        0.00000   0.00000   0.00000   0.00000   0.00000
 123       53D-2        0.00000   0.00000   0.00000   0.00000   0.00000
 124       54D 0        0.00669   0.02084   0.10063   0.00000   0.00000
 125       54D+1        0.00000   0.00000   0.00000   0.00000  -0.08403
 126       54D-1        0.00000   0.00000   0.00000  -0.08403   0.00000
 127       54D+2       -0.00000  -0.00000   0.00000   0.00000   0.00000
 128       54D-2        0.00000   0.00000   0.00000   0.00000   0.00000
 129       55D 0        0.00313   0.00621   0.05134   0.00000   0.00000
 130       55D+1        0.00000   0.00000   0.00000   0.00000  -0.05611
 131       55D-1        0.00000   0.00000   0.00000  -0.05611   0.00000
 132       55D+2       -0.00000  -0.00000  -0.00000   0.00000   0.00000
 133       55D-2        0.00000   0.00000   0.00000   0.00000   0.00000
 134       56D 0        0.00182   0.00327   0.01823   0.00000   0.00000
 135       56D+1        0.00000   0.00000   0.00000   0.00000  -0.01721
 136       56D-1        0.00000   0.00000   0.00000  -0.01721   0.00000
 137       56D+2        0.00000   0.00000   0.00000   0.00000   0.00000
 138       56D-2        0.00000   0.00000   0.00000   0.00000   0.00000
 139       57D 0       -0.00020   0.00098   0.00727   0.00000   0.00000
 140       57D+1        0.00000   0.00000   0.00000   0.00000   0.00850
 141       57D-1        0.00000   0.00000   0.00000   0.00850   0.00000
 142       57D+2       -0.00000  -0.00000  -0.00000   0.00000   0.00000
 143       57D-2        0.00000   0.00000   0.00000   0.00000   0.00000
 144       58D 0       -0.00139   0.00033   0.00290   0.00000   0.00000
 145       58D+1        0.00000   0.00000   0.00000   0.00000  -0.00475
 146       58D-1        0.00000   0.00000   0.00000  -0.00475   0.00000
 147       58D+2       -0.00000  -0.00000  -0.00000   0.00000   0.00000
 148       58D-2        0.00000   0.00000   0.00000   0.00000   0.00000
 149       59D 0       -0.00168  -0.00331  -0.00640   0.00000   0.00000
 150       59D+1        0.00000   0.00000   0.00000   0.00000  -0.00247
 151       59D-1        0.00000   0.00000   0.00000  -0.00247   0.00000
 152       59D+2       -0.00000  -0.00000  -0.00000   0.00000   0.00000
 153       59D-2        0.00000   0.00000   0.00000   0.00000   0.00000
 154       60D 0        0.00001  -0.00001  -0.00069   0.00000   0.00000
 155       60D+1        0.00000   0.00000   0.00000   0.00000  -0.00204
 156       60D-1        0.00000   0.00000   0.00000  -0.00204   0.00000
 157       60D+2        0.00000   0.00000   0.00000   0.00000   0.00000
 158       60D-2        0.00000   0.00000   0.00000   0.00000   0.00000
 159       61F 0       -0.00023  -0.00051  -0.00127   0.00000   0.00000
 160       61F+1        0.00000   0.00000   0.00000   0.00000   0.00105
 161       61F-1        0.00000   0.00000   0.00000   0.00105   0.00000
 162       61F+2       -0.00000  -0.00000  -0.00000   0.00000   0.00000
 163       61F-2        0.00000   0.00000   0.00000   0.00000   0.00000
 164       61F+3        0.00000   0.00000   0.00000   0.00000   0.00000
 165       61F-3        0.00000   0.00000   0.00000   0.00000   0.00000
 166       62F 0       -0.00238  -0.00279  -0.00471   0.00000   0.00000
 167       62F+1        0.00000   0.00000   0.00000   0.00000   0.00283
 168       62F-1        0.00000   0.00000   0.00000   0.00283   0.00000
 169       62F+2        0.00000   0.00000   0.00000   0.00000   0.00000
 170       62F-2        0.00000   0.00000   0.00000   0.00000   0.00000
 171       62F+3        0.00000   0.00000   0.00000   0.00000   0.00000
 172       62F-3        0.00000   0.00000   0.00000   0.00000   0.00000
 173       63F 0       -0.00239  -0.00640  -0.01076   0.00000   0.00000
 174       63F+1        0.00000   0.00000   0.00000   0.00000   0.01267
 175       63F-1        0.00000   0.00000   0.00000   0.01267   0.00000
 176       63F+2       -0.00000  -0.00000  -0.00000   0.00000   0.00000
 177       63F-2        0.00000   0.00000   0.00000   0.00000   0.00000
 178       63F+3        0.00000   0.00000   0.00000   0.00000   0.00000
 179       63F-3        0.00000   0.00000   0.00000   0.00000   0.00000
 180       64F 0       -0.00105  -0.00389  -0.00958   0.00000   0.00000
 181       64F+1        0.00000   0.00000   0.00000   0.00000   0.00537
 182       64F-1        0.00000   0.00000   0.00000   0.00537   0.00000
 183       64F+2        0.00000   0.00000   0.00000   0.00000   0.00000
 184       64F-2        0.00000   0.00000   0.00000   0.00000   0.00000
 185       64F+3        0.00000   0.00000   0.00000   0.00000  -0.00000
 186       64F-3        0.00000   0.00000   0.00000  -0.00000   0.00000
[...]
 163       61F-2        0.00000   0.00000   0.00000   0.00000
 164       61F+3        0.00000   0.00000   0.00000   0.00000
 165       61F-3       -0.00000  -0.00000  -0.00000   0.00000
 166       62F 0        0.00062   0.00031   0.00031   0.00000
 167       62F+1        0.00023   0.00012   0.00012   0.00000
 168       62F-1        0.00023   0.00012   0.00012   0.00000
 169       62F+2       -0.00000  -0.00000  -0.00000   0.00000
 170       62F-2       -0.00000  -0.00000  -0.00000  -0.00000
 171       62F+3       -0.00000  -0.00000  -0.00000  -0.00000
 172       62F-3       -0.00000  -0.00000  -0.00000  -0.00000
 173       63F 0        0.00535   0.00266   0.00269  -0.00003
 174       63F+1        0.00439   0.00219   0.00219   0.00000
 175       63F-1        0.00439   0.00219   0.00219   0.00000
 176       63F+2        0.00000   0.00000   0.00000   0.00000
 177       63F-2        0.00000   0.00000   0.00000   0.00000
 178       63F+3        0.00000   0.00000   0.00000  -0.00000
 179       63F-3        0.00000  -0.00000   0.00000  -0.00000
 180       64F 0        0.00008   0.00008  -0.00001   0.00009
 181       64F+1        0.00389   0.00195   0.00195   0.00000
 182       64F-1        0.00389   0.00195   0.00195   0.00000
 183       64F+2        0.00000   0.00000   0.00000  -0.00000
 184       64F-2        0.00000   0.00000   0.00000  -0.00000
 185       64F+3       -0.00000  -0.00000  -0.00000  -0.00000
 186       64F-3        0.00000   0.00000   0.00000  -0.00000
 187       65F 0       -0.00128  -0.00063  -0.00065   0.00002
 188       65F+1       -0.00093  -0.00047  -0.00047   0.00000
 189       65F-1       -0.00093  -0.00047  -0.00047   0.00000
 190       65F+2        0.00000  -0.00000   0.00000  -0.00000
 191       65F-2        0.00000  -0.00000   0.00000  -0.00000
 192       65F+3       -0.00000  -0.00000  -0.00000  -0.00000
 193       65F-3        0.00000   0.00000   0.00000  -0.00000
 194       66G 0        0.00000   0.00000   0.00000  -0.00000
 195       66G+1       -0.00000  -0.00000  -0.00000   0.00000
 196       66G-1       -0.00000  -0.00000  -0.00000   0.00000
 197       66G+2       -0.00000  -0.00000  -0.00000  -0.00000
 198       66G-2       -0.00000  -0.00000  -0.00000  -0.00000
 199       66G+3        0.00000   0.00000   0.00000  -0.00000
 200       66G-3       -0.00000  -0.00000  -0.00000  -0.00000
 201       66G+4        0.00000   0.00000   0.00000   0.00000
 202       66G-4        0.00000   0.00000   0.00000   0.00000
 203       67G 0        0.00008   0.00004   0.00004  -0.00000
 204       67G+1        0.00008   0.00004   0.00004   0.00000
 205       67G-1        0.00008   0.00004   0.00004   0.00000
 206       67G+2       -0.00000  -0.00000  -0.00000  -0.00000
 207       67G-2       -0.00000  -0.00000  -0.00000  -0.00000
 208       67G+3        0.00000   0.00000   0.00000   0.00000
 209       67G-3       -0.00000  -0.00000  -0.00000   0.00000
 210       67G+4       -0.00000  -0.00000  -0.00000  -0.00000
 211       67G-4       -0.00000  -0.00000  -0.00000  -0.00000
 212       68G 0        0.00105   0.00053   0.00052   0.00001
 213       68G+1        0.00101   0.00050   0.00050   0.00000
 214       68G-1        0.00101   0.00050   0.00050   0.00000
 215       68G+2        0.00000   0.00000   0.00000   0.00000
 216       68G-2        0.00000   0.00000   0.00000   0.00000
 217       68G+3       -0.00000  -0.00000  -0.00000   0.00000
 218       68G-3        0.00000   0.00000   0.00000   0.00000
 219       68G+4        0.00000   0.00000   0.00000   0.00000
 220       68G-4        0.00000   0.00000   0.00000   0.00000
 221       69G 0       -0.00124  -0.00062  -0.00062  -0.00001
 222       69G+1       -0.00085  -0.00042  -0.00042  -0.00000
 223       69G-1       -0.00085  -0.00042  -0.00042   0.00000
 224       69G+2        0.00000   0.00000  -0.00000   0.00000
 225       69G-2       -0.00000  -0.00000  -0.00000   0.00000
 226       69G+3       -0.00000  -0.00000  -0.00000   0.00000
 227       69G-3       -0.00000  -0.00000  -0.00000   0.00000
 228       69G+4       -0.00000  -0.00000  -0.00000  -0.00000
 229       69G-4       -0.00000  -0.00000  -0.00000  -0.00000
 230       70H 0        0.00000   0.00000   0.00000   0.00000
 231       70H+1        0.00000   0.00000   0.00000   0.00000
 232       70H-1        0.00000   0.00000   0.00000  -0.00000
 233       70H+2        0.00000   0.00000   0.00000   0.00000
 234       70H-2        0.00000   0.00000   0.00000   0.00000
 235       70H+3       -0.00000  -0.00000  -0.00000   0.00000
 236       70H-3        0.00000   0.00000  -0.00000   0.00000
 237       70H+4       -0.00000  -0.00000  -0.00000  -0.00000
 238       70H-4       -0.00000  -0.00000  -0.00000  -0.00000
 239       70H+5        0.00000   0.00000   0.00000   0.00000
 240       70H-5       -0.00000  -0.00000  -0.00000  -0.00000
 241       71H 0        0.00003   0.00002   0.00001   0.00001
 242       71H+1        0.00011   0.00005   0.00005   0.00000
 243       71H-1        0.00011   0.00005   0.00005   0.00000
 244       71H+2        0.00000   0.00000   0.00000   0.00000
 245       71H-2        0.00000   0.00000   0.00000   0.00000
 246       71H+3        0.00000   0.00000   0.00000   0.00000
 247       71H-3       -0.00000  -0.00000  -0.00000   0.00000
 248       71H+4        0.00000   0.00000   0.00000   0.00000
 249       71H-4        0.00000   0.00000   0.00000   0.00000
 250       71H+5        0.00000   0.00000   0.00000  -0.00000
 251       71H-5       -0.00000  -0.00000  -0.00000  -0.00000
 252       72H 0       -0.00032  -0.00016  -0.00016  -0.00000
 253       72H+1        0.00020   0.00010   0.00010   0.00000
 254       72H-1        0.00020   0.00010   0.00010  -0.00000
 255       72H+2        0.00000   0.00000   0.00000   0.00000
 256       72H-2        0.00000   0.00000   0.00000   0.00000
 257       72H+3        0.00000   0.00000   0.00000   0.00000
 258       72H-3        0.00000   0.00000   0.00000   0.00000
 259       72H+4        0.00000   0.00000   0.00000   0.00000
 260       72H-4        0.00000   0.00000   0.00000   0.00000
 261       72H+5        0.00000   0.00000   0.00000  -0.00000
 262       72H-5        0.00000   0.00000   0.00000  -0.00000
 263 2   O  1S         -0.00000  -0.00000  -0.00000  -0.00000
 264        2S          0.00000   0.00000   0.00000   0.00000
 265        3S         -0.00000  -0.00000  -0.00000  -0.00000
 266        4S          0.00000   0.00000   0.00000   0.00000
 267        5S         -0.00000  -0.00000  -0.00000  -0.00000
 268        6S         -0.00007  -0.00003  -0.00003  -0.00000
 269        7S         -0.00057  -0.00028  -0.00028  -0.00000
 270        8S         -0.09146  -0.04576  -0.04570  -0.00007
 271        9S         -0.07644  -0.03824  -0.03819  -0.00005
 272       10S          0.43986   0.22007   0.21980   0.00027
 273       11S          1.05674   0.52861   0.52813   0.00048
 274       12S          0.55123   0.27566   0.27558   0.00008
 275       13S          0.05518   0.02761   0.02757   0.00004
 276       14S          0.00034   0.00017   0.00017   0.00000
 277       15S          0.00003   0.00001   0.00001   0.00000
 278       16S          0.06310   0.03667   0.02643   0.01025
 279       17PX        -0.00014  -0.00007  -0.00007   0.00000
 280       17PY        -0.00014  -0.00007  -0.00007   0.00000
 281       17PZ        -0.00015  -0.00007  -0.00007  -0.00000
 282       18PX        -0.10466  -0.05233  -0.05233   0.00000
 283       18PY        -0.10466  -0.05233  -0.05233   0.00000
 284       18PZ        -0.10876  -0.05483  -0.05393  -0.00090
 285       19PX         0.12423   0.06211   0.06211  -0.00000
 286       19PY         0.12423   0.06211   0.06211  -0.00000
 287       19PZ         0.12907   0.06503   0.06404   0.00099
 288       20PX         0.42228   0.21114   0.21114   0.00000
 289       20PY         0.42228   0.21114   0.21114   0.00000
 290       20PZ         0.43952   0.22140   0.21811   0.00329
 291       21PX         0.63679   0.31840   0.31840   0.00000
 292       21PY         0.63679   0.31840   0.31840   0.00000
 293       21PZ         0.65748   0.33067   0.32681   0.00386
 294       22PX         0.46455   0.23227   0.23227   0.00000
 295       22PY         0.46455   0.23227   0.23227   0.00000
 296       22PZ         0.39278   0.19578   0.19700  -0.00122
 297       23PX         0.12056   0.06028   0.06028   0.00000
 298       23PY         0.12056   0.06028   0.06028  -0.00000
 299       23PZ         0.12526   0.06315   0.06212   0.00103
 300       24PX         0.00055   0.00028   0.00028  -0.00000
 301       24PY         0.00055   0.00028   0.00028   0.00000
 302       24PZ         0.00058   0.00029   0.00029   0.00000
 303       25PX         0.00001   0.00000   0.00000  -0.00000
 304       25PY         0.00001   0.00000   0.00000   0.00000
 305       25PZ         0.00001   0.00000   0.00000   0.00000
 306       26PX         0.07107   0.03553   0.03553   0.00000
 307       26PY         0.07107   0.03553   0.03553   0.00000
 308       26PZ         0.05221   0.02631   0.02589   0.00042
 309       27D 0        0.00004   0.00002   0.00002   0.00000
 310       27D+1        0.00003   0.00002   0.00002   0.00000
 311       27D-1        0.00003   0.00002   0.00002   0.00000
 312       27D+2       -0.00000  -0.00000  -0.00000   0.00000
 313       27D-2       -0.00000  -0.00000  -0.00000   0.00000
 314       28D 0        0.00063   0.00032   0.00031   0.00001
 315       28D+1        0.00039   0.00020   0.00020   0.00000
 316       28D-1        0.00039   0.00020   0.00020   0.00000
 317       28D+2        0.00000   0.00000   0.00000   0.00000
 318       28D-2        0.00000   0.00000   0.00000  -0.00000
 319       29D 0        0.00449   0.00225   0.00224   0.00001
 320       29D+1        0.00460   0.00230   0.00230   0.00000
 321       29D-1        0.00460   0.00230   0.00230  -0.00000
 322       29D+2       -0.00000  -0.00000  -0.00000   0.00000
 323       29D-2       -0.00000   0.00000  -0.00000   0.00000
 324       30D 0        0.00000   0.00000   0.00000   0.00000
 325       30D+1        0.00000   0.00000   0.00000   0.00000
 326       30D-1        0.00000   0.00000   0.00000   0.00000
 327       30D+2        0.00000   0.00000   0.00000   0.00000
 328       30D-2        0.00000   0.00000   0.00000   0.00000
 329       31D 0       -0.00000  -0.00000  -0.00000  -0.00000
 330       31D+1       -0.00000  -0.00000  -0.00000   0.00000
 331       31D-1       -0.00000  -0.00000  -0.00000   0.00000
 332       31D+2       -0.00000  -0.00000  -0.00000  -0.00000
 333       31D-2       -0.00000  -0.00000  -0.00000  -0.00000
 334       32D 0       -0.00048  -0.00021  -0.00028   0.00007
 335       32D+1        0.00818   0.00409   0.00409   0.00000
 336       32D-1        0.00818   0.00409   0.00409   0.00000
 337       32D+2        0.00000   0.00000   0.00000  -0.00000
 338       32D-2        0.00000   0.00000   0.00000  -0.00000
 339       33F 0        0.00000   0.00000   0.00000   0.00000
 340       33F+1        0.00000   0.00000   0.00000   0.00000
 341       33F-1        0.00000   0.00000   0.00000   0.00000
 342       33F+2       -0.00000  -0.00000  -0.00000  -0.00000
 343       33F-2       -0.00000  -0.00000  -0.00000  -0.00000
 344       33F+3       -0.00000  -0.00000   0.00000  -0.00000
 345       33F-3       -0.00000  -0.00000  -0.00000   0.00000
 346       34F 0        0.00029   0.00015   0.00014   0.00001
 347       34F+1        0.00015   0.00008   0.00008   0.00000
 348       34F-1        0.00015   0.00008   0.00008   0.00000
 349       34F+2       -0.00000  -0.00000  -0.00000  -0.00000
 350       34F-2       -0.00000  -0.00000  -0.00000  -0.00000
 351       34F+3        0.00000   0.00000   0.00000   0.00000
 352       34F-3       -0.00000   0.00000  -0.00000   0.00000
 353       35F 0        0.00000   0.00000   0.00000   0.00000
 354       35F+1        0.00000   0.00000   0.00000   0.00000
 355       35F-1        0.00000   0.00000   0.00000   0.00000
 356       35F+2        0.00000   0.00000   0.00000   0.00000
 357       35F-2        0.00000   0.00000   0.00000   0.00000
 358       35F+3        0.00000   0.00000   0.00000  -0.00000
 359       35F-3        0.00000   0.00000   0.00000  -0.00000
 360       36F 0       -0.00005  -0.00001  -0.00005   0.00004
 361       36F+1        0.00137   0.00069   0.00069   0.00000
 362       36F-1        0.00137   0.00069   0.00069   0.00000
 363       36F+2        0.00000   0.00000   0.00000   0.00000
 364       36F-2        0.00000   0.00000   0.00000   0.00000
 365       36F+3       -0.00000  -0.00000  -0.00000  -0.00000
 366       36F-3        0.00000   0.00000   0.00000  -0.00000
 367       37G 0        0.00000   0.00000   0.00000   0.00000
 368       37G+1        0.00000   0.00000   0.00000   0.00000
 369       37G-1        0.00000   0.00000   0.00000   0.00000
 370       37G+2       -0.00000  -0.00000  -0.00000  -0.00000
 371       37G-2       -0.00000  -0.00000  -0.00000  -0.00000
 372       37G+3        0.00000   0.00000   0.00000  -0.00000
 373       37G-3       -0.00000  -0.00000  -0.00000   0.00000
 374       37G+4        0.00000   0.00000   0.00000   0.00000
 375       37G-4        0.00000   0.00000   0.00000   0.00000
 376       38G 0        0.00012   0.00007   0.00006   0.00001
 377       38G+1        0.00011   0.00005   0.00005  -0.00000
 378       38G-1        0.00011   0.00005   0.00005   0.00000
 379       38G+2        0.00000   0.00000   0.00000   0.00000
 380       38G-2        0.00000   0.00000   0.00000   0.00000
 381       38G+3       -0.00000  -0.00000  -0.00000  -0.00000
 382       38G-3       -0.00000  -0.00000  -0.00000   0.00000
 383       38G+4        0.00000   0.00000   0.00000   0.00000
 384       38G-4        0.00000   0.00000   0.00000   0.00000
          Condensed to atoms (all electrons):
               1          2
     1  Sc   9.508995   0.299883
     2  O    0.299883   6.891238
          Atomic-Atomic Spin Densities.
               1          2
     1  Sc   0.974049   0.007328
     2  O    0.007328   0.011294
 Mulliken charges and spin densities:
               1          2
     1  Sc   1.191122   0.981377
     2  O   -1.191122   0.018623
 Sum of Mulliken charges =  -0.00000   1.00000
 Mulliken charges and spin densities with hydrogens summed into heavy atoms:
               1          2
     1  Sc   1.191122   0.981377
     2  O   -1.191122   0.018623
 Electronic spatial extent (au):  <R**2>=            115.6624
 Charge=             -0.0000 electrons
 Dipole moment (field-independent basis, Debye):
    X=              0.0000    Y=              0.0000    Z=              7.4495  Tot=              7.4495
 Quadrupole moment (field-independent basis, Debye-Ang):
   XX=            -22.0874   YY=            -22.0874   ZZ=            -34.8636
   XY=              0.0000   XZ=              0.0000   YZ=              0.0000
 Traceless Quadrupole moment (field-independent basis, Debye-Ang):
   XX=              4.2587   YY=              4.2587   ZZ=             -8.5175
   XY=              0.0000   XZ=              0.0000   YZ=              0.0000
 Octapole moment (field-independent basis, Debye-Ang**2):
  XXX=              0.0000  YYY=              0.0000  ZZZ=              2.0030  XYY=              0.0000
  XXY=              0.0000  XXZ=             -0.0439  XZZ=              0.0000  YZZ=              0.0000
  YYZ=             -0.0439  XYZ=              0.0000
 Hexadecapole moment (field-independent basis, Debye-Ang**3):
 XXXX=            -42.3696 YYYY=            -42.3696 ZZZZ=           -220.8038 XXXY=              0.0000
 XXXZ=              0.0000 YYYX=              0.0000 YYYZ=              0.0000 ZZZX=              0.0000
 ZZZY=              0.0000 XXYY=            -14.1232 XXZZ=            -41.4186 YYZZ=            -41.4186
 XXYZ=              0.0000 YYXZ=              0.0000 ZZXY=              0.0000
 N-N= 1.746284796036D+01 E-N=-1.679420240504D+02  KE= 2.953899659462D+01
 Symmetry A1   KE= 1.338572726336D+01
 Symmetry A2   KE= 3.290182526418D-49
 Symmetry B1   KE= 8.076634665703D+00
 Symmetry B2   KE= 8.076634665727D+00
 Symmetry A1   SP= 1.000000000000D+00
 Symmetry A2   SP= 4.762480135689D-51
 Symmetry B1   SP= 4.351191094421D-17
 Symmetry B2   SP=-1.601684334623D-17
 Orbital energies and kinetic energies (alpha):
                                 1                 2
   4         O                -1.702857          2.113130
   5         O                -1.097907          0.907392
   6         O                -0.389445          2.153518
   7         O                -0.347410          1.886544
   8         O                -0.347410          1.886544
   9         O                -0.283569          0.398561
  10         V                -0.013415          0.230801
  11         V                -0.013415          0.230801
  12         V                 0.004875          0.119176
  13         V                 0.016163          0.106107
  14         V                 0.023754          0.089670
 Total kinetic energy from orbitals= 2.993755767423D+01
                          Isotropic Fermi Contact Couplings
        Atom                 a.u.       MegaHertz       Gauss      10(-4) cm-1
     1  Sc(45)             0.00003       0.03782       0.01350       0.01262
     2  O(17)              0.00002      -0.01005      -0.00359      -0.00335
 --------------------------------------------------------
       Center         ----  Spin Dipole Couplings  ----
                      3XX-RR        3YY-RR        3ZZ-RR
 --------------------------------------------------------
     1   Atom       -0.054054     -0.054054      0.108108
     2   Atom       -0.022352     -0.022352      0.044703
 --------------------------------------------------------
                        XY            XZ            YZ
 --------------------------------------------------------
     1   Atom        0.000000      0.000000      0.000000
     2   Atom        0.000000      0.000000      0.000000
 --------------------------------------------------------


 ---------------------------------------------------------------------------------
              Anisotropic Spin Dipole Couplings in Principal Axis System
 ---------------------------------------------------------------------------------

       Atom             a.u.   MegaHertz   Gauss  10(-4) cm-1        Axes

              Baa    -0.0541    -7.017    -2.504    -2.341 -0.0000  1.0000  0.0000
     1 Sc(45) Bbb    -0.0541    -7.017    -2.504    -2.341  1.0000  0.0000  0.0000
              Bcc     0.1081    14.034     5.008     4.681  0.0000  0.0000  1.0000
 
              Baa    -0.0224     1.617     0.577     0.539 -0.0000  1.0000  0.0000
     2 O(17)  Bbb    -0.0224     1.617     0.577     0.539  1.0000  0.0000  0.0000
              Bcc     0.0447    -3.235    -1.154    -1.079  0.0000  0.0000  1.0000
 

 ---------------------------------------------------------------------------------

 No NMR shielding tensors so no spin-rotation constants.
 Leave Link  601 at Mon Mar  5 19:43:37 2018, MaxMem= 10737418240 cpu:             113.9 elap:               7.4
 (Enter /home1/apps/gaussian/16rA.03/g16/l9999.exe)
 1\1\GINC-C439-071\SP\ROCCSD(T)-Full\Gen\O1Sc1(2)\AANNABE\05-Mar-2018\0
 \\#P ROCCSD(T)=(maxcyc=150, Full, SaveAmplitudes, ReadAmplitudes)/Gen 
 5d 7f SCF=(maxcycles=300) Integral(NoXCTest) MaxDisk=500GB Pop=Regular
  Pseudo=Read Guess=Read\\ScO\\0,2\Sc,0,0.,0.,0.\O,0,0.,0.,2.\\Version=
 ES64L-G16RevA.03\State=2-SG\HF=-61.8976815\MP2=-62.622846\PUHF=-61.897
 6815\PMP2-0=-62.622846\CCSD=-62.6004736\CCSD(T)=-62.654153\RMSD=2.039e
 -10\PG=C*V [C*(O1Sc1)]\\@


 SCIENCE IS LONG AND LIFE IS SHORT.

                     DON MOSER IN THE FEBRUARY 1979 SMITHSONIAN
 Job cpu time:       0 days 20 hours 24 minutes  8.3 seconds.
 Elapsed time:       0 days  1 hours 16 minutes 52.5 seconds.
 File lengths (MBytes):  RWF=  11356 Int=      0 D2E=      0 Chk=     61 Scr=      1
 Normal termination of Gaussian 16 at Mon Mar  5 19:43:38 2018.
