 Entering Gaussian System, Link 0=g16
 Initial command:
 /home1/apps/gaussian/16rA.03/g16/l1.exe "/tmp/Gau-67444.inp" -scrdir="/tmp/"
 Entering Link 1 = /home1/apps/gaussian/16rA.03/g16/l1.exe PID=     67445.
  
 Copyright (c) 1988,1990,1992,1993,1995,1998,2003,2009,2016,
            Gaussian, Inc.  All Rights Reserved.
  
 This is part of the Gaussian(R) 16 program.  It is based on
 the Gaussian(R) 09 system (copyright 2009, Gaussian, Inc.),
 the Gaussian(R) 03 system (copyright 2003, Gaussian, Inc.),
 the Gaussian(R) 98 system (copyright 1998, Gaussian, Inc.),
 the Gaussian(R) 94 system (copyright 1995, Gaussian, Inc.),
 the Gaussian 92(TM) system (copyright 1992, Gaussian, Inc.),
 the Gaussian 90(TM) system (copyright 1990, Gaussian, Inc.),
 the Gaussian 88(TM) system (copyright 1988, Gaussian, Inc.),
 the Gaussian 86(TM) system (copyright 1986, Carnegie Mellon
 University), and the Gaussian 82(TM) system (copyright 1983,
 Carnegie Mellon University). Gaussian is a federally registered
 trademark of Gaussian, Inc.
  
 This software contains proprietary and confidential information,
 including trade secrets, belonging to Gaussian, Inc.
  
 This software is provided under written license and may be
 used, copied, transmitted, or stored only in accord with that
 written license.
  
 The following legend is applicable only to US Government
 contracts under FAR:
  
                    RESTRICTED RIGHTS LEGEND
  
 Use, reproduction and disclosure by the US Government is
 subject to restrictions as set forth in subparagraphs (a)
 and (c) of the Commercial Computer Software - Restricted
 Rights clause in FAR 52.227-19.
  
 Gaussian, Inc.
 340 Quinnipiac St., Bldg. 40, Wallingford CT 06492
  
  
 ---------------------------------------------------------------
 Warning -- This program may not be used in any manner that
 competes with the business of Gaussian, Inc. or will provide
 assistance to any competitor of Gaussian, Inc.  The licensee
 of this program is prohibited from giving any competitor of
 Gaussian, Inc. access to this program.  By using this program,
 the user acknowledges that Gaussian, Inc. is engaged in the
 business of creating and licensing software in the field of
 computational chemistry and represents and warrants to the
 licensee that it is not a competitor of Gaussian, Inc. and that
 it will not use this program in any manner prohibited above.
 ---------------------------------------------------------------
  

 Cite this work as:
 Gaussian 16, Revision A.03,
 M. J. Frisch, G. W. Trucks, H. B. Schlegel, G. E. Scuseria, 
 M. A. Robb, J. R. Cheeseman, G. Scalmani, V. Barone, 
 G. A. Petersson, H. Nakatsuji, X. Li, M. Caricato, A. V. Marenich, 
 J. Bloino, B. G. Janesko, R. Gomperts, B. Mennucci, H. P. Hratchian, 
 J. V. Ortiz, A. F. Izmaylov, J. L. Sonnenberg, D. Williams-Young, 
 F. Ding, F. Lipparini, F. Egidi, J. Goings, B. Peng, A. Petrone, 
 T. Henderson, D. Ranasinghe, V. G. Zakrzewski, J. Gao, N. Rega, 
 G. Zheng, W. Liang, M. Hada, M. Ehara, K. Toyota, R. Fukuda, 
 J. Hasegawa, M. Ishida, T. Nakajima, Y. Honda, O. Kitao, H. Nakai, 
 T. Vreven, K. Throssell, J. A. Montgomery, Jr., J. E. Peralta, 
 F. Ogliaro, M. J. Bearpark, J. J. Heyd, E. N. Brothers, K. N. Kudin, 
 V. N. Staroverov, T. A. Keith, R. Kobayashi, J. Normand, 
 K. Raghavachari, A. P. Rendell, J. C. Burant, S. S. Iyengar, 
 J. Tomasi, M. Cossi, J. M. Millam, M. Klene, C. Adamo, R. Cammi, 
 J. W. Ochterski, R. L. Martin, K. Morokuma, O. Farkas, 
 J. B. Foresman, and D. J. Fox, Gaussian, Inc., Wallingford CT, 2016.
 
 ******************************************
 Gaussian 16:  ES64L-G16RevA.03 25-Dec-2016
                19-Apr-2018 
 ******************************************
 %MEM=80GB
 %CPU=0-19
 SetSPE:  set environment variable "MP_BIND" = "yes"
 SetSPE:  set environment variable "MP_BLIST" = "0,1,2,3,4,5,6,7,8,9,10,11,12,13,14,15,16,17,18,19"
 Will use up to   20 processors via shared memory.
 %RWF=/scratch/04843/aannabe/gaussian/
 %Int=/scratch/04843/aannabe/gaussian/
 %D2E=/scratch/04843/aannabe/gaussian/
 %NoSave
 %CHK=ScO
 ----------------------------------------------------------------------
 #P ROCCSD(T)=(maxcyc=150, Full, SaveAmplitudes, ReadAmplitudes)/Gen 5d
  7f SCF=(maxcycles=300, VShift=400) Integral(NoXCTest) MaxDisk=500GB P
 op=Full Pseudo=Read Guess=Read
 ----------------------------------------------------------------------
 1/38=1,172=1/1;
 2/12=2,17=6,18=5,40=1/2;
 3/5=7,8=11,11=2,16=1,17=8,25=1,30=1,47=8,116=101/1,2,3;
 4/5=1/1;
 5/5=2,7=300,10=400,38=6/2;
 8/5=-1,6=4,9=120000,10=90,24=1/1,4;
 9/5=7,6=150,14=2,77=1/13;
 6/7=3/1;
 99/5=1,9=1/99;
 Leave Link    1 at Thu Apr 19 07:22:01 2018, MaxMem= 10737418240 cpu:               6.7 elap:               0.4
 (Enter /home1/apps/gaussian/16rA.03/g16/l101.exe)
 ---
 ScO
 ---
 Symbolic Z-matrix:
 Charge =  0 Multiplicity = 2
 Sc                    0.        0.        0. 
 O                     0.        0.        1.5 
 
 ITRead=  0  0
 MicOpt= -1 -1
 NAtoms=      2 NQM=        2 NQMF=       0 NMMI=      0 NMMIF=      0
                NMic=       0 NMicF=      0.
                    Isotopes and Nuclear Properties:
 (Nuclear quadrupole moments (NQMom) in fm**2, nuclear magnetic moments (NMagM)
  in nuclear magnetons)

  Atom         1           2
 IAtWgt=          45          16
 AtmWgt=  44.9559136  15.9949146
 NucSpn=           7           0
 AtZEff=  -0.0000000  -0.0000000
 NQMom=  -22.0000000   0.0000000
 NMagM=    4.7564830   0.0000000
 AtZNuc=  21.0000000   8.0000000
 Leave Link  101 at Thu Apr 19 07:22:02 2018, MaxMem= 10737418240 cpu:               2.0 elap:               0.1
 (Enter /home1/apps/gaussian/16rA.03/g16/l202.exe)
                          Input orientation:                          
 ---------------------------------------------------------------------
 Center     Atomic      Atomic             Coordinates (Angstroms)
 Number     Number       Type             X           Y           Z
 ---------------------------------------------------------------------
      1         21           0        0.000000    0.000000    0.000000
      2          8           0        0.000000    0.000000    1.500000
 ---------------------------------------------------------------------
 Stoichiometry    OSc(2)
 Framework group  C*V[C*(OSc)]
 Deg. of freedom     1
 Full point group                 C*V     NOp   4
 Largest Abelian subgroup         C2V     NOp   4
 Largest concise Abelian subgroup C1      NOp   1
                         Standard orientation:                         
 ---------------------------------------------------------------------
 Center     Atomic      Atomic             Coordinates (Angstroms)
 Number     Number       Type             X           Y           Z
 ---------------------------------------------------------------------
      1         21           0        0.000000    0.000000    0.413793
      2          8           0        0.000000    0.000000   -1.086207
 ---------------------------------------------------------------------
 Rotational constants (GHZ):           0.0000000          19.0390616          19.0390616
 Leave Link  202 at Thu Apr 19 07:22:02 2018, MaxMem= 10737418240 cpu:               0.5 elap:               0.1
 (Enter /home1/apps/gaussian/16rA.03/g16/l301.exe)
 General basis read from cards:  (5D, 7F)
 Centers:       1
 S 1 1.00
     Exponent=  8.5494290000D+03 Coefficients=  1.0000000000D+00
 S 1 1.00
     Exponent=  3.0859750000D+03 Coefficients=  1.0000000000D+00
 S 1 1.00
     Exponent=  1.2031720000D+03 Coefficients=  1.0000000000D+00
 S 1 1.00
     Exponent=  4.9848690000D+02 Coefficients=  1.0000000000D+00
 S 1 1.00
     Exponent=  2.1673600000D+02 Coefficients=  1.0000000000D+00
 S 1 1.00
     Exponent=  9.7874760000D+01 Coefficients=  1.0000000000D+00
 S 1 1.00
     Exponent=  4.5204330000D+01 Coefficients=  1.0000000000D+00
 S 1 1.00
     Exponent=  2.0211870000D+01 Coefficients=  1.0000000000D+00
 S 1 1.00
     Exponent=  9.5747510000D+00 Coefficients=  1.0000000000D+00
 S 1 1.00
     Exponent=  4.5403460000D+00 Coefficients=  1.0000000000D+00
 S 1 1.00
     Exponent=  1.9956870000D+00 Coefficients=  1.0000000000D+00
 S 1 1.00
     Exponent=  9.4221500000D-01 Coefficients=  1.0000000000D+00
 S 1 1.00
     Exponent=  4.1784500000D-01 Coefficients=  1.0000000000D+00
 S 1 1.00
     Exponent=  9.5761000000D-02 Coefficients=  1.0000000000D+00
 S 1 1.00
     Exponent=  5.1351000000D-02 Coefficients=  1.0000000000D+00
 S 1 1.00
     Exponent=  2.3878000000D-02 Coefficients=  1.0000000000D+00
 S 1 1.00
     Exponent=  2.6472000000D+00 Coefficients=  1.0000000000D+00
 S 1 1.00
     Exponent=  6.2170000000D-01 Coefficients=  1.0000000000D+00
 S 1 1.00
     Exponent=  1.1100000000D-02 Coefficients=  1.0000000000D+00
 P 1 1.00
     Exponent=  2.5075330000D+03 Coefficients=  1.0000000000D+00
 P 1 1.00
     Exponent=  8.1445710000D+02 Coefficients=  1.0000000000D+00
 P 1 1.00
     Exponent=  3.1151950000D+02 Coefficients=  1.0000000000D+00
 P 1 1.00
     Exponent=  1.3196170000D+02 Coefficients=  1.0000000000D+00
 P 1 1.00
     Exponent=  5.9987180000D+01 Coefficients=  1.0000000000D+00
 P 1 1.00
     Exponent=  2.8662500000D+01 Coefficients=  1.0000000000D+00
 P 1 1.00
     Exponent=  1.4108510000D+01 Coefficients=  1.0000000000D+00
 P 1 1.00
     Exponent=  7.1037060000D+00 Coefficients=  1.0000000000D+00
 P 1 1.00
     Exponent=  3.6092000000D+00 Coefficients=  1.0000000000D+00
 P 1 1.00
     Exponent=  1.7760700000D+00 Coefficients=  1.0000000000D+00
 P 1 1.00
     Exponent=  8.5476000000D-01 Coefficients=  1.0000000000D+00
 P 1 1.00
     Exponent=  4.0223900000D-01 Coefficients=  1.0000000000D+00
 P 1 1.00
     Exponent=  1.5468000000D-01 Coefficients=  1.0000000000D+00
 P 1 1.00
     Exponent=  6.4888000000D-02 Coefficients=  1.0000000000D+00
 P 1 1.00
     Exponent=  2.6301000000D-02 Coefficients=  1.0000000000D+00
 P 1 1.00
     Exponent=  3.4418000000D+00 Coefficients=  1.0000000000D+00
 P 1 1.00
     Exponent=  8.0840000000D-01 Coefficients=  1.0000000000D+00
 P 1 1.00
     Exponent=  1.0660000000D-02 Coefficients=  1.0000000000D+00
 D 1 1.00
     Exponent=  5.0654200000D+01 Coefficients=  1.0000000000D+00
 D 1 1.00
     Exponent=  1.4732500000D+01 Coefficients=  1.0000000000D+00
 D 1 1.00
     Exponent=  5.1804600000D+00 Coefficients=  1.0000000000D+00
 D 1 1.00
     Exponent=  2.0195900000D+00 Coefficients=  1.0000000000D+00
 D 1 1.00
     Exponent=  7.9921900000D-01 Coefficients=  1.0000000000D+00
 D 1 1.00
     Exponent=  3.0531600000D-01 Coefficients=  1.0000000000D+00
 D 1 1.00
     Exponent=  1.1044400000D-01 Coefficients=  1.0000000000D+00
 D 1 1.00
     Exponent=  3.7065000000D-02 Coefficients=  1.0000000000D+00
 D 1 1.00
     Exponent=  1.8520000000D+00 Coefficients=  1.0000000000D+00
 D 1 1.00
     Exponent=  7.8750000000D-01 Coefficients=  1.0000000000D+00
 D 1 1.00
     Exponent=  1.2440000000D-02 Coefficients=  1.0000000000D+00
 F 1 1.00
     Exponent=  2.1048000000D+00 Coefficients=  1.0000000000D+00
 F 1 1.00
     Exponent=  6.5870000000D-01 Coefficients=  1.0000000000D+00
 F 1 1.00
     Exponent=  1.6360000000D-01 Coefficients=  1.0000000000D+00
 F 1 1.00
     Exponent=  4.0630000000D-02 Coefficients=  1.0000000000D+00
 G 1 1.00
     Exponent=  1.7850000000D+00 Coefficients=  1.0000000000D+00
 G 1 1.00
     Exponent=  4.1120000000D-01 Coefficients=  1.0000000000D+00
 G 1 1.00
     Exponent=  9.4730000000D-02 Coefficients=  1.0000000000D+00
 ****
 Centers:       2
 S 1 1.00
     Exponent=  1.5330000000D+04 Coefficients=  1.0000000000D+00
 S 1 1.00
     Exponent=  2.2990000000D+03 Coefficients=  1.0000000000D+00
 S 1 1.00
     Exponent=  5.2240000000D+02 Coefficients=  1.0000000000D+00
 S 1 1.00
     Exponent=  1.4730000000D+02 Coefficients=  1.0000000000D+00
 S 1 1.00
     Exponent=  4.7550000000D+01 Coefficients=  1.0000000000D+00
 S 1 1.00
     Exponent=  1.6760000000D+01 Coefficients=  1.0000000000D+00
 S 1 1.00
     Exponent=  6.2070000000D+00 Coefficients=  1.0000000000D+00
 S 1 1.00
     Exponent=  6.8820000000D-01 Coefficients=  1.0000000000D+00
 S 1 1.00
     Exponent=  1.7520000000D+00 Coefficients=  1.0000000000D+00
 S 1 1.00
     Exponent=  2.3840000000D-01 Coefficients=  1.0000000000D+00
 S 1 1.00
     Exponent=  7.8450000000D+00 Coefficients=  1.0000000000D+00
 S 1 1.00
     Exponent=  2.1032000000D+01 Coefficients=  1.0000000000D+00
 S 1 1.00
     Exponent=  7.3760000000D-02 Coefficients=  1.0000000000D+00
 P 1 1.00
     Exponent=  3.4460000000D+01 Coefficients=  1.0000000000D+00
 P 1 1.00
     Exponent=  7.7490000000D+00 Coefficients=  1.0000000000D+00
 P 1 1.00
     Exponent=  2.2800000000D+00 Coefficients=  1.0000000000D+00
 P 1 1.00
     Exponent=  7.1560000000D-01 Coefficients=  1.0000000000D+00
 P 1 1.00
     Exponent=  2.1400000000D-01 Coefficients=  1.0000000000D+00
 P 1 1.00
     Exponent=  1.5159000000D+01 Coefficients=  1.0000000000D+00
 P 1 1.00
     Exponent=  5.7437000000D+01 Coefficients=  1.0000000000D+00
 P 1 1.00
     Exponent=  5.9740000000D-02 Coefficients=  1.0000000000D+00
 D 1 1.00
     Exponent=  2.3140000000D+00 Coefficients=  1.0000000000D+00
 D 1 1.00
     Exponent=  6.4500000000D-01 Coefficients=  1.0000000000D+00
 D 1 1.00
     Exponent=  1.5858000000D+01 Coefficients=  1.0000000000D+00
 D 1 1.00
     Exponent=  2.1400000000D-01 Coefficients=  1.0000000000D+00
 F 1 1.00
     Exponent=  1.4280000000D+00 Coefficients=  1.0000000000D+00
 F 1 1.00
     Exponent=  5.0000000000D-01 Coefficients=  1.0000000000D+00
 ****
 ======================================================================================================
                                       Pseudopotential Parameters
 ======================================================================================================
  Center     Atomic      Valence      Angular      Power
  Number     Number     Electrons     Momentum     of R      Exponent        Coefficient   SO-Coeffient
 ======================================================================================================
    1         21           11
                                      D and up 
                                                     1       16.0484864       11.00000000    0.00000000
                                                     3       14.0776444      176.53335005    0.00000000
                                                     2       11.9934867      -83.67342052    0.00000000
                                                     2        3.7511530        0.33106479    0.00000000
                                      S - D
                                                     2       11.4712714      153.95987029    0.00000000
                                                     2        5.0075674       14.96431856    0.00000000
                                      P - D
                                                     2       11.4449481       97.20944543    0.00000000
                                                     2        4.7850946       10.81621631    0.00000000
    2          8            6
                                      P and up 
                                                     1       12.3099700        6.00000000    0.00000000
                                                     3       14.7696200       73.85984000    0.00000000
                                                     2       13.7141900      -47.87600000    0.00000000
                                      S - P
                                                     2       13.6551200       85.86406000    0.00000000
 ======================================================================================================
 Ernie: Thresh=  0.10000D-02 Tol=  0.10000D-05 Strict=F.
 There are   139 symmetry adapted cartesian basis functions of A1  symmetry.
 There are    30 symmetry adapted cartesian basis functions of A2  symmetry.
 There are    68 symmetry adapted cartesian basis functions of B1  symmetry.
 There are    68 symmetry adapted cartesian basis functions of B2  symmetry.
 There are   109 symmetry adapted basis functions of A1  symmetry.
 There are    27 symmetry adapted basis functions of A2  symmetry.
 There are    59 symmetry adapted basis functions of B1  symmetry.
 There are    59 symmetry adapted basis functions of B2  symmetry.
   254 basis functions,   305 primitive gaussians,   305 cartesian basis functions
     9 alpha electrons        8 beta electrons
       nuclear repulsion energy        23.2837972805 Hartrees.
 IExCor=    0 DFT=F Ex=HF Corr=None ExCW=0 ScaHFX=  1.000000
 ScaDFX=  1.000000  1.000000  1.000000  1.000000 ScalE2=  1.000000  1.000000
 IRadAn=      5 IRanWt=     -1 IRanGd=            0 ICorTp=0 IEmpDi=  4
 NAtoms=    2 NActive=    2 NUniq=    2 SFac= 1.00D+00 NAtFMM=   60 NAOKFM=F Big=F
 Integral buffers will be    131072 words long.
 Raffenetti 2 integral format.
 Two-electron integral symmetry is turned on.
 Leave Link  301 at Thu Apr 19 07:22:03 2018, MaxMem= 10737418240 cpu:               4.9 elap:               0.3
 (Enter /home1/apps/gaussian/16rA.03/g16/l302.exe)
 NPDir=0 NMtPBC=     1 NCelOv=     1 NCel=       1 NClECP=     1 NCelD=      1
         NCelK=      1 NCelE2=     1 NClLst=     1 CellRange=     0.0.
 One-electron integrals computed using PRISM.
 One-electron integral symmetry used in STVInt
   4 Symmetry operations used in ECPInt.
 ECPInt:  NShTT=    3403 NPrTT=    3403 LenC2=    3219 LenP2D=    3218.
 LDataN:  DoStor=T MaxTD1= 8 Len=  415
 NBasis=   254 RedAO= T EigKep=  1.03D-06  NBF=   109    27    59    59
 NBsUse=   251 1.00D-06 EigRej=  6.56D-07 NBFU=   108    27    58    58
 Leave Link  302 at Thu Apr 19 07:22:04 2018, MaxMem= 10737418240 cpu:              19.1 elap:               1.0
 (Enter /home1/apps/gaussian/16rA.03/g16/l303.exe)
 DipDrv:  MaxL=1.
 Leave Link  303 at Thu Apr 19 07:22:05 2018, MaxMem= 10737418240 cpu:               1.5 elap:               0.2
 (Enter /home1/apps/gaussian/16rA.03/g16/l401.exe)
 Initial guess from the checkpoint file:  "ScO.chk"
 B after Tr=     0.000000    0.000000   -0.000000
         Rot=    1.000000    0.000000    0.000000    0.000000 Ang=   0.00 deg.
 Guess basis will be translated and rotated to current coordinates.
 JPrj=2 DoOrth=T DoCkMO=T.
 Initial guess orbital symmetries:
       Occupied  (SG) (SG) (PI) (PI) (SG) (PI) (PI) (SG) (SG)
       Virtual   (PI) (PI) (SG) (SG) (DLTA) (DLTA) (PI) (PI) (SG)
                 (PI) (PI) (SG) (SG) (DLTA) (DLTA) (PI) (PI) (SG)
                 (PI) (PI) (DLTA) (DLTA) (PHI) (PHI) (SG) (PI)
                 (PI) (DLTA) (DLTA) (SG) (SG) (PI) (PI) (SG) (PI)
                 (PI) (SG) (PI) (PI) (DLTA) (DLTA) (?A) (?A) (PHI)
                 (PHI) (DLTA) (DLTA) (SG) (DLTA) (DLTA) (PI) (PI)
                 (PHI) (PHI) (SG) (PI) (PI) (SG) (SG) (PI) (PI)
                 (PI) (PI) (DLTA) (DLTA) (PHI) (PHI) (DLTA) (DLTA)
                 (PI) (PI) (SG) (?A) (?A) (SG) (DLTA) (DLTA) (PI)
                 (PI) (SG) (SG) (PI) (PI) (DLTA) (DLTA) (PHI) (PHI)
                 (?A) (?A) (SG) (PHI) (PHI) (PI) (PI) (SG) (SG)
                 (DLTA) (DLTA) (PI) (PI) (SG) (DLTA) (DLTA) (PI)
                 (PI) (PI) (PI) (SG) (SG) (DLTA) (DLTA) (PHI) (PHI)
                 (SG) (PI) (PI) (DLTA) (DLTA) (PI) (PI) (SG) (SG)
                 (?B) (?B) (PI) (PI) (PHI) (PHI) (?B) (?B) (?B)
                 (SG) (PI) (PI) (PHI) (PHI) (?B) (?B) (?B) (PI)
                 (PI) (?B) (?B) (?B) (?B) (SG) (?B) (?B) (?B) (?B)
                 (?B) (?B) (?B) (?B) (?B) (?B) (?B) (?B) (?B) (?B)
                 (?B) (?B) (?B) (?B) (?B) (?B) (SG) (SG) (?B) (?B)
                 (SG) (SG) (SG) (SG) (SG) (?B) (SG) (SG) (SG) (SG)
                 (SG) (SG) (SG) (SG) (SG) (?B) (SG) (SG) (SG) (SG)
                 (SG) (SG) (SG) (SG) (SG) (?B) (SG) (?B) (?B) (?B)
                 (SG) (SG) (?B) (?B) (SG) (?B) (SG) (?B) (?B) (SG)
                 (?B) (?B) (?B) (?B) (?B) (?B) (?B) (?B) (?B) (?B)
                 (?B) (?B) (?B) (?B) (?B) (?B) (?B) (?B) (?B) (?B)
                 (?B) (?B) (?B) (?B) (?B) (?B) (?B) (?B) (?B) (?B)
                 (?B) (?B)
 The electronic state of the initial guess is 2-SG.
 Leave Link  401 at Thu Apr 19 07:22:07 2018, MaxMem= 10737418240 cpu:              18.4 elap:               1.2
 (Enter /home1/apps/gaussian/16rA.03/g16/l502.exe)
 Keep R1 and R2 ints in memory in symmetry-blocked form, NReq=658655674.
 FoFCou: FMM=F IPFlag=           8 FMFlag=           0 FMFlg1=           0
         NFxFlg=           0 DoJE=F BraDBF=F KetDBF=F FulRan=T
         wScrn=  0.000000 ICntrl=       600 IOpCl=  0 I1Cent=           0 NGrid=           0
         NMat0=    1 NMatS0=  32385 NMatT0=    0 NMatD0=    1 NMtDS0=    0 NMtDT0=    0
 Petite list used in FoFCou.
 Restricted open shell SCF:
 Using DIIS extrapolation, IDIIS=  1040.
 NGot= 10737418240 LenX= 10468811225 LenY= 10468717759
 Requested convergence on RMS density matrix=1.00D-08 within 300 cycles.
 Requested convergence on MAX density matrix=1.00D-06.
 Requested convergence on             energy=1.00D-06.
 Virtual orbitals will be shifted by   0.400 hartree.
 No special actions if energy rises.
 An orbital has undefined symmetry, so N**3 symmetry is turned off.

 Cycle   1  Pass 1  IDiag  1:
 E= -61.7516152117550    
 DIIS: error= 1.61D-01 at cycle   1 NSaved=   1.
 NSaved= 1 IEnMin= 1 EnMin= -61.7516152117550     IErMin= 1 ErrMin= 1.61D-01
 ErrMax= 1.61D-01  0.00D+00 EMaxC= 1.00D-01 BMatC= 2.52D+00 BMatP= 2.52D+00
 IDIUse=3 WtCom= 0.00D+00 WtEn= 1.00D+00
 Coeff-Com:  0.100D+01
 Coeff-En:   0.100D+01
 Coeff:      0.100D+01
 Gap=     0.970 Goal=   None    Shift=    0.400
 GapD=    0.970 DampG=2.000 DampE=0.125 DampFc=0.2500 IDamp=-1.
 Damping current iteration by 2.50D-01
 RMSDP=1.17D-02 MaxDP=9.33D-01              OVMax= 6.88D-02

 Cycle   2  Pass 1  IDiag  1:
 E= -61.7842479536438     Delta-E=       -0.032632741889 Rises=F Damp=T
 DIIS: error= 1.21D-01 at cycle   2 NSaved=   2.
 NSaved= 2 IEnMin= 2 EnMin= -61.7842479536438     IErMin= 2 ErrMin= 1.21D-01
 ErrMax= 1.21D-01  0.00D+00 EMaxC= 1.00D-01 BMatC= 1.44D+00 BMatP= 2.52D+00
 IDIUse=3 WtCom= 0.00D+00 WtEn= 1.00D+00
 Coeff-Com: -0.306D+01 0.406D+01
 Coeff-En:   0.000D+00 0.100D+01
 Coeff:      0.000D+00 0.100D+01
 Gap=     0.074 Goal=   None    Shift=    0.400
 RMSDP=1.03D-02 MaxDP=7.50D-01 DE=-3.26D-02 OVMax= 2.51D-02

 Cycle   3  Pass 1  IDiag  1:
 E= -61.9050798444475     Delta-E=       -0.120831890804 Rises=F Damp=F
 DIIS: error= 8.32D-03 at cycle   3 NSaved=   3.
 NSaved= 3 IEnMin= 3 EnMin= -61.9050798444475     IErMin= 3 ErrMin= 8.32D-03
 ErrMax= 8.32D-03  0.00D+00 EMaxC= 1.00D-01 BMatC= 6.17D-03 BMatP= 1.44D+00
 IDIUse=3 WtCom= 9.17D-01 WtEn= 8.32D-02
 Coeff-Com:  0.425D+01-0.566D+01 0.241D+01
 Coeff-En:   0.000D+00 0.000D+00 0.100D+01
 Coeff:      0.389D+01-0.519D+01 0.229D+01
 Gap=     0.084 Goal=   None    Shift=    0.400
 RMSDP=1.80D-03 MaxDP=1.33D-01 DE=-1.21D-01 OVMax= 4.87D-02

 Cycle   4  Pass 1  IDiag  1:
 E= -61.9190366511309     Delta-E=       -0.013956806683 Rises=F Damp=F
 DIIS: error= 4.80D-03 at cycle   4 NSaved=   4.
 NSaved= 4 IEnMin= 4 EnMin= -61.9190366511309     IErMin= 4 ErrMin= 4.80D-03
 ErrMax= 4.80D-03  0.00D+00 EMaxC= 1.00D-01 BMatC= 1.26D-03 BMatP= 6.17D-03
 IDIUse=3 WtCom= 9.52D-01 WtEn= 4.80D-02
 Coeff-Com:  0.968D+00-0.129D+01 0.124D+00 0.120D+01
 Coeff-En:   0.000D+00 0.000D+00 0.000D+00 0.100D+01
 Coeff:      0.922D+00-0.123D+01 0.118D+00 0.119D+01
 Gap=     0.080 Goal=   None    Shift=    0.400
 RMSDP=5.72D-04 MaxDP=3.96D-02 DE=-1.40D-02 OVMax= 2.81D-02

 Cycle   5  Pass 1  IDiag  1:
 E= -61.9229008476872     Delta-E=       -0.003864196556 Rises=F Damp=F
 DIIS: error= 2.62D-03 at cycle   5 NSaved=   5.
 NSaved= 5 IEnMin= 5 EnMin= -61.9229008476872     IErMin= 5 ErrMin= 2.62D-03
 ErrMax= 2.62D-03  0.00D+00 EMaxC= 1.00D-01 BMatC= 4.63D-04 BMatP= 1.26D-03
 IDIUse=3 WtCom= 9.74D-01 WtEn= 2.62D-02
 Coeff-Com: -0.685D+00 0.913D+00-0.400D+00-0.454D+00 0.163D+01
 Coeff-En:   0.000D+00 0.000D+00 0.000D+00 0.000D+00 0.100D+01
 Coeff:     -0.668D+00 0.890D+00-0.389D+00-0.442D+00 0.161D+01
 Gap=     0.080 Goal=   None    Shift=    0.400
 RMSDP=2.38D-04 MaxDP=9.45D-03 DE=-3.86D-03 OVMax= 2.03D-02

 Cycle   6  Pass 1  IDiag  1:
 E= -61.9246826439675     Delta-E=       -0.001781796280 Rises=F Damp=F
 DIIS: error= 1.99D-03 at cycle   6 NSaved=   6.
 NSaved= 6 IEnMin= 6 EnMin= -61.9246826439675     IErMin= 6 ErrMin= 1.99D-03
 ErrMax= 1.99D-03  0.00D+00 EMaxC= 1.00D-01 BMatC= 1.95D-04 BMatP= 4.63D-04
 IDIUse=3 WtCom= 9.80D-01 WtEn= 1.99D-02
 Coeff-Com: -0.680D+00 0.906D+00-0.231D+00-0.606D+00 0.307D+00 0.130D+01
 Coeff-En:   0.000D+00 0.000D+00 0.000D+00 0.000D+00 0.000D+00 0.100D+01
 Coeff:     -0.667D+00 0.887D+00-0.227D+00-0.594D+00 0.301D+00 0.130D+01
 Gap=     0.080 Goal=   None    Shift=    0.400
 RMSDP=1.43D-04 MaxDP=6.16D-03 DE=-1.78D-03 OVMax= 1.66D-02

 Cycle   7  Pass 1  IDiag  1:
 E= -61.9254775150918     Delta-E=       -0.000794871124 Rises=F Damp=F
 DIIS: error= 1.12D-03 at cycle   7 NSaved=   7.
 NSaved= 7 IEnMin= 7 EnMin= -61.9254775150918     IErMin= 7 ErrMin= 1.12D-03
 ErrMax= 1.12D-03  0.00D+00 EMaxC= 1.00D-01 BMatC= 7.16D-05 BMatP= 1.95D-04
 IDIUse=3 WtCom= 9.89D-01 WtEn= 1.12D-02
 Coeff-Com: -0.125D+00 0.166D+00-0.165D-01-0.427D-01-0.294D+00-0.291D+00
 Coeff-Com:  0.160D+01
 Coeff-En:   0.000D+00 0.000D+00 0.000D+00 0.000D+00 0.000D+00 0.000D+00
 Coeff-En:   0.100D+01
 Coeff:     -0.124D+00 0.164D+00-0.163D-01-0.423D-01-0.291D+00-0.287D+00
 Coeff:      0.160D+01
 Gap=     0.081 Goal=   None    Shift=    0.400
 RMSDP=1.06D-04 MaxDP=5.96D-03 DE=-7.95D-04 OVMax= 1.07D-02

 Cycle   8  Pass 1  IDiag  1:
 E= -61.9258191779081     Delta-E=       -0.000341662816 Rises=F Damp=F
 DIIS: error= 6.85D-04 at cycle   8 NSaved=   8.
 NSaved= 8 IEnMin= 8 EnMin= -61.9258191779081     IErMin= 8 ErrMin= 6.85D-04
 ErrMax= 6.85D-04  0.00D+00 EMaxC= 1.00D-01 BMatC= 2.89D-05 BMatP= 7.16D-05
 IDIUse=3 WtCom= 9.93D-01 WtEn= 6.85D-03
 Coeff-Com: -0.841D-01 0.112D+00-0.619D-01 0.283D-01 0.208D+00-0.266D+00
 Coeff-Com: -0.113D+01 0.219D+01
 Coeff-En:   0.000D+00 0.000D+00 0.000D+00 0.000D+00 0.000D+00 0.000D+00
 Coeff-En:   0.000D+00 0.100D+01
 Coeff:     -0.835D-01 0.111D+00-0.615D-01 0.281D-01 0.207D+00-0.265D+00
 Coeff:     -0.112D+01 0.219D+01
 Gap=     0.081 Goal=   None    Shift=    0.400
 RMSDP=6.70D-05 MaxDP=4.29D-03 DE=-3.42D-04 OVMax= 7.52D-03

 Cycle   9  Pass 1  IDiag  1:
 E= -61.9259569386999     Delta-E=       -0.000137760792 Rises=F Damp=F
 DIIS: error= 4.33D-04 at cycle   9 NSaved=   9.
 NSaved= 9 IEnMin= 9 EnMin= -61.9259569386999     IErMin= 9 ErrMin= 4.33D-04
 ErrMax= 4.33D-04  0.00D+00 EMaxC= 1.00D-01 BMatC= 1.26D-05 BMatP= 2.89D-05
 IDIUse=3 WtCom= 9.96D-01 WtEn= 4.33D-03
 Coeff-Com: -0.161D+00 0.214D+00-0.749D-01-0.661D-01 0.805D-01 0.451D+00
 Coeff-Com: -0.570D+00-0.116D+01 0.229D+01
 Coeff-En:   0.000D+00 0.000D+00 0.000D+00 0.000D+00 0.000D+00 0.000D+00
 Coeff-En:   0.000D+00 0.000D+00 0.100D+01
 Coeff:     -0.160D+00 0.213D+00-0.746D-01-0.658D-01 0.802D-01 0.449D+00
 Coeff:     -0.567D+00-0.116D+01 0.228D+01
 Gap=     0.080 Goal=   None    Shift=    0.400
 RMSDP=4.42D-05 MaxDP=3.12D-03 DE=-1.38D-04 OVMax= 5.35D-03

 Cycle  10  Pass 1  IDiag  1:
 E= -61.9260002636383     Delta-E=       -0.000043324938 Rises=F Damp=F
 DIIS: error= 2.62D-04 at cycle  10 NSaved=  10.
 NSaved=10 IEnMin=10 EnMin= -61.9260002636383     IErMin=10 ErrMin= 2.62D-04
 ErrMax= 2.62D-04  0.00D+00 EMaxC= 1.00D-01 BMatC= 6.51D-06 BMatP= 1.26D-05
 IDIUse=3 WtCom= 9.97D-01 WtEn= 2.62D-03
 Coeff-Com: -0.113D+00 0.150D+00-0.522D-01-0.567D-01 0.112D+00 0.195D+00
 Coeff-Com: -0.179D+00-0.466D+00-0.675D+00 0.208D+01
 Coeff-En:   0.000D+00 0.000D+00 0.000D+00 0.000D+00 0.000D+00 0.000D+00
 Coeff-En:   0.000D+00 0.000D+00 0.000D+00 0.100D+01
 Coeff:     -0.112D+00 0.150D+00-0.520D-01-0.565D-01 0.112D+00 0.195D+00
 Coeff:     -0.179D+00-0.464D+00-0.673D+00 0.208D+01
 Gap=     0.080 Goal=   None    Shift=    0.400
 RMSDP=2.76D-05 MaxDP=2.46D-03 DE=-4.33D-05 OVMax= 4.07D-03

 Cycle  11  Pass 1  IDiag  1:
 E= -61.9260181274882     Delta-E=       -0.000017863850 Rises=F Damp=F
 DIIS: error= 2.04D-04 at cycle  11 NSaved=  11.
 NSaved=11 IEnMin=11 EnMin= -61.9260181274882     IErMin=11 ErrMin= 2.04D-04
 ErrMax= 2.04D-04  0.00D+00 EMaxC= 1.00D-01 BMatC= 3.66D-06 BMatP= 6.51D-06
 IDIUse=3 WtCom= 9.98D-01 WtEn= 2.04D-03
 Coeff-Com: -0.625D-01 0.833D-01-0.338D-01-0.278D-01 0.135D+00-0.228D-01
 Coeff-Com: -0.302D+00 0.526D+00-0.382D+00-0.145D+01 0.254D+01
 Coeff-En:   0.000D+00 0.000D+00 0.000D+00 0.000D+00 0.000D+00 0.000D+00
 Coeff-En:   0.000D+00 0.000D+00 0.000D+00 0.000D+00 0.100D+01
 Coeff:     -0.624D-01 0.831D-01-0.337D-01-0.277D-01 0.135D+00-0.228D-01
 Coeff:     -0.301D+00 0.525D+00-0.381D+00-0.145D+01 0.254D+01
 Gap=     0.080 Goal=   None    Shift=    0.400
 RMSDP=2.10D-05 MaxDP=1.98D-03 DE=-1.79D-05 OVMax= 3.26D-03

 Cycle  12  Pass 1  IDiag  1:
 E= -61.9260304550656     Delta-E=       -0.000012327577 Rises=F Damp=F
 DIIS: error= 1.68D-04 at cycle  12 NSaved=  12.
 NSaved=12 IEnMin=12 EnMin= -61.9260304550656     IErMin=12 ErrMin= 1.68D-04
 ErrMax= 1.68D-04  0.00D+00 EMaxC= 1.00D-01 BMatC= 2.14D-06 BMatP= 3.66D-06
 IDIUse=3 WtCom= 9.98D-01 WtEn= 1.68D-03
 Coeff-Com: -0.540D-01 0.720D-01-0.266D-01-0.912D-03-0.362D-01 0.198D+00
 Coeff-Com: -0.587D-01-0.612D+00 0.757D+00 0.101D+01-0.442D+01 0.417D+01
 Coeff-En:   0.000D+00 0.000D+00 0.000D+00 0.000D+00 0.000D+00 0.000D+00
 Coeff-En:   0.000D+00 0.000D+00 0.000D+00 0.000D+00 0.000D+00 0.100D+01
 Coeff:     -0.539D-01 0.719D-01-0.265D-01-0.910D-03-0.361D-01 0.198D+00
 Coeff:     -0.586D-01-0.611D+00 0.756D+00 0.101D+01-0.441D+01 0.416D+01
 Gap=     0.080 Goal=   None    Shift=    0.400
 RMSDP=1.90D-05 MaxDP=1.51D-03 DE=-1.23D-05 OVMax= 2.72D-03

 Cycle  13  Pass 1  IDiag  1:
 E= -61.9260380418626     Delta-E=       -0.000007586797 Rises=F Damp=F
 DIIS: error= 1.49D-04 at cycle  13 NSaved=  13.
 NSaved=13 IEnMin=13 EnMin= -61.9260380418626     IErMin=13 ErrMin= 1.49D-04
 ErrMax= 1.49D-04  0.00D+00 EMaxC= 1.00D-01 BMatC= 1.31D-06 BMatP= 2.14D-06
 IDIUse=3 WtCom= 9.99D-01 WtEn= 1.49D-03
 Coeff-Com: -0.337D-01 0.450D-01-0.190D-01 0.803D-02 0.356D-02-0.693D-02
 Coeff-Com:  0.141D-01-0.229D-02-0.357D+00 0.114D+01-0.146D+01-0.104D+01
 Coeff-Com:  0.270D+01
 Coeff-En:   0.000D+00 0.000D+00 0.000D+00 0.000D+00 0.000D+00 0.000D+00
 Coeff-En:   0.000D+00 0.000D+00 0.000D+00 0.000D+00 0.000D+00 0.000D+00
 Coeff-En:   0.100D+01
 Coeff:     -0.337D-01 0.449D-01-0.189D-01 0.802D-02 0.355D-02-0.692D-02
 Coeff:      0.141D-01-0.229D-02-0.357D+00 0.114D+01-0.145D+01-0.103D+01
 Coeff:      0.270D+01
 Gap=     0.080 Goal=   None    Shift=    0.400
 RMSDP=1.44D-05 MaxDP=1.20D-03 DE=-7.59D-06 OVMax= 2.27D-03

 Cycle  14  Pass 1  IDiag  1:
 E= -61.9260412468340     Delta-E=       -0.000003204971 Rises=F Damp=F
 DIIS: error= 1.14D-04 at cycle  14 NSaved=  14.
 NSaved=14 IEnMin=14 EnMin= -61.9260412468340     IErMin=14 ErrMin= 1.14D-04
 ErrMax= 1.14D-04  0.00D+00 EMaxC= 1.00D-01 BMatC= 8.07D-07 BMatP= 1.31D-06
 IDIUse=3 WtCom= 9.99D-01 WtEn= 1.14D-03
 Coeff-Com: -0.174D-01 0.231D-01-0.924D-02-0.110D-02 0.461D-02 0.373D-01
 Coeff-Com: -0.145D+00 0.270D+00 0.207D-01-0.125D+01 0.794D+00 0.325D+01
 Coeff-Com: -0.689D+01 0.491D+01
 Coeff-En:   0.000D+00 0.000D+00 0.000D+00 0.000D+00 0.000D+00 0.000D+00
 Coeff-En:   0.000D+00 0.000D+00 0.000D+00 0.000D+00 0.000D+00 0.000D+00
 Coeff-En:   0.000D+00 0.100D+01
 Coeff:     -0.173D-01 0.231D-01-0.923D-02-0.110D-02 0.461D-02 0.373D-01
 Coeff:     -0.144D+00 0.269D+00 0.207D-01-0.125D+01 0.793D+00 0.325D+01
 Coeff:     -0.688D+01 0.490D+01
 Gap=     0.080 Goal=   None    Shift=    0.400
 RMSDP=9.75D-06 MaxDP=8.33D-04 DE=-3.20D-06 OVMax= 1.62D-03

 Cycle  15  Pass 1  IDiag  1:
 E= -61.9260447326029     Delta-E=       -0.000003485769 Rises=F Damp=F
 DIIS: error= 7.49D-05 at cycle  15 NSaved=  15.
 NSaved=15 IEnMin=15 EnMin= -61.9260447326029     IErMin=15 ErrMin= 7.49D-05
 ErrMax= 7.49D-05  0.00D+00 EMaxC= 1.00D-01 BMatC= 4.62D-07 BMatP= 8.07D-07
 IDIUse=1 WtCom= 1.00D+00 WtEn= 0.00D+00
 Coeff-Com: -0.311D-02 0.415D-02-0.278D-02 0.654D-02-0.106D-02 0.122D-01
 Coeff-Com: -0.115D+00 0.166D+00 0.549D-01-0.690D-01-0.686D+00 0.654D+00
 Coeff-Com:  0.102D+00-0.190D+01 0.278D+01
 Coeff:     -0.311D-02 0.415D-02-0.278D-02 0.654D-02-0.106D-02 0.122D-01
 Coeff:     -0.115D+00 0.166D+00 0.549D-01-0.690D-01-0.686D+00 0.654D+00
 Coeff:      0.102D+00-0.190D+01 0.278D+01
 Gap=     0.080 Goal=   None    Shift=    0.400
 RMSDP=6.42D-06 MaxDP=5.77D-04 DE=-3.49D-06 OVMax= 1.22D-03

 Cycle  16  Pass 1  IDiag  1:
 E= -61.9260459942002     Delta-E=       -0.000001261597 Rises=F Damp=F
 DIIS: error= 5.25D-05 at cycle  16 NSaved=  16.
 NSaved=16 IEnMin=16 EnMin= -61.9260459942002     IErMin=16 ErrMin= 5.25D-05
 ErrMax= 5.25D-05  0.00D+00 EMaxC= 1.00D-01 BMatC= 2.63D-07 BMatP= 4.62D-07
 IDIUse=1 WtCom= 1.00D+00 WtEn= 0.00D+00
 Coeff-Com:  0.118D-02-0.157D-02 0.451D-03-0.301D-02 0.309D-01-0.480D-01
 Coeff-Com: -0.466D-01 0.167D+00-0.133D+00-0.617D-01 0.140D+00 0.331D+00
 Coeff-Com: -0.124D+01 0.170D+01-0.350D+01 0.367D+01
 Coeff:      0.118D-02-0.157D-02 0.451D-03-0.301D-02 0.309D-01-0.480D-01
 Coeff:     -0.466D-01 0.167D+00-0.133D+00-0.617D-01 0.140D+00 0.331D+00
 Coeff:     -0.124D+01 0.170D+01-0.350D+01 0.367D+01
 Gap=     0.080 Goal=   None    Shift=    0.400
 RMSDP=4.39D-06 MaxDP=4.44D-04 DE=-1.26D-06 OVMax= 9.28D-04

 Cycle  17  Pass 1  IDiag  1:
 E= -61.9260467710912     Delta-E=       -0.000000776891 Rises=F Damp=F
 DIIS: error= 3.81D-05 at cycle  17 NSaved=  17.
 NSaved=17 IEnMin=17 EnMin= -61.9260467710912     IErMin=17 ErrMin= 3.81D-05
 ErrMax= 3.81D-05  0.00D+00 EMaxC= 1.00D-01 BMatC= 1.57D-07 BMatP= 2.63D-07
 IDIUse=1 WtCom= 1.00D+00 WtEn= 0.00D+00
 Coeff-Com:  0.297D-02-0.395D-02 0.965D-03 0.883D-02-0.343D-01 0.484D-01
 Coeff-Com: -0.218D-01-0.287D-01 0.109D+00-0.372D-01-0.409D+00 0.578D+00
 Coeff-Com:  0.197D+00-0.183D+01 0.451D+01-0.831D+01 0.623D+01
 Coeff:      0.297D-02-0.395D-02 0.965D-03 0.883D-02-0.343D-01 0.484D-01
 Coeff:     -0.218D-01-0.287D-01 0.109D+00-0.372D-01-0.409D+00 0.578D+00
 Coeff:      0.197D+00-0.183D+01 0.451D+01-0.831D+01 0.623D+01
 Gap=     0.080 Goal=   None    Shift=    0.400
 RMSDP=4.13D-06 MaxDP=3.61D-04 DE=-7.77D-07 OVMax= 7.03D-04

 Cycle  18  Pass 1  IDiag  1:
 E= -61.9260471701885     Delta-E=       -0.000000399097 Rises=F Damp=F
 DIIS: error= 2.82D-05 at cycle  18 NSaved=  18.
 NSaved=18 IEnMin=18 EnMin= -61.9260471701885     IErMin=18 ErrMin= 2.82D-05
 ErrMax= 2.82D-05  0.00D+00 EMaxC= 1.00D-01 BMatC= 9.35D-08 BMatP= 1.57D-07
 IDIUse=1 WtCom= 1.00D+00 WtEn= 0.00D+00
 Coeff-Com:  0.122D-02-0.162D-02-0.123D-04 0.403D-02-0.518D-03-0.242D-01
 Coeff-Com:  0.171D-01 0.829D-01-0.143D+00-0.408D-01 0.231D+00-0.120D+00
 Coeff-Com:  0.107D+00-0.204D+00-0.196D+00 0.797D-01-0.207D+01 0.328D+01
 Coeff:      0.122D-02-0.162D-02-0.123D-04 0.403D-02-0.518D-03-0.242D-01
 Coeff:      0.171D-01 0.829D-01-0.143D+00-0.408D-01 0.231D+00-0.120D+00
 Coeff:      0.107D+00-0.204D+00-0.196D+00 0.797D-01-0.207D+01 0.328D+01
 Gap=     0.080 Goal=   None    Shift=    0.400
 RMSDP=2.65D-06 MaxDP=3.75D-04 DE=-3.99D-07 OVMax= 5.34D-04

 Cycle  19  Pass 1  IDiag  1:
 E= -61.9260473927605     Delta-E=       -0.000000222572 Rises=F Damp=F
 DIIS: error= 1.95D-05 at cycle  19 NSaved=  19.
 NSaved=19 IEnMin=19 EnMin= -61.9260473927605     IErMin=19 ErrMin= 1.95D-05
 ErrMax= 1.95D-05  0.00D+00 EMaxC= 1.00D-01 BMatC= 5.67D-08 BMatP= 9.35D-08
 IDIUse=1 WtCom= 1.00D+00 WtEn= 0.00D+00
 Coeff-Com: -0.440D-03 0.584D-03 0.109D-04 0.642D-04-0.119D-01 0.333D-01
 Coeff-Com: -0.301D-01-0.174D-01 0.654D-01-0.473D-01-0.127D+00 0.301D+00
 Coeff-Com: -0.879D-01-0.842D-01 0.101D+01-0.330D+01 0.524D+01-0.818D+01
 Coeff-Com:  0.624D+01
 Coeff:     -0.440D-03 0.584D-03 0.109D-04 0.642D-04-0.119D-01 0.333D-01
 Coeff:     -0.301D-01-0.174D-01 0.654D-01-0.473D-01-0.127D+00 0.301D+00
 Coeff:     -0.879D-01-0.842D-01 0.101D+01-0.330D+01 0.524D+01-0.818D+01
 Coeff:      0.624D+01
 Gap=     0.080 Goal=   None    Shift=    0.400
 RMSDP=2.24D-06 MaxDP=2.38D-04 DE=-2.23D-07 OVMax= 3.66D-04

 Cycle  20  Pass 1  IDiag  1:
 E= -61.9260475625060     Delta-E=       -0.000000169745 Rises=F Damp=F
 DIIS: error= 1.38D-05 at cycle  20 NSaved=  20.
 NSaved=20 IEnMin=20 EnMin= -61.9260475625060     IErMin=20 ErrMin= 1.38D-05
 ErrMax= 1.38D-05  0.00D+00 EMaxC= 1.00D-01 BMatC= 3.18D-08 BMatP= 5.67D-08
 IDIUse=1 WtCom= 1.00D+00 WtEn= 0.00D+00
 Coeff-Com: -0.433D-03 0.575D-03 0.937D-06 0.775D-04-0.109D-01 0.299D-01
 Coeff-Com: -0.229D-01-0.240D-01 0.654D-01-0.491D-01-0.111D+00 0.288D+00
 Coeff-Com: -0.134D+00-0.214D-01 0.913D+00-0.304D+01 0.468D+01-0.693D+01
 Coeff-Com:  0.471D+01 0.656D+00
 Coeff:     -0.433D-03 0.575D-03 0.937D-06 0.775D-04-0.109D-01 0.299D-01
 Coeff:     -0.229D-01-0.240D-01 0.654D-01-0.491D-01-0.111D+00 0.288D+00
 Coeff:     -0.134D+00-0.214D-01 0.913D+00-0.304D+01 0.468D+01-0.693D+01
 Coeff:      0.471D+01 0.656D+00
 Gap=     0.080 Goal=   None    Shift=    0.400
 RMSDP=1.47D-06 MaxDP=1.72D-04 DE=-1.70D-07 OVMax= 2.80D-04

 Cycle  21  Pass 1  IDiag  1:
 E= -61.9260476415607     Delta-E=       -0.000000079055 Rises=F Damp=F
 DIIS: error= 1.04D-05 at cycle  21 NSaved=  20.
 NSaved=20 IEnMin=20 EnMin= -61.9260476415607     IErMin=20 ErrMin= 1.04D-05
 ErrMax= 1.04D-05  0.00D+00 EMaxC= 1.00D-01 BMatC= 1.88D-08 BMatP= 3.18D-08
 IDIUse=1 WtCom= 1.00D+00 WtEn= 0.00D+00
 Coeff-Com:  0.677D-07 0.583D-04-0.483D-03 0.452D-03 0.250D-02-0.888D-02
 Coeff-Com:  0.190D-02 0.101D-01 0.645D-01-0.104D+00-0.526D-01 0.195D+00
 Coeff-Com: -0.233D+00 0.178D+00 0.288D-01 0.211D+00-0.602D+00 0.246D+01
 Coeff-Com: -0.863D+01 0.748D+01
 Coeff:      0.677D-07 0.583D-04-0.483D-03 0.452D-03 0.250D-02-0.888D-02
 Coeff:      0.190D-02 0.101D-01 0.645D-01-0.104D+00-0.526D-01 0.195D+00
 Coeff:     -0.233D+00 0.178D+00 0.288D-01 0.211D+00-0.602D+00 0.246D+01
 Coeff:     -0.863D+01 0.748D+01
 Gap=     0.080 Goal=   None    Shift=    0.400
 RMSDP=1.25D-06 MaxDP=1.83D-04 DE=-7.91D-08 OVMax= 2.07D-04

 Cycle  22  Pass 1  IDiag  1:
 E= -61.9260476850127     Delta-E=       -0.000000043452 Rises=F Damp=F
 DIIS: error= 8.19D-06 at cycle  22 NSaved=  20.
 NSaved=20 IEnMin=20 EnMin= -61.9260476850127     IErMin=20 ErrMin= 8.19D-06
 ErrMax= 8.19D-06  0.00D+00 EMaxC= 1.00D-01 BMatC= 1.13D-08 BMatP= 1.88D-08
 IDIUse=1 WtCom= 1.00D+00 WtEn= 0.00D+00
 Large coefficients: NSaved= 20 BigCof=   10.07 CofMax=   10.00 Det=-3.27D-12
 Inversion failed.  Reducing to 19 matrices.
 Large coefficients: NSaved= 19 BigCof=   10.13 CofMax=   10.00 Det=-3.74D-12
 Inversion failed.  Reducing to 18 matrices.
 Large coefficients: NSaved= 18 BigCof=   10.22 CofMax=   10.00 Det=-3.85D-12
 Inversion failed.  Reducing to 17 matrices.
 Large coefficients: NSaved= 17 BigCof=   10.26 CofMax=   10.00 Det=-4.50D-12
 Inversion failed.  Reducing to 16 matrices.
 Large coefficients: NSaved= 16 BigCof=   10.03 CofMax=   10.00 Det=-4.54D-12
 Inversion failed.  Reducing to 15 matrices.
 Coeff-Com: -0.783D-02 0.922D-02 0.921D-01-0.141D+00-0.671D-01 0.230D+00
 Coeff-Com: -0.296D+00 0.224D+00 0.209D+00-0.406D+00 0.755D+00 0.141D+01
 Coeff-Com: -0.968D+01 0.946D+01-0.789D+00
 Coeff:     -0.783D-02 0.922D-02 0.921D-01-0.141D+00-0.671D-01 0.230D+00
 Coeff:     -0.296D+00 0.224D+00 0.209D+00-0.406D+00 0.755D+00 0.141D+01
 Coeff:     -0.968D+01 0.946D+01-0.789D+00
 Gap=     0.080 Goal=   None    Shift=    0.400
 RMSDP=9.69D-07 MaxDP=1.28D-04 DE=-4.35D-08 OVMax= 1.61D-04

 Cycle  23  Pass 1  IDiag  1:
 E= -61.9260477111697     Delta-E=       -0.000000026157 Rises=F Damp=F
 DIIS: error= 6.34D-06 at cycle  23 NSaved=  16.
 NSaved=16 IEnMin=16 EnMin= -61.9260477111697     IErMin=16 ErrMin= 6.34D-06
 ErrMax= 6.34D-06  0.00D+00 EMaxC= 1.00D-01 BMatC= 6.99D-09 BMatP= 1.13D-08
 IDIUse=1 WtCom= 1.00D+00 WtEn= 0.00D+00
 Coeff-Com: -0.496D-02 0.571D-02 0.248D-01-0.557D-01 0.552D-01-0.195D-02
 Coeff-Com: -0.393D-01-0.378D-01 0.155D+00 0.215D-01-0.276D+00 0.957D+00
 Coeff-Com: -0.170D+01 0.220D+01-0.720D+01 0.689D+01
 Coeff:     -0.496D-02 0.571D-02 0.248D-01-0.557D-01 0.552D-01-0.195D-02
 Coeff:     -0.393D-01-0.378D-01 0.155D+00 0.215D-01-0.276D+00 0.957D+00
 Coeff:     -0.170D+01 0.220D+01-0.720D+01 0.689D+01
 Gap=     0.080 Goal=   None    Shift=    0.400
 RMSDP=7.38D-07 MaxDP=7.54D-05 DE=-2.62D-08 OVMax= 1.19D-04

 Cycle  24  Pass 1  IDiag  1:
 E= -61.9260477296007     Delta-E=       -0.000000018431 Rises=F Damp=F
 DIIS: error= 5.03D-06 at cycle  24 NSaved=  17.
 NSaved=17 IEnMin=17 EnMin= -61.9260477296007     IErMin=17 ErrMin= 5.03D-06
 ErrMax= 5.03D-06  0.00D+00 EMaxC= 1.00D-01 BMatC= 4.20D-09 BMatP= 6.99D-09
 IDIUse=1 WtCom= 1.00D+00 WtEn= 0.00D+00
 Coeff-Com: -0.577D-02 0.106D-01 0.331D-01-0.731D-01 0.260D-01 0.150D-01
 Coeff-Com: -0.658D-01 0.669D-01 0.187D+00-0.315D+00 0.478D+00 0.569D+00
 Coeff-Com: -0.358D+01 0.435D+01-0.377D+01 0.998D-01 0.297D+01
 Coeff:     -0.577D-02 0.106D-01 0.331D-01-0.731D-01 0.260D-01 0.150D-01
 Coeff:     -0.658D-01 0.669D-01 0.187D+00-0.315D+00 0.478D+00 0.569D+00
 Coeff:     -0.358D+01 0.435D+01-0.377D+01 0.998D-01 0.297D+01
 Gap=     0.080 Goal=   None    Shift=    0.400
 RMSDP=6.52D-07 MaxDP=6.33D-05 DE=-1.84D-08 OVMax= 9.14D-05

 Cycle  25  Pass 1  IDiag  1:
 E= -61.9260477396199     Delta-E=       -0.000000010019 Rises=F Damp=F
 DIIS: error= 3.99D-06 at cycle  25 NSaved=  18.
 NSaved=18 IEnMin=18 EnMin= -61.9260477396199     IErMin=18 ErrMin= 3.99D-06
 ErrMax= 3.99D-06  0.00D+00 EMaxC= 1.00D-01 BMatC= 2.57D-09 BMatP= 4.20D-09
 IDIUse=1 WtCom= 1.00D+00 WtEn= 0.00D+00
 Coeff-Com: -0.341D-02 0.504D-02 0.293D-01-0.544D-01 0.110D-01 0.223D-01
 Coeff-Com: -0.721D-01 0.849D-01 0.980D-01-0.176D+00 0.228D+00 0.326D+00
 Coeff-Com: -0.216D+01 0.269D+01-0.184D+01 0.191D+01-0.515D+01 0.504D+01
 Coeff:     -0.341D-02 0.504D-02 0.293D-01-0.544D-01 0.110D-01 0.223D-01
 Coeff:     -0.721D-01 0.849D-01 0.980D-01-0.176D+00 0.228D+00 0.326D+00
 Coeff:     -0.216D+01 0.269D+01-0.184D+01 0.191D+01-0.515D+01 0.504D+01
 Gap=     0.080 Goal=   None    Shift=    0.400
 RMSDP=5.28D-07 MaxDP=5.36D-05 DE=-1.00D-08 OVMax= 7.09D-05

 Cycle  26  Pass 1  IDiag  1:
 E= -61.9260477455698     Delta-E=       -0.000000005950 Rises=F Damp=F
 DIIS: error= 3.18D-06 at cycle  26 NSaved=  19.
 NSaved=19 IEnMin=19 EnMin= -61.9260477455698     IErMin=19 ErrMin= 3.18D-06
 ErrMax= 3.18D-06  0.00D+00 EMaxC= 1.00D-01 BMatC= 1.59D-09 BMatP= 2.57D-09
 IDIUse=1 WtCom= 1.00D+00 WtEn= 0.00D+00
 Large coefficients: NSaved= 19 BigCof=   12.12 CofMax=   10.00 Det=-1.83D-13
 Inversion failed.  Reducing to 18 matrices.
 Large coefficients: NSaved= 18 BigCof=   12.11 CofMax=   10.00 Det=-1.83D-13
 Inversion failed.  Reducing to 17 matrices.
 Large coefficients: NSaved= 17 BigCof=   11.87 CofMax=   10.00 Det=-1.89D-13
 Inversion failed.  Reducing to 16 matrices.
 Large coefficients: NSaved= 16 BigCof=   10.41 CofMax=   10.00 Det=-2.29D-13
 Inversion failed.  Reducing to 15 matrices.
 Large coefficients: NSaved= 15 BigCof=   10.40 CofMax=   10.00 Det=-2.31D-13
 Inversion failed.  Reducing to 14 matrices.
 Large coefficients: NSaved= 14 BigCof=   11.10 CofMax=   10.00 Det=-2.47D-13
 Inversion failed.  Reducing to 13 matrices.
 Large coefficients: NSaved= 13 BigCof=   10.98 CofMax=   10.00 Det=-2.48D-13
 Inversion failed.  Reducing to 12 matrices.
 Large coefficients: NSaved= 12 BigCof=   11.26 CofMax=   10.00 Det=-2.50D-13
 Inversion failed.  Reducing to 11 matrices.
 Large coefficients: NSaved= 11 BigCof=   11.27 CofMax=   10.00 Det=-2.52D-13
 Inversion failed.  Reducing to 10 matrices.
 Large coefficients: NSaved= 10 BigCof=   11.46 CofMax=   10.00 Det=-2.55D-13
 Inversion failed.  Reducing to  9 matrices.
 Large coefficients: NSaved=  9 BigCof=   11.23 CofMax=   10.00 Det=-2.55D-13
 Inversion failed.  Reducing to  8 matrices.
 Large coefficients: NSaved=  8 BigCof=   10.92 CofMax=   10.00 Det=-3.70D-13
 Inversion failed.  Reducing to  7 matrices.
 Coeff-Com:  0.179D+00 0.456D-01-0.721D+00-0.112D+00 0.300D+01-0.818D+01
 Coeff-Com:  0.679D+01
 Coeff:      0.179D+00 0.456D-01-0.721D+00-0.112D+00 0.300D+01-0.818D+01
 Coeff:      0.679D+01
 Gap=     0.080 Goal=   None    Shift=    0.400
 RMSDP=4.84D-07 MaxDP=4.43D-05 DE=-5.95D-09 OVMax= 5.53D-05

 Cycle  27  Pass 1  IDiag  1:
 E= -61.9260477492307     Delta-E=       -0.000000003661 Rises=F Damp=F
 DIIS: error= 2.54D-06 at cycle  27 NSaved=   8.
 NSaved= 8 IEnMin= 8 EnMin= -61.9260477492307     IErMin= 8 ErrMin= 2.54D-06
 ErrMax= 2.54D-06  0.00D+00 EMaxC= 1.00D-01 BMatC= 1.01D-09 BMatP= 1.59D-09
 IDIUse=1 WtCom= 1.00D+00 WtEn= 0.00D+00
 Coeff-Com: -0.175D-01 0.409D+00-0.926D+00 0.223D-01 0.267D+01-0.654D+01
 Coeff-Com:  0.409D+01 0.129D+01
 Coeff:     -0.175D-01 0.409D+00-0.926D+00 0.223D-01 0.267D+01-0.654D+01
 Coeff:      0.409D+01 0.129D+01
 Gap=     0.080 Goal=   None    Shift=    0.400
 RMSDP=3.75D-07 MaxDP=3.72D-05 DE=-3.66D-09 OVMax= 4.37D-05

 Cycle  28  Pass 1  IDiag  1:
 E= -61.9260477515355     Delta-E=       -0.000000002305 Rises=F Damp=F
 DIIS: error= 2.01D-06 at cycle  28 NSaved=   9.
 NSaved= 9 IEnMin= 9 EnMin= -61.9260477515355     IErMin= 9 ErrMin= 2.01D-06
 ErrMax= 2.01D-06  0.00D+00 EMaxC= 1.00D-01 BMatC= 6.33D-10 BMatP= 1.01D-09
 IDIUse=1 WtCom= 1.00D+00 WtEn= 0.00D+00
 Coeff-Com: -0.147D+00 0.520D-02 0.523D+00-0.706D+00 0.180D+01-0.143D+01
 Coeff-Com: -0.117D+01-0.317D+01 0.530D+01
 Coeff:     -0.147D+00 0.520D-02 0.523D+00-0.706D+00 0.180D+01-0.143D+01
 Coeff:     -0.117D+01-0.317D+01 0.530D+01
 Gap=     0.080 Goal=   None    Shift=    0.400
 RMSDP=2.86D-07 MaxDP=2.83D-05 DE=-2.30D-09 OVMax= 3.34D-05

 Cycle  29  Pass 1  IDiag  1:
 E= -61.9260477529349     Delta-E=       -0.000000001399 Rises=F Damp=F
 DIIS: error= 1.60D-06 at cycle  29 NSaved=  10.
 NSaved=10 IEnMin=10 EnMin= -61.9260477529349     IErMin=10 ErrMin= 1.60D-06
 ErrMax= 1.60D-06  0.00D+00 EMaxC= 1.00D-01 BMatC= 4.06D-10 BMatP= 6.33D-10
 IDIUse=1 WtCom= 1.00D+00 WtEn= 0.00D+00
 Coeff-Com: -0.949D-01 0.917D-01 0.424D+00-0.319D+00-0.883D+00 0.164D+01
 Coeff-Com: -0.115D+01-0.187D+01 0.543D+00 0.263D+01
 Coeff:     -0.949D-01 0.917D-01 0.424D+00-0.319D+00-0.883D+00 0.164D+01
 Coeff:     -0.115D+01-0.187D+01 0.543D+00 0.263D+01
 Gap=     0.080 Goal=   None    Shift=    0.400
 RMSDP=2.31D-07 MaxDP=2.38D-05 DE=-1.40D-09 OVMax= 2.61D-05

 Cycle  30  Pass 1  IDiag  1:
 E= -61.9260477538307     Delta-E=       -0.000000000896 Rises=F Damp=F
 DIIS: error= 1.30D-06 at cycle  30 NSaved=  11.
 NSaved=11 IEnMin=11 EnMin= -61.9260477538307     IErMin=11 ErrMin= 1.30D-06
 ErrMax= 1.30D-06  0.00D+00 EMaxC= 1.00D-01 BMatC= 2.53D-10 BMatP= 4.06D-10
 IDIUse=1 WtCom= 1.00D+00 WtEn= 0.00D+00
 Coeff-Com:  0.859D-01-0.375D-01-0.383D+00 0.599D+00 0.341D+00-0.139D+01
 Coeff-Com:  0.186D+00 0.723D+00-0.176D-01-0.338D+01 0.428D+01
 Coeff:      0.859D-01-0.375D-01-0.383D+00 0.599D+00 0.341D+00-0.139D+01
 Coeff:      0.186D+00 0.723D+00-0.176D-01-0.338D+01 0.428D+01
 Gap=     0.080 Goal=   None    Shift=    0.400
 RMSDP=1.88D-07 MaxDP=1.91D-05 DE=-8.96D-10 OVMax= 2.06D-05

 Cycle  31  Pass 1  IDiag  1:
 E= -61.9260477543940     Delta-E=       -0.000000000563 Rises=F Damp=F
 DIIS: error= 1.04D-06 at cycle  31 NSaved=  12.
 NSaved=12 IEnMin=12 EnMin= -61.9260477543940     IErMin=12 ErrMin= 1.04D-06
 ErrMax= 1.04D-06  0.00D+00 EMaxC= 1.00D-01 BMatC= 1.61D-10 BMatP= 2.53D-10
 IDIUse=1 WtCom= 1.00D+00 WtEn= 0.00D+00
 Coeff-Com:  0.106D-01 0.294D-01-0.193D-01-0.137D+00 0.373D+00 0.522D-01
 Coeff-Com: -0.780D+00-0.114D+01 0.208D+01-0.632D+00-0.170D+01 0.286D+01
 Coeff:      0.106D-01 0.294D-01-0.193D-01-0.137D+00 0.373D+00 0.522D-01
 Coeff:     -0.780D+00-0.114D+01 0.208D+01-0.632D+00-0.170D+01 0.286D+01
 Gap=     0.080 Goal=   None    Shift=    0.400
 RMSDP=1.57D-07 MaxDP=1.59D-05 DE=-5.63D-10 OVMax= 1.65D-05

 Cycle  32  Pass 1  IDiag  1:
 E= -61.9260477547485     Delta-E=       -0.000000000354 Rises=F Damp=F
 DIIS: error= 8.23D-07 at cycle  32 NSaved=  13.
 NSaved=13 IEnMin=13 EnMin= -61.9260477547485     IErMin=13 ErrMin= 8.23D-07
 ErrMax= 8.23D-07  0.00D+00 EMaxC= 1.00D-01 BMatC= 1.03D-10 BMatP= 1.61D-10
 IDIUse=1 WtCom= 1.00D+00 WtEn= 0.00D+00
 Coeff-Com: -0.550D-01-0.737D-01 0.623D+00-0.604D+00-0.133D+00 0.799D+00
 Coeff-Com: -0.718D+00-0.814D+00 0.745D+00 0.628D+00 0.434D+00-0.519D+01
 Coeff-Com:  0.536D+01
 Coeff:     -0.550D-01-0.737D-01 0.623D+00-0.604D+00-0.133D+00 0.799D+00
 Coeff:     -0.718D+00-0.814D+00 0.745D+00 0.628D+00 0.434D+00-0.519D+01
 Coeff:      0.536D+01
 Gap=     0.080 Goal=   None    Shift=    0.400
 RMSDP=1.22D-07 MaxDP=1.24D-05 DE=-3.54D-10 OVMax= 1.28D-05

 Cycle  33  Pass 1  IDiag  1:
 E= -61.9260477549739     Delta-E=       -0.000000000225 Rises=F Damp=F
 DIIS: error= 6.61D-07 at cycle  33 NSaved=  14.
 NSaved=14 IEnMin=14 EnMin= -61.9260477549739     IErMin=14 ErrMin= 6.61D-07
 ErrMax= 6.61D-07  0.00D+00 EMaxC= 1.00D-01 BMatC= 6.67D-11 BMatP= 1.03D-10
 IDIUse=1 WtCom= 1.00D+00 WtEn= 0.00D+00
 Coeff-Com: -0.158D-02-0.521D-01 0.191D+00-0.105D+00 0.861D-01-0.132D+00
 Coeff-Com: -0.206D+00-0.984D-01 0.339D+00-0.665D+00 0.175D+01-0.389D+01
 Coeff-Com:  0.209D+01 0.170D+01
 Coeff:     -0.158D-02-0.521D-01 0.191D+00-0.105D+00 0.861D-01-0.132D+00
 Coeff:     -0.206D+00-0.984D-01 0.339D+00-0.665D+00 0.175D+01-0.389D+01
 Coeff:      0.209D+01 0.170D+01
 Gap=     0.080 Goal=   None    Shift=    0.400
 RMSDP=1.04D-07 MaxDP=1.04D-05 DE=-2.25D-10 OVMax= 1.02D-05

 Cycle  34  Pass 1  IDiag  1:
 E= -61.9260477551172     Delta-E=       -0.000000000143 Rises=F Damp=F
 DIIS: error= 5.31D-07 at cycle  34 NSaved=  15.
 NSaved=15 IEnMin=15 EnMin= -61.9260477551172     IErMin=15 ErrMin= 5.31D-07
 ErrMax= 5.31D-07  0.00D+00 EMaxC= 1.00D-01 BMatC= 4.32D-11 BMatP= 6.67D-11
 IDIUse=1 WtCom= 1.00D+00 WtEn= 0.00D+00
 Large coefficients: NSaved= 15 BigCof=   10.14 CofMax=   10.00 Det=-8.09D-15
 Inversion failed.  Reducing to 14 matrices.
 Large coefficients: NSaved= 14 BigCof=   10.13 CofMax=   10.00 Det=-8.29D-15
 Inversion failed.  Reducing to 13 matrices.
 Large coefficients: NSaved= 13 BigCof=   10.05 CofMax=   10.00 Det=-8.41D-15
 Inversion failed.  Reducing to 12 matrices.
 Coeff-Com: -0.243D+00 0.857D+00-0.911D+00 0.303D+00-0.345D+00 0.343D+00
 Coeff-Com:  0.593D+00-0.951D+00 0.279D+00 0.241D+01-0.930D+01 0.796D+01
 Coeff:     -0.243D+00 0.857D+00-0.911D+00 0.303D+00-0.345D+00 0.343D+00
 Coeff:      0.593D+00-0.951D+00 0.279D+00 0.241D+01-0.930D+01 0.796D+01
 Gap=     0.080 Goal=   None    Shift=    0.400
 RMSDP=8.46D-08 MaxDP=8.18D-06 DE=-1.43D-10 OVMax= 8.37D-06

 Cycle  35  Pass 1  IDiag  1:
 E= -61.9260477552067     Delta-E=       -0.000000000090 Rises=F Damp=F
 DIIS: error= 4.12D-07 at cycle  35 NSaved=  13.
 NSaved=13 IEnMin=13 EnMin= -61.9260477552067     IErMin=13 ErrMin= 4.12D-07
 ErrMax= 4.12D-07  0.00D+00 EMaxC= 1.00D-01 BMatC= 2.88D-11 BMatP= 4.32D-11
 IDIUse=1 WtCom= 1.00D+00 WtEn= 0.00D+00
 Coeff-Com: -0.233D+00 0.866D+00-0.974D+00 0.315D+00-0.218D+00 0.329D+00
 Coeff-Com:  0.197D+00-0.538D+00 0.327D+00 0.180D+01-0.784D+01 0.634D+01
 Coeff-Com:  0.623D+00
 Coeff:     -0.233D+00 0.866D+00-0.974D+00 0.315D+00-0.218D+00 0.329D+00
 Coeff:      0.197D+00-0.538D+00 0.327D+00 0.180D+01-0.784D+01 0.634D+01
 Coeff:      0.623D+00
 Gap=     0.080 Goal=   None    Shift=    0.400
 RMSDP=7.09D-08 MaxDP=6.90D-06 DE=-8.95D-11 OVMax= 6.71D-06

 Cycle  36  Pass 1  IDiag  1:
 E= -61.9260477552677     Delta-E=       -0.000000000061 Rises=F Damp=F
 DIIS: error= 3.24D-07 at cycle  36 NSaved=  14.
 NSaved=14 IEnMin=14 EnMin= -61.9260477552677     IErMin=14 ErrMin= 3.24D-07
 ErrMax= 3.24D-07  0.00D+00 EMaxC= 1.00D-01 BMatC= 1.90D-11 BMatP= 2.88D-11
 IDIUse=1 WtCom= 1.00D+00 WtEn= 0.00D+00
 Coeff-Com:  0.621D-02 0.918D-01-0.276D+00 0.282D+00-0.181D+00-0.103D-02
 Coeff-Com:  0.501D+00-0.676D+00 0.520D+00 0.169D+01-0.725D+01 0.727D+01
 Coeff-Com: -0.517D+01 0.420D+01
 Coeff:      0.621D-02 0.918D-01-0.276D+00 0.282D+00-0.181D+00-0.103D-02
 Coeff:      0.501D+00-0.676D+00 0.520D+00 0.169D+01-0.725D+01 0.727D+01
 Coeff:     -0.517D+01 0.420D+01
 Gap=     0.080 Goal=   None    Shift=    0.400
 DSYEVD-2 returned Info=         377 IAlg= 4 N=   251 NDim=   251 NE2=    41708037 trying  DSYEV.
 RMSDP=5.90D-08 MaxDP=6.27D-06 DE=-6.10D-11 OVMax= 5.31D-06

 Cycle  37  Pass 1  IDiag  1:
 E= -61.9260477553098     Delta-E=       -0.000000000042 Rises=F Damp=F
 DIIS: error= 2.60D-07 at cycle  37 NSaved=  15.
 NSaved=15 IEnMin=15 EnMin= -61.9260477553098     IErMin=15 ErrMin= 2.60D-07
 ErrMax= 2.60D-07  0.00D+00 EMaxC= 1.00D-01 BMatC= 1.23D-11 BMatP= 1.90D-11
 IDIUse=1 WtCom= 1.00D+00 WtEn= 0.00D+00
 Coeff-Com:  0.126D-01 0.101D+00-0.300D+00 0.244D+00-0.138D-01-0.195D+00
 Coeff-Com:  0.481D+00-0.463D+00 0.430D-02 0.132D+01-0.448D+01 0.426D+01
 Coeff-Com: -0.158D+01-0.122D+01 0.283D+01
 Coeff:      0.126D-01 0.101D+00-0.300D+00 0.244D+00-0.138D-01-0.195D+00
 Coeff:      0.481D+00-0.463D+00 0.430D-02 0.132D+01-0.448D+01 0.426D+01
 Coeff:     -0.158D+01-0.122D+01 0.283D+01
 Gap=     0.080 Goal=   None    Shift=    0.400
 RMSDP=5.32D-08 MaxDP=6.64D-06 DE=-4.20D-11 OVMax= 4.27D-06

 Cycle  38  Pass 1  IDiag  1:
 E= -61.9260477553360     Delta-E=       -0.000000000026 Rises=F Damp=F
 DIIS: error= 2.08D-07 at cycle  38 NSaved=  16.
 NSaved=16 IEnMin=16 EnMin= -61.9260477553360     IErMin=16 ErrMin= 2.08D-07
 ErrMax= 2.08D-07  0.00D+00 EMaxC= 1.00D-01 BMatC= 8.06D-12 BMatP= 1.23D-11
 IDIUse=1 WtCom= 1.00D+00 WtEn= 0.00D+00
 Large coefficients: NSaved= 16 BigCof=    0.00 CofMax=   10.00 Det=-7.15D-16
 Inversion failed.  Reducing to 15 matrices.
 Coeff-Com:  0.744D-01-0.150D+00 0.886D-01-0.322D-01 0.116D+00-0.168D+00
 Coeff-Com:  0.147D+00-0.738D-01 0.412D+00-0.180D+01 0.211D+01-0.207D+01
 Coeff-Com:  0.408D+01-0.837D+01 0.664D+01
 Coeff:      0.744D-01-0.150D+00 0.886D-01-0.322D-01 0.116D+00-0.168D+00
 Coeff:      0.147D+00-0.738D-01 0.412D+00-0.180D+01 0.211D+01-0.207D+01
 Coeff:      0.408D+01-0.837D+01 0.664D+01
 Gap=     0.080 Goal=   None    Shift=    0.400
 DSYEVD-2 returned Info=         377 IAlg= 4 N=   251 NDim=   251 NE2=    41708037 trying  DSYEV.
 RMSDP=4.07D-08 MaxDP=4.70D-06 DE=-2.62D-11 OVMax= 3.39D-06

 Cycle  39  Pass 1  IDiag  1:
 E= -61.9260477553530     Delta-E=       -0.000000000017 Rises=F Damp=F
 DIIS: error= 1.69D-07 at cycle  39 NSaved=  16.
 NSaved=16 IEnMin=16 EnMin= -61.9260477553530     IErMin=16 ErrMin= 1.69D-07
 ErrMax= 1.69D-07  0.00D+00 EMaxC= 1.00D-01 BMatC= 5.26D-12 BMatP= 8.06D-12
 IDIUse=1 WtCom= 1.00D+00 WtEn= 0.00D+00
 Large coefficients: NSaved= 16 BigCof=    0.00 CofMax=   10.00 Det=-2.19D-16
 Inversion failed.  Reducing to 15 matrices.
 Coeff-Com:  0.321D-01 0.278D-01-0.204D+00 0.137D+00 0.350D+00-0.518D+00
 Coeff-Com:  0.298D+00 0.634D+00-0.289D+01 0.313D+01-0.266D+01 0.362D+01
 Coeff-Com: -0.422D+01 0.439D+00 0.283D+01
 Coeff:      0.321D-01 0.278D-01-0.204D+00 0.137D+00 0.350D+00-0.518D+00
 Coeff:      0.298D+00 0.634D+00-0.289D+01 0.313D+01-0.266D+01 0.362D+01
 Coeff:     -0.422D+01 0.439D+00 0.283D+01
 Gap=     0.080 Goal=   None    Shift=    0.400
 RMSDP=3.69D-08 MaxDP=4.91D-06 DE=-1.70D-11 OVMax= 2.75D-06

 Cycle  40  Pass 1  IDiag  1:
 E= -61.9260477553640     Delta-E=       -0.000000000011 Rises=F Damp=F
 DIIS: error= 1.37D-07 at cycle  40 NSaved=  16.
 NSaved=16 IEnMin=16 EnMin= -61.9260477553640     IErMin=16 ErrMin= 1.37D-07
 ErrMax= 1.37D-07  0.00D+00 EMaxC= 1.00D-01 BMatC= 3.46D-12 BMatP= 5.26D-12
 IDIUse=1 WtCom= 1.00D+00 WtEn= 0.00D+00
 Large coefficients: NSaved= 16 BigCof=    0.00 CofMax=   10.00 Det=-1.87D-16
 Inversion failed.  Reducing to 15 matrices.
 Coeff-Com: -0.279D-02 0.465D-01-0.156D-01-0.887D-01 0.152D+00-0.886D-01
 Coeff-Com:  0.210D+00-0.792D+00 0.115D+01-0.161D+01 0.238D+01-0.416D+01
 Coeff-Com:  0.544D+01-0.739D+01 0.577D+01
 Coeff:     -0.279D-02 0.465D-01-0.156D-01-0.887D-01 0.152D+00-0.886D-01
 Coeff:      0.210D+00-0.792D+00 0.115D+01-0.161D+01 0.238D+01-0.416D+01
 Coeff:      0.544D+01-0.739D+01 0.577D+01
 Gap=     0.080 Goal=   None    Shift=    0.400
 DSYEVD-2 returned Info=       31940 IAlg= 4 N=   251 NDim=   251 NE2=    41708037 trying  DSYEV.
 RMSDP=2.96D-08 MaxDP=3.93D-06 DE=-1.10D-11 OVMax= 2.21D-06

 Cycle  41  Pass 1  IDiag  1:
 E= -61.9260477553713     Delta-E=       -0.000000000007 Rises=F Damp=F
 DIIS: error= 1.10D-07 at cycle  41 NSaved=  16.
 NSaved=16 IEnMin=16 EnMin= -61.9260477553713     IErMin=16 ErrMin= 1.10D-07
 ErrMax= 1.10D-07  0.00D+00 EMaxC= 1.00D-01 BMatC= 2.28D-12 BMatP= 3.46D-12
 IDIUse=1 WtCom= 1.00D+00 WtEn= 0.00D+00
 Large coefficients: NSaved= 16 BigCof=    0.00 CofMax=   10.00 Det=-9.51D-17
 Inversion failed.  Reducing to 15 matrices.
 Coeff-Com:  0.400D-01-0.125D-01-0.778D-01 0.129D+00-0.757D-01 0.206D+00
 Coeff-Com: -0.761D+00 0.109D+01-0.154D+01 0.232D+01-0.411D+01 0.517D+01
 Coeff-Com: -0.659D+01 0.477D+01 0.443D+00
 Coeff:      0.400D-01-0.125D-01-0.778D-01 0.129D+00-0.757D-01 0.206D+00
 Coeff:     -0.761D+00 0.109D+01-0.154D+01 0.232D+01-0.411D+01 0.517D+01
 Coeff:     -0.659D+01 0.477D+01 0.443D+00
 Gap=     0.080 Goal=   None    Shift=    0.400
 RMSDP=2.56D-08 MaxDP=3.60D-06 DE=-7.29D-12 OVMax= 1.79D-06

 Cycle  42  Pass 1  IDiag  1:
 E= -61.9260477553761     Delta-E=       -0.000000000005 Rises=F Damp=F
 DIIS: error= 8.93D-08 at cycle  42 NSaved=  16.
 NSaved=16 IEnMin=16 EnMin= -61.9260477553761     IErMin=16 ErrMin= 8.93D-08
 ErrMax= 8.93D-08  0.00D+00 EMaxC= 1.00D-01 BMatC= 1.51D-12 BMatP= 2.28D-12
 IDIUse=1 WtCom= 1.00D+00 WtEn= 0.00D+00
 Large coefficients: NSaved= 16 BigCof=    0.00 CofMax=   10.00 Det=-5.50D-17
 Inversion failed.  Reducing to 15 matrices.
 Large coefficients: NSaved= 15 BigCof=   11.16 CofMax=   10.00 Det=-6.11D-17
 Inversion failed.  Reducing to 14 matrices.
 Large coefficients: NSaved= 14 BigCof=   11.62 CofMax=   10.00 Det=-7.10D-17
 Inversion failed.  Reducing to 13 matrices.
 Large coefficients: NSaved= 13 BigCof=   11.17 CofMax=   10.00 Det=-8.45D-17
 Inversion failed.  Reducing to 12 matrices.
 Large coefficients: NSaved= 12 BigCof=   11.32 CofMax=   10.00 Det=-8.46D-17
 Inversion failed.  Reducing to 11 matrices.
 Large coefficients: NSaved= 11 BigCof=   11.43 CofMax=   10.00 Det=-8.73D-17
 Inversion failed.  Reducing to 10 matrices.
 Large coefficients: NSaved= 10 BigCof=   11.73 CofMax=   10.00 Det=-9.10D-17
 Inversion failed.  Reducing to  9 matrices.
 Large coefficients: NSaved=  9 BigCof=   12.18 CofMax=   10.00 Det=-9.22D-17
 Inversion failed.  Reducing to  8 matrices.
 Large coefficients: NSaved=  8 BigCof=   12.54 CofMax=   10.00 Det=-9.39D-17
 Inversion failed.  Reducing to  7 matrices.
 Large coefficients: NSaved=  7 BigCof=   12.52 CofMax=   10.00 Det=-9.41D-17
 Inversion failed.  Reducing to  6 matrices.
 Coeff-Com:  0.131D+00-0.942D-01 0.852D+00 0.816D+00-0.986D+01 0.915D+01
 Coeff:      0.131D+00-0.942D-01 0.852D+00 0.816D+00-0.986D+01 0.915D+01
 Gap=     0.080 Goal=   None    Shift=    0.400
 DSYEVD-2 returned Info=       31940 IAlg= 4 N=   251 NDim=   251 NE2=    41708037 trying  DSYEV.
 RMSDP=2.37D-08 MaxDP=3.70D-06 DE=-4.75D-12 OVMax= 1.45D-06

 Cycle  43  Pass 1  IDiag  1:
 E= -61.9260477553791     Delta-E=       -0.000000000003 Rises=F Damp=F
 DIIS: error= 7.24D-08 at cycle  43 NSaved=   7.
 NSaved= 7 IEnMin= 7 EnMin= -61.9260477553791     IErMin= 7 ErrMin= 7.24D-08
 ErrMax= 7.24D-08  0.00D+00 EMaxC= 1.00D-01 BMatC= 9.95D-13 BMatP= 1.51D-12
 IDIUse=1 WtCom= 1.00D+00 WtEn= 0.00D+00
 Coeff-Com:  0.993D-01-0.178D+00 0.134D+01 0.258D+00-0.860D+01 0.669D+01
 Coeff-Com:  0.138D+01
 Coeff:      0.993D-01-0.178D+00 0.134D+01 0.258D+00-0.860D+01 0.669D+01
 Coeff:      0.138D+01
 Gap=     0.080 Goal=   None    Shift=    0.400
 RMSDP=1.91D-08 MaxDP=2.98D-06 DE=-3.07D-12 OVMax= 1.18D-06

 Cycle  44  Pass 1  IDiag  1:
 E= -61.9260477553810     Delta-E=       -0.000000000002 Rises=F Damp=F
 DIIS: error= 5.89D-08 at cycle  44 NSaved=   8.
 NSaved= 8 IEnMin= 8 EnMin= -61.9260477553810     IErMin= 8 ErrMin= 5.89D-08
 ErrMax= 5.89D-08  0.00D+00 EMaxC= 1.00D-01 BMatC= 6.57D-13 BMatP= 9.95D-13
 IDIUse=1 WtCom= 1.00D+00 WtEn= 0.00D+00
 Coeff-Com: -0.186D+00 0.484D+00-0.939D+00 0.105D+01-0.512D+00-0.101D+00
 Coeff-Com: -0.316D+01 0.437D+01
 Coeff:     -0.186D+00 0.484D+00-0.939D+00 0.105D+01-0.512D+00-0.101D+00
 Coeff:     -0.316D+01 0.437D+01
 Gap=     0.080 Goal=   None    Shift=    0.400
 RMSDP=1.56D-08 MaxDP=2.41D-06 DE=-1.83D-12 OVMax= 9.53D-07

 Cycle  45  Pass 1  IDiag  1:
 E= -61.9260477553824     Delta-E=       -0.000000000001 Rises=F Damp=F
 DIIS: error= 4.77D-08 at cycle  45 NSaved=   9.
 NSaved= 9 IEnMin= 9 EnMin= -61.9260477553824     IErMin= 9 ErrMin= 4.77D-08
 ErrMax= 4.77D-08  0.00D+00 EMaxC= 1.00D-01 BMatC= 4.34D-13 BMatP= 6.57D-13
 IDIUse=1 WtCom= 1.00D+00 WtEn= 0.00D+00
 Coeff-Com:  0.298D+00-0.488D+00-0.835D-01 0.853D+00-0.983D+00 0.849D+00
 Coeff-Com: -0.974D+00-0.422D+01 0.575D+01
 Coeff:      0.298D+00-0.488D+00-0.835D-01 0.853D+00-0.983D+00 0.849D+00
 Coeff:     -0.974D+00-0.422D+01 0.575D+01
 Gap=     0.080 Goal=   None    Shift=    0.400
 RMSDP=1.22D-08 MaxDP=1.84D-06 DE=-1.42D-12 OVMax= 7.64D-07

 Cycle  46  Pass 1  IDiag  1:
 E= -61.9260477553833     Delta-E=       -0.000000000001 Rises=F Damp=F
 DIIS: error= 3.91D-08 at cycle  46 NSaved=  10.
 NSaved=10 IEnMin=10 EnMin= -61.9260477553833     IErMin=10 ErrMin= 3.91D-08
 ErrMax= 3.91D-08  0.00D+00 EMaxC= 1.00D-01 BMatC= 2.86D-13 BMatP= 4.34D-13
 IDIUse=1 WtCom= 1.00D+00 WtEn= 0.00D+00
 Coeff-Com:  0.425D+00-0.677D+00 0.176D+00 0.106D+00-0.252D+00 0.518D+00
 Coeff-Com:  0.245D+00-0.506D+01 0.391D+01 0.160D+01
 Coeff:      0.425D+00-0.677D+00 0.176D+00 0.106D+00-0.252D+00 0.518D+00
 Coeff:      0.245D+00-0.506D+01 0.391D+01 0.160D+01
 Gap=     0.080 Goal=   None    Shift=    0.400
 RMSDP=1.03D-08 MaxDP=1.58D-06 DE=-8.53D-13 OVMax= 6.18D-07

 Cycle  47  Pass 1  IDiag  1:
 E= -61.9260477553838     Delta-E=       -0.000000000001 Rises=F Damp=F
 DIIS: error= 3.23D-08 at cycle  47 NSaved=  11.
 NSaved=11 IEnMin=11 EnMin= -61.9260477553838     IErMin=11 ErrMin= 3.23D-08
 ErrMax= 3.23D-08  0.00D+00 EMaxC= 1.00D-01 BMatC= 1.88D-13 BMatP= 2.86D-13
 IDIUse=1 WtCom= 1.00D+00 WtEn= 0.00D+00
 Coeff-Com:  0.249D+00-0.217D+00-0.566D-01 0.212D+00-0.120D+01 0.116D+01
 Coeff-Com: -0.355D-01-0.158D+01 0.131D+01-0.181D+01 0.296D+01
 Coeff:      0.249D+00-0.217D+00-0.566D-01 0.212D+00-0.120D+01 0.116D+01
 Coeff:     -0.355D-01-0.158D+01 0.131D+01-0.181D+01 0.296D+01
 Gap=     0.080 Goal=   None    Shift=    0.400
 RMSDP=8.56D-09 MaxDP=1.32D-06 DE=-5.97D-13 OVMax= 5.02D-07

 Cycle  48  Pass 1  IDiag  1:
 E= -61.9260477553844     Delta-E=       -0.000000000001 Rises=F Damp=F
 DIIS: error= 2.65D-08 at cycle  48 NSaved=  12.
 NSaved=12 IEnMin=12 EnMin= -61.9260477553844     IErMin=12 ErrMin= 2.65D-08
 ErrMax= 2.65D-08  0.00D+00 EMaxC= 1.00D-01 BMatC= 1.24D-13 BMatP= 1.88D-13
 IDIUse=1 WtCom= 1.00D+00 WtEn= 0.00D+00
 Large coefficients: NSaved= 12 BigCof=   10.89 CofMax=   10.00 Det=-2.88D-18
 Inversion failed.  Reducing to 11 matrices.
 Coeff-Com: -0.180D+00-0.266D+00 0.397D+00 0.215D+01-0.171D+01-0.178D+01
 Coeff-Com: -0.212D+01 0.497D+01 0.212D+01-0.937D+01 0.679D+01
 Coeff:     -0.180D+00-0.266D+00 0.397D+00 0.215D+01-0.171D+01-0.178D+01
 Coeff:     -0.212D+01 0.497D+01 0.212D+01-0.937D+01 0.679D+01
 Gap=     0.080 Goal=   None    Shift=    0.400
 DSYEVD-2 returned Info=       16001 IAlg= 4 N=   251 NDim=   251 NE2=    41708037 trying  DSYEV.
 RMSDP=7.01D-09 MaxDP=1.08D-06 DE=-5.12D-13 OVMax= 4.08D-07

 Cycle  49  Pass 1  IDiag  1:
 E= -61.9260477553845     Delta-E=       -0.000000000000 Rises=F Damp=F
 DIIS: error= 2.16D-08 at cycle  49 NSaved=  12.
 NSaved=12 IEnMin=12 EnMin= -61.9260477553845     IErMin=12 ErrMin= 2.16D-08
 ErrMax= 2.16D-08  0.00D+00 EMaxC= 1.00D-01 BMatC= 8.21D-14 BMatP= 1.24D-13
 IDIUse=1 WtCom= 1.00D+00 WtEn= 0.00D+00
 Coeff-Com: -0.135D+00-0.177D+00 0.221D+00 0.169D+01-0.145D+01-0.125D+01
 Coeff-Com: -0.120D+01 0.323D+01 0.108D+01-0.508D+01 0.236D+01 0.171D+01
 Coeff:     -0.135D+00-0.177D+00 0.221D+00 0.169D+01-0.145D+01-0.125D+01
 Coeff:     -0.120D+01 0.323D+01 0.108D+01-0.508D+01 0.236D+01 0.171D+01
 Gap=     0.080 Goal=   None    Shift=    0.400
 RMSDP=5.91D-09 MaxDP=9.30D-07 DE=-1.28D-13 OVMax= 3.32D-07

 SCF Done:  E(ROHF) =  -61.9260477554     A.U. after   49 cycles
            NFock= 49  Conv=0.59D-08     -V/T= 2.9810
 <Sx>= 0.0000 <Sy>= 0.0000 <Sz>= 0.5000 <S**2>= 0.7500 S= 0.5000
 <L.S>=  0.00000000000    
 KE= 3.125973934482D+01 PE=-1.815219495730D+02 EE= 6.505236519227D+01
 Annihilation of the first spin contaminant:
 S**2 before annihilation     0.7500,   after     0.7500
 Leave Link  502 at Thu Apr 19 07:22:49 2018, MaxMem= 10737418240 cpu:             660.8 elap:              41.6
 (Enter /home1/apps/gaussian/16rA.03/g16/l801.exe)
 Windowed orbitals will be sorted by symmetry type.
 An orbital has undefined symmetry, so N**3 symmetry is turned off.
 GenMOA:  NOpAll=  4 NOp2=4 NOpUse=  4 JSym2X=1
 FoFJK:  IHMeth= 1 ICntrl=       0 DoSepK=F KAlg= 0 I1Cent=           0 FoldK=F
 IRaf=         0 NMat=       1 IRICut=       1 DoRegI=T DoRafI=F ISym2E= 1 IDoP0=0 IntGTp=1.
 FoFCou: FMM=F IPFlag=           8 FMFlag=      100000 FMFlg1=           0
         NFxFlg=           0 DoJE=F BraDBF=F KetDBF=F FulRan=T
         wScrn=  0.000000 ICntrl=         0 IOpCl=  1 I1Cent=           0 NGrid=           0
         NMat0=    1 NMatS0=      1 NMatT0=    0 NMatD0=    1 NMtDS0=    0 NMtDT0=    0
 Petite list used in FoFCou.
 <Sx>= 0.0000 <Sy>= 0.0000 <Sz>= 0.5000 <S**2>= 0.7500 S= 0.5000
 Range of M.O.s used for correlation:     1   251
 NBasis=   254 NAE=     9 NBE=     8 NFC=     0 NFV=     0
 NROrb=    251 NOA=     9 NOB=     8 NVA=   242 NVB=   243

 **** Warning!!: The largest alpha MO coefficient is  0.34902990D+03


 **** Warning!!: The largest beta MO coefficient is  0.34907726D+03

 Singles contribution to E2=   -0.1608993933D-03
 Leave Link  801 at Thu Apr 19 07:22:54 2018, MaxMem= 10737418240 cpu:             111.3 elap:               5.6
 (Enter /home1/apps/gaussian/16rA.03/g16/l804.exe)
 Open-shell transformation, MDV= 10737418240 ITran=4 ISComp=1.
 Unit  1 TFree=       1917894 TCopy=       1476778.
 Semi-Direct transformation.
 ModeAB=           4 MOrb=             9 LenV=   10735456285
 LASXX=     69385212 LTotXX=    69385212 LenRXX=   139689810
 LTotAB=    70304598 MaxLAS=   104955399 LenRXY=           0
 NonZer=   209075022 LenScr=   314843136 LnRSAI=   104955399
 LnScr1=   158190592 LExtra=     7695470 Total=    725374407
 MaxDsk= 67108864000 SrtSym=           T ITran=            4
 DoSDTr:  NPSUse= 20
 JobTyp=1 Pass  1:  I=   1 to   9.
 (rs|ai) integrals will be sorted in core.
 Complete sort for first half transformation.
 First half transformation complete.
 Complete sort for second half transformation.
 Second half transformation complete.
 ModeAB=           4 MOrb=             8 LenV=   10735456285
 LASXX=     61816690 LTotXX=    61816690 LenRXX=   120034630
 LTotAB=    58217940 MaxLAS=    93293688 LenRXY=           0
 NonZer=   181851320 LenScr=   273847296 LnRSAI=    93293688
 LnScr1=   140707840 LExtra=   147385280 Total=    775268734
 MaxDsk= 67108864000 SrtSym=           T ITran=            4
 DoSDTr:  NPSUse= 20
 JobTyp=2 Pass  1:  I=   1 to   8.
 (rs|ai) integrals will be sorted in core.
 Complete sort for first half transformation.
 First half transformation complete.
 Complete sort for second half transformation.
 Second half transformation complete.
 SymMOI:  orbitals are not symmetric.
 Spin components of T(2) and E(2):
     alpha-alpha T2 =       0.2806598836D-01 E2=     -0.9624746926D-01
     alpha-beta  T2 =       0.1186825331D+00 E2=     -0.4916446686D+00
     beta-beta   T2 =       0.2411277670D-01 E2=     -0.8785927115D-01
 ANorm=    0.1082130940D+01
 E2 =    -0.6759123084D+00 EUMP2 =    -0.62601960063812D+02
 (S**2,0)=  0.75000D+00           (S**2,1)=  0.75000D+00
 E(PUHF)=      -0.61926047755D+02        E(PMP2)=      -0.62601960064D+02
 Recovering and transforming amplitudes from chk file.
 B after Tr=     0.000000    0.000000   -0.000000
         Rot=    1.000000    0.000000    0.000000    0.000000 Ang=   0.00 deg.
 Alpha occ  Sing. vals= 1.121877D+00 1.047104D+00 1.047104D+00 1.025857D+00 9.889401D-01 9.702157D-01 9.421597D-01 9.421597D-01 9.206236D-01
 Alpha occ  NOrbO=     9 NOrbN=     9 NSVal=     9 ThrEig=  0.900000.
 TrMax= 9.954391D-01 PrMax= 1.000000D+00 Trace(Pr)= 9.000000D+00
 B after Tr=     0.000000    0.000000   -0.000000
         Rot=    1.000000    0.000000    0.000000    0.000000 Ang=   0.00 deg.
 Alpha virt Sing. vals= 6.568440D+01 3.530236D+01 3.156764D+01 3.156764D+01 3.100699D+01 1.506985D+01 1.253152D+01 1.253152D+01 1.066876D+01 1.066876D+01
 Alpha virt Sing. vals= 1.042507D+01 1.042507D+01 9.406997D+00 7.417362D+00 5.243829D+00 4.541763D+00 4.541763D+00 3.961828D+00 3.961828D+00 3.251126D+00
 Alpha virt Sing. vals= 3.251126D+00 3.244254D+00 2.891097D+00 2.864597D+00 2.864597D+00 2.680316D+00 2.680316D+00 2.645633D+00 2.373933D+00 2.373933D+00
 Alpha virt Sing. vals= 2.022559D+00 1.944200D+00 1.944200D+00 1.543141D+00 1.522678D+00 1.522678D+00 1.464601D+00 1.408620D+00 1.408620D+00 1.379043D+00
 Alpha virt Sing. vals= 1.373318D+00 1.373318D+00 1.289164D+00 1.289164D+00 1.251475D+00 1.239936D+00 1.239936D+00 1.205447D+00 1.205447D+00 1.169331D+00
 Alpha virt Sing. vals= 1.169331D+00 1.164442D+00 1.128697D+00 1.128697D+00 1.116081D+00 1.116081D+00 1.110485D+00 1.057546D+00 1.057546D+00 1.056581D+00
 Alpha virt Sing. vals= 1.056581D+00 1.035135D+00 1.035135D+00 1.028091D+00 1.028091D+00 1.026451D+00 1.024578D+00 1.024578D+00 1.016124D+00 1.007583D+00
 Alpha virt Sing. vals= 1.005008D+00 1.004316D+00 1.004316D+00 1.003721D+00 1.003721D+00 1.002468D+00 1.002468D+00 1.002256D+00 1.002229D+00 1.002229D+00
 Alpha virt Sing. vals= 1.000392D+00 1.000359D+00 1.000359D+00 1.000322D+00 1.000322D+00 1.000141D+00 1.000045D+00 1.000045D+00 1.000026D+00 1.000007D+00
 Alpha virt Sing. vals= 1.000007D+00 1.000003D+00 1.000003D+00 1.000002D+00 1.000000D+00 1.000000D+00 1.000000D+00 1.000000D+00 1.000000D+00 9.999999D-01
 Alpha virt Sing. vals= 9.999998D-01 9.999997D-01 9.999996D-01 9.999996D-01 9.999987D-01 9.999984D-01 9.999984D-01 9.999963D-01 9.999943D-01 9.999906D-01
 Alpha virt Sing. vals= 9.999847D-01 9.999847D-01 9.999829D-01 9.999808D-01 9.999761D-01 9.999731D-01 9.999731D-01 9.999730D-01 9.999613D-01 9.999483D-01
 Alpha virt Sing. vals= 9.999483D-01 9.999425D-01 9.999402D-01 9.999402D-01 9.999351D-01 9.998834D-01 9.998834D-01 9.998575D-01 9.998575D-01 9.998521D-01
 Alpha virt Sing. vals= 9.998521D-01 9.998333D-01 9.997599D-01 9.997599D-01 9.997537D-01 9.997537D-01 9.997336D-01 9.997336D-01 9.996681D-01 9.996433D-01
 Alpha virt Sing. vals= 9.995779D-01 9.995779D-01 9.995060D-01 9.993028D-01 9.993028D-01 9.992432D-01 9.990467D-01 9.987701D-01 9.987701D-01 9.985813D-01
 Alpha virt Sing. vals= 9.985591D-01 9.983752D-01 9.977677D-01 9.977677D-01 9.974595D-01 9.972362D-01 9.972362D-01 9.972011D-01 9.972011D-01 9.970873D-01
 Alpha virt Sing. vals= 9.966161D-01 9.966161D-01 9.962846D-01 9.956056D-01 9.956056D-01 9.955928D-01 9.954061D-01 9.951706D-01 9.951706D-01 9.951200D-01
 Alpha virt Sing. vals= 9.951200D-01 9.948195D-01 9.948195D-01 9.948127D-01 9.948127D-01 9.940032D-01 9.934882D-01 9.934234D-01 9.934234D-01 9.934085D-01
 Alpha virt Sing. vals= 9.934085D-01 9.928198D-01 9.924426D-01 9.924426D-01 9.918846D-01 9.918846D-01 9.917174D-01 9.917174D-01 9.900724D-01 9.889675D-01
 Alpha virt Sing. vals= 9.889675D-01 9.862061D-01 9.862061D-01 9.856987D-01 9.850793D-01 9.833704D-01 9.833704D-01 9.745507D-01 9.734754D-01 9.724479D-01
 Alpha virt Sing. vals= 9.724479D-01 9.699924D-01 9.690085D-01 9.690085D-01 9.667218D-01 9.667218D-01 9.609912D-01 9.606402D-01 9.606402D-01 9.556951D-01
 Alpha virt Sing. vals= 9.549796D-01 9.549796D-01 9.500324D-01 9.500324D-01 9.490722D-01 9.490722D-01 9.413214D-01 9.413214D-01 9.304842D-01 9.304842D-01
 Alpha virt Sing. vals= 9.301648D-01 9.301648D-01 9.234847D-01 9.163542D-01 9.124606D-01 9.124606D-01 8.930492D-01 8.930492D-01 8.920102D-01 8.909807D-01
 Alpha virt Sing. vals= 8.909807D-01 8.858478D-01 8.858478D-01 8.540683D-01 8.380918D-01 8.305078D-01 8.305078D-01 7.894945D-01 7.253643D-01 7.253643D-01
 Alpha virt Sing. vals= 7.191920D-01 6.851217D-01
 Alpha virt NOrbO=   530 NOrbN=   242 NSVal=   226 ThrEig=  0.900000.
 TrMax= 9.547694D-01 PrMax= 1.000000D+00 Trace(Pr)= 2.260000D+02
 B after Tr=     0.000000    0.000000   -0.000000
         Rot=    1.000000    0.000000    0.000000    0.000000 Ang=   0.00 deg.
 Beta  occ  Sing. vals= 1.118887D+00 1.047104D+00 1.047104D+00 1.019800D+00 9.720893D-01 9.421597D-01 9.421597D-01 9.198529D-01
 Beta  occ  NOrbO=     8 NOrbN=     8 NSVal=     8 ThrEig=  0.900000.
 TrMax= 9.868808D-01 PrMax= 1.000000D+00 Trace(Pr)= 8.000000D+00
 B after Tr=     0.000000    0.000000   -0.000000
         Rot=    1.000000    0.000000    0.000000    0.000000 Ang=   0.00 deg.
 Beta  virt Sing. vals= 7.456382D+01 3.718937D+01 3.194879D+01 3.156764D+01 3.156764D+01 1.508042D+01 1.253152D+01 1.253152D+01 1.066876D+01 1.066876D+01
 Beta  virt Sing. vals= 1.042507D+01 1.042507D+01 9.933036D+00 7.441458D+00 5.260086D+00 4.541763D+00 4.541763D+00 3.961828D+00 3.961828D+00 3.319269D+00
 Beta  virt Sing. vals= 3.251126D+00 3.251126D+00 2.916766D+00 2.864597D+00 2.864597D+00 2.680316D+00 2.680316D+00 2.648727D+00 2.373933D+00 2.373933D+00
 Beta  virt Sing. vals= 2.023198D+00 1.944200D+00 1.944200D+00 1.553642D+00 1.522678D+00 1.522678D+00 1.479094D+00 1.408620D+00 1.408620D+00 1.380355D+00
 Beta  virt Sing. vals= 1.373318D+00 1.373318D+00 1.289164D+00 1.289164D+00 1.252437D+00 1.239936D+00 1.239936D+00 1.205447D+00 1.205447D+00 1.170161D+00
 Beta  virt Sing. vals= 1.169331D+00 1.169331D+00 1.128697D+00 1.128697D+00 1.116081D+00 1.116081D+00 1.110707D+00 1.057546D+00 1.057546D+00 1.056581D+00
 Beta  virt Sing. vals= 1.056581D+00 1.035135D+00 1.035135D+00 1.028235D+00 1.028091D+00 1.028091D+00 1.024578D+00 1.024578D+00 1.016333D+00 1.008138D+00
 Beta  virt Sing. vals= 1.005534D+00 1.004316D+00 1.004316D+00 1.003721D+00 1.003721D+00 1.002487D+00 1.002468D+00 1.002468D+00 1.002229D+00 1.002229D+00
 Beta  virt Sing. vals= 1.000506D+00 1.000359D+00 1.000359D+00 1.000322D+00 1.000322D+00 1.000149D+00 1.000045D+00 1.000045D+00 1.000041D+00 1.000007D+00
 Beta  virt Sing. vals= 1.000007D+00 1.000003D+00 1.000003D+00 1.000003D+00 1.000000D+00 1.000000D+00 1.000000D+00 1.000000D+00 1.000000D+00 9.999999D-01
 Beta  virt Sing. vals= 9.999998D-01 9.999997D-01 9.999996D-01 9.999996D-01 9.999988D-01 9.999984D-01 9.999984D-01 9.999969D-01 9.999948D-01 9.999906D-01
 Beta  virt Sing. vals= 9.999883D-01 9.999847D-01 9.999847D-01 9.999829D-01 9.999795D-01 9.999755D-01 9.999731D-01 9.999731D-01 9.999730D-01 9.999592D-01
 Beta  virt Sing. vals= 9.999483D-01 9.999483D-01 9.999453D-01 9.999402D-01 9.999402D-01 9.999245D-01 9.998856D-01 9.998834D-01 9.998834D-01 9.998575D-01
 Beta  virt Sing. vals= 9.998575D-01 9.998521D-01 9.998521D-01 9.998226D-01 9.997599D-01 9.997599D-01 9.997537D-01 9.997537D-01 9.997336D-01 9.997336D-01
 Beta  virt Sing. vals= 9.996586D-01 9.996179D-01 9.995779D-01 9.995779D-01 9.993601D-01 9.993028D-01 9.993028D-01 9.992423D-01 9.987701D-01 9.987701D-01
 Beta  virt Sing. vals= 9.987397D-01 9.985603D-01 9.984531D-01 9.983369D-01 9.977677D-01 9.977677D-01 9.972362D-01 9.972362D-01 9.972011D-01 9.972011D-01
 Beta  virt Sing. vals= 9.968059D-01 9.966161D-01 9.966161D-01 9.962114D-01 9.956066D-01 9.956056D-01 9.956056D-01 9.955127D-01 9.951706D-01 9.951706D-01
 Beta  virt Sing. vals= 9.951200D-01 9.951200D-01 9.948195D-01 9.948195D-01 9.948127D-01 9.948127D-01 9.944822D-01 9.937553D-01 9.934234D-01 9.934234D-01
 Beta  virt Sing. vals= 9.934085D-01 9.934085D-01 9.931120D-01 9.924426D-01 9.924426D-01 9.918846D-01 9.918846D-01 9.917174D-01 9.917174D-01 9.900771D-01
 Beta  virt Sing. vals= 9.889675D-01 9.889675D-01 9.862061D-01 9.862061D-01 9.855071D-01 9.850791D-01 9.833704D-01 9.833704D-01 9.741750D-01 9.725421D-01
 Beta  virt Sing. vals= 9.724479D-01 9.724479D-01 9.699831D-01 9.690085D-01 9.690085D-01 9.667218D-01 9.667218D-01 9.616073D-01 9.606402D-01 9.606402D-01
 Beta  virt Sing. vals= 9.549796D-01 9.549796D-01 9.541933D-01 9.500324D-01 9.500324D-01 9.490722D-01 9.490722D-01 9.413214D-01 9.413214D-01 9.304842D-01
 Beta  virt Sing. vals= 9.304842D-01 9.301648D-01 9.301648D-01 9.216657D-01 9.162735D-01 9.124606D-01 9.124606D-01 8.930492D-01 8.930492D-01 8.918701D-01
 Beta  virt Sing. vals= 8.909807D-01 8.909807D-01 8.858478D-01 8.858478D-01 8.540794D-01 8.372347D-01 8.305078D-01 8.305078D-01 7.863075D-01 7.253643D-01
 Beta  virt Sing. vals= 7.253643D-01 7.170574D-01 6.676969D-01
 Beta  virt NOrbO=   531 NOrbN=   243 NSVal=   227 ThrEig=  0.900000.
 TrMax= 9.547685D-01 PrMax= 1.000000D+00 Trace(Pr)= 2.270000D+02
 Leave Link  804 at Thu Apr 19 07:26:08 2018, MaxMem= 10737418240 cpu:            3855.9 elap:             193.5
 (Enter /home1/apps/gaussian/16rA.03/g16/l913.exe)
 CIDS:  MDV= 10737418240.
 IFCWin=0 IBDFC=1 NFBD=     0     0 NFCmp=     0     0 NFFFC=     0     0
 Amplitudes recovered.
 Using DD4UQ or CC4UQ for all iterations.
 Keep R2 and R3 ints in memory in symmetry-blocked form, NReq=658671200.
 FoFCou: FMM=F IPFlag=           8 FMFlag=           0 FMFlg1=           0
         NFxFlg=           0 DoJE=F BraDBF=F KetDBF=F FulRan=T
         wScrn=  0.000000 ICntrl=       600 IOpCl=  0 I1Cent=           0 NGrid=           0
         NMat0=    1 NMatS0=  32385 NMatT0=    0 NMatD0=    1 NMtDS0=    0 NMtDT0=    0
 Petite list used in FoFCou.
 CIDS: In Core Option IDoMem=           1.
 CCSD(T)
 =======
 Iterations= 150 Convergence= 0.100D-06
 Produce multiple copies of IABC intergrals
 Iteration Nr.   1
 **********************
 DD1Dir will call FoFMem   1 times, MxPair=       208
 NAB=    72 NAA=    36 NBB=    28.
 Maximum subspace dimension=  5
 A-vector RMS=  2.3548663D-03 Max=  3.8246987D-02 conv= 1.00D-05.
 RLE energy=       -0.6799245855
 DE(Corr)= -0.68072022     E(Corr)=     -62.606767974    
 NORM(A)=   0.10830270D+01
 Iteration Nr.   2
 **********************
 DD1Dir will call FoFMem   1 times, MxPair=       208
 NAB=    72 NAA=    36 NBB=    28.
 A-vector RMS=  3.7979614D-03 Max=  4.0252259D-02 conv= 1.00D-05.
 RLE energy=       -0.6461659041
 DE(Corr)= -0.64463513     E(CORR)=     -62.570682886     Delta= 3.61D-02
 NORM(A)=   0.10788745D+01
 Iteration Nr.   3
 **********************
 DD1Dir will call FoFMem   1 times, MxPair=       208
 NAB=    72 NAA=    36 NBB=    28.
 A-vector RMS=  1.7200411D-03 Max=  1.7709662D-02 conv= 1.00D-05.
 RLE energy=       -0.6666769330
 DE(Corr)= -0.67368797     E(CORR)=     -62.599735729     Delta=-2.91D-02
 NORM(A)=   0.10831101D+01
 Iteration Nr.   4
 **********************
 DD1Dir will call FoFMem   1 times, MxPair=       208
 NAB=    72 NAA=    36 NBB=    28.
 A-vector RMS=  9.3281431D-04 Max=  9.7495588D-03 conv= 1.00D-05.
 RLE energy=       -0.6680545638
 DE(Corr)= -0.66505537     E(CORR)=     -62.591103125     Delta= 8.63D-03
 NORM(A)=   0.10867955D+01
 Iteration Nr.   5
 **********************
 DD1Dir will call FoFMem   1 times, MxPair=       208
 NAB=    72 NAA=    36 NBB=    28.
 A-vector RMS=  2.3525616D-04 Max=  5.5511847D-03 conv= 1.00D-05.
 RLE energy=       -0.6681034520
 DE(Corr)= -0.66782530     E(CORR)=     -62.593873060     Delta=-2.77D-03
 NORM(A)=   0.10886182D+01
 Iteration Nr.   6
 **********************
 DD1Dir will call FoFMem   1 times, MxPair=       208
 NAB=    72 NAA=    36 NBB=    28.
 A-vector RMS=  1.2059549D-04 Max=  2.6761338D-03 conv= 1.00D-05.
 RLE energy=       -0.6682595282
 DE(Corr)= -0.66822664     E(CORR)=     -62.594274397     Delta=-4.01D-04
 NORM(A)=   0.10897517D+01
 Iteration Nr.   7
 **********************
 DD1Dir will call FoFMem   1 times, MxPair=       208
 NAB=    72 NAA=    36 NBB=    28.
 A-vector RMS=  5.5494753D-05 Max=  1.0945452D-03 conv= 1.00D-05.
 RLE energy=       -0.6683256946
 DE(Corr)= -0.66827569     E(CORR)=     -62.594323442     Delta=-4.90D-05
 NORM(A)=   0.10901072D+01
 Iteration Nr.   8
 **********************
[...]
 253       27F+3        0.00000  -0.00000   0.00000  -0.00000
 254       27F-3       -0.00000  -0.00000  -0.00000  -0.00000
          Condensed to atoms (all electrons):
               1          2
     1  Sc   9.944814  -0.230558
     2  O   -0.230558   7.516303
          Atomic-Atomic Spin Densities.
               1          2
     1  Sc   0.961020   0.017169
     2  O    0.017169   0.004642
 Mulliken charges and spin densities:
               1          2
     1  Sc   1.285745   0.978189
     2  O   -1.285745   0.021811
 Sum of Mulliken charges =  -0.00000   1.00000
 Mulliken charges and spin densities with hydrogens summed into heavy atoms:
               1          2
     1  Sc   1.285745   0.978189
     2  O   -1.285745   0.021811
 Electronic spatial extent (au):  <R**2>=             87.9345
 Charge=             -0.0000 electrons
 Dipole moment (field-independent basis, Debye):
    X=              0.0000    Y=             -0.0000    Z=              2.7136  Tot=              2.7136
 Quadrupole moment (field-independent basis, Debye-Ang):
   XX=            -22.0359   YY=            -22.0359   ZZ=            -31.1541
   XY=             -0.0000   XZ=              0.0000   YZ=              0.0000
 Traceless Quadrupole moment (field-independent basis, Debye-Ang):
   XX=              3.0394   YY=              3.0394   ZZ=             -6.0788
   XY=             -0.0000   XZ=              0.0000   YZ=              0.0000
 Octapole moment (field-independent basis, Debye-Ang**2):
  XXX=              0.0000  YYY=              0.0000  ZZZ=            -14.8900  XYY=              0.0000
  XXY=              0.0000  XXZ=             -4.7700  XZZ=              0.0000  YZZ=             -0.0000
  YYZ=             -4.7700  XYZ=             -0.0000
 Hexadecapole moment (field-independent basis, Debye-Ang**3):
 XXXX=            -51.8006 YYYY=            -51.8006 ZZZZ=           -163.2056 XXXY=             -0.0000
 XXXZ=              0.0000 YYYX=             -0.0000 YYYZ=              0.0000 ZZZX=              0.0000
 ZZZY=              0.0000 XXYY=            -17.2669 XXZZ=            -35.3337 YYZZ=            -35.3337
 XXYZ=              0.0000 YYXZ=              0.0000 ZZXY=             -0.0000
 N-N= 2.328379728048D+01 E-N=-1.815219496967D+02  KE= 3.125973934482D+01
 Orbital energies and kinetic energies (alpha):
                                 1                 2
   1         O                -2.597701          1.267282
   2         O                -1.688596          1.764859
   3         O                -1.584875          2.102611
   4         O                -1.584875          2.102611
   5         O                -1.116619          1.379829
   6         O                -0.479892          2.083877
   7         O                -0.479892          2.083877
   8         O                -0.450425          2.704569
   9         O                -0.225076          0.280710
  10         V                 0.005981          0.066967
  11         V                 0.005981          0.066967
  12         V                 0.019689          0.045073
  13         V                 0.022775          0.033764
  14         V                 0.037026          0.048023
  15         V                 0.037026          0.048023
  16         V                 0.038416          0.045272
  17         V                 0.038416          0.045272
  18         V                 0.041144          0.042200
  19         V                 0.043234          0.161671
  20         V                 0.043234          0.161671
  21         V                 0.066090          0.221068
  22         V                 0.097679          0.576916
  23         V                 0.097679          0.576916
  24         V                 0.109137          0.232567
  25         V                 0.125011          0.202837
  26         V                 0.125011          0.202837
  27         V                 0.129296          0.186047
  28         V                 0.154839          0.195307
  29         V                 0.154839          0.195307
  30         V                 0.155857          0.167673
  31         V                 0.164117          0.180441
  32         V                 0.164117          0.180441
  33         V                 0.167918          0.253616
  34         V                 0.167918          0.253616
  35         V                 0.170751          0.519276
  36         V                 0.170751          0.519276
  37         V                 0.188794          0.530304
  38         V                 0.191603          1.402004
  39         V                 0.191603          1.402004
  40         V                 0.260151          0.592359
  41         V                 0.283273          2.149338
  42         V                 0.283273          2.149338
  43         V                 0.323217          0.425921
  44         V                 0.323217          0.425921
  45         V                 0.359773          0.705530
  46         V                 0.398906          0.534654
  47         V                 0.446342          0.902914
  48         V                 0.467446          0.497010
  49         V                 0.467446          0.497010
  50         V                 0.470872          0.689399
  51         V                 0.470872          0.689399
  52         V                 0.474590          0.517344
  53         V                 0.474590          0.517344
  54         V                 0.481332          1.845841
  55         V                 0.481332          1.845841
  56         V                 0.484288          0.517402
  57         V                 0.484288          0.517402
  58         V                 0.508303          1.223355
  59         V                 0.508303          1.223355
  60         V                 0.512659          1.206700
  61         V                 0.574013          1.267799
  62         V                 0.576874          1.235012
  63         V                 0.576874          1.235012
  64         V                 0.623293          0.783966
  65         V                 0.623293          0.783966
  66         V                 0.624656          0.786545
  67         V                 0.624656          0.786545
  68         V                 0.713292          1.841241
  69         V                 0.815684          1.333563
  70         V                 0.815684          1.333563
  71         V                 0.917099          1.072060
  72         V                 0.984552          1.191488
  73         V                 0.984552          1.191488
  74         V                 1.030038          1.143727
  75         V                 1.030038          1.143727
  76         V                 1.031099          1.392056
  77         V                 1.239427          2.752883
  78         V                 1.292670          3.252819
  79         V                 1.292670          3.252819
  80         V                 1.332830          3.049332
  81         V                 1.332830          3.049332
  82         V                 1.366440          2.189242
  83         V                 1.519610          2.212384
  84         V                 1.615763          2.647683
  85         V                 1.615763          2.647683
  86         V                 1.632169          2.510043
  87         V                 1.632169          2.510043
  88         V                 1.798348          2.566208
  89         V                 1.917016          2.211188
  90         V                 1.917016          2.211188
  91         V                 1.935682          2.493206
  92         V                 1.935682          2.493206
  93         V                 1.959419          2.330153
  94         V                 1.959419          2.330153
  95         V                 1.985223          2.658819
  96         V                 1.985223          2.658819
  97         V                 1.995848          2.599824
  98         V                 2.102298          2.704402
  99         V                 2.102298          2.704402
 100         V                 2.167977          2.885893
 101         V                 2.173625          3.111558
 102         V                 2.173625          3.111558
 103         V                 2.176396          2.976453
 104         V                 2.176396          2.976453
 105         V                 2.343429          2.573976
 106         V                 2.343429          2.573976
 107         V                 2.501921          2.934478
 108         V                 2.501921          2.934478
 109         V                 2.665146          3.056971
 110         V                 2.762666          3.200020
 111         V                 2.762666          3.200020
 112         V                 2.945760          3.860195
 113         V                 2.945760          3.860195
 114         V                 2.977315          5.570943
 115         V                 2.977315          5.570943
 116         V                 3.034736          4.928450
 117         V                 3.120982          5.867299
 118         V                 3.120982          5.867299
 119         V                 3.183748          4.111050
 120         V                 3.387658          6.211460
 121         V                 3.628405          4.721026
 122         V                 3.628405          4.721026
 123         V                 3.663811          4.820131
 124         V                 4.078433          5.548460
 125         V                 4.078433          5.548460
 126         V                 4.373226          5.991456
 127         V                 4.416948          7.673286
 128         V                 4.416948          7.673286
 129         V                 5.156144          6.884616
 130         V                 5.970870         10.311593
 131         V                 5.970870         10.311593
 132         V                 6.004591          7.863436
 133         V                 6.028136          9.294117
 134         V                 6.088196         10.208801
 135         V                 6.088196         10.208801
 136         V                 6.601205          7.480042
 137         V                 6.601205          7.480042
 138         V                 6.678977          7.893038
 139         V                 6.678977          7.893038
 140         V                 6.728715          8.030922
 141         V                 6.728715          8.030922
 142         V                 6.733361         10.649619
 143         V                 6.733361         10.649619
 144         V                 6.842286         10.384872
 145         V                 6.842286         10.384872
 146         V                 6.960346          9.640974
 147         V                 7.136160         10.488892
 148         V                 7.136160         10.488892
 149         V                 7.249596          9.887010
 150         V                 7.249596          9.887010
 151         V                 7.467852         10.146065
 152         V                 7.616950         10.510828
 153         V                 7.616950         10.510828
 154         V                 7.784734         10.177827
 155         V                 7.784734         10.177827
 156         V                 7.807209         10.189810
 157         V                 7.807209         10.189810
 158         V                 7.862196         10.228104
 159         V                 7.862196         10.228104
 160         V                 8.029787         10.779754
 161         V                 8.262145          9.872409
 162         V                 8.308094         10.699913
 163         V                 8.308094         10.699913
 164         V                 8.875874         10.771983
 165         V                 8.875874         10.771983
 166         V                 9.082489         11.699523
 167         V                 9.799982         11.847822
 168         V                11.239667         17.347630
 169         V                11.239667         17.347630
 170         V                11.371477         17.430897
 171         V                11.371477         17.430897
 172         V                11.681408         17.544474
 173         V                15.065635         23.019563
 174         V                15.065635         23.019563
 175         V                15.823828         19.480882
 176         V                16.935666         17.987503
 177         V                17.044715         19.716240
 178         V                18.060411         20.115010
 179         V                18.060411         20.115010
 180         V                18.737214         20.784798
 181         V                20.837451         31.225072
 182         V                20.837451         31.225072
 183         V                20.953926         31.305321
 184         V                20.953926         31.305321
 185         V                21.225012         31.365103
 186         V                34.881342         30.326937
 187         V                37.492724         37.175743
 188         V                37.492724         37.175743
 189         V                38.150591         37.129229
 190         V                38.572596         32.660683
 191         V                43.764277         58.222738
 192         V                43.764277         58.222738
 193         V                43.877261         58.324870
 194         V                43.877261         58.324870
 195         V                44.011856         58.462191
 196         V                45.694982         59.105949
 197         V                45.694982         59.105949
 198         V                46.741547         60.168857
 199         V                47.924078         71.649798
 200         V                47.924078         71.649798
 201         V                48.015982         71.709264
 202         V                48.015982         71.709264
 203         V                48.244294         71.626238
 204         V                70.975769         46.199616
 205         V                74.714166         61.328166
 206         V                76.683024         69.500548
 207         V                76.683024         69.500548
 208         V                77.352134         70.116300
 209         V               119.065460        139.081928
 210         V               119.065460        139.081928
 211         V               119.935273        139.869093
 212         V               128.192829         80.011398
 213         V               136.938417        118.559181
 214         V               151.853865        137.157423
 215         V               151.853865        137.157423
 216         V               152.490205        137.816771
 217         V               173.842047        222.304963
 218         V               173.842047        222.304963
 219         V               173.897142        222.353827
 220         V               173.897142        222.353827
 221         V               174.008471        222.448029
 222         V               229.651762        170.412396
 223         V               257.702608        231.882120
 224         V               286.348469        314.573125
 225         V               286.348469        314.573125
 226         V               287.133109        315.327325
 227         V               302.579943        281.101259
 228         V               302.579943        281.101259
 229         V               303.202038        281.737261
 230         V               436.704061        366.241718
 231         V               555.190234        520.402516
 232         V               626.032252        598.918092
 233         V               626.032252        598.918092
 234         V               626.620998        599.512410
 235         V               879.619852        799.107285
 236         V              1382.779314       1351.938759
 237         V              1382.779314       1351.938759
 238         V              1383.315818       1352.476915
 239         V              1529.710390       1488.668172
 240         V              1880.498340       1793.044188
 241         V              3367.537865       3334.726674
 242         V              3367.537865       3334.726674
 243         V              3368.006969       3335.196167
 244         V              4281.553859       4190.103204
 245         V              5659.858923       5616.132955
 246         V              9654.899566       9621.220782
 247         V              9654.899566       9621.220782
 248         V              9655.284800       9621.606085
 249         V             10491.396187      10397.915762
 250         V             28839.800927      28745.373596
 251         V             31586.423205      31541.874643
 Total kinetic energy from orbitals= 3.154044971175D+01
                          Isotropic Fermi Contact Couplings
        Atom                 a.u.       MegaHertz       Gauss      10(-4) cm-1
     1  Sc(45)             0.00003       0.02834       0.01011       0.00945
     2  O(17)              0.00005      -0.03009      -0.01074      -0.01004
 --------------------------------------------------------
       Center         ----  Spin Dipole Couplings  ----
                      3XX-RR        3YY-RR        3ZZ-RR
 --------------------------------------------------------
     1   Atom       -0.033489     -0.033489      0.066979
     2   Atom       -0.004223     -0.004223      0.008446
 --------------------------------------------------------
                        XY            XZ            YZ
 --------------------------------------------------------
     1   Atom        0.000000      0.000000      0.000000
     2   Atom        0.000000      0.000000      0.000000
 --------------------------------------------------------


 ---------------------------------------------------------------------------------
              Anisotropic Spin Dipole Couplings in Principal Axis System
 ---------------------------------------------------------------------------------

       Atom             a.u.   MegaHertz   Gauss  10(-4) cm-1        Axes

              Baa    -0.0335    -4.347    -1.551    -1.450 -0.0000  1.0000  0.0000
     1 Sc(45) Bbb    -0.0335    -4.347    -1.551    -1.450  1.0000  0.0000  0.0000
              Bcc     0.0670     8.695     3.103     2.900  0.0000  0.0000  1.0000
 
              Baa    -0.0042     0.306     0.109     0.102  1.0000  0.0000  0.0000
     2 O(17)  Bbb    -0.0042     0.306     0.109     0.102 -0.0000  1.0000  0.0000
              Bcc     0.0084    -0.611    -0.218    -0.204  0.0000  0.0000  1.0000
 

 ---------------------------------------------------------------------------------

 No NMR shielding tensors so no spin-rotation constants.
 Leave Link  601 at Thu Apr 19 07:46:20 2018, MaxMem= 10737418240 cpu:              85.0 elap:               4.4
 (Enter /home1/apps/gaussian/16rA.03/g16/l9999.exe)
 1\1\GINC-C473-112\SP\ROCCSD(T)-Full\Gen\O1Sc1(2)\AANNABE\19-Apr-2018\0
 \\#P ROCCSD(T)=(maxcyc=150, Full, SaveAmplitudes, ReadAmplitudes)/Gen 
 5d 7f SCF=(maxcycles=300, VShift=400) Integral(NoXCTest) MaxDisk=500GB
  Pop=Full Pseudo=Read Guess=Read\\ScO\\0,2\Sc,0,0.,0.,0.\O,0,0.,0.,1.5
 \\Version=ES64L-G16RevA.03\State=2-SG\HF=-61.9260478\MP2=-62.6019601\P
 UHF=-61.9260478\PMP2-0=-62.6019601\CCSD=-62.5943528\CCSD(T)=-62.629400
 8\RMSD=5.906e-09\PG=C*V [C*(O1Sc1)]\\@


 THAT'S WHAT MAKES US A GREAT COUNTRY.
 THE LITTLE THINGS ARE SERIOUS AND THE BIG ONES ARE NOT.
           WILL ROGERS
 Job cpu time:       0 days  7 hours 59 minutes  3.2 seconds.
 Elapsed time:       0 days  0 hours 24 minutes 14.6 seconds.
 File lengths (MBytes):  RWF=  12036 Int=      0 D2E=      0 Chk=     91 Scr=      1
 Normal termination of Gaussian 16 at Thu Apr 19 07:46:20 2018.
