 Entering Gaussian System, Link 0=g16
 Initial command:
 /home1/apps/gaussian/16rA.03/g16/l1.exe "/tmp/Gau-65584.inp" -scrdir="/tmp/"
 Entering Link 1 = /home1/apps/gaussian/16rA.03/g16/l1.exe PID=     65585.
  
 Copyright (c) 1988,1990,1992,1993,1995,1998,2003,2009,2016,
            Gaussian, Inc.  All Rights Reserved.
  
 This is part of the Gaussian(R) 16 program.  It is based on
 the Gaussian(R) 09 system (copyright 2009, Gaussian, Inc.),
 the Gaussian(R) 03 system (copyright 2003, Gaussian, Inc.),
 the Gaussian(R) 98 system (copyright 1998, Gaussian, Inc.),
 the Gaussian(R) 94 system (copyright 1995, Gaussian, Inc.),
 the Gaussian 92(TM) system (copyright 1992, Gaussian, Inc.),
 the Gaussian 90(TM) system (copyright 1990, Gaussian, Inc.),
 the Gaussian 88(TM) system (copyright 1988, Gaussian, Inc.),
 the Gaussian 86(TM) system (copyright 1986, Carnegie Mellon
 University), and the Gaussian 82(TM) system (copyright 1983,
 Carnegie Mellon University). Gaussian is a federally registered
 trademark of Gaussian, Inc.
  
 This software contains proprietary and confidential information,
 including trade secrets, belonging to Gaussian, Inc.
  
 This software is provided under written license and may be
 used, copied, transmitted, or stored only in accord with that
 written license.
  
 The following legend is applicable only to US Government
 contracts under FAR:
  
                    RESTRICTED RIGHTS LEGEND
  
 Use, reproduction and disclosure by the US Government is
 subject to restrictions as set forth in subparagraphs (a)
 and (c) of the Commercial Computer Software - Restricted
 Rights clause in FAR 52.227-19.
  
 Gaussian, Inc.
 340 Quinnipiac St., Bldg. 40, Wallingford CT 06492
  
  
 ---------------------------------------------------------------
 Warning -- This program may not be used in any manner that
 competes with the business of Gaussian, Inc. or will provide
 assistance to any competitor of Gaussian, Inc.  The licensee
 of this program is prohibited from giving any competitor of
 Gaussian, Inc. access to this program.  By using this program,
 the user acknowledges that Gaussian, Inc. is engaged in the
 business of creating and licensing software in the field of
 computational chemistry and represents and warrants to the
 licensee that it is not a competitor of Gaussian, Inc. and that
 it will not use this program in any manner prohibited above.
 ---------------------------------------------------------------
  

 Cite this work as:
 Gaussian 16, Revision A.03,
 M. J. Frisch, G. W. Trucks, H. B. Schlegel, G. E. Scuseria, 
 M. A. Robb, J. R. Cheeseman, G. Scalmani, V. Barone, 
 G. A. Petersson, H. Nakatsuji, X. Li, M. Caricato, A. V. Marenich, 
 J. Bloino, B. G. Janesko, R. Gomperts, B. Mennucci, H. P. Hratchian, 
 J. V. Ortiz, A. F. Izmaylov, J. L. Sonnenberg, D. Williams-Young, 
 F. Ding, F. Lipparini, F. Egidi, J. Goings, B. Peng, A. Petrone, 
 T. Henderson, D. Ranasinghe, V. G. Zakrzewski, J. Gao, N. Rega, 
 G. Zheng, W. Liang, M. Hada, M. Ehara, K. Toyota, R. Fukuda, 
 J. Hasegawa, M. Ishida, T. Nakajima, Y. Honda, O. Kitao, H. Nakai, 
 T. Vreven, K. Throssell, J. A. Montgomery, Jr., J. E. Peralta, 
 F. Ogliaro, M. J. Bearpark, J. J. Heyd, E. N. Brothers, K. N. Kudin, 
 V. N. Staroverov, T. A. Keith, R. Kobayashi, J. Normand, 
 K. Raghavachari, A. P. Rendell, J. C. Burant, S. S. Iyengar, 
 J. Tomasi, M. Cossi, J. M. Millam, M. Klene, C. Adamo, R. Cammi, 
 J. W. Ochterski, R. L. Martin, K. Morokuma, O. Farkas, 
 J. B. Foresman, and D. J. Fox, Gaussian, Inc., Wallingford CT, 2016.
 
 ******************************************
 Gaussian 16:  ES64L-G16RevA.03 25-Dec-2016
                26-Mar-2018 
 ******************************************
 %mem=80GB
 %cpu=0-31
 SetSPE:  set environment variable "MP_BIND" = "yes"
 SetSPE:  set environment variable "MP_BLIST" = "0,1,2,3,4,5,6,7,8,9,10,11,12,13,14,15,16,17,18,19,20,21,22,23,24,25,26,27,28,29,30,31"
 Will use up to   32 processors via shared memory.
 %chk=qz.chk
 %rwf=/scratch/04843/gwang18/nio/
 ----------------------------------------------------------------------
 #P ROCCSD(T)=(MaxCyc=150, Full)/Gen SCF=(maxcycle=400) Pseudo=Read Int
 egral(NoXCTest) Pop=Regular MaxDisk=500GB Guess=Read IOp(5/15=2)
 ----------------------------------------------------------------------
 1/38=1,172=1/1;
 2/12=2,17=6,18=5,40=1/2;
 3/5=7,11=2,16=1,17=8,25=1,30=1,47=8,116=101/1,2,3;
 4/5=1/1;
 5/5=2,7=400,15=2,38=6/2;
 8/5=-1,6=4,9=120000,10=90/1,4;
 9/5=7,6=150,14=2/13;
 6//1;
 99/5=1,9=1/99;
 Leave Link    1 at Mon Mar 26 16:59:31 2018, MaxMem= 10737418240 cpu:               7.4 elap:               0.2
 (Enter /home1/apps/gaussian/16rA.03/g16/l101.exe)
 ---
 NiO
 ---
 Symbolic Z-matrix:
 Charge =  0 Multiplicity = 3
 Ni                    0.        0.        0. 
 O                     0.        0.        1.6 
 
 ITRead=  0  0
 MicOpt= -1 -1
 NAtoms=      2 NQM=        2 NQMF=       0 NMMI=      0 NMMIF=      0
                NMic=       0 NMicF=      0.
                    Isotopes and Nuclear Properties:
 (Nuclear quadrupole moments (NQMom) in fm**2, nuclear magnetic moments (NMagM)
  in nuclear magnetons)

  Atom         1           2
 IAtWgt=          58          16
 AtmWgt=  57.9353471  15.9949146
 NucSpn=           0           0
 AtZEff=  -0.0000000  -0.0000000
 NQMom=    0.0000000   0.0000000
 NMagM=    0.0000000   0.0000000
 AtZNuc=  28.0000000   8.0000000
 Leave Link  101 at Mon Mar 26 16:59:32 2018, MaxMem= 10737418240 cpu:               3.1 elap:               0.1
 (Enter /home1/apps/gaussian/16rA.03/g16/l202.exe)
                          Input orientation:                          
 ---------------------------------------------------------------------
 Center     Atomic      Atomic             Coordinates (Angstroms)
 Number     Number       Type             X           Y           Z
 ---------------------------------------------------------------------
      1         28           0        0.000000    0.000000    0.000000
      2          8           0        0.000000    0.000000    1.600000
 ---------------------------------------------------------------------
 Stoichiometry    NiO(3)
 Framework group  C*V[C*(ONi)]
 Deg. of freedom     1
 Full point group                 C*V     NOp   4
 Largest Abelian subgroup         C2V     NOp   4
 Largest concise Abelian subgroup C1      NOp   1
                         Standard orientation:                         
 ---------------------------------------------------------------------
 Center     Atomic      Atomic             Coordinates (Angstroms)
 Number     Number       Type             X           Y           Z
 ---------------------------------------------------------------------
      1         28           0        0.000000    0.000000    0.355556
      2          8           0        0.000000    0.000000   -1.244444
 ---------------------------------------------------------------------
 Rotational constants (GHZ):           0.0000000          15.7497599          15.7497599
 Leave Link  202 at Mon Mar 26 16:59:32 2018, MaxMem= 10737418240 cpu:               0.7 elap:               0.1
 (Enter /home1/apps/gaussian/16rA.03/g16/l301.exe)
 General basis read from cards:  (5D, 7F)
 Centers:       1
 S 1 1.00
     Exponent=  1.5503020000D+07 Coefficients=  1.0000000000D+00
 S 1 1.00
     Exponent=  2.3210710000D+06 Coefficients=  1.0000000000D+00
 S 1 1.00
     Exponent=  5.2818020000D+05 Coefficients=  1.0000000000D+00
 S 1 1.00
     Exponent=  1.4960400000D+05 Coefficients=  1.0000000000D+00
 S 1 1.00
     Exponent=  4.8809070000D+04 Coefficients=  1.0000000000D+00
 S 1 1.00
     Exponent=  1.7622390000D+04 Coefficients=  1.0000000000D+00
 S 1 1.00
     Exponent=  6.8742010000D+03 Coefficients=  1.0000000000D+00
 S 1 1.00
     Exponent=  2.8518570000D+03 Coefficients=  1.0000000000D+00
 S 1 1.00
     Exponent=  1.2443340000D+03 Coefficients=  1.0000000000D+00
 S 1 1.00
     Exponent=  5.6615470000D+02 Coefficients=  1.0000000000D+00
 S 1 1.00
     Exponent=  2.6678730000D+02 Coefficients=  1.0000000000D+00
 S 1 1.00
     Exponent=  1.2937520000D+02 Coefficients=  1.0000000000D+00
 S 1 1.00
     Exponent=  6.3651610000D+01 Coefficients=  1.0000000000D+00
 S 1 1.00
     Exponent=  2.9333020000D+01 Coefficients=  1.0000000000D+00
 S 1 1.00
     Exponent=  1.4822120000D+01 Coefficients=  1.0000000000D+00
 S 1 1.00
     Exponent=  7.4605130000D+00 Coefficients=  1.0000000000D+00
 S 1 1.00
     Exponent=  3.4135760000D+00 Coefficients=  1.0000000000D+00
 S 1 1.00
     Exponent=  1.6328840000D+00 Coefficients=  1.0000000000D+00
 S 1 1.00
     Exponent=  7.4357900000D-01 Coefficients=  1.0000000000D+00
 S 1 1.00
     Exponent=  1.7259200000D-01 Coefficients=  1.0000000000D+00
 S 1 1.00
     Exponent=  7.7420000000D-02 Coefficients=  1.0000000000D+00
 S 1 1.00
     Exponent=  3.3701000000D-02 Coefficients=  1.0000000000D+00
 S 1 1.00
     Exponent=  6.5001000000D+00 Coefficients=  1.0000000000D+00
 S 1 1.00
     Exponent=  1.7599000000D+00 Coefficients=  1.0000000000D+00
 S 1 1.00
     Exponent=  1.4670000000D-02 Coefficients=  1.0000000000D+00
 P 1 1.00
     Exponent=  4.5066620000D+04 Coefficients=  1.0000000000D+00
 P 1 1.00
     Exponent=  1.0662640000D+04 Coefficients=  1.0000000000D+00
 P 1 1.00
     Exponent=  3.4634310000D+03 Coefficients=  1.0000000000D+00
 P 1 1.00
     Exponent=  1.3266240000D+03 Coefficients=  1.0000000000D+00
 P 1 1.00
     Exponent=  5.6474140000D+02 Coefficients=  1.0000000000D+00
 P 1 1.00
     Exponent=  2.5882880000D+02 Coefficients=  1.0000000000D+00
 P 1 1.00
     Exponent=  1.2531150000D+02 Coefficients=  1.0000000000D+00
 P 1 1.00
     Exponent=  6.3242330000D+01 Coefficients=  1.0000000000D+00
 P 1 1.00
     Exponent=  3.2824060000D+01 Coefficients=  1.0000000000D+00
 P 1 1.00
     Exponent=  1.7396920000D+01 Coefficients=  1.0000000000D+00
 P 1 1.00
     Exponent=  9.3243940000D+00 Coefficients=  1.0000000000D+00
 P 1 1.00
     Exponent=  4.9388390000D+00 Coefficients=  1.0000000000D+00
 P 1 1.00
     Exponent=  2.5620250000D+00 Coefficients=  1.0000000000D+00
 P 1 1.00
     Exponent=  1.2992940000D+00 Coefficients=  1.0000000000D+00
 P 1 1.00
     Exponent=  6.3467800000D-01 Coefficients=  1.0000000000D+00
 P 1 1.00
     Exponent=  2.3226200000D-01 Coefficients=  1.0000000000D+00
 P 1 1.00
     Exponent=  9.1546000000D-02 Coefficients=  1.0000000000D+00
 P 1 1.00
     Exponent=  3.5643000000D-02 Coefficients=  1.0000000000D+00
 P 1 1.00
     Exponent=  1.0416500000D+01 Coefficients=  1.0000000000D+00
 P 1 1.00
     Exponent=  2.9093000000D+00 Coefficients=  1.0000000000D+00
 P 1 1.00
     Exponent=  1.3880000000D-02 Coefficients=  1.0000000000D+00
 D 1 1.00
     Exponent=  4.1434270000D+02 Coefficients=  1.0000000000D+00
 D 1 1.00
     Exponent=  1.2439260000D+02 Coefficients=  1.0000000000D+00
 D 1 1.00
     Exponent=  4.8115400000D+01 Coefficients=  1.0000000000D+00
 D 1 1.00
     Exponent=  2.0842000000D+01 Coefficients=  1.0000000000D+00
 D 1 1.00
     Exponent=  9.6221000000D+00 Coefficients=  1.0000000000D+00
 D 1 1.00
     Exponent=  4.6034000000D+00 Coefficients=  1.0000000000D+00
 D 1 1.00
     Exponent=  2.1963000000D+00 Coefficients=  1.0000000000D+00
 D 1 1.00
     Exponent=  1.0206000000D+00 Coefficients=  1.0000000000D+00
 D 1 1.00
     Exponent=  4.5440000000D-01 Coefficients=  1.0000000000D+00
 D 1 1.00
     Exponent=  1.9000000000D-01 Coefficients=  1.0000000000D+00
 D 1 1.00
     Exponent=  7.1500000000D-02 Coefficients=  1.0000000000D+00
 D 1 1.00
     Exponent=  6.9565000000D+00 Coefficients=  1.0000000000D+00
 D 1 1.00
     Exponent=  3.6674000000D+00 Coefficients=  1.0000000000D+00
 D 1 1.00
     Exponent=  2.6910000000D-02 Coefficients=  1.0000000000D+00
 F 1 1.00
     Exponent=  1.0379100000D+01 Coefficients=  1.0000000000D+00
 F 1 1.00
     Exponent=  4.4257000000D+00 Coefficients=  1.0000000000D+00
 F 1 1.00
     Exponent=  1.8872000000D+00 Coefficients=  1.0000000000D+00
 F 1 1.00
     Exponent=  6.5380000000D-01 Coefficients=  1.0000000000D+00
 F 1 1.00
     Exponent=  2.2650000000D-01 Coefficients=  1.0000000000D+00
 G 1 1.00
     Exponent=  8.5105000000D+00 Coefficients=  1.0000000000D+00
 G 1 1.00
     Exponent=  3.8307000000D+00 Coefficients=  1.0000000000D+00
 G 1 1.00
     Exponent=  1.5457000000D+00 Coefficients=  1.0000000000D+00
 G 1 1.00
     Exponent=  6.2370000000D-01 Coefficients=  1.0000000000D+00
 H 1 1.00
     Exponent=  7.7448000000D+00 Coefficients=  1.0000000000D+00
 H 1 1.00
     Exponent=  3.3495000000D+00 Coefficients=  1.0000000000D+00
 H 1 1.00
     Exponent=  1.4486000000D+00 Coefficients=  1.0000000000D+00
 ****
 Centers:       2
 S 1 1.00
     Exponent=  6.1420000000D+04 Coefficients=  1.0000000000D+00
 S 1 1.00
     Exponent=  9.1990000000D+03 Coefficients=  1.0000000000D+00
 S 1 1.00
     Exponent=  2.0910000000D+03 Coefficients=  1.0000000000D+00
 S 1 1.00
     Exponent=  5.9090000000D+02 Coefficients=  1.0000000000D+00
 S 1 1.00
     Exponent=  1.9230000000D+02 Coefficients=  1.0000000000D+00
 S 1 1.00
     Exponent=  6.9320000000D+01 Coefficients=  1.0000000000D+00
 S 1 1.00
     Exponent=  2.6970000000D+01 Coefficients=  1.0000000000D+00
 S 1 1.00
     Exponent=  1.1100000000D+01 Coefficients=  1.0000000000D+00
 S 1 1.00
     Exponent=  4.6820000000D+00 Coefficients=  1.0000000000D+00
 S 1 1.00
     Exponent=  1.4280000000D+00 Coefficients=  1.0000000000D+00
 S 1 1.00
     Exponent=  5.5470000000D-01 Coefficients=  1.0000000000D+00
 S 1 1.00
     Exponent=  2.0670000000D-01 Coefficients=  1.0000000000D+00
 S 1 1.00
     Exponent=  1.2974000000D+01 Coefficients=  1.0000000000D+00
 S 1 1.00
     Exponent=  3.4900000000D+01 Coefficients=  1.0000000000D+00
 S 1 1.00
     Exponent=  9.3881000000D+01 Coefficients=  1.0000000000D+00
 S 1 1.00
     Exponent=  6.9590000000D-02 Coefficients=  1.0000000000D+00
 P 1 1.00
     Exponent=  6.3420000000D+01 Coefficients=  1.0000000000D+00
 P 1 1.00
     Exponent=  1.4660000000D+01 Coefficients=  1.0000000000D+00
 P 1 1.00
     Exponent=  4.4590000000D+00 Coefficients=  1.0000000000D+00
 P 1 1.00
     Exponent=  1.5310000000D+00 Coefficients=  1.0000000000D+00
 P 1 1.00
     Exponent=  5.3020000000D-01 Coefficients=  1.0000000000D+00
 P 1 1.00
     Exponent=  1.7500000000D-01 Coefficients=  1.0000000000D+00
 P 1 1.00
     Exponent=  1.4475000000D+01 Coefficients=  1.0000000000D+00
 P 1 1.00
     Exponent=  4.2730000000D+01 Coefficients=  1.0000000000D+00
 P 1 1.00
     Exponent=  1.2614000000D+02 Coefficients=  1.0000000000D+00
 P 1 1.00
     Exponent=  5.3480000000D-02 Coefficients=  1.0000000000D+00
 D 1 1.00
     Exponent=  3.7750000000D+00 Coefficients=  1.0000000000D+00
 D 1 1.00
     Exponent=  1.3000000000D+00 Coefficients=  1.0000000000D+00
 D 1 1.00
     Exponent=  4.4400000000D-01 Coefficients=  1.0000000000D+00
 D 1 1.00
     Exponent=  1.4927000000D+01 Coefficients=  1.0000000000D+00
 D 1 1.00
     Exponent=  5.7544000000D+01 Coefficients=  1.0000000000D+00
 D 1 1.00
     Exponent=  1.5400000000D-01 Coefficients=  1.0000000000D+00
 F 1 1.00
     Exponent=  2.6660000000D+00 Coefficients=  1.0000000000D+00
 F 1 1.00
     Exponent=  8.5900000000D-01 Coefficients=  1.0000000000D+00
 F 1 1.00
     Exponent=  2.6483000000D+01 Coefficients=  1.0000000000D+00
 F 1 1.00
     Exponent=  3.2400000000D-01 Coefficients=  1.0000000000D+00
 G 1 1.00
     Exponent=  1.8460000000D+00 Coefficients=  1.0000000000D+00
 G 1 1.00
     Exponent=  7.1400000000D-01 Coefficients=  1.0000000000D+00
 ****
 ======================================================================================================
                                       Pseudopotential Parameters
 ======================================================================================================
  Center     Atomic      Valence      Angular      Power
  Number     Number     Electrons     Momentum     of R      Exponent        Coefficient   SO-Coeffient
 ======================================================================================================
    1         28           18
                                      D and up 
                                                     1        4.2287892       18.00000000    0.00000000
                                                     3        4.4620242       76.11820629    0.00000000
                                                     2        4.4496046      -82.85330412    0.00000000
                                      S - D
                                                     2       11.6270006      120.84003628    0.00000000
                                      P - D
                                                     2        9.5732709       58.54148726    0.00000000
    2          8            6
                                      P and up 
                                                     1        9.2979390        6.00000000    0.00000000
                                                     3        8.8649220       55.78763416    0.00000000
                                                     2        8.6292567      -38.81978498    0.00000000
                                      S - P
                                                     2        8.7192445       38.41914135    0.00000000
 ======================================================================================================
 Ernie: Thresh=  0.10000D-02 Tol=  0.10000D-05 Strict=F.
 There are   213 symmetry adapted cartesian basis functions of A1  symmetry.
 There are    56 symmetry adapted cartesian basis functions of A2  symmetry.
 There are   114 symmetry adapted cartesian basis functions of B1  symmetry.
 There are   114 symmetry adapted cartesian basis functions of B2  symmetry.
 There are   157 symmetry adapted basis functions of A1  symmetry.
 There are    47 symmetry adapted basis functions of A2  symmetry.
 There are    90 symmetry adapted basis functions of B1  symmetry.
 There are    90 symmetry adapted basis functions of B2  symmetry.
   384 basis functions,   497 primitive gaussians,   497 cartesian basis functions
    13 alpha electrons       11 beta electrons
       nuclear repulsion energy        35.7194617371 Hartrees.
 IExCor=    0 DFT=F Ex=HF Corr=None ExCW=0 ScaHFX=  1.000000
 ScaDFX=  1.000000  1.000000  1.000000  1.000000 ScalE2=  1.000000  1.000000
 IRadAn=      5 IRanWt=     -1 IRanGd=            0 ICorTp=0 IEmpDi=  4
 NAtoms=    2 NActive=    2 NUniq=    2 SFac= 1.00D+00 NAtFMM=   60 NAOKFM=F Big=F
 Integral buffers will be    131072 words long.
 Raffenetti 2 integral format.
 Two-electron integral symmetry is turned on.
 Leave Link  301 at Mon Mar 26 16:59:32 2018, MaxMem= 10737418240 cpu:               9.2 elap:               0.3
 (Enter /home1/apps/gaussian/16rA.03/g16/l302.exe)
 NPDir=0 NMtPBC=     1 NCelOv=     1 NCel=       1 NClECP=     1 NCelD=      1
         NCelK=      1 NCelE2=     1 NClLst=     1 CellRange=     0.0.
 One-electron integrals computed using PRISM.
 One-electron integral symmetry used in STVInt
   4 Symmetry operations used in ECPInt.
 ECPInt:  NShTT=    6105 NPrTT=    6105 LenC2=    5525 LenP2D=    5524.
 LDataN:  DoStor=T MaxTD1=10 Len=  848
 NBasis=   384 RedAO= T EigKep=  2.15D-06  NBF=   157    47    90    90
 NBsUse=   380 1.00D-06 EigRej=  8.69D-07 NBFU=   155    47    89    89
 Leave Link  302 at Mon Mar 26 16:59:35 2018, MaxMem= 10737418240 cpu:              79.6 elap:               2.5
 (Enter /home1/apps/gaussian/16rA.03/g16/l303.exe)
 DipDrv:  MaxL=1.
 Leave Link  303 at Mon Mar 26 16:59:35 2018, MaxMem= 10737418240 cpu:               3.9 elap:               0.2
 (Enter /home1/apps/gaussian/16rA.03/g16/l401.exe)
 Initial guess from the checkpoint file:  "qz.chk"
 B after Tr=     0.000000    0.000000    0.000000
         Rot=    1.000000    0.000000    0.000000    0.000000 Ang=   0.00 deg.
 Guess basis will be translated and rotated to current coordinates.
 JPrj=2 DoOrth=T DoCkMO=T.
 Initial guess orbital symmetries:
       Occupied  (SG) (PI) (PI) (SG) (SG) (SG) (DLTA) (DLTA) (PI)
                 (PI) (SG) (PI) (PI)
       Virtual   (SG) (PI) (PI) (SG) (SG) (PI) (PI) (SG) (DLTA)
                 (DLTA) (PI) (PI) (SG) (SG) (SG) (PI) (PI) (PI)
                 (PI) (SG) (DLTA) (DLTA) (SG) (PI) (PI) (SG) (SG)
                 (DLTA) (DLTA) (PI) (PI) (SG) (PI) (PI) (SG) (PI)
                 (PI) (SG) (PHI) (PHI) (DLTA) (DLTA) (PI) (PI)
                 (SG) (DLTA) (DLTA) (PI) (PI) (SG) (SG) (SG) (PHI)
                 (PHI) (DLTA) (DLTA) (DLTA) (DLTA) (PI) (PI) (SG)
                 (PI) (PI) (SG) (PI) (PI) (SG) (PI) (PI) (SG) (PHI)
                 (PHI) (DLTA) (DLTA) (PI) (PI) (DLTA) (DLTA) (SG)
                 (PI) (PI) (SG) (SG) (PHI) (PHI) (?A) (?A) (DLTA)
                 (DLTA) (PI) (PI) (SG) (PHI) (PHI) (DLTA) (DLTA)
                 (SG) (PI) (PI) (DLTA) (DLTA) (SG) (PI) (PI) (PI)
                 (PI) (SG) (SG) (DLTA) (DLTA) (PI) (PI) (PHI) (PHI)
                 (SG) (DLTA) (DLTA) (PI) (PI) (SG) (SG) (PHI) (PHI)
                 (?A) (?A) (DLTA) (DLTA) (PI) (PI) (SG) (PI) (PI)
                 (PI) (PI) (SG) (SG) (SG) (DLTA) (DLTA) (PI) (PI)
                 (SG) (DLTA) (DLTA) (PHI) (PHI) (PI) (PI) (SG)
                 (PI) (PI) (SG) (SG) (SG) (PHI) (PHI) (DLTA) (DLTA)
                 (?A) (?A) (PI) (PI) (SG) (DLTA) (DLTA) (PI) (PI)
                 (SG) (DLTA) (DLTA) (PI) (PI) (SG) (PI) (PI) (SG)
                 (PI) (PI) (SG) (SG) (SG) (DLTA) (DLTA) (PI) (PI)
                 (SG) (PI) (PI) (SG) (SG) (PI) (PI) (SG) (SG) (PI)
                 (PI) (SG) (DLTA) (DLTA) (PI) (PI) (SG) (SG) (SG)
                 (PI) (PI) (SG) (PI) (PI) (SG) (SG) (SG) (DLTA)
                 (DLTA) (PI) (PI) (SG) (PI) (PI) (SG) (SG) (PI)
                 (PI) (SG) (SG) (SG) (PI) (PI) (SG) (SG) (SG) (PI)
                 (PI) (SG) (SG) (PI) (PI) (SG) (SG) (SG) (SG) (PI)
                 (PI) (SG) (SG) (SG) (SG) (SG) (DLTA) (SG) (SG)
                 (DLTA) (SG) (SG) (SG) (SG) (SG) (DLTA) (SG) (DLTA)
                 (SG) (DLTA) (SG) (SG) (SG) (?A) (DLTA) (DLTA)
                 (SG) (SG) (?A) (DLTA) (SG) (SG) (SG) (DLTA) (DLTA)
                 (SG) (?A) (DLTA) (DLTA) (DLTA) (SG) (DLTA) (SG)
                 (SG) (?A) (?A) (?A) (DLTA) (DLTA) (DLTA) (DLTA)
                 (DLTA) (?A) (DLTA) (DLTA) (?A) (DLTA) (DLTA) (DLTA)
                 (?A) (DLTA) (DLTA) (DLTA) (DLTA) (?A) (?A) (?A)
                 (PI) (PI) (PI) (PI) (PI) (PI) (PHI) (PI) (PHI)
                 (PI) (PI) (PI) (PHI) (PI) (?B) (PHI) (PI) (PI)
                 (PHI) (PI) (PI) (PHI) (PI) (PI) (PHI) (PHI) (?B)
                 (PHI) (?B) (PI) (PI) (PI) (PI) (PI) (PI) (PHI)
                 (PI) (PHI) (PI) (PI) (PI) (PHI) (PI) (?B) (PHI)
                 (PI) (PI) (PHI) (PI) (PI) (PHI) (PI) (PI) (PHI)
                 (PHI) (?B) (PHI) (?B)
 The electronic state of the initial guess is 3-SG.
 Leave Link  401 at Mon Mar 26 16:59:36 2018, MaxMem= 10737418240 cpu:              25.3 elap:               0.9
 (Enter /home1/apps/gaussian/16rA.03/g16/l502.exe)
 Keep R1 and R2 ints in memory in symmetry-blocked form, NReq=3425113631.
 FoFCou: FMM=F IPFlag=           8 FMFlag=           0 FMFlg1=           0
         NFxFlg=           0 DoJE=F BraDBF=F KetDBF=F FulRan=T
         wScrn=  0.000000 ICntrl=       600 IOpCl=  0 I1Cent=           0 NGrid=           0
         NMat0=    1 NMatS0=  73920 NMatT0=    0 NMatD0=    1 NMtDS0=    0 NMtDT0=    0
 Petite list used in FoFCou.
 Restricted open shell SCF:
 Using DIIS extrapolation, IDIIS=  1040.
 NGot= 10737418240 LenX=  9351085953 LenY=  9350838447
 Requested convergence on RMS density matrix=1.00D-08 within 400 cycles.
 Requested convergence on MAX density matrix=1.00D-06.
 Requested convergence on             energy=1.00D-06.
 No special actions if energy rises.

 Cycle   1  Pass 1  IDiag  1:
 E= -184.925759380785    
 DIIS: error= 2.27D+00 at cycle   1 NSaved=   1.
 NSaved= 1 IEnMin= 1 EnMin= -184.925759380785     IErMin= 1 ErrMin= 2.27D+00
 ErrMax= 2.27D+00  0.00D+00 EMaxC= 1.00D-01 BMatC= 5.45D+02 BMatP= 5.45D+02
 IDIUse=3 WtCom= 0.00D+00 WtEn= 1.00D+00
 Coeff-Com:  0.100D+01
 Coeff-En:   0.100D+01
 Coeff:      0.100D+01
 Gap=     0.102 Goal=   None    Shift=    0.000
 GapD=    0.102 DampG=1.000 DampE=0.125 DampFc=0.1250 IDamp=-1.
 Damping current iteration by 1.25D-01
 RMSDP=3.13D-03 MaxDP=4.21D-01              OVMax= 5.45D-03

 Cycle   2  Pass 1  IDiag  1:
 E= -184.926073763284     Delta-E=       -0.000314382499 Rises=F Damp=T
 DIIS: error= 1.99D+00 at cycle   2 NSaved=   2.
 NSaved= 2 IEnMin= 2 EnMin= -184.926073763284     IErMin= 2 ErrMin= 1.99D+00
 ErrMax= 1.99D+00  0.00D+00 EMaxC= 1.00D-01 BMatC= 4.18D+02 BMatP= 5.45D+02
 IDIUse=3 WtCom= 0.00D+00 WtEn= 1.00D+00
 Coeff-Com: -0.700D+01 0.800D+01
 Coeff-En:   0.000D+00 0.100D+01
 Coeff:      0.000D+00 0.100D+01
 Gap=     0.101 Goal=   None    Shift=    0.000
 RMSDP=2.75D-03 MaxDP=3.69D-01 DE=-3.14D-04 OVMax= 7.46D-03

 Cycle   3  Pass 1  IDiag  1:
 E= -184.928289286536     Delta-E=       -0.002215523252 Rises=F Damp=F
 DIIS: error= 5.32D-04 at cycle   3 NSaved=   3.
 NSaved= 3 IEnMin= 3 EnMin= -184.928289286536     IErMin= 3 ErrMin= 5.32D-04
 ErrMax= 5.32D-04  0.00D+00 EMaxC= 1.00D-01 BMatC= 4.47D-05 BMatP= 4.18D+02
 IDIUse=3 WtCom= 9.95D-01 WtEn= 5.32D-03
 Coeff-Com: -0.991D+00 0.113D+01 0.858D+00
 Coeff-En:   0.000D+00 0.000D+00 0.100D+01
 Coeff:     -0.985D+00 0.113D+01 0.859D+00
 Gap=     0.101 Goal=   None    Shift=    0.000
 RMSDP=8.47D-05 MaxDP=4.96D-03 DE=-2.22D-03 OVMax= 6.15D-03

 Cycle   4  Pass 1  IDiag  1:
 E= -184.928313032230     Delta-E=       -0.000023745694 Rises=F Damp=F
 DIIS: error= 6.97D-04 at cycle   4 NSaved=   4.
 NSaved= 4 IEnMin= 4 EnMin= -184.928313032230     IErMin= 3 ErrMin= 5.32D-04
 ErrMax= 6.97D-04  0.00D+00 EMaxC= 1.00D-01 BMatC= 2.20D-05 BMatP= 4.47D-05
 IDIUse=3 WtCom= 9.93D-01 WtEn= 6.97D-03
 Coeff-Com: -0.756D+00 0.864D+00 0.393D+00 0.499D+00
 Coeff-En:   0.000D+00 0.000D+00 0.334D+00 0.666D+00
 Coeff:     -0.751D+00 0.858D+00 0.393D+00 0.500D+00
 Gap=     0.101 Goal=   None    Shift=    0.000
 RMSDP=3.05D-05 MaxDP=2.48D-03 DE=-2.37D-05 OVMax= 5.67D-03

 Cycle   5  Pass 1  IDiag  1:
 E= -184.928312600576     Delta-E=        0.000000431655 Rises=F Damp=F
 DIIS: error= 3.74D-04 at cycle   5 NSaved=   5.
 NSaved= 5 IEnMin= 4 EnMin= -184.928313032230     IErMin= 5 ErrMin= 3.74D-04
 ErrMax= 3.74D-04  0.00D+00 EMaxC= 1.00D-01 BMatC= 1.85D-05 BMatP= 2.20D-05
 IDIUse=3 WtCom= 9.96D-01 WtEn= 3.74D-03
 Coeff-Com: -0.642D+00 0.734D+00-0.195D-01 0.343D+00 0.585D+00
 Coeff-En:   0.000D+00 0.000D+00 0.000D+00 0.504D+00 0.496D+00
 Coeff:     -0.639D+00 0.731D+00-0.194D-01 0.343D+00 0.585D+00
 Gap=     0.101 Goal=   None    Shift=    0.000
 RMSDP=1.27D-05 MaxDP=1.19D-03 DE= 4.32D-07 OVMax= 3.22D-03

 Cycle   6  Pass 1  IDiag  1:
 E= -184.928322970908     Delta-E=       -0.000010370333 Rises=F Damp=F
 DIIS: error= 3.53D-04 at cycle   6 NSaved=   6.
 NSaved= 6 IEnMin= 6 EnMin= -184.928322970908     IErMin= 6 ErrMin= 3.53D-04
 ErrMax= 3.53D-04  0.00D+00 EMaxC= 1.00D-01 BMatC= 1.08D-05 BMatP= 1.85D-05
 IDIUse=3 WtCom= 9.96D-01 WtEn= 3.53D-03
 Rare condition: small coef for last iteration:  0.000D+00
 Coeff-Com: -0.591D+00 0.675D+00-0.913D-01 0.173D+00 0.437D+00 0.398D+00
 Coeff-En:   0.000D+00 0.000D+00 0.000D+00 0.284D+00 0.170D+00 0.546D+00
 Coeff:     -0.591D+00 0.675D+00-0.913D-01 0.173D+00 0.437D+00 0.398D+00
 Gap=     0.101 Goal=   None    Shift=    0.000
 RMSDP=4.87D-06 MaxDP=5.29D-04 DE=-1.04D-05 OVMax= 1.34D-03

 Cycle   7  Pass 1  IDiag  1:
 E= -184.928327009243     Delta-E=       -0.000004038335 Rises=F Damp=F
 DIIS: error= 3.06D-04 at cycle   7 NSaved=   7.
 NSaved= 7 IEnMin= 7 EnMin= -184.928327009243     IErMin= 7 ErrMin= 3.06D-04
 ErrMax= 3.06D-04  0.00D+00 EMaxC= 1.00D-01 BMatC= 7.49D-06 BMatP= 1.08D-05
 IDIUse=3 WtCom= 9.97D-01 WtEn= 3.06D-03
 EnCoef did   100 forward-backward iterations
 Coeff-Com: -0.495D+00 0.566D+00-0.859D-01-0.342D-01 0.674D-01 0.182D+00
 Coeff-Com:  0.800D+00
 Coeff-En:   0.000D+00 0.000D+00 0.000D+00 0.455D+00 0.432D+00 0.000D+00
 Coeff-En:   0.112D+00
 Coeff:     -0.494D+00 0.564D+00-0.856D-01-0.327D-01 0.686D-01 0.181D+00
 Coeff:      0.798D+00
 Gap=     0.101 Goal=   None    Shift=    0.000
 RMSDP=4.16D-06 MaxDP=3.75D-04 DE=-4.04D-06 OVMax= 4.62D-04

 Cycle   8  Pass 1  IDiag  1:
 E= -184.928329527676     Delta-E=       -0.000002518433 Rises=F Damp=F
 DIIS: error= 2.53D-04 at cycle   8 NSaved=   8.
 NSaved= 8 IEnMin= 8 EnMin= -184.928329527676     IErMin= 8 ErrMin= 2.53D-04
 ErrMax= 2.53D-04  0.00D+00 EMaxC= 1.00D-01 BMatC= 4.90D-06 BMatP= 7.49D-06
 IDIUse=3 WtCom= 9.97D-01 WtEn= 2.53D-03
 Coeff-Com: -0.432D+00 0.494D+00-0.709D-01-0.682D-01-0.209D-01 0.843D-01
 Coeff-Com:  0.553D+00 0.461D+00
 Coeff-En:   0.000D+00 0.000D+00 0.000D+00 0.709D-01 0.000D+00 0.000D+00
 Coeff-En:   0.000D+00 0.929D+00
 Coeff:     -0.431D+00 0.493D+00-0.707D-01-0.679D-01-0.209D-01 0.840D-01
 Coeff:      0.552D+00 0.462D+00
 Gap=     0.101 Goal=   None    Shift=    0.000
 RMSDP=1.86D-06 MaxDP=1.36D-04 DE=-2.52D-06 OVMax= 2.10D-04

 Cycle   9  Pass 1  IDiag  1:
 E= -184.928330583035     Delta-E=       -0.000001055359 Rises=F Damp=F
 DIIS: error= 2.17D-04 at cycle   9 NSaved=   9.
 NSaved= 9 IEnMin= 9 EnMin= -184.928330583035     IErMin= 9 ErrMin= 2.17D-04
 ErrMax= 2.17D-04  0.00D+00 EMaxC= 1.00D-01 BMatC= 3.74D-06 BMatP= 4.90D-06
 IDIUse=3 WtCom= 9.98D-01 WtEn= 2.17D-03
 Coeff-Com: -0.319D+00 0.364D+00-0.456D-01-0.916D-01-0.105D+00-0.241D-01
 Coeff-Com:  0.187D+00 0.166D+00 0.868D+00
 Coeff-En:   0.000D+00 0.000D+00 0.000D+00 0.344D-01 0.000D+00 0.000D+00
 Coeff-En:   0.000D+00 0.000D+00 0.966D+00
 Coeff:     -0.318D+00 0.364D+00-0.455D-01-0.913D-01-0.105D+00-0.240D-01
 Coeff:      0.187D+00 0.165D+00 0.868D+00
 Gap=     0.101 Goal=   None    Shift=    0.000
 RMSDP=2.97D-06 MaxDP=2.56D-04 DE=-1.06D-06 OVMax= 3.57D-04

 Cycle  10  Pass 1  IDiag  1:
 E= -184.928332129334     Delta-E=       -0.000001546299 Rises=F Damp=F
 DIIS: error= 1.61D-04 at cycle  10 NSaved=  10.
 NSaved=10 IEnMin=10 EnMin= -184.928332129334     IErMin=10 ErrMin= 1.61D-04
 ErrMax= 1.61D-04  0.00D+00 EMaxC= 1.00D-01 BMatC= 2.04D-06 BMatP= 3.74D-06
 IDIUse=3 WtCom= 9.98D-01 WtEn= 1.61D-03
 Coeff-Com: -0.165D+00 0.189D+00-0.210D-01-0.511D-01-0.671D-01-0.344D-01
 Coeff-Com: -0.260D-01-0.327D+00 0.162D+00 0.134D+01
 Coeff-En:   0.000D+00 0.000D+00 0.000D+00 0.000D+00 0.000D+00 0.000D+00
 Coeff-En:   0.000D+00 0.000D+00 0.000D+00 0.100D+01
 Coeff:     -0.165D+00 0.188D+00-0.210D-01-0.511D-01-0.670D-01-0.343D-01
 Coeff:     -0.260D-01-0.327D+00 0.162D+00 0.134D+01
 Gap=     0.101 Goal=   None    Shift=    0.000
 RMSDP=4.14D-06 MaxDP=3.41D-04 DE=-1.55D-06 OVMax= 4.85D-04

 Cycle  11  Pass 1  IDiag  1:
 E= -184.928333491115     Delta-E=       -0.000001361781 Rises=F Damp=F
 DIIS: error= 8.42D-05 at cycle  11 NSaved=  11.
 NSaved=11 IEnMin=11 EnMin= -184.928333491115     IErMin=11 ErrMin= 8.42D-05
 ErrMax= 8.42D-05  0.00D+00 EMaxC= 1.00D-01 BMatC= 5.50D-07 BMatP= 2.04D-06
 IDIUse=1 WtCom= 1.00D+00 WtEn= 0.00D+00
 Coeff-Com: -0.180D-01 0.206D-01-0.314D-02 0.102D-01 0.249D-01 0.200D-01
 Coeff-Com:  0.756D-02-0.338D+00-0.792D+00 0.939D+00 0.113D+01
 Coeff:     -0.180D-01 0.206D-01-0.314D-02 0.102D-01 0.249D-01 0.200D-01
 Coeff:      0.756D-02-0.338D+00-0.792D+00 0.939D+00 0.113D+01
 Gap=     0.101 Goal=   None    Shift=    0.000
 RMSDP=4.06D-06 MaxDP=3.35D-04 DE=-1.36D-06 OVMax= 4.63D-04

 Cycle  12  Pass 1  IDiag  1:
 E= -184.928333985637     Delta-E=       -0.000000494522 Rises=F Damp=F
 DIIS: error= 9.13D-06 at cycle  12 NSaved=  12.
 NSaved=12 IEnMin=12 EnMin= -184.928333985637     IErMin=12 ErrMin= 9.13D-06
 ErrMax= 9.13D-06  0.00D+00 EMaxC= 1.00D-01 BMatC= 7.10D-09 BMatP= 5.50D-07
 IDIUse=1 WtCom= 1.00D+00 WtEn= 0.00D+00
 Coeff-Com: -0.110D-01 0.126D-01-0.274D-02 0.103D-01 0.248D-01 0.222D-01
 Coeff-Com:  0.322D-01-0.140D+00-0.482D+00 0.320D+00 0.718D+00 0.495D+00
 Coeff:     -0.110D-01 0.126D-01-0.274D-02 0.103D-01 0.248D-01 0.222D-01
 Coeff:      0.322D-01-0.140D+00-0.482D+00 0.320D+00 0.718D+00 0.495D+00
 Gap=     0.101 Goal=   None    Shift=    0.000
 RMSDP=1.70D-07 MaxDP=1.55D-05 DE=-4.95D-07 OVMax= 2.76D-05

 Cycle  13  Pass 1  IDiag  1:
 E= -184.928333990055     Delta-E=       -0.000000004417 Rises=F Damp=F
 DIIS: error= 5.63D-06 at cycle  13 NSaved=  13.
 NSaved=13 IEnMin=13 EnMin= -184.928333990055     IErMin=13 ErrMin= 5.63D-06
 ErrMax= 5.63D-06  0.00D+00 EMaxC= 1.00D-01 BMatC= 2.46D-09 BMatP= 7.10D-09
 IDIUse=1 WtCom= 1.00D+00 WtEn= 0.00D+00
 Coeff-Com: -0.526D-02 0.602D-02-0.824D-03-0.299D-02-0.412D-02-0.858D-03
 Coeff-Com:  0.593D-02 0.561D-01 0.147D+00-0.231D+00-0.128D+00-0.124D-01
 Coeff-Com:  0.117D+01
 Coeff:     -0.526D-02 0.602D-02-0.824D-03-0.299D-02-0.412D-02-0.858D-03
 Coeff:      0.593D-02 0.561D-01 0.147D+00-0.231D+00-0.128D+00-0.124D-01
 Coeff:      0.117D+01
 Gap=     0.101 Goal=   None    Shift=    0.000
 RMSDP=1.74D-07 MaxDP=1.33D-05 DE=-4.42D-09 OVMax= 1.82D-05

 Cycle  14  Pass 1  IDiag  1:
 E= -184.928333991886     Delta-E=       -0.000000001832 Rises=F Damp=F
 DIIS: error= 2.64D-06 at cycle  14 NSaved=  14.
 NSaved=14 IEnMin=14 EnMin= -184.928333991886     IErMin=14 ErrMin= 2.64D-06
 ErrMax= 2.64D-06  0.00D+00 EMaxC= 1.00D-01 BMatC= 5.63D-10 BMatP= 2.46D-09
 IDIUse=1 WtCom= 1.00D+00 WtEn= 0.00D+00
 Coeff-Com: -0.212D-02 0.243D-02-0.162D-03-0.266D-02-0.481D-02-0.342D-02
 Coeff-Com:  0.190D-02 0.425D-01 0.689D-01-0.775D-01-0.134D+00-0.499D-01
 Coeff-Com:  0.718D-01 0.109D+01
 Coeff:     -0.212D-02 0.243D-02-0.162D-03-0.266D-02-0.481D-02-0.342D-02
 Coeff:      0.190D-02 0.425D-01 0.689D-01-0.775D-01-0.134D+00-0.499D-01
 Coeff:      0.718D-01 0.109D+01
 Gap=     0.101 Goal=   None    Shift=    0.000
 RMSDP=9.01D-08 MaxDP=6.87D-06 DE=-1.83D-09 OVMax= 1.03D-05

 Cycle  15  Pass 1  IDiag  1:
 E= -184.928333992364     Delta-E=       -0.000000000477 Rises=F Damp=F
 DIIS: error= 1.04D-06 at cycle  15 NSaved=  15.
 NSaved=15 IEnMin=15 EnMin= -184.928333992364     IErMin=15 ErrMin= 1.04D-06
 ErrMax= 1.04D-06  0.00D+00 EMaxC= 1.00D-01 BMatC= 9.29D-11 BMatP= 5.63D-10
 IDIUse=1 WtCom= 1.00D+00 WtEn= 0.00D+00
 Coeff-Com:  0.214D-02-0.245D-02 0.354D-03 0.127D-02 0.184D-02 0.369D-03
 Coeff-Com: -0.122D-03-0.201D-01-0.905D-01 0.115D+00 0.649D-01 0.269D-01
 Coeff-Com: -0.625D+00-0.146D+00 0.167D+01
 Coeff:      0.214D-02-0.245D-02 0.354D-03 0.127D-02 0.184D-02 0.369D-03
 Coeff:     -0.122D-03-0.201D-01-0.905D-01 0.115D+00 0.649D-01 0.269D-01
 Coeff:     -0.625D+00-0.146D+00 0.167D+01
 Gap=     0.101 Goal=   None    Shift=    0.000
 RMSDP=1.22D-07 MaxDP=9.67D-06 DE=-4.77D-10 OVMax= 1.34D-05

 Cycle  16  Pass 1  IDiag  1:
 E= -184.928333992403     Delta-E=       -0.000000000040 Rises=F Damp=F
 DIIS: error= 1.06D-06 at cycle  16 NSaved=  16.
 NSaved=16 IEnMin=16 EnMin= -184.928333992403     IErMin=15 ErrMin= 1.04D-06
 ErrMax= 1.06D-06  0.00D+00 EMaxC= 1.00D-01 BMatC= 9.28D-11 BMatP= 9.29D-11
 IDIUse=1 WtCom= 1.00D+00 WtEn= 0.00D+00
 Coeff-Com: -0.167D-02 0.191D-02-0.349D-03 0.971D-03 0.249D-02 0.248D-02
 Coeff-Com:  0.455D-02-0.179D-01-0.526D-01 0.560D-01 0.859D-01 0.283D-01
 Coeff-Com: -0.191D+00-0.608D+00 0.683D+00 0.101D+01
 Coeff:     -0.167D-02 0.191D-02-0.349D-03 0.971D-03 0.249D-02 0.248D-02
 Coeff:      0.455D-02-0.179D-01-0.526D-01 0.560D-01 0.859D-01 0.283D-01
 Coeff:     -0.191D+00-0.608D+00 0.683D+00 0.101D+01
 Gap=     0.101 Goal=   None    Shift=    0.000
 RMSDP=1.02D-07 MaxDP=8.60D-06 DE=-4.00D-11 OVMax= 1.18D-05

 Cycle  17  Pass 1  IDiag  1:
 E= -184.928333992444     Delta-E=       -0.000000000040 Rises=F Damp=F
 DIIS: error= 8.30D-07 at cycle  17 NSaved=  17.
 NSaved=17 IEnMin=17 EnMin= -184.928333992444     IErMin=17 ErrMin= 8.30D-07
 ErrMax= 8.30D-07  0.00D+00 EMaxC= 1.00D-01 BMatC= 5.51D-11 BMatP= 9.28D-11
 IDIUse=1 WtCom= 1.00D+00 WtEn= 0.00D+00
 Coeff-Com:  0.455D-04-0.520D-04-0.158D-04 0.190D-03 0.441D-03 0.419D-03
 Coeff-Com:  0.754D-04-0.209D-02-0.298D-02-0.339D-02 0.137D-01 0.318D-02
 Coeff-Com:  0.555D-01-0.181D+00-0.255D-01 0.340D+00 0.801D+00
 Coeff:      0.455D-04-0.520D-04-0.158D-04 0.190D-03 0.441D-03 0.419D-03
 Coeff:      0.754D-04-0.209D-02-0.298D-02-0.339D-02 0.137D-01 0.318D-02
 Coeff:      0.555D-01-0.181D+00-0.255D-01 0.340D+00 0.801D+00
 Gap=     0.101 Goal=   None    Shift=    0.000
 RMSDP=4.57D-08 MaxDP=3.80D-06 DE=-4.02D-11 OVMax= 5.33D-06

 Cycle  18  Pass 1  IDiag  1:
 E= -184.928333992494     Delta-E=       -0.000000000051 Rises=F Damp=F
 DIIS: error= 2.25D-08 at cycle  18 NSaved=  18.
 NSaved=18 IEnMin=18 EnMin= -184.928333992494     IErMin=18 ErrMin= 2.25D-08
 ErrMax= 2.25D-08  0.00D+00 EMaxC= 1.00D-01 BMatC= 7.97D-14 BMatP= 5.51D-11
 IDIUse=1 WtCom= 1.00D+00 WtEn= 0.00D+00
 Coeff-Com: -0.155D-03 0.177D-03-0.205D-04-0.180D-03-0.307D-03-0.193D-03
 Coeff-Com: -0.864D-04 0.306D-02 0.841D-02-0.115D-01-0.103D-01-0.194D-02
 Coeff-Com:  0.550D-01 0.390D-01-0.143D+00-0.977D-01 0.207D+00 0.953D+00
 Coeff:     -0.155D-03 0.177D-03-0.205D-04-0.180D-03-0.307D-03-0.193D-03
 Coeff:     -0.864D-04 0.306D-02 0.841D-02-0.115D-01-0.103D-01-0.194D-02
 Coeff:      0.550D-01 0.390D-01-0.143D+00-0.977D-01 0.207D+00 0.953D+00
 Gap=     0.101 Goal=   None    Shift=    0.000
 RMSDP=5.48D-09 MaxDP=4.31D-07 DE=-5.05D-11 OVMax= 6.16D-07

 SCF Done:  E(ROHF) =  -184.928333992     A.U. after   18 cycles
            NFock= 18  Conv=0.55D-08     -V/T= 2.6263
 <Sx>= 0.0000 <Sy>= 0.0000 <Sz>= 1.0000 <S**2>= 2.0000 S= 1.0000
 <L.S>=  0.00000000000    
 KE= 1.137086379309D+02 PE=-5.150773274172D+02 EE= 1.807208937568D+02
 Annihilation of the first spin contaminant:
 S**2 before annihilation     2.0000,   after     2.0000
 Leave Link  502 at Mon Mar 26 17:01:05 2018, MaxMem= 10737418240 cpu:            2330.1 elap:              89.5
 (Enter /home1/apps/gaussian/16rA.03/g16/l801.exe)
 Windowed orbitals will be sorted by symmetry type.
 GenMOA:  NOpAll=  4 NOp2=4 NOpUse=  4 JSym2X=1
 FoFJK:  IHMeth= 1 ICntrl=       0 DoSepK=F KAlg= 0 I1Cent=           0 FoldK=F
 IRaf=         0 NMat=       1 IRICut=       1 DoRegI=T DoRafI=F ISym2E= 1 IDoP0=0 IntGTp=1.
 FoFCou: FMM=F IPFlag=           8 FMFlag=      100000 FMFlg1=           0
         NFxFlg=           0 DoJE=F BraDBF=F KetDBF=F FulRan=T
         wScrn=  0.000000 ICntrl=         0 IOpCl=  1 I1Cent=           0 NGrid=           0
         NMat0=    1 NMatS0=      1 NMatT0=    0 NMatD0=    1 NMtDS0=    0 NMtDT0=    0
 Petite list used in FoFCou.
 <Sx>= 0.0000 <Sy>= 0.0000 <Sz>= 1.0000 <S**2>= 2.0000 S= 1.0000
 Range of M.O.s used for correlation:     1   380
 NBasis=   384 NAE=    13 NBE=    11 NFC=     0 NFV=     0
 NROrb=    380 NOA=    13 NOB=    11 NVA=   367 NVB=   369

 **** Warning!!: The largest alpha MO coefficient is  0.27728861D+03


 **** Warning!!: The largest beta MO coefficient is  0.27727438D+03

 Singles contribution to E2=   -0.7991769290D-02
 Leave Link  801 at Mon Mar 26 17:01:26 2018, MaxMem= 10737418240 cpu:             662.0 elap:              20.7
 (Enter /home1/apps/gaussian/16rA.03/g16/l804.exe)
 Open-shell transformation, MDV= 10737418240 ITran=4 ISComp=2.
 Unit  1 TFree=       4464001 TCopy=       3213523.
 Semi-Direct transformation.
 ModeAB=           4 MOrb=            13 LenV=   10733122958
 LASXX=     88669000 LTotXX=    88669000 LenRXX=   178270504
 LTotAB=    89601504 MaxLAS=   594988420 LenRXY=           0
 NonZer=   266939504 LenScr=   401980416 LnRSAI=   594988420
 LnScr1=   895982592 LExtra=    31672711 Total=   2102894643
 MaxDsk= 67108864000 SrtSym=           T ITran=            4
 DoSDTr:  NPSUse= 32
 JobTyp=1 Pass  1:  I=   1 to  13.
 (rs|ai) integrals will be sorted in core.
 Complete sort for first half transformation.
 First half transformation complete.
 Begin second half transformation for I=  10.
 Complete sort for second half transformation.
 Second half transformation complete.
 ModeAB=           4 MOrb=            11 LenV=   10733122958
 LASXX=     75478405 LTotXX=    75478405 LenRXX=   146587383
 LTotAB=    71108978 MaxLAS=   503451740 LenRXY=           0
 NonZer=   222065788 LenScr=   334405632 LnRSAI=   503451740
 LnScr1=   758139904 LExtra=   209943215 Total=   1952527874
 MaxDsk= 67108864000 SrtSym=           T ITran=            4
 DoSDTr:  NPSUse= 32
 JobTyp=2 Pass  1:  I=   1 to  11.
 (rs|ai) integrals will be sorted in core.
 Complete sort for first half transformation.
 First half transformation complete.
 Begin second half transformation for I=  10.
 Complete sort for second half transformation.
 Second half transformation complete.
 Spin components of T(2) and E(2):
     alpha-alpha T2 =       0.3473381929D-01 E2=     -0.2005997687D+00
     alpha-beta  T2 =       0.1561452501D+00 E2=     -0.8743715358D+00
     beta-beta   T2 =       0.3427674526D-01 E2=     -0.1540176611D+00
 ANorm=    0.1108097905D+01
 E2 =    -0.1236980735D+01 EUMP2 =    -0.18616531472745D+03
 (S**2,0)=  0.20000D+01           (S**2,1)=  0.20000D+01
 E(PUHF)=      -0.18492833399D+03        E(PMP2)=      -0.18616531473D+03
 Leave Link  804 at Mon Mar 26 17:13:45 2018, MaxMem= 10737418240 cpu:           23629.6 elap:             739.0
 (Enter /home1/apps/gaussian/16rA.03/g16/l913.exe)
 CIDS:  MDV= 10737418240.
 IFCWin=0 IBDFC=1 NFBD=     0     0 NFCmp=     0     0 NFFFC=     0     0
 Using original routines for 1st iteration.
 Using DD4UQ or CC4UQ for 2nd and later iterations.
 Keep R2 and R3 ints in memory in symmetry-blocked form, NReq=3425137565.
 FoFCou: FMM=F IPFlag=           8 FMFlag=           0 FMFlg1=           0
         NFxFlg=           0 DoJE=F BraDBF=F KetDBF=F FulRan=T
         wScrn=  0.000000 ICntrl=       600 IOpCl=  0 I1Cent=           0 NGrid=           0
         NMat0=    1 NMatS0=  73920 NMatT0=    0 NMatD0=    1 NMtDS0=    0 NMtDT0=    0
 Petite list used in FoFCou.
 CIDS: In Core Option IDoMem=           1.
 CCSD(T)
 =======
 Iterations= 150 Convergence= 0.100D-06
 Produce multiple copies of IABC intergrals
 Iteration Nr.   1
 **********************
 DD1Dir will call FoFMem   1 times, MxPair=       420
 NAB=   143 NAA=    78 NBB=    55.
 DD1Dir will call FoFMem   1 times, MxPair=       420
 NAB=   143 NAA=    78 NBB=    55.
 MP4(R+Q)= -0.99480561D-01
 Maximum subspace dimension=  5
 A-vector RMS=  1.7594084D-04 Max=  1.9407529D-02 conv= 1.00D-05.
 RLE energy=       -1.2215238585
 E3=        0.11487084D+00        EROMP3=      -0.18605044388D+03
 E4(SDQ)=  -0.86864157D-01        ROMP4(SDQ)=  -0.18613730804D+03
 VARIATIONAL ENERGIES WITH THE FIRST-ORDER WAVEFUNCTION:
 DE(Corr)=  -1.2213259     E(Corr)=     -186.14965987    
 NORM(A)=   0.10999337D+01
 Iteration Nr.   2
 **********************
 DD1Dir will call FoFMem   1 times, MxPair=       420
 NAB=   143 NAA=    78 NBB=    55.
 A-vector RMS=  5.3913632D-03 Max=  9.3781497D-02 conv= 1.00D-05.
 RLE energy=       -1.1812281469
 DE(Corr)=  -1.1042195     E(CORR)=     -186.03255352     Delta= 1.17D-01
 NORM(A)=   0.10930235D+01
 Iteration Nr.   3
 **********************
 DD1Dir will call FoFMem   1 times, MxPair=       420
 NAB=   143 NAA=    78 NBB=    55.
 A-vector RMS=  2.7950531D-03 Max=  4.9299819D-02 conv= 1.00D-05.
 RLE energy=       -1.1937299010
 DE(Corr)=  -1.1342033     E(CORR)=     -186.06253728     Delta=-3.00D-02
 NORM(A)=   0.11001488D+01
 Iteration Nr.   4
 **********************
 DD1Dir will call FoFMem   1 times, MxPair=       420
 NAB=   143 NAA=    78 NBB=    55.
 A-vector RMS=  3.8886126D-03 Max=  7.0910106D-02 conv= 1.00D-05.
 RLE energy=       -0.0053018300
 DE(Corr)=  -1.1317675     E(CORR)=     -186.06010150     Delta= 2.44D-03
 NORM(A)=   0.51756444D+01
 Iteration Nr.   5
 **********************
 DD1Dir will call FoFMem   1 times, MxPair=       420
 NAB=   143 NAA=    78 NBB=    55.
 A-vector RMS=  1.1648219D-01 Max=  1.9078010D+00 conv= 1.00D-05.
 RLE energy=       -1.2660524620
 DE(Corr)=  -1.7993733     E(CORR)=     -186.72770727     Delta=-6.68D-01
 NORM(A)=   0.34142297D+01
 Iteration Nr.   6
 **********************
 DD1Dir will call FoFMem   1 times, MxPair=       420
 NAB=   143 NAA=    78 NBB=    55.
 A-vector RMS=  4.7676090D-02 Max=  9.7427599D-01 conv= 1.00D-05.
 RLE energy=       -1.1743929355
 DE(Corr)= -0.91994704     E(CORR)=     -185.84828103     Delta= 8.79D-01
 NORM(A)=   0.11466874D+01
 Iteration Nr.   7
 **********************
 DD1Dir will call FoFMem   1 times, MxPair=       420
 NAB=   143 NAA=    78 NBB=    55.
 A-vector RMS=  2.0561760D-03 Max=  3.2748571D-02 conv= 1.00D-05.
 RLE energy=       -1.1837421397
 DE(Corr)=  -1.1758759     E(CORR)=     -186.10420993     Delta=-2.56D-01
 NORM(A)=   0.11689649D+01
 Iteration Nr.   8
 **********************
 DD1Dir will call FoFMem   1 times, MxPair=       420
 NAB=   143 NAA=    78 NBB=    55.
 A-vector RMS=  1.2160486D-03 Max=  2.3314411D-02 conv= 1.00D-05.
 RLE energy=       -1.1912529517
 DE(Corr)=  -1.1795896     E(CORR)=     -186.10792356     Delta=-3.71D-03
 NORM(A)=   0.12204554D+01
 Iteration Nr.   9
 **********************
 DD1Dir will call FoFMem   1 times, MxPair=       420
 NAB=   143 NAA=    78 NBB=    55.
 A-vector RMS=  9.1140903D-04 Max=  1.6959824D-02 conv= 1.00D-05.
 RLE energy=       -1.1934436702
 DE(Corr)=  -1.1872436     E(CORR)=     -186.11557758     Delta=-7.65D-03
 NORM(A)=   0.12601203D+01
 Iteration Nr.  10
 **********************
 DD1Dir will call FoFMem   1 times, MxPair=       420
 NAB=   143 NAA=    78 NBB=    55.
 A-vector RMS=  5.4663614D-04 Max=  1.3742325D-02 conv= 1.00D-05.
 RLE energy=       -1.1983528440
 DE(Corr)=  -1.1949459     E(CORR)=     -186.12327994     Delta=-7.70D-03
 NORM(A)=   0.12810641D+01
 Iteration Nr.  11
 **********************
 DD1Dir will call FoFMem   1 times, MxPair=       420
 NAB=   143 NAA=    78 NBB=    55.
 A-vector RMS=  3.7255647D-04 Max=  7.0043278D-03 conv= 1.00D-05.
 RLE energy=       -1.1967233465
 DE(Corr)=  -1.1944394     E(CORR)=     -186.12277337     Delta= 5.07D-04
 NORM(A)=   0.12956324D+01
 Iteration Nr.  12
 **********************
 DD1Dir will call FoFMem   1 times, MxPair=       420
 NAB=   143 NAA=    78 NBB=    55.
 A-vector RMS=  3.6268240D-04 Max=  1.1376620D-02 conv= 1.00D-05.
 RLE energy=       -1.1984247510
 DE(Corr)=  -1.1990085     E(CORR)=     -186.12734254     Delta=-4.57D-03
 NORM(A)=   0.12965718D+01
 Iteration Nr.  13
 **********************
 DD1Dir will call FoFMem   1 times, MxPair=       420
 NAB=   143 NAA=    78 NBB=    55.
 A-vector RMS=  7.3501211D-05 Max=  3.1646316D-03 conv= 1.00D-05.
 RLE energy=       -1.1981041572
 DE(Corr)=  -1.1977459     E(CORR)=     -186.12607989     Delta= 1.26D-03
 NORM(A)=   0.12962936D+01
 Iteration Nr.  14
 **********************
 DD1Dir will call FoFMem   1 times, MxPair=       420
 NAB=   143 NAA=    78 NBB=    55.
 A-vector RMS=  8.4914505D-05 Max=  2.7330535D-03 conv= 1.00D-05.
 RLE energy=       -1.1982500787
 DE(Corr)=  -1.1983134     E(CORR)=     -186.12664739     Delta=-5.68D-04
 NORM(A)=   0.12965161D+01
 Iteration Nr.  15
 **********************
 DD1Dir will call FoFMem   1 times, MxPair=       420
 NAB=   143 NAA=    78 NBB=    55.
 A-vector RMS=  5.3003425D-05 Max=  1.2877432D-03 conv= 1.00D-05.
 RLE energy=       -1.1983601937
 DE(Corr)=  -1.1983201     E(CORR)=     -186.12665406     Delta=-6.67D-06
 NORM(A)=   0.12965791D+01
 Iteration Nr.  16
 **********************
 DD1Dir will call FoFMem   1 times, MxPair=       420
 NAB=   143 NAA=    78 NBB=    55.
 A-vector RMS=  2.5912657D-05 Max=  7.0586288D-04 conv= 1.00D-05.
 RLE energy=       -1.1985352632
 DE(Corr)=  -1.1984312     E(CORR)=     -186.12676516     Delta=-1.11D-04
 NORM(A)=   0.12964832D+01
 Iteration Nr.  17
 **********************
 DD1Dir will call FoFMem   1 times, MxPair=       420
 NAB=   143 NAA=    78 NBB=    55.
 A-vector RMS=  3.5733680D-05 Max=  6.3667703D-04 conv= 1.00D-05.
 RLE energy=       -1.1983444530
 DE(Corr)=  -1.1983305     E(CORR)=     -186.12666451     Delta= 1.01D-04
 NORM(A)=   0.12967787D+01
 Iteration Nr.  18
 **********************
 DD1Dir will call FoFMem   1 times, MxPair=       420
 NAB=   143 NAA=    78 NBB=    55.
 A-vector RMS=  2.8246078D-05 Max=  6.3145693D-04 conv= 1.00D-05.
 RLE energy=       -1.1985266539
 DE(Corr)=  -1.1986200     E(CORR)=     -186.12695398     Delta=-2.89D-04
 NORM(A)=   0.12966077D+01
 Iteration Nr.  19
 **********************
 DD1Dir will call FoFMem   1 times, MxPair=       420
 NAB=   143 NAA=    78 NBB=    55.
 A-vector RMS=  1.3674866D-05 Max=  4.1297774D-04 conv= 1.00D-05.
 RLE energy=       -1.1984750304
 DE(Corr)=  -1.1984208     E(CORR)=     -186.12675484     Delta= 1.99D-04
 NORM(A)=   0.12966384D+01
 Iteration Nr.  20
 **********************
 DD1Dir will call FoFMem   1 times, MxPair=       420
 NAB=   143 NAA=    78 NBB=    55.
 A-vector RMS=  5.0217375D-06 Max=  1.7433815D-04 conv= 1.00D-05.
 RLE energy=       -1.1984776201
 DE(Corr)=  -1.1984927     E(CORR)=     -186.12682672     Delta=-7.19D-05
 NORM(A)=   0.12966147D+01
 Iteration Nr.  21
 **********************
 DD1Dir will call FoFMem   1 times, MxPair=       420
 NAB=   143 NAA=    78 NBB=    55.
 A-vector RMS=  5.4288388D-06 Max=  1.4031369D-04 conv= 1.00D-05.
 RLE energy=       -1.1984765422
 DE(Corr)=  -1.1984815     E(CORR)=     -186.12681546     Delta= 1.13D-05
 NORM(A)=   0.12965924D+01
 Iteration Nr.  22
 **********************
 DD1Dir will call FoFMem   1 times, MxPair=       420
 NAB=   143 NAA=    78 NBB=    55.
 A-vector RMS=  3.9784469D-06 Max=  1.0276625D-04 conv= 1.00D-05.
 RLE energy=       -1.1984816393
 DE(Corr)=  -1.1984858     E(CORR)=     -186.12681975     Delta=-4.28D-06
 NORM(A)=   0.12965607D+01
 Iteration Nr.  23
 **********************
 DD1Dir will call FoFMem   1 times, MxPair=       420
 NAB=   143 NAA=    78 NBB=    55.
 A-vector RMS=  2.6185995D-06 Max=  7.8444161D-05 conv= 1.00D-05.
 RLE energy=       -1.1984599340
 DE(Corr)=  -1.1984710     E(CORR)=     -186.12680499     Delta= 1.48D-05
 NORM(A)=   0.12965528D+01
 Iteration Nr.  24
 **********************
 DD1Dir will call FoFMem   1 times, MxPair=       420
 NAB=   143 NAA=    78 NBB=    55.
 A-vector RMS=  3.4328233D-06 Max=  7.1112215D-05 conv= 1.00D-05.
 RLE energy=       -1.1984840600
 DE(Corr)=  -1.1984878     E(CORR)=     -186.12682179     Delta=-1.68D-05
 NORM(A)=   0.12965118D+01
 Iteration Nr.  25
 **********************
 DD1Dir will call FoFMem   1 times, MxPair=       420
 NAB=   143 NAA=    78 NBB=    55.
 A-vector RMS=  3.4363935D-06 Max=  1.0274454D-04 conv= 1.00D-05.
 RLE energy=       -1.1984657028
 DE(Corr)=  -1.1984549     E(CORR)=     -186.12678888     Delta= 3.29D-05
 NORM(A)=   0.12965167D+01
 Iteration Nr.  26
 **********************
 DD1Dir will call FoFMem   1 times, MxPair=       420
 NAB=   143 NAA=    78 NBB=    55.
 A-vector RMS=  1.5415399D-06 Max=  3.4496666D-05 conv= 1.00D-05.
 RLE energy=       -1.1984663524
 DE(Corr)=  -1.1984723     E(CORR)=     -186.12680631     Delta=-1.74D-05
 NORM(A)=   0.12965085D+01
 Iteration Nr.  27
 **********************
 DD1Dir will call FoFMem   1 times, MxPair=       420
 NAB=   143 NAA=    78 NBB=    55.
 A-vector RMS=  9.5821187D-07 Max=  2.7901215D-05 conv= 1.00D-05.
 RLE energy=       -1.1984659801
 DE(Corr)=  -1.1984671     E(CORR)=     -186.12680110     Delta= 5.21D-06
 NORM(A)=   0.12965093D+01
 Iteration Nr.  28
 **********************
 DD1Dir will call FoFMem   1 times, MxPair=       420
 NAB=   143 NAA=    78 NBB=    55.
 A-vector RMS=  7.2253334D-07 Max=  1.7574006D-05 conv= 1.00D-05.
 RLE energy=       -1.1984674201
 DE(Corr)=  -1.1984680     E(CORR)=     -186.12680195     Delta=-8.58D-07
 NORM(A)=   0.12965096D+01
 Iteration Nr.  29
 **********************
 DD1Dir will call FoFMem   1 times, MxPair=       420
 NAB=   143 NAA=    78 NBB=    55.
 A-vector RMS=  6.0353533D-07 Max=  1.3942091D-05 conv= 1.00D-05.
 RLE energy=       -1.1984646372
 DE(Corr)=  -1.1984650     E(CORR)=     -186.12679904     Delta= 2.92D-06
 NORM(A)=   0.12965157D+01
 Iteration Nr.  30
 **********************
 DD1Dir will call FoFMem   1 times, MxPair=       420
 NAB=   143 NAA=    78 NBB=    55.
 A-vector RMS=  3.3403344D-07 Max=  6.3737576D-06 conv= 1.00D-05.
 RLE energy=       -1.1984682246
 DE(Corr)=  -1.1984684     E(CORR)=     -186.12680237     Delta=-3.33D-06
 NORM(A)=   0.12965184D+01
 Iteration Nr.  31
 **********************
 DD1Dir will call FoFMem   1 times, MxPair=       420
 NAB=   143 NAA=    78 NBB=    55.
 A-vector RMS=  4.3192778D-07 Max=  9.8191394D-06 conv= 1.00D-05.
 RLE energy=       -1.1984660779
 DE(Corr)=  -1.1984651     E(CORR)=     -186.12679911     Delta= 3.25D-06
 NORM(A)=   0.12965239D+01
 Iteration Nr.  32
 **********************
 DD1Dir will call FoFMem   1 times, MxPair=       420
 NAB=   143 NAA=    78 NBB=    55.
 A-vector RMS=  2.8380582D-07 Max=  6.3668138D-06 conv= 1.00D-05.
 RLE energy=       -1.1984673573
 DE(Corr)=  -1.1984682     E(CORR)=     -186.12680217     Delta=-3.05D-06
 NORM(A)=   0.12965275D+01
 Iteration Nr.  33
 **********************
 DD1Dir will call FoFMem   1 times, MxPair=       420
 NAB=   143 NAA=    78 NBB=    55.
 A-vector RMS=  1.7330801D-07 Max=  4.7936148D-06 conv= 1.00D-05.
 RLE energy=       -1.1984676418
 DE(Corr)=  -1.1984673     E(CORR)=     -186.12680132     Delta= 8.48D-07
 NORM(A)=   0.12965311D+01
 Iteration Nr.  34
 **********************
 DD1Dir will call FoFMem   1 times, MxPair=       420
 NAB=   143 NAA=    78 NBB=    55.
 A-vector RMS=  1.5359805D-07 Max=  4.0274728D-06 conv= 1.00D-05.
 RLE energy=       -1.1984681777
 DE(Corr)=  -1.1984679     E(CORR)=     -186.12680194     Delta=-6.16D-07
 NORM(A)=   0.12965332D+01
 Iteration Nr.  35
 **********************
 DD1Dir will call FoFMem   1 times, MxPair=       420
 NAB=   143 NAA=    78 NBB=    55.
 A-vector RMS=  1.1000989D-07 Max=  2.9406662D-06 conv= 1.00D-05.
 RLE energy=       -1.1984679985
 DE(Corr)=  -1.1984677     E(CORR)=     -186.12680171     Delta= 2.25D-07
 NORM(A)=   0.12965357D+01
 Iteration Nr.  36
 **********************
 DD1Dir will call FoFMem   1 times, MxPair=       420
 NAB=   143 NAA=    78 NBB=    55.
 A-vector RMS=  7.8526327D-08 Max=  2.4928109D-06 conv= 1.00D-05.
 RLE energy=       -1.1984686305
 DE(Corr)=  -1.1984684     E(CORR)=     -186.12680240     Delta=-6.84D-07
 NORM(A)=   0.12965370D+01
 Iteration Nr.  37
 **********************
 DD1Dir will call FoFMem   1 times, MxPair=       420
 NAB=   143 NAA=    78 NBB=    55.
 A-vector RMS=  7.1953547D-08 Max=  1.7539193D-06 conv= 1.00D-05.
 RLE energy=       -1.1984683358
 DE(Corr)=  -1.1984682     E(CORR)=     -186.12680215     Delta= 2.47D-07
 NORM(A)=   0.12965392D+01
 Iteration Nr.  38
 **********************
 DD1Dir will call FoFMem   1 times, MxPair=       420
 NAB=   143 NAA=    78 NBB=    55.
 A-vector RMS=  9.7017083D-08 Max=  2.7893280D-06 conv= 1.00D-05.
 RLE energy=       -1.1984687347
 DE(Corr)=  -1.1984690     E(CORR)=     -186.12680295     Delta=-8.05D-07
 NORM(A)=   0.12965395D+01
 Iteration Nr.  39
 **********************
 DD1Dir will call FoFMem   1 times, MxPair=       420
 NAB=   143 NAA=    78 NBB=    55.
 A-vector RMS=  4.0651944D-08 Max=  9.4833810D-07 conv= 1.00D-05.
 RLE energy=       -1.1984687733
 DE(Corr)=  -1.1984687     E(CORR)=     -186.12680265     Delta= 3.00D-07
 NORM(A)=   0.12965398D+01
 Iteration Nr.  40
 **********************
 DD1Dir will call FoFMem   1 times, MxPair=       420
 NAB=   143 NAA=    78 NBB=    55.
 A-vector RMS=  3.9788115D-08 Max=  1.2048525D-06 conv= 1.00D-05.
 RLE energy=       -1.1984688569
 DE(Corr)=  -1.1984688     E(CORR)=     -186.12680280     Delta=-1.47D-07
 NORM(A)=   0.12965397D+01
 Iteration Nr.  41
 **********************
 DD1Dir will call FoFMem   1 times, MxPair=       420
 NAB=   143 NAA=    78 NBB=    55.
 A-vector RMS=  2.5534807D-08 Max=  8.1188851D-07 conv= 1.00D-05.
 RLE energy=       -1.1984686911
 DE(Corr)=  -1.1984687     E(CORR)=     -186.12680269     Delta= 1.13D-07
 NORM(A)=   0.12965395D+01
 Iteration Nr.  42
 **********************
 DD1Dir will call FoFMem   1 times, MxPair=       420
 NAB=   143 NAA=    78 NBB=    55.
 A-vector RMS=  3.5725849D-08 Max=  6.6070773D-07 conv= 1.00D-05.
 RLE energy=       -1.1984688118
 DE(Corr)=  -1.1984689     E(CORR)=     -186.12680285     Delta=-1.61D-07
 NORM(A)=   0.12965393D+01
 Iteration Nr.  43
 **********************
 DD1Dir will call FoFMem   1 times, MxPair=       420
 NAB=   143 NAA=    78 NBB=    55.
 A-vector RMS=  1.1059703D-08 Max=  2.2093474D-07 conv= 1.00D-05.
 RLE energy=       -1.1984686666
 DE(Corr)=  -1.1984687     E(CORR)=     -186.12680270     Delta= 1.48D-07
 NORM(A)=   0.12965387D+01
 Iteration Nr.  44
 **********************
 DD1Dir will call FoFMem   1 times, MxPair=       420
 NAB=   143 NAA=    78 NBB=    55.
 A-vector RMS=  2.3375739D-08 Max=  4.7784296D-07 conv= 1.00D-05.
 RLE energy=       -1.1984687275
 DE(Corr)=  -1.1984687     E(CORR)=     -186.12680273     Delta=-2.37D-08
 NORM(A)=   0.12965386D+01
 CI/CC converged in   44 iterations to DelEn=-2.37D-08 Conv= 1.00D-07 ErrA1= 2.34D-08 Conv= 1.00D-05
 Wavefunction amplitudes converged. E(Corr)=     -186.12680273    
 Dominant configurations:
 ***********************
 Spin Case        I    J    A    B          Value
    BB            6        12           -0.101228D+00
    BB           11        12            0.121516D+00
    BB           10        17            0.101580D+00
    BB           10        27            0.263401D+00
    BB           10        35           -0.265523D+00
    BB            9        18            0.101580D+00
    BB            9        26            0.263401D+00
    BB            9        34           -0.265523D+00
 Largest amplitude= 2.66D-01
 Time for triples=   178001.59 seconds.
 T4(CCSD)= -0.10558136D+00
 T5(CCSD)=  0.41775593D-01
 CCSD(T)= -0.18619060849D+03
 Discarding MO integrals.
 Leave Link  913 at Mon Mar 26 19:36:29 2018, MaxMem= 10737418240 cpu:          272470.3 elap:            8563.3
 (Enter /home1/apps/gaussian/16rA.03/g16/l601.exe)
 Copying SCF densities to generalized density rwf, IOpCl= 0 IROHF=1.

 **********************************************************************

            Population analysis using the SCF density.

 **********************************************************************

 Orbital symmetries:
       Occupied  (SG) (PI) (PI) (SG) (SG) (SG) (DLTA) (DLTA) (PI)
                 (PI) (SG) (PI) (PI)
       Virtual   (SG) (PI) (PI) (SG) (SG) (PI) (PI) (SG) (DLTA)
                 (DLTA) (PI) (PI) (SG) (SG) (PI) (PI) (SG) (SG)
                 (PI) (PI) (DLTA) (DLTA) (PI) (PI) (SG) (SG) (SG)
                 (DLTA) (DLTA) (PI) (PI) (SG) (DLTA) (DLTA) (PI)
                 (PI) (SG) (PI) (PI) (PHI) (PHI) (SG) (DLTA) (DLTA)
                 (PI) (PI) (SG) (PI) (PI) (SG) (SG) (PHI) (PHI)
                 (DLTA) (DLTA) (DLTA) (DLTA) (PI) (PI) (SG) (PI)
                 (PI) (DLTA) (DLTA) (SG) (SG) (PI) (PI) (SG) (PI)
                 (PI) (PHI) (PHI) (DLTA) (DLTA) (PI) (PI) (SG)
                 (?A) (?A) (PHI) (PHI) (PI) (PI) (SG) (DLTA) (DLTA)
                 (SG) (PI) (PI) (?A) (?A) (SG) (PHI) (PHI) (SG)
                 (PHI) (PHI) (PI) (PI) (DLTA) (DLTA) (DLTA) (DLTA)
                 (SG) (SG) (DLTA) (DLTA) (DLTA) (DLTA) (PI) (PI)
                 (PI) (PI) (SG) (PI) (PI) (SG) (PI) (PI) (SG) (PHI)
                 (PHI) (DLTA) (DLTA) (PI) (PI) (SG) (?A) (?A) (PHI)
                 (PHI) (DLTA) (DLTA) (?A) (?A) (?B) (?B) (SG) (PHI)
                 (PHI) (PI) (PI) (DLTA) (DLTA) (PI) (PI) (SG) (SG)
                 (PI) (PI) (DLTA) (DLTA) (PI) (PI) (SG) (?A) (?A)
                 (SG) (PHI) (PHI) (DLTA) (DLTA) (PI) (PI) (SG)
                 (SG) (PHI) (PHI) (DLTA) (DLTA) (DLTA) (DLTA) (PI)
                 (PI) (SG) (PI) (PI) (PI) (PI) (SG) (SG) (PHI)
                 (PHI) (DLTA) (DLTA) (PI) (PI) (SG) (PHI) (PHI)
                 (?A) (?A) (DLTA) (DLTA) (PI) (PI) (SG) (DLTA)
                 (DLTA) (?A) (?A) (PI) (PI) (PHI) (PHI) (?B) (?B)
                 (SG) (DLTA) (DLTA) (PI) (PI) (SG) (SG) (PI) (PI)
                 (SG) (SG) (PI) (PI) (SG) (DLTA) (DLTA) (PI) (PI)
                 (SG) (PHI) (PHI) (DLTA) (DLTA) (PI) (PI) (SG)
                 (PHI) (PHI) (?A) (?A) (DLTA) (DLTA) (PI) (PI)
                 (SG) (SG) (DLTA) (DLTA) (PI) (PI) (SG) (?A) (?A)
                 (PHI) (PHI) (?B) (?B) (DLTA) (DLTA) (PI) (PI)
                 (SG) (PI) (PI) (SG) (SG) (DLTA) (DLTA) (PI) (PI)
                 (SG) (PI) (PI) (SG) (SG) (PI) (PI) (SG) (PHI)
                 (PHI) (DLTA) (DLTA) (PI) (PI) (SG) (SG) (DLTA)
                 (DLTA) (PI) (PI) (SG) (SG) (PI) (PI) (SG) (PI)
                 (PI) (SG) (SG) (DLTA) (DLTA) (PI) (PI) (SG) (DLTA)
                 (DLTA) (PI) (PI) (SG) (SG) (PI) (PI) (SG) (PI)
                 (PI) (SG) (SG) (SG) (DLTA) (DLTA) (PI) (PI) (SG)
                 (SG) (PI) (PI) (SG) (PI) (PI) (SG) (SG) (SG) (PI)
                 (PI) (SG) (DLTA) (DLTA) (PI) (PI) (SG) (SG) (SG)
                 (PI) (PI) (SG) (SG) (PI) (PI) (SG) (SG) (SG) (PI)
                 (PI) (SG) (SG) (SG) (PI) (PI) (SG) (SG) (SG) (PI)
                 (PI) (SG) (SG) (SG) (SG) (SG) (SG)
 The electronic state is 3-SG.
 Alpha  occ. eigenvalues --   -5.03513  -3.48663  -3.40051  -3.40051  -1.15314
 Alpha  occ. eigenvalues --   -0.79642  -0.79642  -0.72751  -0.70280  -0.70280
 Alpha  occ. eigenvalues --   -0.38090  -0.38090  -0.37642
 Alpha virt. eigenvalues --   -0.05337   0.01867   0.01867   0.01927   0.03890
 Alpha virt. eigenvalues --    0.06895   0.06895   0.07569   0.08015   0.08015
 Alpha virt. eigenvalues --    0.09193   0.09193   0.12867   0.14909   0.21850
 Alpha virt. eigenvalues --    0.21850   0.22277   0.23932   0.24918   0.24918
 Alpha virt. eigenvalues --    0.25593   0.25593   0.30082   0.30082   0.37088
 Alpha virt. eigenvalues --    0.48392   0.55483   0.59182   0.59182   0.62817
 Alpha virt. eigenvalues --    0.62817   0.65138   0.70715   0.70715   0.71400
 Alpha virt. eigenvalues --    0.71400   0.74122   0.79394   0.79394   0.83618
 Alpha virt. eigenvalues --    0.83618   0.93729   0.96030   0.96030   0.96711
 Alpha virt. eigenvalues --    0.96711   0.98448   1.15500   1.15500   1.39921
 Alpha virt. eigenvalues --    1.46820   1.48078   1.48078   1.68291   1.68291
 Alpha virt. eigenvalues --    1.72343   1.72343   1.72359   1.72359   1.73222
 Alpha virt. eigenvalues --    1.88755   1.88755   1.92489   1.92489   2.01002
 Alpha virt. eigenvalues --    2.11248   2.16300   2.16300   2.21141   2.25282
 Alpha virt. eigenvalues --    2.25282   2.52478   2.52478   2.54511   2.54511
 Alpha virt. eigenvalues --    2.77398   2.77398   2.77695   2.85754   2.85754
 Alpha virt. eigenvalues --    2.89047   2.89047   2.96440   2.96440   3.18650
 Alpha virt. eigenvalues --    3.23596   3.23596   3.57191   3.73500   3.73500
 Alpha virt. eigenvalues --    3.79421   3.79421   3.98315   4.00164   4.00164
 Alpha virt. eigenvalues --    4.14295   4.23091   4.23091   4.27806   4.27806
 Alpha virt. eigenvalues --    4.36886   4.36886   4.40073   4.40073   4.54302
 Alpha virt. eigenvalues --    4.62913   4.69449   4.69449   4.76348   4.76348
 Alpha virt. eigenvalues --    4.77864   4.77864   4.82922   4.82922   5.29245
 Alpha virt. eigenvalues --    5.54400   5.54400   5.88932   6.12794   6.12794
 Alpha virt. eigenvalues --    6.38497   6.58193   6.58193   6.65236   6.65236
 Alpha virt. eigenvalues --    7.02388   7.02388   7.61045   7.87881   7.87881
 Alpha virt. eigenvalues --    7.89833   7.89833   7.98827   7.98827   8.00387
 Alpha virt. eigenvalues --    8.00387   8.02314   8.02314   8.07887   8.09986
 Alpha virt. eigenvalues --    8.09986   8.21957   8.21957   8.56957   8.56957
 Alpha virt. eigenvalues --    8.84408   8.84408   8.85000   9.62815   9.82103
 Alpha virt. eigenvalues --    9.82103  10.42710  10.42710  10.45745  10.45745
 Alpha virt. eigenvalues --   10.64390  10.78936  10.78936  10.83228  10.85295
 Alpha virt. eigenvalues --   10.85295  11.02309  11.02309  11.28702  11.28702
 Alpha virt. eigenvalues --   11.42143  11.79890  12.02800  12.02800  12.17461
 Alpha virt. eigenvalues --   12.17461  12.71523  12.71523  12.77672  12.77672
 Alpha virt. eigenvalues --   12.94238  13.11048  13.11048  13.90218  13.90218
 Alpha virt. eigenvalues --   14.31497  14.63015  15.51844  15.51844  15.54705
 Alpha virt. eigenvalues --   15.54705  16.00207  16.00207  16.62200  18.84793
 Alpha virt. eigenvalues --   18.84793  18.87754  18.87754  18.94366  18.94366
 Alpha virt. eigenvalues --   19.06098  19.06098  19.18929  20.60448  20.60448
 Alpha virt. eigenvalues --   20.64428  20.64428  20.66070  20.66070  20.66941
 Alpha virt. eigenvalues --   20.66941  20.69912  20.69912  20.84288  20.85826
 Alpha virt. eigenvalues --   20.85826  21.23097  21.23097  21.23349  22.76508
 Alpha virt. eigenvalues --   27.43243  27.43243  27.84252  28.09785  28.52680
 Alpha virt. eigenvalues --   28.52680  29.72483  37.38830  37.38830  37.41920
 Alpha virt. eigenvalues --   37.41920  37.71210  39.54285  39.54285  39.54994
 Alpha virt. eigenvalues --   39.54994  39.87339  39.87339  40.18357  42.65995
 Alpha virt. eigenvalues --   42.65995  42.70290  42.70290  42.72951  42.72951
 Alpha virt. eigenvalues --   42.81002  42.81002  42.84785  44.66188  46.99797
 Alpha virt. eigenvalues --   46.99797  47.16964  47.16964  47.39458  47.49703
 Alpha virt. eigenvalues --   47.49703  47.49797  47.49797  47.56437  47.56437
 Alpha virt. eigenvalues --   47.59447  47.59447  47.82604  47.82604  48.43051
 Alpha virt. eigenvalues --   50.57521  50.57521  51.27221  57.68877  64.18670
 Alpha virt. eigenvalues --   64.18670  64.21335  64.21335  64.53333  70.61141
 Alpha virt. eigenvalues --   70.61141  71.51961  83.31283  92.40805  92.40805
 Alpha virt. eigenvalues --   93.17554 103.60403 103.60403 103.61068 103.61068
 Alpha virt. eigenvalues --  103.66516 103.66516 103.67588 108.86369 113.75107
 Alpha virt. eigenvalues --  113.75107 113.78059 113.78059 114.06060 152.23572
 Alpha virt. eigenvalues --  156.39183 156.39183 157.34927 171.25679 171.25679
 Alpha virt. eigenvalues --  172.05185 194.42620 210.39902 210.39902 210.51297
 Alpha virt. eigenvalues --  210.51297 210.85819 234.96900 234.96900 235.00767
 Alpha virt. eigenvalues --  235.00767 235.23207 286.26515 323.35310 323.35310
 Alpha virt. eigenvalues --  324.15628 328.14850 328.14850 328.88697 338.29251
 Alpha virt. eigenvalues --  553.43473 581.39009 581.39009 581.43093 581.43093
 Alpha virt. eigenvalues --  581.60587 587.29818 625.04917 625.04917 625.83484
 Alpha virt. eigenvalues --  696.61363 696.61363 697.294341059.691011098.54139
 Alpha virt. eigenvalues -- 1248.424201248.424201249.167041798.934361798.93436
 Alpha virt. eigenvalues -- 1798.966391798.966391799.077732227.401542244.60538
 Alpha virt. eigenvalues -- 2610.099762610.099762610.786334743.964455813.97146
 Alpha virt. eigenvalues -- 5813.971465814.589366103.60947********************
 Alpha virt. eigenvalues -- **************************************************
 Alpha virt. eigenvalues -- **************************************************
 Alpha virt. eigenvalues -- **************************************************
 Alpha virt. eigenvalues -- ********************
     Molecular Orbital Coefficients:
                           7         8         9        10        11
                           O         O         O         O         O
     Eigenvalues --    -0.79642  -0.72751  -0.70280  -0.70280  -0.38090
   1 1   Ni 1S          0.00000  -0.00000   0.00000   0.00000   0.00000
   2        2S          0.00000   0.00000   0.00000   0.00000  -0.00000
   3        3S          0.00000  -0.00000   0.00000   0.00000   0.00000
   4        4S          0.00000   0.00000   0.00000   0.00000  -0.00000
   5        5S          0.00000  -0.00000   0.00000   0.00000   0.00000
   6        6S          0.00000   0.00000   0.00000   0.00000  -0.00000
   7        7S          0.00000  -0.00000   0.00000   0.00000   0.00000
   8        8S          0.00000   0.00000   0.00000   0.00000  -0.00001
   9        9S          0.00000  -0.00000   0.00000   0.00000   0.00004
  10       10S          0.00000   0.00000   0.00000   0.00000  -0.00012
  11       11S          0.00000  -0.00000   0.00000   0.00000   0.00032
  12       12S          0.00000   0.00000   0.00000   0.00000  -0.00084
  13       13S          0.00000  -0.00000   0.00000   0.00000   0.00216
  14       14S          0.00000   0.00000   0.00000   0.00000  -0.00724
  15       15S          0.00000  -0.00000   0.00000   0.00000  -0.00545
  16       16S          0.00000   0.00000   0.00000   0.00000   0.28675
  17       17S          0.00000   0.00000   0.00000   0.00000  -0.02808
  18       18S          0.00000  -0.00000   0.00000   0.00000  -0.25855
  19       19S          0.00000   0.00000   0.00000   0.00000  -0.13879
  20       20S          0.00000  -0.00000   0.00000   0.00000   0.29729
  21       21S          0.00000  -0.00000   0.00000   0.00000   0.27845
  22       22S          0.00000  -0.00000   0.00000   0.00000   0.04063
  23       23S          0.00000  -0.00000   0.00000   0.00000  -0.22372
  24       24S          0.00000   0.00000   0.00000   0.00000   0.04596
  25       25S          0.00000   0.00000   0.00000   0.00000  -0.00034
  26       26PX         0.00000   0.00000  -0.00000   0.00000   0.00000
  27       26PY         0.00000   0.00000   0.00000  -0.00000   0.00000
  28       26PZ         0.00000  -0.00000   0.00000   0.00000   0.00000
  29       27PX         0.00000   0.00000   0.00000   0.00000   0.00000
  30       27PY         0.00000   0.00000   0.00000   0.00000   0.00000
  31       27PZ         0.00000   0.00000   0.00000   0.00000  -0.00000
  32       28PX         0.00000   0.00000  -0.00000   0.00000   0.00000
  33       28PY         0.00000   0.00000   0.00000  -0.00000   0.00000
  34       28PZ         0.00000  -0.00000   0.00000   0.00000   0.00000
  35       29PX         0.00000   0.00000   0.00000   0.00000   0.00000
  36       29PY         0.00000   0.00000   0.00000   0.00000   0.00000
  37       29PZ         0.00000   0.00000   0.00000   0.00000  -0.00000
  38       30PX         0.00000   0.00000  -0.00000   0.00000   0.00000
  39       30PY         0.00000   0.00000   0.00000  -0.00000   0.00000
  40       30PZ         0.00000  -0.00000   0.00000   0.00000   0.00000
  41       31PX         0.00000   0.00000   0.00001   0.00000   0.00000
  42       31PY         0.00000   0.00000   0.00000   0.00001   0.00000
  43       31PZ         0.00000   0.00000   0.00000   0.00000  -0.00001
  44       32PX         0.00000   0.00000  -0.00004   0.00000   0.00000
  45       32PY         0.00000   0.00000   0.00000  -0.00004   0.00000
  46       32PZ         0.00000  -0.00000   0.00000   0.00000   0.00004
  47       33PX         0.00000   0.00000   0.00013   0.00000   0.00000
  48       33PY         0.00000   0.00000   0.00000   0.00013   0.00000
  49       33PZ         0.00000   0.00000   0.00000   0.00000  -0.00013
  50       34PX         0.00000   0.00000  -0.00042   0.00000   0.00000
  51       34PY         0.00000   0.00000   0.00000  -0.00042   0.00000
  52       34PZ         0.00000  -0.00000   0.00000   0.00000   0.00044
  53       35PX         0.00000   0.00000   0.00130   0.00000   0.00000
  54       35PY         0.00000   0.00000   0.00000   0.00130   0.00000
  55       35PZ         0.00000   0.00000   0.00000   0.00000  -0.00139
  56       36PX         0.00000   0.00000  -0.00281   0.00000   0.00000
  57       36PY         0.00000   0.00000   0.00000  -0.00281   0.00000
  58       36PZ         0.00000   0.00000   0.00000   0.00000   0.00449
  59       37PX         0.00000   0.00000  -0.01808   0.00000   0.00000
  60       37PY         0.00000   0.00000   0.00000  -0.01808   0.00000
  61       37PZ         0.00000   0.00000   0.00000   0.00000   0.02591
  62       38PX         0.00000   0.00000  -0.02377   0.00000   0.00000
  63       38PY         0.00000   0.00000   0.00000  -0.02377   0.00000
  64       38PZ         0.00000   0.00000   0.00000   0.00000   0.04433
  65       39PX         0.00000   0.00000  -0.03582   0.00000   0.00000
  66       39PY         0.00000   0.00000   0.00000  -0.03582   0.00000
  67       39PZ         0.00000  -0.00000   0.00000   0.00000   0.04732
  68       40PX         0.00000   0.00000  -0.00104   0.00000   0.00000
  69       40PY         0.00000   0.00000   0.00000  -0.00104   0.00000
  70       40PZ         0.00000   0.00000   0.00000   0.00000  -0.00537
  71       41PX         0.00000   0.00000   0.05685   0.00000   0.00000
  72       41PY         0.00000   0.00000   0.00000   0.05685   0.00000
  73       41PZ         0.00000   0.00000   0.00000   0.00000  -0.06918
  74       42PX         0.00000   0.00000   0.06054   0.00000   0.00000
  75       42PY         0.00000   0.00000   0.00000   0.06054   0.00000
  76       42PZ         0.00000   0.00000   0.00000   0.00000  -0.02078
  77       43PX         0.00000   0.00000   0.00513   0.00000   0.00000
  78       43PY         0.00000   0.00000   0.00000   0.00513   0.00000
  79       43PZ         0.00000   0.00000   0.00000   0.00000   0.00472
  80       44PX         0.00000   0.00000   0.00528   0.00000   0.00000
  81       44PY         0.00000   0.00000   0.00000   0.00528   0.00000
  82       44PZ         0.00000  -0.00000   0.00000   0.00000  -0.00831
  83       45PX         0.00000   0.00000  -0.00351   0.00000   0.00000
  84       45PY         0.00000   0.00000   0.00000  -0.00351   0.00000
  85       45PZ         0.00000  -0.00000   0.00000   0.00000  -0.00703
  86       46PX         0.00000   0.00000  -0.00134   0.00000   0.00000
  87       46PY         0.00000   0.00000   0.00000  -0.00134   0.00000
  88       46PZ         0.00000  -0.00000   0.00000   0.00000  -0.00137
  89       47D 0        0.00000   0.00000   0.00000   0.00000   0.00000
  90       47D+1        0.00000   0.00000   0.00000   0.00000   0.00000
  91       47D-1        0.00000   0.00000   0.00000   0.00000   0.00000
  92       47D+2        0.00000  -0.00001   0.00000   0.00000   0.00000
  93       47D-2       -0.00001   0.00000   0.00000   0.00000   0.00000
  94       48D 0        0.00000  -0.00000   0.00000   0.00000  -0.00002
  95       48D+1        0.00000   0.00000  -0.00002   0.00000   0.00000
  96       48D-1        0.00000   0.00000   0.00000  -0.00002   0.00000
  97       48D+2        0.00000   0.00009   0.00000   0.00000   0.00000
  98       48D-2        0.00009   0.00000   0.00000   0.00000   0.00000
  99       49D 0        0.00000   0.00000   0.00000   0.00000   0.00012
 100       49D+1        0.00000   0.00000   0.00011   0.00000   0.00000
 101       49D-1        0.00000   0.00000   0.00000   0.00011   0.00000
 102       49D+2        0.00000  -0.00057   0.00000   0.00000   0.00000
 103       49D-2       -0.00057   0.00000   0.00000   0.00000   0.00000
 104       50D 0        0.00000  -0.00000   0.00000   0.00000  -0.00221
 105       50D+1        0.00000   0.00000  -0.00197   0.00000   0.00000
 106       50D-1        0.00000   0.00000   0.00000  -0.00197   0.00000
 107       50D+2        0.00000   0.01022   0.00000   0.00000  -0.00000
 108       50D-2        0.01022   0.00000   0.00000   0.00000   0.00000
 109       51D 0        0.00000  -0.00000   0.00000   0.00000  -0.03084
 110       51D+1        0.00000   0.00000  -0.02633   0.00000   0.00000
 111       51D-1        0.00000   0.00000   0.00000  -0.02633   0.00000
 112       51D+2        0.00000   0.13955   0.00000   0.00000   0.00000
 113       51D-2        0.13955   0.00000   0.00000   0.00000   0.00000
 114       52D 0        0.00000   0.00000   0.00000   0.00000  -0.06385
 115       52D+1        0.00000   0.00000  -0.05136   0.00000   0.00000
 116       52D-1        0.00000   0.00000   0.00000  -0.05136   0.00000
 117       52D+2        0.00000   0.27664   0.00000   0.00000   0.00000
 118       52D-2        0.27664   0.00000   0.00000   0.00000   0.00000
 119       53D 0        0.00000  -0.00000   0.00000   0.00000  -0.07141
 120       53D+1        0.00000   0.00000  -0.05964   0.00000   0.00000
 121       53D-1        0.00000   0.00000   0.00000  -0.05964   0.00000
 122       53D+2        0.00000   0.31267   0.00000   0.00000   0.00000
 123       53D-2        0.31267   0.00000   0.00000   0.00000   0.00000
 124       54D 0        0.00000  -0.00000   0.00000   0.00000  -0.06078
 125       54D+1        0.00000   0.00000  -0.06040   0.00000   0.00000
 126       54D-1        0.00000   0.00000   0.00000  -0.06040   0.00000
 127       54D+2        0.00000   0.29376   0.00000   0.00000   0.00000
 128       54D-2        0.29376   0.00000   0.00000   0.00000   0.00000
 129       55D 0        0.00000  -0.00000   0.00000   0.00000  -0.03177
 130       55D+1        0.00000   0.00000  -0.05882   0.00000   0.00000
 131       55D-1        0.00000   0.00000   0.00000  -0.05882   0.00000
 132       55D+2        0.00000   0.20749   0.00000   0.00000   0.00000
 133       55D-2        0.20749   0.00000   0.00000   0.00000   0.00000
 134       56D 0        0.00000  -0.00000   0.00000   0.00000  -0.00280
 135       56D+1        0.00000   0.00000  -0.03059   0.00000   0.00000
 136       56D-1        0.00000   0.00000   0.00000  -0.03059   0.00000
 137       56D+2        0.00000   0.07884   0.00000   0.00000   0.00000
 138       56D-2        0.07884   0.00000   0.00000   0.00000   0.00000
 139       57D 0        0.00000   0.00000   0.00000   0.00000  -0.00968
 140       57D+1        0.00000   0.00000  -0.00852   0.00000   0.00000
 141       57D-1        0.00000   0.00000   0.00000  -0.00852   0.00000
 142       57D+2        0.00000   0.00633   0.00000   0.00000   0.00000
 143       57D-2        0.00633   0.00000   0.00000   0.00000   0.00000
 144       58D 0        0.00000  -0.00000   0.00000   0.00000  -0.00389
 145       58D+1        0.00000   0.00000  -0.00554   0.00000   0.00000
 146       58D-1        0.00000   0.00000   0.00000  -0.00554   0.00000
 147       58D+2        0.00000   0.02317   0.00000   0.00000   0.00000
 148       58D-2        0.02317   0.00000   0.00000   0.00000   0.00000
 149       59D 0        0.00000  -0.00000   0.00000   0.00000   0.00817
 150       59D+1        0.00000   0.00000   0.00122   0.00000   0.00000
 151       59D-1        0.00000   0.00000   0.00000   0.00122   0.00000
 152       59D+2        0.00000  -0.01798   0.00000   0.00000   0.00000
 153       59D-2       -0.01798   0.00000   0.00000   0.00000   0.00000
 154       60D 0        0.00000   0.00000   0.00000   0.00000   0.00176
 155       60D+1        0.00000   0.00000   0.00201   0.00000   0.00000
 156       60D-1        0.00000   0.00000   0.00000   0.00201   0.00000
 157       60D+2        0.00000  -0.00016   0.00000   0.00000   0.00000
 158       60D-2       -0.00016   0.00000   0.00000   0.00000   0.00000
 159       61F 0        0.00000  -0.00000   0.00000   0.00000  -0.00023
 160       61F+1        0.00000   0.00000   0.00009   0.00000   0.00000
 161       61F-1        0.00000   0.00000   0.00000   0.00009   0.00000
 162       61F+2        0.00000   0.00034   0.00000   0.00000  -0.00000
 163       61F-2        0.00034   0.00000   0.00000   0.00000   0.00000
 164       61F+3        0.00000   0.00000   0.00000   0.00000   0.00000
 165       61F-3        0.00000   0.00000   0.00000   0.00000   0.00000
 166       62F 0        0.00000  -0.00000   0.00000   0.00000  -0.00063
 167       62F+1        0.00000   0.00000   0.00043   0.00000   0.00000
 168       62F-1        0.00000   0.00000   0.00000   0.00043   0.00000
 169       62F+2        0.00000   0.00086   0.00000   0.00000   0.00000
 170       62F-2        0.00086   0.00000   0.00000   0.00000   0.00000
 171       62F+3        0.00000   0.00000  -0.00000   0.00000   0.00000
 172       62F-3        0.00000   0.00000   0.00000  -0.00000   0.00000
 173       63F 0        0.00000   0.00000   0.00000   0.00000  -0.00223
 174       63F+1        0.00000   0.00000   0.00084   0.00000   0.00000
 175       63F-1        0.00000   0.00000   0.00000   0.00084   0.00000
 176       63F+2        0.00000   0.00245   0.00000   0.00000  -0.00000
[...]
 165       61F-3       -0.00000  -0.00000  -0.00000   0.00000
 166       62F 0        0.00008   0.00004   0.00004   0.00000
 167       62F+1        0.00001   0.00001   0.00000   0.00001
 168       62F-1        0.00001   0.00001   0.00000   0.00001
 169       62F+2        0.00001   0.00000   0.00000  -0.00000
 170       62F-2        0.00001   0.00000   0.00000  -0.00000
 171       62F+3        0.00000   0.00000  -0.00000   0.00000
 172       62F-3       -0.00000  -0.00000  -0.00000  -0.00000
 173       63F 0        0.00033   0.00016   0.00016   0.00000
 174       63F+1        0.00011   0.00008   0.00002   0.00006
 175       63F-1        0.00011   0.00008   0.00002   0.00006
 176       63F+2        0.00004   0.00002   0.00002  -0.00000
 177       63F-2        0.00004   0.00002   0.00002  -0.00000
 178       63F+3       -0.00000  -0.00000  -0.00000  -0.00000
 179       63F-3       -0.00000  -0.00000   0.00000  -0.00000
 180       64F 0        0.00368   0.00184   0.00184   0.00000
 181       64F+1        0.00349   0.00214   0.00135   0.00080
 182       64F-1        0.00349   0.00214   0.00135   0.00080
 183       64F+2        0.00022   0.00011   0.00011  -0.00000
 184       64F-2        0.00022   0.00011   0.00011  -0.00000
 185       64F+3       -0.00000  -0.00000  -0.00000  -0.00000
 186       64F-3        0.00000   0.00000   0.00000   0.00000
 187       65F 0        0.00161   0.00081   0.00081  -0.00000
 188       65F+1        0.00604   0.00373   0.00231   0.00142
 189       65F-1        0.00604   0.00373   0.00231   0.00142
 190       65F+2        0.00017   0.00008   0.00008  -0.00000
 191       65F-2        0.00017   0.00008   0.00008  -0.00000
 192       65F+3       -0.00000  -0.00000  -0.00000  -0.00000
 193       65F-3       -0.00000  -0.00000   0.00000  -0.00000
 194       66G 0        0.00000   0.00000   0.00000  -0.00000
 195       66G+1        0.00000   0.00000   0.00000   0.00000
 196       66G-1        0.00000   0.00000   0.00000   0.00000
 197       66G+2        0.00000   0.00000   0.00000  -0.00000
 198       66G-2        0.00000   0.00000   0.00000  -0.00000
 199       66G+3       -0.00000  -0.00000   0.00000  -0.00000
 200       66G-3        0.00000   0.00000   0.00000   0.00000
 201       66G+4       -0.00000  -0.00000   0.00000  -0.00000
 202       66G-4       -0.00000  -0.00000  -0.00000   0.00000
 203       67G 0        0.00001   0.00000   0.00000  -0.00000
 204       67G+1        0.00000   0.00000   0.00000   0.00000
 205       67G-1        0.00000   0.00000   0.00000   0.00000
 206       67G+2        0.00000   0.00000   0.00000  -0.00000
 207       67G-2        0.00000   0.00000   0.00000   0.00000
 208       67G+3        0.00000   0.00000   0.00000   0.00000
 209       67G-3        0.00000   0.00000  -0.00000   0.00000
 210       67G+4        0.00000   0.00000   0.00000  -0.00000
 211       67G-4       -0.00000  -0.00000  -0.00000   0.00000
 212       68G 0        0.00012   0.00006   0.00006  -0.00000
 213       68G+1        0.00006   0.00003   0.00003  -0.00001
 214       68G-1        0.00006   0.00003   0.00003  -0.00001
 215       68G+2        0.00000   0.00000   0.00000   0.00000
 216       68G-2        0.00000   0.00000   0.00000   0.00000
 217       68G+3       -0.00000  -0.00000  -0.00000  -0.00000
 218       68G-3       -0.00000  -0.00000  -0.00000  -0.00000
 219       68G+4       -0.00000  -0.00000  -0.00000  -0.00000
 220       68G-4        0.00000   0.00000   0.00000  -0.00000
 221       69G 0        0.00069   0.00034   0.00034   0.00000
 222       69G+1        0.00101   0.00049   0.00052  -0.00003
 223       69G-1        0.00101   0.00049   0.00052  -0.00003
 224       69G+2        0.00000   0.00000   0.00000  -0.00000
 225       69G-2        0.00000   0.00000   0.00000  -0.00000
 226       69G+3        0.00000  -0.00000   0.00000  -0.00000
 227       69G-3        0.00000   0.00000  -0.00000   0.00000
 228       69G+4        0.00000   0.00000   0.00000  -0.00000
 229       69G-4       -0.00000  -0.00000  -0.00000   0.00000
 230       70H 0        0.00000   0.00000   0.00000  -0.00000
 231       70H+1        0.00000   0.00000   0.00000   0.00000
 232       70H-1        0.00000   0.00000   0.00000   0.00000
 233       70H+2       -0.00000  -0.00000  -0.00000   0.00000
 234       70H-2       -0.00000  -0.00000  -0.00000   0.00000
 235       70H+3       -0.00000  -0.00000  -0.00000   0.00000
 236       70H-3       -0.00000  -0.00000  -0.00000  -0.00000
 237       70H+4        0.00000   0.00000   0.00000   0.00000
 238       70H-4        0.00000   0.00000   0.00000  -0.00000
 239       70H+5        0.00000   0.00000   0.00000  -0.00000
 240       70H-5        0.00000   0.00000  -0.00000   0.00000
 241       71H 0       -0.00000  -0.00000  -0.00000   0.00000
 242       71H+1       -0.00000  -0.00000  -0.00000   0.00000
 243       71H-1       -0.00000  -0.00000  -0.00000   0.00000
 244       71H+2       -0.00000  -0.00000  -0.00000   0.00000
 245       71H-2       -0.00000  -0.00000  -0.00000   0.00000
 246       71H+3        0.00000  -0.00000   0.00000  -0.00000
 247       71H-3        0.00000   0.00000   0.00000  -0.00000
 248       71H+4        0.00000   0.00000   0.00000  -0.00000
 249       71H-4       -0.00000  -0.00000  -0.00000   0.00000
 250       71H+5        0.00000   0.00000  -0.00000   0.00000
 251       71H-5       -0.00000  -0.00000   0.00000  -0.00000
 252       72H 0        0.00007   0.00003   0.00003  -0.00000
 253       72H+1        0.00004   0.00002   0.00002  -0.00000
 254       72H-1        0.00004   0.00002   0.00002  -0.00000
 255       72H+2        0.00000   0.00000   0.00000   0.00000
 256       72H-2        0.00000   0.00000   0.00000  -0.00000
 257       72H+3        0.00000   0.00000   0.00000  -0.00000
 258       72H-3       -0.00000  -0.00000   0.00000  -0.00000
 259       72H+4        0.00000   0.00000   0.00000   0.00000
 260       72H-4        0.00000   0.00000   0.00000  -0.00000
 261       72H+5       -0.00000  -0.00000  -0.00000  -0.00000
 262       72H-5        0.00000  -0.00000   0.00000  -0.00000
 263 2   O  1S         -0.00000  -0.00000  -0.00000   0.00000
 264        2S          0.00000   0.00000   0.00000   0.00000
 265        3S         -0.00000  -0.00000  -0.00000   0.00000
 266        4S          0.00000   0.00000   0.00000   0.00000
 267        5S         -0.00001  -0.00000  -0.00000  -0.00000
 268        6S         -0.00036  -0.00018  -0.00018   0.00000
 269        7S         -0.00495  -0.00248  -0.00248   0.00000
 270        8S         -0.05085  -0.02542  -0.02542   0.00000
 271        9S         -0.08834  -0.04417  -0.04417   0.00000
 272       10S          0.42165   0.21082   0.21082  -0.00000
 273       11S          1.06062   0.53031   0.53031   0.00000
 274       12S          0.54723   0.27362   0.27362   0.00000
 275       13S          0.04200   0.02100   0.02100  -0.00000
 276       14S          0.00264   0.00132   0.00132  -0.00000
 277       15S          0.00014   0.00007   0.00007  -0.00000
 278       16S          0.03128   0.01564   0.01564  -0.00000
 279       17PX        -0.00011  -0.00006  -0.00005  -0.00000
 280       17PY        -0.00011  -0.00006  -0.00005  -0.00000
 281       17PZ        -0.00011  -0.00005  -0.00005  -0.00000
 282       18PX        -0.21496  -0.11120  -0.10376  -0.00745
 283       18PY        -0.21496  -0.11120  -0.10376  -0.00745
 284       18PZ        -0.18464  -0.09232  -0.09232   0.00000
 285       19PX         0.13913   0.07210   0.06704   0.00506
 286       19PY         0.13913   0.07210   0.06704   0.00506
 287       19PZ         0.11188   0.05594   0.05594  -0.00000
 288       20PX         0.46272   0.23922   0.22349   0.01573
 289       20PY         0.46272   0.23922   0.22349   0.01573
 290       20PZ         0.38611   0.19305   0.19305   0.00000
 291       21PX         0.69427   0.35644   0.33782   0.01862
 292       21PY         0.69427   0.35644   0.33782   0.01862
 293       21PZ         0.56766   0.28383   0.28383  -0.00000
 294       22PX         0.43059   0.22119   0.20940   0.01179
 295       22PY         0.43059   0.22119   0.20940   0.01179
 296       22PZ         0.32262   0.16131   0.16131  -0.00000
 297       23PX         0.23289   0.12049   0.11240   0.00809
 298       23PY         0.23289   0.12049   0.11240   0.00809
 299       23PZ         0.19933   0.09966   0.09966   0.00000
 300       24PX         0.00036   0.00019   0.00018   0.00001
 301       24PY         0.00036   0.00019   0.00018   0.00001
 302       24PZ         0.00034   0.00017   0.00017   0.00000
 303       25PX         0.00001   0.00000   0.00000   0.00000
 304       25PY         0.00001   0.00000   0.00000   0.00000
 305       25PZ         0.00001   0.00000   0.00000  -0.00000
 306       26PX         0.04213   0.02227   0.01986   0.00241
 307       26PY         0.04213   0.02227   0.01986   0.00241
 308       26PZ         0.03634   0.01817   0.01817  -0.00000
 309       27D 0        0.00010   0.00005   0.00005  -0.00000
 310       27D+1        0.00006   0.00003   0.00003   0.00000
 311       27D-1        0.00006   0.00003   0.00003   0.00000
 312       27D+2        0.00000   0.00000   0.00000  -0.00000
 313       27D-2        0.00000   0.00000   0.00000  -0.00000
 314       28D 0        0.00194   0.00097   0.00097  -0.00000
 315       28D+1        0.00112   0.00060   0.00052   0.00007
 316       28D-1        0.00112   0.00060   0.00052   0.00007
 317       28D+2        0.00003   0.00002   0.00002  -0.00000
 318       28D-2        0.00003   0.00002   0.00002  -0.00000
 319       29D 0        0.00424   0.00212   0.00212   0.00000
 320       29D+1        0.00618   0.00295   0.00323  -0.00027
 321       29D-1        0.00618   0.00295   0.00323  -0.00027
 322       29D+2        0.00032   0.00016   0.00016   0.00000
 323       29D-2        0.00032   0.00016   0.00016  -0.00000
 324       30D 0        0.00000   0.00000   0.00000  -0.00000
 325       30D+1        0.00000   0.00000   0.00000   0.00000
 326       30D-1        0.00000   0.00000   0.00000   0.00000
 327       30D+2        0.00000   0.00000   0.00000  -0.00000
 328       30D-2        0.00000   0.00000   0.00000  -0.00000
 329       31D 0       -0.00000  -0.00000  -0.00000   0.00000
 330       31D+1       -0.00000  -0.00000  -0.00000  -0.00000
 331       31D-1       -0.00000  -0.00000  -0.00000  -0.00000
 332       31D+2       -0.00000  -0.00000  -0.00000   0.00000
 333       31D-2       -0.00000  -0.00000  -0.00000   0.00000
 334       32D 0        0.00220   0.00110   0.00110   0.00000
 335       32D+1        0.00383   0.00177   0.00206  -0.00029
 336       32D-1        0.00383   0.00177   0.00206  -0.00029
 337       32D+2        0.00008   0.00004   0.00004  -0.00000
 338       32D-2        0.00008   0.00004   0.00004  -0.00000
 339       33F 0        0.00004   0.00002   0.00002  -0.00000
 340       33F+1        0.00002   0.00001   0.00001   0.00000
 341       33F-1        0.00002   0.00001   0.00001   0.00000
 342       33F+2        0.00000   0.00000   0.00000   0.00000
 343       33F-2        0.00000   0.00000   0.00000  -0.00000
 344       33F+3       -0.00000  -0.00000  -0.00000  -0.00000
 345       33F-3        0.00000   0.00000  -0.00000   0.00000
 346       34F 0        0.00106   0.00053   0.00053  -0.00000
 347       34F+1        0.00067   0.00038   0.00029   0.00010
 348       34F-1        0.00067   0.00038   0.00029   0.00010
 349       34F+2        0.00009   0.00005   0.00005   0.00000
 350       34F-2        0.00009   0.00005   0.00005  -0.00000
 351       34F+3        0.00000   0.00000  -0.00000   0.00000
 352       34F-3        0.00000   0.00000   0.00000   0.00000
 353       35F 0        0.00000   0.00000   0.00000  -0.00000
 354       35F+1        0.00000   0.00000   0.00000   0.00000
 355       35F-1        0.00000   0.00000   0.00000   0.00000
 356       35F+2        0.00000   0.00000   0.00000  -0.00000
 357       35F-2        0.00000   0.00000   0.00000  -0.00000
 358       35F+3        0.00000  -0.00000   0.00000  -0.00000
 359       35F-3       -0.00000  -0.00000   0.00000  -0.00000
 360       36F 0        0.00022   0.00011   0.00011  -0.00000
 361       36F+1        0.00062   0.00020   0.00042  -0.00022
 362       36F-1        0.00062   0.00020   0.00042  -0.00022
 363       36F+2        0.00014   0.00007   0.00007   0.00000
 364       36F-2        0.00014   0.00007   0.00007  -0.00000
 365       36F+3        0.00000  -0.00000   0.00000  -0.00000
 366       36F-3        0.00000   0.00000   0.00000   0.00000
 367       37G 0        0.00005   0.00002   0.00002  -0.00000
 368       37G+1        0.00002   0.00002   0.00001   0.00001
 369       37G-1        0.00002   0.00002   0.00001   0.00001
 370       37G+2        0.00000   0.00000   0.00000   0.00000
 371       37G-2        0.00000   0.00000   0.00000  -0.00000
 372       37G+3        0.00000   0.00000  -0.00000   0.00000
 373       37G-3       -0.00000  -0.00000   0.00000  -0.00000
 374       37G+4       -0.00000  -0.00000  -0.00000  -0.00000
 375       37G-4       -0.00000  -0.00000  -0.00000   0.00000
 376       38G 0        0.00041   0.00021   0.00021  -0.00000
 377       38G+1        0.00020   0.00012   0.00008   0.00004
 378       38G-1        0.00020   0.00012   0.00008   0.00004
 379       38G+2        0.00006   0.00003   0.00003  -0.00000
 380       38G-2        0.00006   0.00003   0.00003  -0.00000
 381       38G+3       -0.00000   0.00000  -0.00000   0.00000
 382       38G-3       -0.00000  -0.00000   0.00000  -0.00000
 383       38G+4       -0.00000  -0.00000  -0.00000  -0.00000
 384       38G-4       -0.00000  -0.00000  -0.00000   0.00000
          Condensed to atoms (all electrons):
               1          2
     1  Ni  16.681902   0.306285
     2  O    0.306285   6.705528
          Atomic-Atomic Spin Densities.
               1          2
     1  Ni   1.925505  -0.032935
     2  O   -0.032935   0.140365
 Mulliken charges and spin densities:
               1          2
     1  Ni   1.011813   1.892570
     2  O   -1.011813   0.107430
 Sum of Mulliken charges =  -0.00000   2.00000
 Mulliken charges and spin densities with hydrogens summed into heavy atoms:
               1          2
     1  Ni   1.011813   1.892570
     2  O   -1.011813   0.107430
 Electronic spatial extent (au):  <R**2>=             84.0441
 Charge=              0.0000 electrons
 Dipole moment (field-independent basis, Debye):
    X=              0.0000    Y=              0.0000    Z=              8.0640  Tot=              8.0640
 Quadrupole moment (field-independent basis, Debye-Ang):
   XX=            -18.2732   YY=            -18.2732   ZZ=            -20.9352
   XY=              0.0000   XZ=              0.0000   YZ=              0.0000
 Traceless Quadrupole moment (field-independent basis, Debye-Ang):
   XX=              0.8873   YY=              0.8873   ZZ=             -1.7746
   XY=              0.0000   XZ=              0.0000   YZ=              0.0000
 Octapole moment (field-independent basis, Debye-Ang**2):
  XXX=              0.0000  YYY=              0.0000  ZZZ=             23.8665  XYY=              0.0000
  XXY=              0.0000  XXZ=              5.8849  XZZ=              0.0000  YZZ=              0.0000
  YYZ=              5.8849  XYZ=              0.0000
 Hexadecapole moment (field-independent basis, Debye-Ang**3):
 XXXX=            -19.7298 YYYY=            -19.7298 ZZZZ=            -89.0155 XXXY=              0.0000
 XXXZ=              0.0000 YYYX=              0.0000 YYYZ=              0.0000 ZZZX=              0.0000
 ZZZY=              0.0000 XXYY=             -6.5766 XXZZ=            -17.5416 YYZZ=            -17.5416
 XXYZ=              0.0000 YYXZ=              0.0000 ZZXY=              0.0000
 N-N= 3.571946173710D+01 E-N=-5.150773275067D+02  KE= 1.137086379309D+02
 Symmetry A1   KE= 5.228602334662D+01
 Symmetry A2   KE= 1.643511147708D+01
 Symmetry B1   KE= 2.249375155900D+01
 Symmetry B2   KE= 2.249375154743D+01
 Symmetry A1   SP=-2.000243878207D-15
 Symmetry A2   SP=-1.709349215686D-16
 Symmetry B1   SP= 1.000000000000D+00
 Symmetry B2   SP= 1.000000000000D+00
 Orbital energies and kinetic energies (alpha):
                                 1                 2
   7         O                -0.796415          8.217556
   8         O                -0.727505          8.217556
   9         O                -0.702797          2.180053
  10         O                -0.702797          2.180053
  11         O                -0.380899          2.030913
  12         O                -0.380899          8.353429
  13         O                -0.376416          8.353429
  14         V                -0.053375          0.578012
  15         V                 0.018669          0.076587
  16         V                 0.018669          0.076587
  17         V                 0.019273          0.168281
  18         V                 0.038901          0.046393
 Total kinetic energy from orbitals= 1.304154958406D+02
                          Isotropic Fermi Contact Couplings
        Atom                 a.u.       MegaHertz       Gauss      10(-4) cm-1
     1  Ni(61)            -0.00000       0.00000       0.00000       0.00000
     2  O(17)             -0.00000       0.00000       0.00000       0.00000
 --------------------------------------------------------
       Center         ----  Spin Dipole Couplings  ----
                      3XX-RR        3YY-RR        3ZZ-RR
 --------------------------------------------------------
     1   Atom       -1.414133     -1.414133      2.828266
     2   Atom        0.026134      0.026134     -0.052268
 --------------------------------------------------------
                        XY            XZ            YZ
 --------------------------------------------------------
     1   Atom        0.000000      0.000000      0.000000
     2   Atom        0.000000      0.000000      0.000000
 --------------------------------------------------------


 ---------------------------------------------------------------------------------
              Anisotropic Spin Dipole Couplings in Principal Axis System
 ---------------------------------------------------------------------------------

       Atom             a.u.   MegaHertz   Gauss  10(-4) cm-1        Axes

              Baa    -1.4141    67.542    24.101    22.529 -0.0000  1.0000  0.0000
     1 Ni(61) Bbb    -1.4141    67.542    24.101    22.529  1.0000  0.0000  0.0000
              Bcc     2.8283  -135.083   -48.201   -45.059  0.0000  0.0000  1.0000
 
              Baa    -0.0523     3.782     1.350     1.262  0.0000  0.0000  1.0000
     2 O(17)  Bbb     0.0261    -1.891    -0.675    -0.631 -0.0000  1.0000  0.0000
              Bcc     0.0261    -1.891    -0.675    -0.631  1.0000  0.0000  0.0000
 

 ---------------------------------------------------------------------------------

 No NMR shielding tensors so no spin-rotation constants.
 Leave Link  601 at Mon Mar 26 19:36:37 2018, MaxMem= 10737418240 cpu:             237.0 elap:               7.7
 (Enter /home1/apps/gaussian/16rA.03/g16/l9999.exe)

 Test job not archived.
 1\1\GINC-C442-034\SP\ROCCSD(T)-Full\Gen\Ni1O1(3)\GWANG18\26-Mar-2018\0
 \\#P ROCCSD(T)=(MaxCyc=150, Full)/Gen SCF=(maxcycle=400) Pseudo=Read I
 ntegral(NoXCTest) Pop=Regular MaxDisk=500GB Guess=Read IOp(5/15=2)\\Ni
 O\\0,3\Ni,0,0.,0.,0.\O,0,0.,0.,1.6\\Version=ES64L-G16RevA.03\State=3-S
 G\HF=-184.928334\MP2=-186.1653147\MP3=-186.0504439\PUHF=-184.928334\PM
 P2-0=-186.1653147\MP4SDQ=-186.137308\CCSD=-186.1268027\CCSD(T)=-186.19
 06085\RMSD=5.478e-09\PG=C*V [C*(O1Ni1)]\\@


 TOWERING GENIUS DISDAINS A BEATEN PATH.  IT SEEKS 
 REGIONS HITHERTO UNEXPLORED.

                                -- ABRAHAM LINCOLN
 Job cpu time:       3 days 11 hours 11 minutes  4.2 seconds.
 Elapsed time:       0 days  2 hours 37 minutes  4.8 seconds.
 File lengths (MBytes):  RWF=  16049 Int=      0 D2E=      0 Chk=     19 Scr=      1
 Normal termination of Gaussian 16 at Mon Mar 26 19:36:38 2018.
