 Entering Gaussian System, Link 0=g16
 Initial command:
 /home1/apps/gaussian/16rA.03/g16/l1.exe "/tmp/Gau-160286.inp" -scrdir="/tmp/"
 Entering Link 1 = /home1/apps/gaussian/16rA.03/g16/l1.exe PID=    160287.
  
 Copyright (c) 1988,1990,1992,1993,1995,1998,2003,2009,2016,
            Gaussian, Inc.  All Rights Reserved.
  
 This is part of the Gaussian(R) 16 program.  It is based on
 the Gaussian(R) 09 system (copyright 2009, Gaussian, Inc.),
 the Gaussian(R) 03 system (copyright 2003, Gaussian, Inc.),
 the Gaussian(R) 98 system (copyright 1998, Gaussian, Inc.),
 the Gaussian(R) 94 system (copyright 1995, Gaussian, Inc.),
 the Gaussian 92(TM) system (copyright 1992, Gaussian, Inc.),
 the Gaussian 90(TM) system (copyright 1990, Gaussian, Inc.),
 the Gaussian 88(TM) system (copyright 1988, Gaussian, Inc.),
 the Gaussian 86(TM) system (copyright 1986, Carnegie Mellon
 University), and the Gaussian 82(TM) system (copyright 1983,
 Carnegie Mellon University). Gaussian is a federally registered
 trademark of Gaussian, Inc.
  
 This software contains proprietary and confidential information,
 including trade secrets, belonging to Gaussian, Inc.
  
 This software is provided under written license and may be
 used, copied, transmitted, or stored only in accord with that
 written license.
  
 The following legend is applicable only to US Government
 contracts under FAR:
  
                    RESTRICTED RIGHTS LEGEND
  
 Use, reproduction and disclosure by the US Government is
 subject to restrictions as set forth in subparagraphs (a)
 and (c) of the Commercial Computer Software - Restricted
 Rights clause in FAR 52.227-19.
  
 Gaussian, Inc.
 340 Quinnipiac St., Bldg. 40, Wallingford CT 06492
  
  
 ---------------------------------------------------------------
 Warning -- This program may not be used in any manner that
 competes with the business of Gaussian, Inc. or will provide
 assistance to any competitor of Gaussian, Inc.  The licensee
 of this program is prohibited from giving any competitor of
 Gaussian, Inc. access to this program.  By using this program,
 the user acknowledges that Gaussian, Inc. is engaged in the
 business of creating and licensing software in the field of
 computational chemistry and represents and warrants to the
 licensee that it is not a competitor of Gaussian, Inc. and that
 it will not use this program in any manner prohibited above.
 ---------------------------------------------------------------
  

 Cite this work as:
 Gaussian 16, Revision A.03,
 M. J. Frisch, G. W. Trucks, H. B. Schlegel, G. E. Scuseria, 
 M. A. Robb, J. R. Cheeseman, G. Scalmani, V. Barone, 
 G. A. Petersson, H. Nakatsuji, X. Li, M. Caricato, A. V. Marenich, 
 J. Bloino, B. G. Janesko, R. Gomperts, B. Mennucci, H. P. Hratchian, 
 J. V. Ortiz, A. F. Izmaylov, J. L. Sonnenberg, D. Williams-Young, 
 F. Ding, F. Lipparini, F. Egidi, J. Goings, B. Peng, A. Petrone, 
 T. Henderson, D. Ranasinghe, V. G. Zakrzewski, J. Gao, N. Rega, 
 G. Zheng, W. Liang, M. Hada, M. Ehara, K. Toyota, R. Fukuda, 
 J. Hasegawa, M. Ishida, T. Nakajima, Y. Honda, O. Kitao, H. Nakai, 
 T. Vreven, K. Throssell, J. A. Montgomery, Jr., J. E. Peralta, 
 F. Ogliaro, M. J. Bearpark, J. J. Heyd, E. N. Brothers, K. N. Kudin, 
 V. N. Staroverov, T. A. Keith, R. Kobayashi, J. Normand, 
 K. Raghavachari, A. P. Rendell, J. C. Burant, S. S. Iyengar, 
 J. Tomasi, M. Cossi, J. M. Millam, M. Klene, C. Adamo, R. Cammi, 
 J. W. Ochterski, R. L. Martin, K. Morokuma, O. Farkas, 
 J. B. Foresman, and D. J. Fox, Gaussian, Inc., Wallingford CT, 2016.
 
 ******************************************
 Gaussian 16:  ES64L-G16RevA.03 25-Dec-2016
                25-Feb-2018 
 ******************************************
 %MEM=160GB
 %CPU=0-31
 SetSPE:  set environment variable "MP_BIND" = "yes"
 SetSPE:  set environment variable "MP_BLIST" = "0,1,2,3,4,5,6,7,8,9,10,11,12,13,14,15,16,17,18,19,20,21,22,23,24,25,26,27,28,29,30,31"
 Will use up to   32 processors via shared memory.
 %RWF=/scratch/04843/aannabe/gaussian/
 %Int=/scratch/04843/aannabe/gaussian/
 %D2E=/scratch/04843/aannabe/gaussian/
 %NoSave
 %CHK=MnH
 ----------------------------------------------------------------------
 #P ROCCSD(T)=(maxcyc=150, Window=(6,0), SaveAmplitudes, ReadAmplitudes
 )/Gen 5d 7f SCF=(maxcycles=300) Integral(NoXCTest, DKHSO) MaxDisk=500G
 B Pop=Regular Guess=Read IOp(5/15=2)
 ----------------------------------------------------------------------
 1/38=1,172=1/1;
 2/12=2,17=6,18=5,40=1/2;
 3/5=7,8=11,11=2,25=1,30=1,47=8,91=5,116=101/1,2,3;
 4/5=1/1;
 5/5=2,7=300,15=2,38=6/2;
 8/5=-1,6=4,9=120000,10=91,24=1,37=6/1,4;
 9/5=7,6=150,14=2,77=1/13;
 6//1;
 99/5=1,9=1/99;
 Leave Link    1 at Sun Feb 25 22:45:25 2018, MaxMem= 21474836480 cpu:               2.4 elap:               0.1
 (Enter /home1/apps/gaussian/16rA.03/g16/l101.exe)
 ---
 MnH
 ---
 Symbolic Z-matrix:
 Charge =  0 Multiplicity = 7
 Mn                    0.        0.        0. 
 H                     0.        0.        1.5 
 
 ITRead=  0  0
 MicOpt= -1 -1
 NAtoms=      2 NQM=        2 NQMF=       0 NMMI=      0 NMMIF=      0
                NMic=       0 NMicF=      0.
                    Isotopes and Nuclear Properties:
 (Nuclear quadrupole moments (NQMom) in fm**2, nuclear magnetic moments (NMagM)
  in nuclear magnetons)

  Atom         1           2
 IAtWgt=          55           1
 AtmWgt=  54.9380463   1.0078250
 NucSpn=           5           1
 AtZEff=  -0.0000000  -0.0000000
 NQMom=   33.0000000   0.0000000
 NMagM=    3.4532000   2.7928460
 AtZNuc=  25.0000000   1.0000000
 Leave Link  101 at Sun Feb 25 22:45:26 2018, MaxMem= 21474836480 cpu:               2.7 elap:               0.1
 (Enter /home1/apps/gaussian/16rA.03/g16/l202.exe)
                          Input orientation:                          
 ---------------------------------------------------------------------
 Center     Atomic      Atomic             Coordinates (Angstroms)
 Number     Number       Type             X           Y           Z
 ---------------------------------------------------------------------
      1         25           0        0.000000    0.000000    0.000000
      2          1           0        0.000000    0.000000    1.500000
 ---------------------------------------------------------------------
 Stoichiometry    HMn(7)
 Framework group  C*V[C*(HMn)]
 Deg. of freedom     1
 Full point group                 C*V     NOp   4
 Largest Abelian subgroup         C2V     NOp   4
 Largest concise Abelian subgroup C1      NOp   1
                         Standard orientation:                         
 ---------------------------------------------------------------------
 Center     Atomic      Atomic             Coordinates (Angstroms)
 Number     Number       Type             X           Y           Z
 ---------------------------------------------------------------------
      1         25           0        0.000000    0.000000    0.057692
      2          1           0        0.000000    0.000000   -1.442308
 ---------------------------------------------------------------------
 Rotational constants (GHZ):           0.0000000         226.9574115         226.9574115
 Leave Link  202 at Sun Feb 25 22:45:26 2018, MaxMem= 21474836480 cpu:               0.5 elap:               0.0
 (Enter /home1/apps/gaussian/16rA.03/g16/l301.exe)
 General basis read from cards:  (5D, 7F)
 Centers:       1
 S 1 1.00
     Exponent=  3.9608050000D+06 Coefficients=  1.0000000000D+00
 S 1 1.00
     Exponent=  5.9311550000D+05 Coefficients=  1.0000000000D+00
 S 1 1.00
     Exponent=  1.3497680000D+05 Coefficients=  1.0000000000D+00
 S 1 1.00
     Exponent=  3.8230670000D+04 Coefficients=  1.0000000000D+00
 S 1 1.00
     Exponent=  1.2471540000D+04 Coefficients=  1.0000000000D+00
 S 1 1.00
     Exponent=  4.5017430000D+03 Coefficients=  1.0000000000D+00
 S 1 1.00
     Exponent=  1.7552120000D+03 Coefficients=  1.0000000000D+00
 S 1 1.00
     Exponent=  7.2730390000D+02 Coefficients=  1.0000000000D+00
 S 1 1.00
     Exponent=  3.1636780000D+02 Coefficients=  1.0000000000D+00
 S 1 1.00
     Exponent=  1.4300980000D+02 Coefficients=  1.0000000000D+00
 S 1 1.00
     Exponent=  6.6218050000D+01 Coefficients=  1.0000000000D+00
 S 1 1.00
     Exponent=  2.9918960000D+01 Coefficients=  1.0000000000D+00
 S 1 1.00
     Exponent=  1.4303180000D+01 Coefficients=  1.0000000000D+00
 S 1 1.00
     Exponent=  6.8394510000D+00 Coefficients=  1.0000000000D+00
 S 1 1.00
     Exponent=  3.0123740000D+00 Coefficients=  1.0000000000D+00
 S 1 1.00
     Exponent=  1.4188080000D+00 Coefficients=  1.0000000000D+00
 S 1 1.00
     Exponent=  6.2362400000D-01 Coefficients=  1.0000000000D+00
 S 1 1.00
     Exponent=  1.3409800000D-01 Coefficients=  1.0000000000D+00
 S 1 1.00
     Exponent=  6.5548000000D-02 Coefficients=  1.0000000000D+00
 S 1 1.00
     Exponent=  2.9584000000D-02 Coefficients=  1.0000000000D+00
 S 1 1.00
     Exponent=  4.1714000000D+00 Coefficients=  1.0000000000D+00
 S 1 1.00
     Exponent=  1.0701000000D+00 Coefficients=  1.0000000000D+00
 S 1 1.00
     Exponent=  1.3350000000D-02 Coefficients=  1.0000000000D+00
 P 1 1.00
     Exponent=  1.6205860000D+04 Coefficients=  1.0000000000D+00
 P 1 1.00
     Exponent=  3.8362740000D+03 Coefficients=  1.0000000000D+00
 P 1 1.00
     Exponent=  1.2460480000D+03 Coefficients=  1.0000000000D+00
 P 1 1.00
     Exponent=  4.7675350000D+02 Coefficients=  1.0000000000D+00
 P 1 1.00
     Exponent=  2.0218950000D+02 Coefficients=  1.0000000000D+00
 P 1 1.00
     Exponent=  9.2094870000D+01 Coefficients=  1.0000000000D+00
 P 1 1.00
     Exponent=  4.4147200000D+01 Coefficients=  1.0000000000D+00
 P 1 1.00
     Exponent=  2.1854680000D+01 Coefficients=  1.0000000000D+00
 P 1 1.00
     Exponent=  1.1085960000D+01 Coefficients=  1.0000000000D+00
 P 1 1.00
     Exponent=  5.6741080000D+00 Coefficients=  1.0000000000D+00
 P 1 1.00
     Exponent=  2.8231700000D+00 Coefficients=  1.0000000000D+00
 P 1 1.00
     Exponent=  1.3686210000D+00 Coefficients=  1.0000000000D+00
 P 1 1.00
     Exponent=  6.4443100000D-01 Coefficients=  1.0000000000D+00
 P 1 1.00
     Exponent=  2.4834600000D-01 Coefficients=  1.0000000000D+00
 P 1 1.00
     Exponent=  9.7175000000D-02 Coefficients=  1.0000000000D+00
 P 1 1.00
     Exponent=  3.6565000000D-02 Coefficients=  1.0000000000D+00
 P 1 1.00
     Exponent=  6.0568000000D+00 Coefficients=  1.0000000000D+00
 P 1 1.00
     Exponent=  1.3911000000D+00 Coefficients=  1.0000000000D+00
 P 1 1.00
     Exponent=  1.3760000000D-02 Coefficients=  1.0000000000D+00
 D 1 1.00
     Exponent=  1.0190400000D+02 Coefficients=  1.0000000000D+00
 D 1 1.00
     Exponent=  3.0033700000D+01 Coefficients=  1.0000000000D+00
 D 1 1.00
     Exponent=  1.0923800000D+01 Coefficients=  1.0000000000D+00
 D 1 1.00
     Exponent=  4.3974000000D+00 Coefficients=  1.0000000000D+00
 D 1 1.00
     Exponent=  1.8159500000D+00 Coefficients=  1.0000000000D+00
 D 1 1.00
     Exponent=  7.2573100000D-01 Coefficients=  1.0000000000D+00
 D 1 1.00
     Exponent=  2.6996100000D-01 Coefficients=  1.0000000000D+00
 D 1 1.00
     Exponent=  8.7760000000D-02 Coefficients=  1.0000000000D+00
 D 1 1.00
     Exponent=  3.9511000000D+00 Coefficients=  1.0000000000D+00
 D 1 1.00
     Exponent=  1.8488000000D+00 Coefficients=  1.0000000000D+00
 D 1 1.00
     Exponent=  2.8530000000D-02 Coefficients=  1.0000000000D+00
 F 1 1.00
     Exponent=  5.1541000000D+00 Coefficients=  1.0000000000D+00
 F 1 1.00
     Exponent=  1.9044000000D+00 Coefficients=  1.0000000000D+00
 F 1 1.00
     Exponent=  6.4380000000D-01 Coefficients=  1.0000000000D+00
 F 1 1.00
     Exponent=  2.1764000000D-01 Coefficients=  1.0000000000D+00
 G 1 1.00
     Exponent=  4.7163000000D+00 Coefficients=  1.0000000000D+00
 G 1 1.00
     Exponent=  1.7022000000D+00 Coefficients=  1.0000000000D+00
 G 1 1.00
     Exponent=  6.1436000000D-01 Coefficients=  1.0000000000D+00
 ****
 Centers:       2
 S 1 1.00
     Exponent=  3.3870000000D+01 Coefficients=  1.0000000000D+00
 S 1 1.00
     Exponent=  5.0950000000D+00 Coefficients=  1.0000000000D+00
 S 1 1.00
     Exponent=  1.1590000000D+00 Coefficients=  1.0000000000D+00
 S 1 1.00
     Exponent=  3.2580000000D-01 Coefficients=  1.0000000000D+00
 S 1 1.00
     Exponent=  1.0270000000D-01 Coefficients=  1.0000000000D+00
 S 1 1.00
     Exponent=  2.5260000000D-02 Coefficients=  1.0000000000D+00
 P 1 1.00
     Exponent=  1.4070000000D+00 Coefficients=  1.0000000000D+00
 P 1 1.00
     Exponent=  3.8800000000D-01 Coefficients=  1.0000000000D+00
 P 1 1.00
     Exponent=  1.0200000000D-01 Coefficients=  1.0000000000D+00
 D 1 1.00
     Exponent=  1.0570000000D+00 Coefficients=  1.0000000000D+00
 D 1 1.00
     Exponent=  2.4700000000D-01 Coefficients=  1.0000000000D+00
 ****
 Ernie: Thresh=  0.10000D-02 Tol=  0.10000D-05 Strict=F.
 There are   120 symmetry adapted cartesian basis functions of A1  symmetry.
 There are    26 symmetry adapted cartesian basis functions of A2  symmetry.
 There are    56 symmetry adapted cartesian basis functions of B1  symmetry.
 There are    56 symmetry adapted cartesian basis functions of B2  symmetry.
 There are    94 symmetry adapted basis functions of A1  symmetry.
 There are    23 symmetry adapted basis functions of A2  symmetry.
 There are    49 symmetry adapted basis functions of B1  symmetry.
 There are    49 symmetry adapted basis functions of B2  symmetry.
   215 basis functions,   258 primitive gaussians,   258 cartesian basis functions
    16 alpha electrons       10 beta electrons
       nuclear repulsion energy         8.8196201820 Hartrees.
 IExCor=    0 DFT=F Ex=HF Corr=None ExCW=0 ScaHFX=  1.000000
 ScaDFX=  1.000000  1.000000  1.000000  1.000000 ScalE2=  1.000000  1.000000
 IRadAn=      5 IRanWt=     -1 IRanGd=            0 ICorTp=0 IEmpDi=  4
 NAtoms=    2 NActive=    2 NUniq=    2 SFac= 1.00D+00 NAtFMM=   60 NAOKFM=F Big=F
 Integral buffers will be    131072 words long.
 Raffenetti 2 integral format.
 Two-electron integral symmetry is turned on.
 FoFCou: FMM=F IPFlag=           8 FMFlag=           0 FMFlg1=           0
         NFxFlg=           0 DoJE=F BraDBF=T KetDBF=T FulRan=T
         wScrn=  0.000000 ICntrl=       600 IOpCl=  3 I1Cent=           6 NGrid=           0
         NMat0=    1 NMatS0=      2 NMatT0=    0 NMatD0=    1 NMtDS0=    0 NMtDT0=    0
 Symmetry not used in FoFCou.
 Finite nuclear repulsion energy         8.8196201820.
 Leave Link  301 at Sun Feb 25 22:45:27 2018, MaxMem= 21474836480 cpu:               4.5 elap:               0.2
 (Enter /home1/apps/gaussian/16rA.03/g16/l302.exe)
 Using DK4 one-electron Hamiltonian with SO, DoBoet=T.
 NPDir=0 NMtPBC=     1 NCelOv=     1 NCel=       1 NClECP=     1 NCelD=      1
         NCelK=      1 NCelE2=     1 NClLst=     1 CellRange=     0.0.
 One-electron integrals computed using PRISM.
 One-electron integral symmetry used in STVInt
 FoFCou: FMM=F IPFlag=           8 FMFlag=      100000 FMFlg1=           0
         NFxFlg=           0 DoJE=T BraDBF=F KetDBF=T FulRan=T
         wScrn=  0.000000 ICntrl=       500 IOpCl=  0 I1Cent=           4 NGrid=           0
         NMat0=    1 NMatS0=      1 NMatT0=    0 NMatD0=    1 NMtDS0=    0 NMtDT0=    0
 Symmetry not used in FoFCou.
 UnConB:  Uncontracting AO basis from    215 functions to    215 functions (excluding duplicates).
 RelInt: Using uncontracted basis, NUnBas=   215 NBsUse=   215 0.100E-13 EigKep=  1.54D-07 EigRej= -1.00D+00
 NBasis=   215 RedAO= T EigKep=  1.31D-06  NBF=    94    23    49    49
 NBsUse=   212 1.00D-06 EigRej=  1.75D-07 NBFU=    93    23    48    48
 Leave Link  302 at Sun Feb 25 22:45:28 2018, MaxMem= 21474836480 cpu:              32.2 elap:               1.3
 (Enter /home1/apps/gaussian/16rA.03/g16/l303.exe)
 DipDrv:  MaxL=1.
 Leave Link  303 at Sun Feb 25 22:45:29 2018, MaxMem= 21474836480 cpu:               1.0 elap:               0.1
 (Enter /home1/apps/gaussian/16rA.03/g16/l401.exe)
 Initial guess from the checkpoint file:  "MnH.chk"
 B after Tr=     0.000000    0.000000    0.000000
         Rot=    1.000000    0.000000    0.000000    0.000000 Ang=   0.00 deg.
 Guess basis will be translated and rotated to current coordinates.
 JPrj=2 DoOrth=T DoCkMO=T.
 Initial guess orbital symmetries:
       Occupied  (SG) (SG) (PI) (PI) (SG) (SG) (PI) (PI) (SG) (SG)
                 (DLTA) (DLTA) (SG) (PI) (PI) (SG)
       Virtual   (PI) (PI) (SG) (SG) (PI) (PI) (DLTA) (DLTA) (SG)
                 (PI) (PI) (SG) (SG) (SG) (PI) (PI) (SG) (DLTA)
                 (DLTA) (PI) (PI) (PI) (PI) (SG) (SG) (SG) (SG)
                 (DLTA) (DLTA) (PHI) (PHI) (PI) (PI) (PI) (PI)
                 (SG) (SG) (DLTA) (DLTA) (PI) (PI) (SG) (DLTA)
                 (DLTA) (PI) (PI) (SG) (PI) (PI) (SG) (SG) (PHI)
                 (PHI) (DLTA) (DLTA) (PI) (PI) (SG) (PI) (PI) (SG)
                 (?A) (?A) (PHI) (PHI) (SG) (DLTA) (DLTA) (PI)
                 (PI) (DLTA) (DLTA) (SG) (PI) (PI) (SG) (DLTA)
                 (DLTA) (PI) (PI) (PI) (PI) (SG) (SG) (SG) (PHI)
                 (PHI) (DLTA) (DLTA) (PI) (PI) (DLTA) (DLTA) (SG)
                 (PI) (PI) (SG) (PI) (PI) (SG) (?A) (?A) (PHI)
                 (PHI) (DLTA) (DLTA) (PI) (PI) (SG) (SG) (SG) (DLTA)
                 (DLTA) (PI) (PI) (SG) (PHI) (PHI) (DLTA) (DLTA)
                 (PI) (PI) (PI) (PI) (SG) (SG) (?A) (?A) (PHI)
                 (PHI) (DLTA) (DLTA) (PI) (PI) (SG) (DLTA) (DLTA)
                 (PI) (PI) (SG) (SG) (PI) (PI) (SG) (DLTA) (DLTA)
                 (PI) (PI) (SG) (SG) (SG) (PI) (PI) (SG) (DLTA)
                 (DLTA) (PI) (PI) (SG) (SG) (PI) (PI) (SG) (SG)
                 (PI) (PI) (SG) (DLTA) (DLTA) (PI) (PI) (SG) (PI)
                 (PI) (SG) (SG) (PI) (PI) (SG) (SG) (PI) (PI) (SG)
                 (SG) (SG) (PI) (PI) (SG) (SG) (PI) (PI) (SG) (SG)
                 (SG) (SG) (SG)
 The electronic state of the initial guess is 7-SG.
 Leave Link  401 at Sun Feb 25 22:45:29 2018, MaxMem= 21474836480 cpu:               4.7 elap:               0.2
 (Enter /home1/apps/gaussian/16rA.03/g16/l502.exe)
 Keep R1 and R2 ints in memory in symmetry-blocked form, NReq=338797193.
 FoFCou: FMM=F IPFlag=           8 FMFlag=           0 FMFlg1=           0
         NFxFlg=           0 DoJE=F BraDBF=F KetDBF=F FulRan=T
         wScrn=  0.000000 ICntrl=       600 IOpCl=  0 I1Cent=           0 NGrid=           0
         NMat0=    1 NMatS0=  23220 NMatT0=    0 NMatD0=    1 NMtDS0=    0 NMtDT0=    0
 Petite list used in FoFCou.
 Restricted open shell SCF:
 Using DIIS extrapolation, IDIIS=  1040.
 NGot= 21474836480 LenX= 21336348183 LenY= 21336281178
 Requested convergence on RMS density matrix=1.00D-08 within 300 cycles.
 Requested convergence on MAX density matrix=1.00D-06.
 Requested convergence on             energy=1.00D-06.
 No special actions if energy rises.

 Cycle   1  Pass 1  IDiag  1:
 E= -1157.92560307612    
 DIIS: error= 1.14D-02 at cycle   1 NSaved=   1.
 NSaved= 1 IEnMin= 1 EnMin= -1157.92560307612     IErMin= 1 ErrMin= 1.14D-02
 ErrMax= 1.14D-02  0.00D+00 EMaxC= 1.00D-01 BMatC= 5.11D-03 BMatP= 5.11D-03
 IDIUse=3 WtCom= 8.86D-01 WtEn= 1.14D-01
 Coeff-Com:  0.100D+01
 Coeff-En:   0.100D+01
 Coeff:      0.100D+01
 Gap=     0.071 Goal=   None    Shift=    0.000
 GapD=    0.071 DampG=0.500 DampE=0.250 DampFc=0.1250 IDamp=-1.
 Damping current iteration by 1.25D-01
 RMSDP=3.93D-04 MaxDP=2.10D-02              OVMax= 2.90D-02

 Cycle   2  Pass 1  IDiag  1:
 E= -1157.92571524817     Delta-E=       -0.000112172052 Rises=F Damp=T
 DIIS: error= 1.03D-02 at cycle   2 NSaved=   2.
 NSaved= 2 IEnMin= 2 EnMin= -1157.92571524817     IErMin= 2 ErrMin= 1.03D-02
 ErrMax= 1.03D-02  0.00D+00 EMaxC= 1.00D-01 BMatC= 3.69D-03 BMatP= 5.11D-03
 IDIUse=3 WtCom= 8.97D-01 WtEn= 1.03D-01
 Coeff-Com: -0.880D+00 0.188D+01
 Coeff-En:   0.156D+00 0.844D+00
 Coeff:     -0.773D+00 0.177D+01
 Gap=     0.069 Goal=   None    Shift=    0.000
 RMSDP=8.50D-04 MaxDP=4.77D-02 DE=-1.12D-04 OVMax= 9.63D-02

 Cycle   3  Pass 1  IDiag  1:
 E= -1157.91688945949     Delta-E=        0.008825788686 Rises=F Damp=F
 DIIS: error= 1.14D-02 at cycle   3 NSaved=   3.
 NSaved= 3 IEnMin= 2 EnMin= -1157.92571524817     IErMin= 2 ErrMin= 1.03D-02
 ErrMax= 1.14D-02  0.00D+00 EMaxC= 1.00D-01 BMatC= 4.30D-03 BMatP= 3.69D-03
 IDIUse=2 WtCom= 0.00D+00 WtEn= 1.00D+00
 Coeff-En:   0.000D+00 0.846D+00 0.154D+00
 Coeff:      0.000D+00 0.846D+00 0.154D+00
 Gap=     0.069 Goal=   None    Shift=    0.000
 RMSDP=9.76D-04 MaxDP=5.49D-02 DE= 8.83D-03 OVMax= 7.85D-02

 Cycle   4  Pass 1  IDiag  1:
 E= -1157.92708007657     Delta-E=       -0.010190617082 Rises=F Damp=F
 DIIS: error= 1.38D-03 at cycle   4 NSaved=   4.
 NSaved= 4 IEnMin= 4 EnMin= -1157.92708007657     IErMin= 4 ErrMin= 1.38D-03
 ErrMax= 1.38D-03  0.00D+00 EMaxC= 1.00D-01 BMatC= 2.05D-04 BMatP= 3.69D-03
 IDIUse=3 WtCom= 9.86D-01 WtEn= 1.38D-02
 Coeff-Com: -0.717D+00 0.837D+00 0.158D+00 0.722D+00
 Coeff-En:   0.000D+00 0.000D+00 0.960D-02 0.990D+00
 Coeff:     -0.707D+00 0.826D+00 0.155D+00 0.726D+00
 Gap=     0.069 Goal=   None    Shift=    0.000
 RMSDP=1.06D-03 MaxDP=9.19D-02 DE=-1.02D-02 OVMax= 2.58D-02

 Cycle   5  Pass 1  IDiag  1:
 E= -1157.92700997006     Delta-E=        0.000070106508 Rises=F Damp=F
 DIIS: error= 3.50D-03 at cycle   5 NSaved=   5.
 NSaved= 5 IEnMin= 4 EnMin= -1157.92708007657     IErMin= 4 ErrMin= 1.38D-03
 ErrMax= 3.50D-03  0.00D+00 EMaxC= 1.00D-01 BMatC= 3.29D-04 BMatP= 2.05D-04
 IDIUse=3 WtCom= 1.45D-01 WtEn= 8.55D-01
 Coeff-Com: -0.582D+00 0.662D+00 0.528D-01 0.488D+00 0.379D+00
 Coeff-En:   0.000D+00 0.000D+00 0.000D+00 0.530D+00 0.470D+00
 Coeff:     -0.841D-01 0.958D-01 0.764D-02 0.524D+00 0.456D+00
 Gap=     0.068 Goal=   None    Shift=    0.000
 RMSDP=1.41D-03 MaxDP=1.24D-01 DE= 7.01D-05 OVMax= 3.99D-02

 Cycle   6  Pass 1  IDiag  1:
 E= -1157.92775362088     Delta-E=       -0.000743650821 Rises=F Damp=F
 DIIS: error= 1.89D-03 at cycle   6 NSaved=   6.
 NSaved= 6 IEnMin= 6 EnMin= -1157.92775362088     IErMin= 4 ErrMin= 1.38D-03
 ErrMax= 1.89D-03  0.00D+00 EMaxC= 1.00D-01 BMatC= 1.87D-04 BMatP= 2.05D-04
 IDIUse=3 WtCom= 9.81D-01 WtEn= 1.89D-02
 EnCoef did    12 forward-backward iterations
 Coeff-Com: -0.447D+00 0.505D+00 0.880D-01 0.269D+00 0.312D+00 0.274D+00
 Coeff-En:   0.000D+00 0.000D+00 0.942D-01 0.000D+00 0.985D-01 0.807D+00
 Coeff:     -0.438D+00 0.495D+00 0.881D-01 0.264D+00 0.308D+00 0.284D+00
 Gap=     0.068 Goal=   None    Shift=    0.000
 RMSDP=6.10D-04 MaxDP=4.68D-02 DE=-7.44D-04 OVMax= 2.31D-02

 Cycle   7  Pass 1  IDiag  1:
 E= -1157.92775448313     Delta-E=       -0.000000862248 Rises=F Damp=F
 DIIS: error= 1.75D-03 at cycle   7 NSaved=   7.
 NSaved= 7 IEnMin= 7 EnMin= -1157.92775448313     IErMin= 4 ErrMin= 1.38D-03
 ErrMax= 1.75D-03  0.00D+00 EMaxC= 1.00D-01 BMatC= 7.50D-05 BMatP= 1.87D-04
 IDIUse=3 WtCom= 9.82D-01 WtEn= 1.75D-02
 Rare condition: small coef for last iteration:  0.222D-15
 Coeff-Com: -0.429D+00 0.485D+00 0.480D-01 0.488D-01 0.134D+00 0.902D-01
 Coeff-Com:  0.622D+00
 Coeff-En:   0.000D+00 0.000D+00 0.822D-02 0.000D+00 0.819D-01 0.454D+00
 Coeff-En:   0.456D+00
 Coeff:     -0.429D+00 0.485D+00 0.480D-01 0.488D-01 0.134D+00 0.902D-01
 Coeff:      0.622D+00
 Gap=     0.068 Goal=   None    Shift=    0.000
 RMSDP=1.94D-04 MaxDP=1.57D-02 DE=-8.62D-07 OVMax= 6.80D-03

 Cycle   8  Pass 1  IDiag  1:
 E= -1157.92774419774     Delta-E=        0.000010285391 Rises=F Damp=F
 DIIS: error= 1.44D-03 at cycle   8 NSaved=   8.
 NSaved= 8 IEnMin= 7 EnMin= -1157.92775448313     IErMin= 4 ErrMin= 1.38D-03
 ErrMax= 1.44D-03  0.00D+00 EMaxC= 1.00D-01 BMatC= 6.96D-05 BMatP= 7.50D-05
 IDIUse=3 WtCom= 9.86D-01 WtEn= 1.44D-02
 EnCoef did   100 forward-backward iterations
 Coeff-Com: -0.410D+00 0.467D+00-0.152D-01-0.712D-01-0.225D-01-0.168D+00
 Coeff-Com:  0.655D+00 0.565D+00
 Coeff-En:   0.000D+00 0.000D+00 0.873D-01 0.000D+00 0.952D-01 0.779D+00
 Coeff-En:   0.261D-01 0.126D-01
 Coeff:     -0.404D+00 0.460D+00-0.137D-01-0.702D-01-0.208D-01-0.154D+00
 Coeff:      0.645D+00 0.557D+00
 Gap=     0.068 Goal=   None    Shift=    0.000
 RMSDP=1.72D-04 MaxDP=1.33D-02 DE= 1.03D-05 OVMax= 8.02D-03

 Cycle   9  Pass 1  IDiag  1:
 E= -1157.92776802143     Delta-E=       -0.000023823686 Rises=F Damp=F
 DIIS: error= 1.56D-03 at cycle   9 NSaved=   9.
 NSaved= 9 IEnMin= 9 EnMin= -1157.92776802143     IErMin= 4 ErrMin= 1.38D-03
 ErrMax= 1.56D-03  0.00D+00 EMaxC= 1.00D-01 BMatC= 6.31D-05 BMatP= 6.96D-05
 IDIUse=3 WtCom= 9.86D-01 WtEn= 1.44D-02
 EnCoef did   100 forward-backward iterations
 Rare condition: small coef for last iteration: -0.126D-15
 Coeff-Com: -0.342D+00 0.391D+00-0.294D-01-0.126D+00-0.888D-01-0.149D+00
 Coeff-Com:  0.398D+00 0.512D+00 0.434D+00
 Coeff-En:   0.000D+00 0.000D+00 0.112D-01 0.000D+00 0.185D-01 0.468D+00
 Coeff-En:   0.000D+00 0.185D+00 0.317D+00
 Coeff:     -0.342D+00 0.391D+00-0.294D-01-0.126D+00-0.888D-01-0.149D+00
 Coeff:      0.398D+00 0.512D+00 0.434D+00
 Gap=     0.068 Goal=   None    Shift=    0.000
 RMSDP=7.99D-05 MaxDP=5.46D-03 DE=-2.38D-05 OVMax= 3.72D-03

 Cycle  10  Pass 1  IDiag  1:
 E= -1157.92785400533     Delta-E=       -0.000085983907 Rises=F Damp=F
 DIIS: error= 1.34D-03 at cycle  10 NSaved=  10.
 NSaved=10 IEnMin=10 EnMin= -1157.92785400533     IErMin=10 ErrMin= 1.34D-03
 ErrMax= 1.34D-03  0.00D+00 EMaxC= 1.00D-01 BMatC= 4.49D-05 BMatP= 6.31D-05
 IDIUse=3 WtCom= 9.87D-01 WtEn= 1.34D-02
 EnCoef did   100 forward-backward iterations
 Coeff-Com: -0.309D+00 0.353D+00-0.192D-01-0.744D-01-0.575D-01-0.954D-01
 Coeff-Com:  0.161D+00 0.162D+00 0.125D+00 0.754D+00
 Coeff-En:   0.000D+00 0.000D+00 0.781D-01 0.000D+00 0.521D-01 0.723D+00
 Coeff-En:   0.000D+00 0.000D+00 0.000D+00 0.147D+00
 Coeff:     -0.305D+00 0.349D+00-0.178D-01-0.734D-01-0.560D-01-0.844D-01
 Coeff:      0.159D+00 0.160D+00 0.123D+00 0.746D+00
 Gap=     0.068 Goal=   None    Shift=    0.000
 RMSDP=1.85D-05 MaxDP=1.18D-03 DE=-8.60D-05 OVMax= 1.51D-03

 Cycle  11  Pass 1  IDiag  1:
 E= -1157.92789843647     Delta-E=       -0.000044431139 Rises=F Damp=F
 DIIS: error= 1.22D-03 at cycle  11 NSaved=  11.
 NSaved=11 IEnMin=11 EnMin= -1157.92789843647     IErMin=11 ErrMin= 1.22D-03
 ErrMax= 1.22D-03  0.00D+00 EMaxC= 1.00D-01 BMatC= 3.60D-05 BMatP= 4.49D-05
 IDIUse=3 WtCom= 9.88D-01 WtEn= 1.22D-02
 EnCoef did    31 forward-backward iterations
 Coeff-Com: -0.286D+00 0.328D+00-0.158D-01-0.605D-01-0.529D-01-0.782D-01
 Coeff-Com:  0.109D+00 0.803D-01 0.165D-01 0.576D+00 0.384D+00
 Coeff-En:   0.000D+00 0.000D+00 0.886D-02 0.000D+00 0.000D+00 0.424D+00
 Coeff-En:   0.000D+00 0.000D+00 0.000D+00 0.000D+00 0.567D+00
 Coeff:     -0.283D+00 0.324D+00-0.155D-01-0.598D-01-0.522D-01-0.720D-01
 Coeff:      0.108D+00 0.793D-01 0.163D-01 0.569D+00 0.386D+00
 Gap=     0.068 Goal=   None    Shift=    0.000
 RMSDP=1.24D-05 MaxDP=8.04D-04 DE=-4.44D-05 OVMax= 6.82D-04

 Cycle  12  Pass 1  IDiag  1:
 E= -1157.92792186695     Delta-E=       -0.000023430475 Rises=F Damp=F
 DIIS: error= 1.14D-03 at cycle  12 NSaved=  12.
 NSaved=12 IEnMin=12 EnMin= -1157.92792186695     IErMin=12 ErrMin= 1.14D-03
 ErrMax= 1.14D-03  0.00D+00 EMaxC= 1.00D-01 BMatC= 3.09D-05 BMatP= 3.60D-05
 IDIUse=3 WtCom= 9.89D-01 WtEn= 1.14D-02
 Coeff-Com: -0.262D+00 0.299D+00-0.141D-01-0.515D-01-0.497D-01-0.695D-01
 Coeff-Com:  0.934D-01 0.533D-01-0.332D-01 0.258D+00 0.319D+00 0.456D+00
 Coeff-En:   0.000D+00 0.000D+00 0.000D+00 0.000D+00 0.000D+00 0.372D+00
 Coeff-En:   0.000D+00 0.000D+00 0.000D+00 0.000D+00 0.000D+00 0.628D+00
 Coeff:     -0.259D+00 0.296D+00-0.139D-01-0.509D-01-0.492D-01-0.645D-01
 Coeff:      0.923D-01 0.527D-01-0.328D-01 0.255D+00 0.315D+00 0.458D+00
 Gap=     0.068 Goal=   None    Shift=    0.000
 RMSDP=1.19D-05 MaxDP=7.50D-04 DE=-2.34D-05 OVMax= 9.00D-04

 Cycle  13  Pass 1  IDiag  1:
 E= -1157.92794509456     Delta-E=       -0.000023227617 Rises=F Damp=F
 DIIS: error= 1.03D-03 at cycle  13 NSaved=  13.
 NSaved=13 IEnMin=13 EnMin= -1157.92794509456     IErMin=13 ErrMin= 1.03D-03
 ErrMax= 1.03D-03  0.00D+00 EMaxC= 1.00D-01 BMatC= 2.58D-05 BMatP= 3.09D-05
 IDIUse=3 WtCom= 9.90D-01 WtEn= 1.03D-02
 Coeff-Com: -0.208D+00 0.238D+00-0.119D-01-0.374D-01-0.393D-01-0.594D-01
 Coeff-Com:  0.938D-01 0.501D-01-0.537D-01-0.258D+00-0.125D+00 0.366D+00
 Coeff-Com:  0.104D+01
 Coeff-En:   0.000D+00 0.000D+00 0.000D+00 0.000D+00 0.000D+00 0.348D+00
 Coeff-En:   0.000D+00 0.000D+00 0.000D+00 0.000D+00 0.000D+00 0.000D+00
 Coeff-En:   0.652D+00
 Coeff:     -0.206D+00 0.235D+00-0.117D-01-0.370D-01-0.389D-01-0.552D-01
 Coeff:      0.929D-01 0.496D-01-0.531D-01-0.255D+00-0.123D+00 0.362D+00
 Coeff:      0.104D+01
 Gap=     0.068 Goal=   None    Shift=    0.000
 RMSDP=1.75D-05 MaxDP=9.68D-04 DE=-2.32D-05 OVMax= 1.71D-03

 Cycle  14  Pass 1  IDiag  1:
 E= -1157.92798899886     Delta-E=       -0.000043904294 Rises=F Damp=F
 DIIS: error= 8.17D-04 at cycle  14 NSaved=  14.
 NSaved=14 IEnMin=14 EnMin= -1157.92798899886     IErMin=14 ErrMin= 8.17D-04
 ErrMax= 8.17D-04  0.00D+00 EMaxC= 1.00D-01 BMatC= 1.63D-05 BMatP= 2.58D-05
 IDIUse=3 WtCom= 9.92D-01 WtEn= 8.17D-03
 Coeff-Com: -0.939D-01 0.107D+00-0.644D-02-0.154D-01-0.124D-01-0.354D-01
 Coeff-Com:  0.977D-01 0.596D-01-0.215D-01-0.599D+00-0.719D+00-0.546D+00
 Coeff-Com:  0.142D+01 0.136D+01
 Coeff-En:   0.000D+00 0.000D+00 0.000D+00 0.000D+00 0.000D+00 0.296D+00
 Coeff-En:   0.000D+00 0.000D+00 0.000D+00 0.000D+00 0.000D+00 0.000D+00
 Coeff-En:   0.000D+00 0.704D+00
 Coeff:     -0.931D-01 0.106D+00-0.639D-02-0.153D-01-0.123D-01-0.327D-01
 Coeff:      0.969D-01 0.591D-01-0.213D-01-0.594D+00-0.714D+00-0.542D+00
 Coeff:      0.141D+01 0.135D+01
 Gap=     0.068 Goal=   None    Shift=    0.000
 RMSDP=2.79D-05 MaxDP=1.53D-03 DE=-4.39D-05 OVMax= 3.71D-03

 Cycle  15  Pass 1  IDiag  1:
 E= -1157.92804920836     Delta-E=       -0.000060209504 Rises=F Damp=F
 DIIS: error= 3.80D-04 at cycle  15 NSaved=  15.
 NSaved=15 IEnMin=15 EnMin= -1157.92804920836     IErMin=15 ErrMin= 3.80D-04
 ErrMax= 3.80D-04  0.00D+00 EMaxC= 1.00D-01 BMatC= 3.49D-06 BMatP= 1.63D-05
 IDIUse=3 WtCom= 9.96D-01 WtEn= 3.80D-03
 Coeff-Com: -0.403D-02 0.461D-02-0.149D-03-0.624D-02-0.449D-03-0.192D-02
 Coeff-Com:  0.409D-01 0.350D-01 0.243D-01-0.137D+00-0.277D+00-0.579D+00
 Coeff-Com:  0.620D-01 0.655D+00 0.118D+01
 Coeff-En:   0.000D+00 0.000D+00 0.000D+00 0.000D+00 0.000D+00 0.192D+00
 Coeff-En:   0.000D+00 0.000D+00 0.000D+00 0.000D+00 0.000D+00 0.000D+00
 Coeff-En:   0.000D+00 0.000D+00 0.808D+00
 Coeff:     -0.401D-02 0.459D-02-0.148D-03-0.621D-02-0.447D-03-0.119D-02
 Coeff:      0.408D-01 0.349D-01 0.242D-01-0.136D+00-0.276D+00-0.577D+00
 Coeff:      0.617D-01 0.652D+00 0.118D+01
 Gap=     0.068 Goal=   None    Shift=    0.000
 RMSDP=2.70D-05 MaxDP=1.43D-03 DE=-6.02D-05 OVMax= 3.03D-03

 Cycle  16  Pass 1  IDiag  1:
 E= -1157.92806555174     Delta-E=       -0.000016343376 Rises=F Damp=F
 DIIS: error= 2.72D-05 at cycle  16 NSaved=  16.
 NSaved=16 IEnMin=16 EnMin= -1157.92806555174     IErMin=16 ErrMin= 2.72D-05
 ErrMax= 2.72D-05  0.00D+00 EMaxC= 1.00D-01 BMatC= 1.82D-08 BMatP= 3.49D-06
 IDIUse=1 WtCom= 1.00D+00 WtEn= 0.00D+00
 Coeff-Com:  0.775D-02-0.886D-02 0.101D-04-0.368D-02-0.985D-03 0.659D-03
 Coeff-Com:  0.182D-01 0.274D-01 0.326D-01-0.277D-01-0.955D-01-0.278D+00
 Coeff-Com: -0.129D+00 0.216D+00 0.702D+00 0.539D+00
 Coeff:      0.775D-02-0.886D-02 0.101D-04-0.368D-02-0.985D-03 0.659D-03
 Coeff:      0.182D-01 0.274D-01 0.326D-01-0.277D-01-0.955D-01-0.278D+00
 Coeff:     -0.129D+00 0.216D+00 0.702D+00 0.539D+00
 Gap=     0.068 Goal=   None    Shift=    0.000
 RMSDP=6.01D-06 MaxDP=4.25D-04 DE=-1.63D-05 OVMax= 3.93D-04

 Cycle  17  Pass 1  IDiag  1:
 E= -1157.92806553940     Delta-E=        0.000000012337 Rises=F Damp=F
 DIIS: error= 2.26D-05 at cycle  17 NSaved=  17.
 NSaved=17 IEnMin=16 EnMin= -1157.92806555174     IErMin=17 ErrMin= 2.26D-05
 ErrMax= 2.26D-05  0.00D+00 EMaxC= 1.00D-01 BMatC= 1.89D-08 BMatP= 1.82D-08
 IDIUse=1 WtCom= 1.00D+00 WtEn= 0.00D+00
 Coeff-Com:  0.495D-03-0.558D-03-0.727D-03-0.222D-02-0.239D-02-0.274D-02
 Coeff-Com:  0.668D-02 0.186D-01 0.235D-01-0.163D-01-0.250D-01-0.370D-01
 Coeff-Com: -0.154D-01 0.158D-01 0.116D+00 0.306D+00 0.615D+00
 Coeff:      0.495D-03-0.558D-03-0.727D-03-0.222D-02-0.239D-02-0.274D-02
 Coeff:      0.668D-02 0.186D-01 0.235D-01-0.163D-01-0.250D-01-0.370D-01
 Coeff:     -0.154D-01 0.158D-01 0.116D+00 0.306D+00 0.615D+00
 Gap=     0.068 Goal=   None    Shift=    0.000
 RMSDP=3.46D-06 MaxDP=2.59D-04 DE= 1.23D-08 OVMax= 2.17D-04

 Cycle  18  Pass 1  IDiag  1:
 E= -1157.92806562284     Delta-E=       -0.000000083438 Rises=F Damp=F
 DIIS: error= 1.43D-06 at cycle  18 NSaved=  18.
 NSaved=18 IEnMin=18 EnMin= -1157.92806562284     IErMin=18 ErrMin= 1.43D-06
 ErrMax= 1.43D-06  0.00D+00 EMaxC= 1.00D-01 BMatC= 2.00D-10 BMatP= 1.82D-08
 IDIUse=1 WtCom= 1.00D+00 WtEn= 0.00D+00
 Coeff-Com:  0.116D-02-0.131D-02-0.350D-03-0.261D-04-0.445D-03-0.111D-02
 Coeff-Com: -0.786D-04 0.243D-02 0.257D-02-0.196D-01-0.761D-02 0.289D-01
 Coeff-Com:  0.487D-01-0.690D-02-0.109D+00-0.661D-01 0.230D+00 0.899D+00
 Coeff:      0.116D-02-0.131D-02-0.350D-03-0.261D-04-0.445D-03-0.111D-02
 Coeff:     -0.786D-04 0.243D-02 0.257D-02-0.196D-01-0.761D-02 0.289D-01
 Coeff:      0.487D-01-0.690D-02-0.109D+00-0.661D-01 0.230D+00 0.899D+00
 Gap=     0.068 Goal=   None    Shift=    0.000
 RMSDP=1.08D-06 MaxDP=8.91D-05 DE=-8.34D-08 OVMax= 3.45D-05

 Cycle  19  Pass 1  IDiag  1:
 E= -1157.92806562073     Delta-E=        0.000000002113 Rises=F Damp=F
 DIIS: error= 4.85D-06 at cycle  19 NSaved=  19.
 NSaved=19 IEnMin=18 EnMin= -1157.92806562284     IErMin=18 ErrMin= 1.43D-06
 ErrMax= 4.85D-06  0.00D+00 EMaxC= 1.00D-01 BMatC= 6.06D-10 BMatP= 2.00D-10
 IDIUse=1 WtCom= 1.00D+00 WtEn= 0.00D+00
 Coeff-Com:  0.559D-03-0.637D-03-0.879D-04 0.305D-04 0.209D-03-0.288D-03
 Coeff-Com:  0.104D-02-0.344D-04-0.120D-02-0.353D-02-0.610D-02-0.380D-02
 Coeff-Com:  0.126D-01 0.128D-01-0.936D-02-0.318D-01 0.267D-01 0.206D+00
 Coeff-Com:  0.797D+00
 Coeff:      0.559D-03-0.637D-03-0.879D-04 0.305D-04 0.209D-03-0.288D-03
 Coeff:      0.104D-02-0.344D-04-0.120D-02-0.353D-02-0.610D-02-0.380D-02
 Coeff:      0.126D-01 0.128D-01-0.936D-02-0.318D-01 0.267D-01 0.206D+00
 Coeff:      0.797D+00
 Gap=     0.068 Goal=   None    Shift=    0.000
 RMSDP=2.70D-07 MaxDP=1.54D-05 DE= 2.11D-09 OVMax= 2.36D-05

 Cycle  20  Pass 1  IDiag  1:
 E= -1157.92806562269     Delta-E=       -0.000000001959 Rises=F Damp=F
 DIIS: error= 2.03D-06 at cycle  20 NSaved=  20.
 NSaved=20 IEnMin=18 EnMin= -1157.92806562284     IErMin=18 ErrMin= 1.43D-06
 ErrMax= 2.03D-06  0.00D+00 EMaxC= 1.00D-01 BMatC= 1.17D-10 BMatP= 2.00D-10
 IDIUse=1 WtCom= 1.00D+00 WtEn= 0.00D+00
 Coeff-Com:  0.106D-03-0.121D-03-0.212D-04 0.283D-04 0.885D-04-0.951D-04
 Coeff-Com:  0.479D-03-0.108D-03-0.666D-03 0.281D-03-0.159D-02-0.257D-02
 Coeff-Com:  0.259D-02 0.439D-02 0.194D-02-0.566D-02-0.950D-02-0.127D-01
 Coeff-Com:  0.251D+00 0.772D+00
 Coeff:      0.106D-03-0.121D-03-0.212D-04 0.283D-04 0.885D-04-0.951D-04
 Coeff:      0.479D-03-0.108D-03-0.666D-03 0.281D-03-0.159D-02-0.257D-02
 Coeff:      0.259D-02 0.439D-02 0.194D-02-0.566D-02-0.950D-02-0.127D-01
 Coeff:      0.251D+00 0.772D+00
 Gap=     0.068 Goal=   None    Shift=    0.000
 RMSDP=2.14D-07 MaxDP=1.24D-05 DE=-1.96D-09 OVMax= 1.50D-05

 Cycle  21  Pass 1  IDiag  1:
 E= -1157.92806562320     Delta-E=       -0.000000000510 Rises=F Damp=F
 DIIS: error= 3.91D-07 at cycle  21 NSaved=  20.
 NSaved=20 IEnMin=20 EnMin= -1157.92806562320     IErMin=20 ErrMin= 3.91D-07
 ErrMax= 3.91D-07  0.00D+00 EMaxC= 1.00D-01 BMatC= 6.95D-12 BMatP= 1.17D-10
 IDIUse=1 WtCom= 1.00D+00 WtEn= 0.00D+00
 Coeff-Com:  0.315D-04-0.363D-04 0.245D-04 0.312D-04-0.155D-04 0.171D-03
 Coeff-Com: -0.530D-04-0.247D-03 0.764D-03-0.146D-03-0.125D-02-0.321D-03
 Coeff-Com:  0.959D-03 0.329D-02 0.202D-02-0.125D-01-0.482D-01 0.391D-01
 Coeff-Com:  0.617D+00 0.400D+00
 Coeff:      0.315D-04-0.363D-04 0.245D-04 0.312D-04-0.155D-04 0.171D-03
 Coeff:     -0.530D-04-0.247D-03 0.764D-03-0.146D-03-0.125D-02-0.321D-03
 Coeff:      0.959D-03 0.329D-02 0.202D-02-0.125D-01-0.482D-01 0.391D-01
 Coeff:      0.617D+00 0.400D+00
 Gap=     0.068 Goal=   None    Shift=    0.000
 RMSDP=9.41D-08 MaxDP=7.19D-06 DE=-5.10D-10 OVMax= 3.66D-06

 Cycle  22  Pass 1  IDiag  1:
 E= -1157.92806562322     Delta-E=       -0.000000000020 Rises=F Damp=F
 DIIS: error= 1.10D-07 at cycle  22 NSaved=  20.
 NSaved=20 IEnMin=20 EnMin= -1157.92806562322     IErMin=20 ErrMin= 1.10D-07
 ErrMax= 1.10D-07  0.00D+00 EMaxC= 1.00D-01 BMatC= 9.49D-13 BMatP= 6.95D-12
 IDIUse=1 WtCom= 1.00D+00 WtEn= 0.00D+00
 Coeff-Com: -0.137D-06 0.870D-05-0.319D-06-0.761D-05 0.543D-04 0.124D-04
 Coeff-Com: -0.349D-04 0.414D-03 0.119D-03-0.370D-03-0.482D-03-0.265D-04
 Coeff-Com:  0.184D-02 0.241D-02-0.700D-02-0.308D-01-0.146D-01 0.330D+00
 Coeff-Com:  0.318D+00 0.400D+00
 Coeff:     -0.137D-06 0.870D-05-0.319D-06-0.761D-05 0.543D-04 0.124D-04
 Coeff:     -0.349D-04 0.414D-03 0.119D-03-0.370D-03-0.482D-03-0.265D-04
 Coeff:      0.184D-02 0.241D-02-0.700D-02-0.308D-01-0.146D-01 0.330D+00
 Coeff:      0.318D+00 0.400D+00
 Gap=     0.068 Goal=   None    Shift=    0.000
 RMSDP=5.41D-08 MaxDP=3.21D-06 DE=-2.05D-11 OVMax= 1.45D-06

 Cycle  23  Pass 1  IDiag  1:
 E= -1157.92806562322     Delta-E=       -0.000000000003 Rises=F Damp=F
 DIIS: error= 1.97D-08 at cycle  23 NSaved=  20.
 NSaved=20 IEnMin=20 EnMin= -1157.92806562322     IErMin=20 ErrMin= 1.97D-08
 ErrMax= 1.97D-08  0.00D+00 EMaxC= 1.00D-01 BMatC= 5.19D-14 BMatP= 9.49D-13
 IDIUse=1 WtCom= 1.00D+00 WtEn= 0.00D+00
 Coeff-Com:  0.173D-05-0.626D-05-0.554D-07 0.727D-06 0.144D-04 0.191D-04
 Coeff-Com:  0.126D-03 0.122D-03-0.179D-04-0.317D-03-0.195D-03 0.709D-03
 Coeff-Com:  0.108D-02-0.219D-02-0.103D-01-0.169D-01 0.974D-01 0.134D+00
 Coeff-Com:  0.266D+00 0.530D+00
 Coeff:      0.173D-05-0.626D-05-0.554D-07 0.727D-06 0.144D-04 0.191D-04
 Coeff:      0.126D-03 0.122D-03-0.179D-04-0.317D-03-0.195D-03 0.709D-03
 Coeff:      0.108D-02-0.219D-02-0.103D-01-0.169D-01 0.974D-01 0.134D+00
 Coeff:      0.266D+00 0.530D+00
 Gap=     0.068 Goal=   None    Shift=    0.000
 RMSDP=1.34D-08 MaxDP=9.70D-07 DE=-2.50D-12 OVMax= 2.92D-07

 Cycle  24  Pass 1  IDiag  1:
 E= -1157.92806562322     Delta-E=        0.000000000000 Rises=F Damp=F
 DIIS: error= 1.00D-08 at cycle  24 NSaved=  20.
 NSaved=20 IEnMin=19 EnMin= -1157.92806562322     IErMin=20 ErrMin= 1.00D-08
 ErrMax= 1.00D-08  0.00D+00 EMaxC= 1.00D-01 BMatC= 9.99D-15 BMatP= 5.19D-14
 IDIUse=1 WtCom= 1.00D+00 WtEn= 0.00D+00
 Coeff-Com:  0.137D-05 0.160D-05-0.840D-06-0.396D-05-0.814D-05 0.347D-05
 Coeff-Com:  0.937D-05-0.970D-05-0.208D-04 0.100D-04 0.100D-03-0.209D-05
 Coeff-Com: -0.250D-03-0.937D-03-0.372D-02 0.659D-02 0.264D-01 0.909D-01
 Coeff-Com:  0.333D+00 0.548D+00
 Coeff:      0.137D-05 0.160D-05-0.840D-06-0.396D-05-0.814D-05 0.347D-05
 Coeff:      0.937D-05-0.970D-05-0.208D-04 0.100D-04 0.100D-03-0.209D-05
 Coeff:     -0.250D-03-0.937D-03-0.372D-02 0.659D-02 0.264D-01 0.909D-01
 Coeff:      0.333D+00 0.548D+00
 Gap=     0.068 Goal=   None    Shift=    0.000
 RMSDP=8.95D-09 MaxDP=6.63D-07 DE= 0.00D+00 OVMax= 2.00D-07

 SCF Done:  E(ROHF) =  -1157.92806562     A.U. after   24 cycles
            NFock= 24  Conv=0.90D-08     -V/T= 1.9621
 <Sx>= 0.0000 <Sy>= 0.0000 <Sz>= 3.0000 <S**2>=12.0000 S= 3.0000
 <L.S>=  0.00000000000    
 KE= 1.203539949706D+03 PE=-2.816641310363D+03 EE= 4.463536748519D+02
 Annihilation of the first spin contaminant:
 S**2 before annihilation    12.0000,   after    12.0000
 Leave Link  502 at Sun Feb 25 22:45:35 2018, MaxMem= 21474836480 cpu:             105.8 elap:               5.1
 (Enter /home1/apps/gaussian/16rA.03/g16/l801.exe)
 Windowed orbitals will be sorted by symmetry type.
 GenMOA:  NOpAll=  4 NOp2=4 NOpUse=  4 JSym2X=1
 FoFJK:  IHMeth= 1 ICntrl=       0 DoSepK=F KAlg= 0 I1Cent=           0 FoldK=F
 IRaf=         0 NMat=       1 IRICut=       1 DoRegI=T DoRafI=F ISym2E= 1 IDoP0=0 IntGTp=1.
 FoFCou: FMM=F IPFlag=           8 FMFlag=      100000 FMFlg1=           0
         NFxFlg=           0 DoJE=F BraDBF=F KetDBF=F FulRan=T
         wScrn=  0.000000 ICntrl=         0 IOpCl=  1 I1Cent=           0 NGrid=           0
         NMat0=    1 NMatS0=      1 NMatT0=    0 NMatD0=    1 NMtDS0=    0 NMtDT0=    0
 Petite list used in FoFCou.
 <Sx>= 0.0000 <Sy>= 0.0000 <Sz>= 3.0000 <S**2>=12.0000 S= 3.0000
 Range of M.O.s used for correlation:     6   212
 NBasis=   215 NAE=    16 NBE=    10 NFC=     5 NFV=     0
 NROrb=    207 NOA=    11 NOB=     5 NVA=   196 NVB=   202

 **** Warning!!: The largest alpha MO coefficient is  0.31850971D+03


 **** Warning!!: The largest beta MO coefficient is  0.31785000D+03

 Singles contribution to E2=   -0.1464527452D-02
 Leave Link  801 at Sun Feb 25 22:45:36 2018, MaxMem= 21474836480 cpu:              24.1 elap:               0.8
 (Enter /home1/apps/gaussian/16rA.03/g16/l804.exe)
 Open-shell transformation, MDV= 21474836480 ITran=4 ISComp=2.
 Unit  1 TFree=       1399451 TCopy=       1154387.
 Semi-Direct transformation.
 ModeAB=           2 MOrb=            11 LenV=   21473396424
 LASXX=     12094355 LTotXX=    12094355 LenRXX=    12094355
 LTotAB=    12347994 MaxLAS=    76076847 LenRXY=    76076847
 NonZer=    77666193 LenScr=   117273600 LnRSAI=           0
 LnScr1=           0 LExtra=     4695644 Total=    210140446
 MaxDsk= 67108864000 SrtSym=           F ITran=            4
 DoSDTr:  NPSUse= 32
 JobTyp=1 Pass  1:  I=   1 to  11.
 (rs|ai) integrals will be sorted in core.
 Complete sort for first half transformation.
 First half transformation complete.
 Begin second half transformation for I=  10.
 Begin second half transformation for I=  10.
 Complete sort for second half transformation.
 Second half transformation complete.
 ModeAB=           2 MOrb=             5 LenV=   21473396424
 LASXX=      5642123 LTotXX=     5642123 LenRXX=    34580385
 LTotAB=     5149339 MaxLAS=    34580385 LenRXY=     5149339
 NonZer=    35302815 LenScr=    53698560 LnRSAI=           0
 LnScr1=           0 LExtra=    92866846 Total=    186295130
 MaxDsk= 67108864000 SrtSym=           F ITran=            4
 DoSDTr:  NPSUse= 32
 JobTyp=2 Pass  1:  I=   1 to   5.
 (rs|ai) integrals will be sorted in core.
 Complete sort for first half transformation.
 First half transformation complete.
 Complete sort for second half transformation.
 Second half transformation complete.
 Spin components of T(2) and E(2):
     alpha-alpha T2 =       0.2657879087D-01 E2=     -0.1629425031D+00
     alpha-beta  T2 =       0.4995308953D-01 E2=     -0.3612279712D+00
     beta-beta   T2 =       0.5456770509D-02 E2=     -0.3776197108D-01
 ANorm=    0.1040707440D+01
 E2 =    -0.5633969728D+00 EUMP2 =    -0.11584914625960D+04
 (S**2,0)=  0.12000D+02           (S**2,1)=  0.12000D+02
 E(PUHF)=      -0.11579280656D+04        E(PMP2)=      -0.11584914626D+04
 Leave Link  804 at Sun Feb 25 22:46:02 2018, MaxMem= 21474836480 cpu:             805.9 elap:              25.3
 (Enter /home1/apps/gaussian/16rA.03/g16/l913.exe)
 CIDS:  MDV= 21474836480.
 Frozen-core window:  NFC=   5 NFV=   0.
 IFCWin=0 IBDFC=1 NFBD=     0     0 NFCmp=     0     0 NFFFC=     0     0
 Using original routines for 1st iteration.
 Using DD4UQ or CC4UQ for 2nd and later iterations.
 Keep R2 and R3 ints in memory in symmetry-blocked form, NReq=338807622.
 FoFCou: FMM=F IPFlag=           8 FMFlag=           0 FMFlg1=           0
         NFxFlg=           0 DoJE=F BraDBF=F KetDBF=F FulRan=T
         wScrn=  0.000000 ICntrl=       600 IOpCl=  0 I1Cent=           0 NGrid=           0
         NMat0=    1 NMatS0=  23220 NMatT0=    0 NMatD0=    1 NMtDS0=    0 NMtDT0=    0
 Petite list used in FoFCou.
 CIDS: In Core Option IDoMem=           1.
 CCSD(T)
 =======
 Iterations= 150 Convergence= 0.100D-06
 Produce multiple copies of IABC intergrals
 Iteration Nr.   1
 **********************
 DD1Dir will call FoFMem   1 times, MxPair=       176
 NAB=    55 NAA=    55 NBB=    10.
 DD1Dir will call FoFMem   1 times, MxPair=       176
 NAB=    55 NAA=    55 NBB=    10.
 MP4(R+Q)= -0.23266156D-02
 Maximum subspace dimension=  5
 A-vector RMS=  1.0507120D-04 Max=  1.1516827D-03 conv= 1.00D-05.
 RLE energy=       -0.5578709048
 E3=        0.78618645D-02        EROMP3=      -0.11584836007D+04
 E4(SDQ)=  -0.77921251D-02        ROMP4(SDQ)=  -0.11584913929D+04
 VARIATIONAL ENERGIES WITH THE FIRST-ORDER WAVEFUNCTION:
 DE(Corr)= -0.55781580     E(Corr)=     -1158.4858814    
 NORM(A)=   0.10392127D+01
 Iteration Nr.   2
 **********************
 DD1Dir will call FoFMem   1 times, MxPair=       176
 NAB=    55 NAA=    55 NBB=    10.
 A-vector RMS=  2.3193026D-03 Max=  1.7811192D-02 conv= 1.00D-05.
 RLE energy=       -0.5565499006
 DE(Corr)= -0.54965773     E(CORR)=     -1158.4777233     Delta= 8.16D-03
 NORM(A)=   0.10393784D+01
 Iteration Nr.   3
 **********************
 DD1Dir will call FoFMem   1 times, MxPair=       176
 NAB=    55 NAA=    55 NBB=    10.
 A-vector RMS=  2.0168835D-03 Max=  1.5673236D-02 conv= 1.00D-05.
 RLE energy=       -0.5600717360
 DE(Corr)= -0.55147525     E(CORR)=     -1158.4795409     Delta=-1.82D-03
 NORM(A)=   0.10438234D+01
 Iteration Nr.   4
 **********************
 DD1Dir will call FoFMem   1 times, MxPair=       176
 NAB=    55 NAA=    55 NBB=    10.
 A-vector RMS=  1.1391640D-03 Max=  9.5118596D-03 conv= 1.00D-05.
 RLE energy=       -0.5683287262
 DE(Corr)= -0.55769854     E(CORR)=     -1158.4857642     Delta=-6.22D-03
 NORM(A)=   0.10742109D+01
 Iteration Nr.   5
 **********************
 DD1Dir will call FoFMem   1 times, MxPair=       176
 NAB=    55 NAA=    55 NBB=    10.
 A-vector RMS=  1.9874214D-03 Max=  1.4085616D-02 conv= 1.00D-05.
 RLE energy=       -0.5636432622
 DE(Corr)= -0.57561420     E(CORR)=     -1158.5036798     Delta=-1.79D-02
 NORM(A)=   0.10537670D+01
 Iteration Nr.   6
 **********************
 DD1Dir will call FoFMem   1 times, MxPair=       176
 NAB=    55 NAA=    55 NBB=    10.
 A-vector RMS=  1.7324934D-04 Max=  1.6712734D-03 conv= 1.00D-05.
 RLE energy=       -0.5632799923
 DE(Corr)= -0.56391287     E(CORR)=     -1158.4919785     Delta= 1.17D-02
 NORM(A)=   0.10532583D+01
 Iteration Nr.   7
 **********************
 DD1Dir will call FoFMem   1 times, MxPair=       176
 NAB=    55 NAA=    55 NBB=    10.
 A-vector RMS=  7.6934826D-05 Max=  8.4766999D-04 conv= 1.00D-05.
 RLE energy=       -0.5633335597
 DE(Corr)= -0.56331381     E(CORR)=     -1158.4913794     Delta= 5.99D-04
 NORM(A)=   0.10535133D+01
 Iteration Nr.   8
 **********************
 DD1Dir will call FoFMem   1 times, MxPair=       176
 NAB=    55 NAA=    55 NBB=    10.
 A-vector RMS=  3.3111027D-05 Max=  4.5410423D-04 conv= 1.00D-05.
 RLE energy=       -0.5633499774
 DE(Corr)= -0.56336029     E(CORR)=     -1158.4914259     Delta=-4.65D-05
 NORM(A)=   0.10535289D+01
 Iteration Nr.   9
 **********************
 DD1Dir will call FoFMem   1 times, MxPair=       176
 NAB=    55 NAA=    55 NBB=    10.
 A-vector RMS=  1.8146014D-05 Max=  2.4521822D-04 conv= 1.00D-05.
 RLE energy=       -0.5633545508
 DE(Corr)= -0.56334444     E(CORR)=     -1158.4914101     Delta= 1.58D-05
 NORM(A)=   0.10535554D+01
 Iteration Nr.  10
 **********************
 DD1Dir will call FoFMem   1 times, MxPair=       176
 NAB=    55 NAA=    55 NBB=    10.
 A-vector RMS=  8.2895131D-06 Max=  1.0808950D-04 conv= 1.00D-05.
 RLE energy=       -0.5633543215
 DE(Corr)= -0.56335579     E(CORR)=     -1158.4914214     Delta=-1.14D-05
 NORM(A)=   0.10535409D+01
 Iteration Nr.  11
 **********************
 DD1Dir will call FoFMem   1 times, MxPair=       176
 NAB=    55 NAA=    55 NBB=    10.
 A-vector RMS=  2.7989822D-06 Max=  2.7870314D-05 conv= 1.00D-05.
 RLE energy=       -0.5633510241
 DE(Corr)= -0.56335082     E(CORR)=     -1158.4914164     Delta= 4.97D-06
 NORM(A)=   0.10535403D+01
 Iteration Nr.  12
 **********************
 DD1Dir will call FoFMem   1 times, MxPair=       176
 NAB=    55 NAA=    55 NBB=    10.
 A-vector RMS=  9.6340195D-07 Max=  9.8699568D-06 conv= 1.00D-05.
 RLE energy=       -0.5633511483
 DE(Corr)= -0.56335127     E(CORR)=     -1158.4914169     Delta=-4.52D-07
 NORM(A)=   0.10535399D+01
 Iteration Nr.  13
 **********************
 DD1Dir will call FoFMem   1 times, MxPair=       176
 NAB=    55 NAA=    55 NBB=    10.
 A-vector RMS=  5.6589690D-07 Max=  4.4287112D-06 conv= 1.00D-05.
 RLE energy=       -0.5633506924
 DE(Corr)= -0.56335065     E(CORR)=     -1158.4914163     Delta= 6.24D-07
 NORM(A)=   0.10535410D+01
 Iteration Nr.  14
 **********************
 DD1Dir will call FoFMem   1 times, MxPair=       176
 NAB=    55 NAA=    55 NBB=    10.
 A-vector RMS=  2.7378506D-07 Max=  2.7857669D-06 conv= 1.00D-05.
 RLE energy=       -0.5633509439
 DE(Corr)= -0.56335091     E(CORR)=     -1158.4914165     Delta=-2.61D-07
 NORM(A)=   0.10535420D+01
 Iteration Nr.  15
 **********************
 DD1Dir will call FoFMem   1 times, MxPair=       176
 NAB=    55 NAA=    55 NBB=    10.
 A-vector RMS=  1.7593736D-07 Max=  2.0339685D-06 conv= 1.00D-05.
 RLE energy=       -0.5633511638
 DE(Corr)= -0.56335106     E(CORR)=     -1158.4914167     Delta=-1.47D-07
 NORM(A)=   0.10535428D+01
 Iteration Nr.  16
 **********************
 DD1Dir will call FoFMem   1 times, MxPair=       176
 NAB=    55 NAA=    55 NBB=    10.
 A-vector RMS=  1.2867414D-07 Max=  1.5819449D-06 conv= 1.00D-05.
 RLE energy=       -0.5633512887
 DE(Corr)= -0.56335119     E(CORR)=     -1158.4914168     Delta=-1.30D-07
 NORM(A)=   0.10535434D+01
 Iteration Nr.  17
 **********************
 DD1Dir will call FoFMem   1 times, MxPair=       176
 NAB=    55 NAA=    55 NBB=    10.
 A-vector RMS=  7.0948789D-08 Max=  9.9429072D-07 conv= 1.00D-05.
 RLE energy=       -0.5633514032
 DE(Corr)= -0.56335134     E(CORR)=     -1158.4914170     Delta=-1.48D-07
 NORM(A)=   0.10535437D+01
 Iteration Nr.  18
 **********************
 DD1Dir will call FoFMem   1 times, MxPair=       176
 NAB=    55 NAA=    55 NBB=    10.
 A-vector RMS=  4.2125717D-08 Max=  5.5841920D-07 conv= 1.00D-05.
 RLE energy=       -0.5633513681
 DE(Corr)= -0.56335135     E(CORR)=     -1158.4914170     Delta=-1.90D-08
 NORM(A)=   0.10535437D+01
 CI/CC converged in   18 iterations to DelEn=-1.90D-08 Conv= 1.00D-07 ErrA1= 4.21D-08 Conv= 1.00D-05
 Wavefunction amplitudes converged. E(Corr)=     -1158.4914170    
 Largest amplitude= 4.22D-02
 Time for triples=     2564.55 seconds.
 T4(CCSD)= -0.15885950D-01
 T5(CCSD)=  0.94798986D-03
 CCSD(T)= -0.11585063549D+04
 Discarding MO integrals.
 Leave Link  913 at Sun Feb 25 22:48:20 2018, MaxMem= 21474836480 cpu:            4384.5 elap:             137.9
 (Enter /home1/apps/gaussian/16rA.03/g16/l601.exe)
 Copying SCF densities to generalized density rwf, IOpCl= 0 IROHF=1.

 **********************************************************************

            Population analysis using the SCF density.

 **********************************************************************

 Orbital symmetries:
       Occupied  (SG) (SG) (PI) (PI) (SG) (SG) (PI) (PI) (SG) (SG)
                 (DLTA) (DLTA) (SG) (PI) (PI) (SG)
       Virtual   (PI) (PI) (SG) (SG) (PI) (PI) (DLTA) (DLTA) (SG)
                 (PI) (PI) (SG) (SG) (SG) (PI) (PI) (SG) (DLTA)
                 (DLTA) (PI) (PI) (PI) (PI) (SG) (SG) (SG) (SG)
                 (DLTA) (DLTA) (PHI) (PHI) (PI) (PI) (PI) (PI)
                 (SG) (SG) (DLTA) (DLTA) (PI) (PI) (SG) (DLTA)
                 (DLTA) (PI) (PI) (SG) (PI) (PI) (SG) (SG) (PHI)
                 (PHI) (DLTA) (DLTA) (PI) (PI) (SG) (PI) (PI) (SG)
                 (?A) (?A) (PHI) (PHI) (SG) (PI) (PI) (DLTA) (DLTA)
                 (DLTA) (DLTA) (SG) (PI) (PI) (SG) (DLTA) (DLTA)
                 (PI) (PI) (PI) (PI) (SG) (SG) (SG) (PHI) (PHI)
                 (DLTA) (DLTA) (PI) (PI) (DLTA) (DLTA) (SG) (PI)
                 (PI) (SG) (PI) (PI) (SG) (?A) (?A) (PHI) (PHI)
                 (DLTA) (DLTA) (PI) (PI) (SG) (SG) (SG) (DLTA)
                 (DLTA) (PI) (PI) (SG) (PHI) (PHI) (DLTA) (DLTA)
                 (PI) (PI) (PI) (PI) (SG) (SG) (?A) (?A) (PHI)
                 (PHI) (DLTA) (DLTA) (PI) (PI) (SG) (DLTA) (DLTA)
                 (PI) (PI) (SG) (SG) (PI) (PI) (SG) (DLTA) (DLTA)
                 (PI) (PI) (SG) (SG) (SG) (PI) (PI) (SG) (DLTA)
                 (DLTA) (PI) (PI) (SG) (SG) (PI) (PI) (SG) (SG)
                 (PI) (PI) (SG) (DLTA) (DLTA) (PI) (PI) (SG) (PI)
                 (PI) (SG) (SG) (PI) (PI) (SG) (SG) (PI) (PI) (SG)
                 (SG) (SG) (PI) (PI) (SG) (SG) (PI) (PI) (SG) (SG)
                 (SG) (SG) (SG)
 The electronic state is 7-SG.
 Alpha  occ. eigenvalues -- -242.49269 -29.59774 -24.95215 -24.95215 -24.95109
 Alpha  occ. eigenvalues --   -4.08719  -2.73964  -2.73927  -2.73927  -0.64431
 Alpha  occ. eigenvalues --   -0.63574  -0.63574  -0.62960  -0.62960  -0.41744
 Alpha  occ. eigenvalues --   -0.25299
 Alpha virt. eigenvalues --    0.01343   0.01343   0.02254   0.03196   0.05823
 Alpha virt. eigenvalues --    0.05823   0.08465   0.08507   0.08507   0.08963
 Alpha virt. eigenvalues --    0.08963   0.09399   0.14133   0.20685   0.22787
 Alpha virt. eigenvalues --    0.22787   0.25447   0.29765   0.29765   0.29846
 Alpha virt. eigenvalues --    0.29846   0.35063   0.35329   0.35329   0.42176
 Alpha virt. eigenvalues --    0.53600   0.67531   0.75759   0.75759   0.76604
 Alpha virt. eigenvalues --    0.76604   0.79230   0.79230   0.85886   0.85886
 Alpha virt. eigenvalues --    0.90511   0.92670   0.96822   0.96822   0.97226
 Alpha virt. eigenvalues --    0.97226   1.07717   1.08416   1.08416   1.10334
 Alpha virt. eigenvalues --    1.10334   1.44373   1.63338   1.63338   1.72740
 Alpha virt. eigenvalues --    1.89538   2.31801   2.31801   2.34116   2.34116
 Alpha virt. eigenvalues --    2.40789   2.40789   2.51753   2.61510   2.61510
 Alpha virt. eigenvalues --    2.75483   2.76763   2.76763   2.78217   2.78217
 Alpha virt. eigenvalues --    2.84569   2.84865   2.84865   2.86111   2.86111
 Alpha virt. eigenvalues --    2.90200   2.90200   3.05866   3.26690   3.26690
 Alpha virt. eigenvalues --    3.48502   4.05199   4.05199   4.46199   4.46199
 Alpha virt. eigenvalues --    4.67474   4.67474   4.95414   5.15443   5.73055
 Alpha virt. eigenvalues --    6.35941   6.35941   6.39174   6.39174   6.56969
 Alpha virt. eigenvalues --    6.56969   6.73371   6.73371   6.78853   6.84501
 Alpha virt. eigenvalues --    6.84501   7.20358   7.39568   7.39568   8.12714
 Alpha virt. eigenvalues --    8.14803   8.14803   8.15597   8.15597   8.22953
 Alpha virt. eigenvalues --    8.22953   8.42661   8.42661   8.56556  10.59964
 Alpha virt. eigenvalues --   12.24746  13.54334  13.54334  13.61171  13.61171
 Alpha virt. eigenvalues --   13.84804  17.42324  17.42324  17.43957  17.43957
 Alpha virt. eigenvalues --   17.53004  17.53004  17.59462  17.59462  17.73174
 Alpha virt. eigenvalues --   18.11294  22.06264  22.06264  22.06536  22.06536
 Alpha virt. eigenvalues --   22.10168  22.10168  22.20656  22.20656  22.27062
 Alpha virt. eigenvalues --   25.06486  25.06486  25.12402  25.12402  25.24493
 Alpha virt. eigenvalues --   25.72117  36.57331  36.57331  36.93130  45.61120
 Alpha virt. eigenvalues --   45.61120  45.66288  45.66288  45.83950  52.97870
 Alpha virt. eigenvalues --   62.12159  71.46342  71.46342  71.86811  98.71389
 Alpha virt. eigenvalues --   98.71389  98.75456  98.75456  98.89815 118.69533
 Alpha virt. eigenvalues --  142.94034 142.94034 143.34155 291.20834 302.79286
 Alpha virt. eigenvalues --  302.79286 303.14314 306.08473 306.08473 306.11105
 Alpha virt. eigenvalues --  306.11105 306.21825 675.07393 675.07394 675.38610
 Alpha virt. eigenvalues --  729.879871571.464641571.464641571.724891788.29483
 Alpha virt. eigenvalues -- 3811.733943811.733943811.936854234.484949610.65503
 Alpha virt. eigenvalues -- 9658.673489658.673489658.81093********************
 Alpha virt. eigenvalues -- **************************************************
 Alpha virt. eigenvalues -- **********
     Molecular Orbital Coefficients:
                           6         7         8         9        10
                           O         O         O         O         O
     Eigenvalues --    -4.08719  -2.73964  -2.73927  -2.73927  -0.64431
   1 1   Mn 1S          0.00002   0.00000   0.00000  -0.00000  -0.00000
   2        2S          0.00005   0.00000   0.00000  -0.00000  -0.00001
   3        3S          0.00013   0.00000   0.00000  -0.00000  -0.00002
   4        4S          0.00034   0.00000   0.00000  -0.00000  -0.00005
   5        5S          0.00091   0.00000   0.00000  -0.00000  -0.00013
   6        6S          0.00245   0.00000   0.00000  -0.00001  -0.00036
   7        7S          0.00647   0.00000   0.00000  -0.00001  -0.00095
   8        8S          0.01623   0.00000   0.00000  -0.00004  -0.00239
   9        9S          0.03595   0.00000   0.00000  -0.00008  -0.00528
  10       10S          0.06598   0.00000   0.00000  -0.00016  -0.00980
  11       11S          0.07414   0.00000   0.00000  -0.00014  -0.01089
  12       12S         -0.02525   0.00000   0.00000  -0.00001   0.00339
  13       13S         -0.30916   0.00000   0.00000   0.00099   0.04945
  14       14S         -0.43887   0.00000   0.00000  -0.00003   0.06633
  15       15S          0.17150   0.00000   0.00000  -0.00489  -0.06007
  16       16S          0.68477   0.00000   0.00000   0.00425  -0.08026
  17       17S          0.37728   0.00000   0.00000   0.00283  -0.11015
  18       18S          0.01676   0.00000   0.00000   0.00646   0.20593
  19       19S         -0.00668   0.00000   0.00000   0.01122   0.08446
  20       20S          0.00473   0.00000   0.00000  -0.00531   0.01032
  21       21S         -0.02828   0.00000   0.00000   0.00362   0.02459
  22       22S          0.04329   0.00000   0.00000  -0.00721  -0.09485
  23       23S         -0.00061   0.00000   0.00000  -0.00076  -0.01343
  24       24PX         0.00000   0.00000  -0.00004   0.00000   0.00000
  25       24PY         0.00000  -0.00004   0.00000   0.00000   0.00000
  26       24PZ        -0.00000   0.00000   0.00000  -0.00004  -0.00001
  27       25PX         0.00000   0.00000  -0.00020   0.00000   0.00000
  28       25PY         0.00000  -0.00020   0.00000   0.00000   0.00000
  29       25PZ        -0.00000   0.00000   0.00000  -0.00020  -0.00003
  30       26PX         0.00000   0.00000  -0.00093   0.00000   0.00000
  31       26PY         0.00000  -0.00093   0.00000   0.00000   0.00000
  32       26PZ        -0.00000   0.00000   0.00000  -0.00093  -0.00013
  33       27PX         0.00000   0.00000  -0.00371   0.00000   0.00000
  34       27PY         0.00000  -0.00371   0.00000   0.00000   0.00000
  35       27PZ        -0.00001   0.00000   0.00000  -0.00371  -0.00052
  36       28PX         0.00000   0.00000  -0.01269   0.00000   0.00000
  37       28PY         0.00000  -0.01269   0.00000   0.00000   0.00000
  38       28PZ        -0.00003   0.00000   0.00000  -0.01270  -0.00178
  39       29PX         0.00000   0.00000  -0.03623   0.00000   0.00000
  40       29PY         0.00000  -0.03623   0.00000   0.00000   0.00000
  41       29PZ        -0.00008   0.00000   0.00000  -0.03627  -0.00508
  42       30PX         0.00000   0.00000  -0.08145   0.00000   0.00000
  43       30PY         0.00000  -0.08145   0.00000   0.00000   0.00000
  44       30PZ        -0.00017   0.00000   0.00000  -0.08149  -0.01148
  45       31PX         0.00000   0.00000  -0.13540   0.00000   0.00000
  46       31PY         0.00000  -0.13540   0.00000   0.00000   0.00000
  47       31PZ        -0.00032   0.00000   0.00000  -0.13557  -0.01908
  48       32PX         0.00000   0.00000  -0.13828   0.00000   0.00000
  49       32PY         0.00000  -0.13828   0.00000   0.00000   0.00000
  50       32PZ        -0.00024   0.00000   0.00000  -0.13814  -0.01977
  51       33PX         0.00000   0.00000   0.05075   0.00000   0.00000
  52       33PY         0.00000   0.05075   0.00000   0.00000   0.00000
  53       33PZ         0.00210   0.00000   0.00000   0.05414   0.00750
  54       34PX         0.00000   0.00000   0.32548   0.00000   0.00000
  55       34PY         0.00000   0.32548   0.00000   0.00000   0.00000
  56       34PZ         0.00022   0.00000   0.00000   0.32602   0.05214
  57       35PX         0.00000   0.00000   0.23614   0.00000   0.00000
  58       35PY         0.00000   0.23614   0.00000   0.00000   0.00000
  59       35PZ        -0.00178   0.00000   0.00000   0.23730   0.03990
  60       36PX         0.00000   0.00000   0.28610   0.00000   0.00000
  61       36PY         0.00000   0.28610   0.00000   0.00000   0.00000
  62       36PZ         0.00090   0.00000   0.00000   0.28196   0.05248
  63       37PX         0.00000   0.00000   0.04091   0.00000   0.00000
  64       37PY         0.00000   0.04091   0.00000   0.00000   0.00000
  65       37PZ         0.00235   0.00000   0.00000   0.03802  -0.06940
  66       38PX         0.00000   0.00000  -0.00371   0.00000   0.00000
  67       38PY         0.00000  -0.00371   0.00000   0.00000   0.00000
  68       38PZ        -0.00236   0.00000   0.00000  -0.00971  -0.08775
  69       39PX         0.00000   0.00000   0.00169   0.00000   0.00000
  70       39PY         0.00000   0.00169   0.00000   0.00000   0.00000
  71       39PZ        -0.00029   0.00000   0.00000   0.00349  -0.01919
  72       40PX         0.00000   0.00000  -0.01964   0.00000   0.00000
  73       40PY         0.00000  -0.01964   0.00000   0.00000   0.00000
  74       40PZ        -0.00201   0.00000   0.00000  -0.02269  -0.00102
  75       41PX         0.00000   0.00000   0.22642   0.00000   0.00000
  76       41PY         0.00000   0.22642   0.00000   0.00000   0.00000
  77       41PZ         0.00312   0.00000   0.00000   0.22612   0.03988
  78       42PX         0.00000   0.00000  -0.00051   0.00000   0.00000
  79       42PY         0.00000  -0.00051   0.00000   0.00000   0.00000
  80       42PZ        -0.00029   0.00000   0.00000   0.00041   0.00363
  81       43D 0       -0.00001   0.00000   0.00000   0.00002   0.00058
  82       43D+1        0.00000   0.00000   0.00000   0.00000   0.00000
  83       43D-1        0.00000   0.00000   0.00000   0.00000   0.00000
  84       43D+2        0.00000   0.00000   0.00000  -0.00000   0.00000
  85       43D-2        0.00000   0.00000   0.00000   0.00000   0.00000
  86       44D 0       -0.00008   0.00000   0.00000   0.00018   0.00414
  87       44D+1        0.00000   0.00000   0.00002   0.00000   0.00000
  88       44D-1        0.00000   0.00002   0.00000   0.00000   0.00000
  89       44D+2        0.00000   0.00000   0.00000  -0.00000   0.00000
  90       44D-2        0.00000   0.00000   0.00000   0.00000   0.00000
  91       45D 0       -0.00025   0.00000   0.00000   0.00067   0.01572
  92       45D+1        0.00000   0.00000   0.00007   0.00000   0.00000
  93       45D-1        0.00000   0.00007   0.00000   0.00000   0.00000
  94       45D+2        0.00000   0.00000   0.00000  -0.00000   0.00000
  95       45D-2        0.00000   0.00000   0.00000   0.00000   0.00000
  96       46D 0       -0.00126   0.00000   0.00000   0.00194   0.03909
  97       46D+1        0.00000   0.00000   0.00026   0.00000   0.00000
  98       46D-1        0.00000   0.00026   0.00000   0.00000   0.00000
  99       46D+2       -0.00000   0.00000   0.00000  -0.00000   0.00000
 100       46D-2        0.00000   0.00000   0.00000   0.00000   0.00000
 101       47D 0        0.00186   0.00000   0.00000   0.00872   0.01674
 102       47D+1        0.00000   0.00000   0.00101   0.00000   0.00000
 103       47D-1        0.00000   0.00101   0.00000   0.00000   0.00000
 104       47D+2        0.00000   0.00000   0.00000  -0.00000   0.00000
 105       47D-2        0.00000   0.00000   0.00000   0.00000   0.00000
 106       48D 0       -0.00245   0.00000   0.00000   0.00250   0.06848
 107       48D+1        0.00000   0.00000   0.00071   0.00000   0.00000
 108       48D-1        0.00000   0.00071   0.00000   0.00000   0.00000
 109       48D+2       -0.00000   0.00000   0.00000  -0.00000   0.00000
 110       48D-2        0.00000   0.00000   0.00000   0.00000   0.00000
 111       49D 0       -0.00131   0.00000   0.00000   0.00270   0.05760
 112       49D+1        0.00000   0.00000   0.00003   0.00000   0.00000
 113       49D-1        0.00000   0.00003   0.00000   0.00000   0.00000
 114       49D+2       -0.00000   0.00000   0.00000  -0.00000  -0.00000
 115       49D-2        0.00000   0.00000   0.00000   0.00000   0.00000
 116       50D 0        0.00074   0.00000   0.00000   0.00258   0.01831
 117       50D+1        0.00000   0.00000   0.00011   0.00000   0.00000
 118       50D-1        0.00000   0.00011   0.00000   0.00000   0.00000
 119       50D+2       -0.00000   0.00000   0.00000  -0.00000  -0.00000
 120       50D-2        0.00000   0.00000   0.00000   0.00000   0.00000
 121       51D 0        0.00075   0.00000   0.00000  -0.00017  -0.00133
 122       51D+1        0.00000   0.00000   0.00003   0.00000   0.00000
 123       51D-1        0.00000   0.00003   0.00000   0.00000   0.00000
 124       51D+2        0.00000   0.00000   0.00000  -0.00000  -0.00000
 125       51D-2        0.00000   0.00000   0.00000   0.00000   0.00000
 126       52D 0       -0.00332   0.00000   0.00000  -0.00566   0.04075
 127       52D+1        0.00000   0.00000  -0.00054   0.00000   0.00000
 128       52D-1        0.00000  -0.00054   0.00000   0.00000   0.00000
 129       52D+2       -0.00000   0.00000   0.00000   0.00000   0.00000
 130       52D-2        0.00000   0.00000   0.00000   0.00000   0.00000
 131       53D 0        0.00003   0.00000   0.00000  -0.00078  -0.00104
 132       53D+1        0.00000   0.00000   0.00001   0.00000   0.00000
 133       53D-1        0.00000   0.00001   0.00000   0.00000   0.00000
 134       53D+2        0.00000   0.00000   0.00000  -0.00000  -0.00000
 135       53D-2        0.00000   0.00000   0.00000   0.00000   0.00000
 136       54F 0        0.00002   0.00000   0.00000  -0.00006  -0.00036
 137       54F+1        0.00000   0.00000  -0.00004   0.00000   0.00000
 138       54F-1        0.00000  -0.00004   0.00000   0.00000   0.00000
 139       54F+2        0.00000   0.00000   0.00000  -0.00000   0.00000
 140       54F-2        0.00000   0.00000   0.00000   0.00000   0.00000
 141       54F+3        0.00000   0.00000   0.00000   0.00000   0.00000
 142       54F-3        0.00000   0.00000   0.00000   0.00000   0.00000
 143       55F 0        0.00002   0.00000   0.00000  -0.00059  -0.00167
 144       55F+1        0.00000   0.00000  -0.00053   0.00000   0.00000
 145       55F-1        0.00000  -0.00053   0.00000   0.00000   0.00000
 146       55F+2        0.00000   0.00000   0.00000  -0.00000   0.00000
 147       55F-2        0.00000   0.00000   0.00000   0.00000   0.00000
 148       55F+3        0.00000   0.00000   0.00000   0.00000   0.00000
 149       55F-3        0.00000   0.00000   0.00000   0.00000   0.00000
 150       56F 0        0.00017   0.00000   0.00000  -0.00088  -0.00852
 151       56F+1        0.00000   0.00000  -0.00118   0.00000   0.00000
 152       56F-1        0.00000  -0.00118   0.00000   0.00000   0.00000
 153       56F+2        0.00000   0.00000   0.00000  -0.00000   0.00000
 154       56F-2        0.00000   0.00000   0.00000   0.00000   0.00000
 155       56F+3        0.00000   0.00000  -0.00000   0.00000   0.00000
 156       56F-3        0.00000   0.00000   0.00000   0.00000   0.00000
 157       57F 0        0.00015   0.00000   0.00000  -0.00029  -0.00509
 158       57F+1        0.00000   0.00000   0.00012   0.00000   0.00000
 159       57F-1        0.00000   0.00012   0.00000   0.00000   0.00000
 160       57F+2        0.00000   0.00000   0.00000  -0.00000   0.00000
 161       57F-2        0.00000   0.00000   0.00000   0.00000   0.00000
 162       57F+3        0.00000   0.00000   0.00000   0.00000   0.00000
 163       57F-3        0.00000   0.00000   0.00000   0.00000   0.00000
 164       58G 0       -0.00001   0.00000   0.00000   0.00001  -0.00004
 165       58G+1        0.00000   0.00000  -0.00000   0.00000   0.00000
 166       58G-1        0.00000  -0.00000   0.00000   0.00000   0.00000
 167       58G+2       -0.00000   0.00000   0.00000  -0.00000  -0.00000
 168       58G-2        0.00000   0.00000   0.00000   0.00000   0.00000
 169       58G+3        0.00000   0.00000  -0.00000   0.00000   0.00000
 170       58G-3        0.00000  -0.00000   0.00000   0.00000   0.00000
 171       58G+4        0.00000   0.00000   0.00000  -0.00000   0.00000
 172       58G-4        0.00000   0.00000   0.00000   0.00000   0.00000
 173       59G 0        0.00005   0.00000   0.00000  -0.00009   0.00055
 174       59G+1        0.00000   0.00000   0.00002   0.00000   0.00000
 175       59G-1        0.00000   0.00002   0.00000   0.00000   0.00000
 176       59G+2       -0.00000   0.00000   0.00000   0.00000  -0.00000
 177       59G-2        0.00000   0.00000   0.00000   0.00000   0.00000
 178       59G+3        0.00000   0.00000  -0.00000   0.00000   0.00000
 179       59G-3        0.00000   0.00000   0.00000   0.00000   0.00000
 180       59G+4        0.00000   0.00000   0.00000   0.00000  -0.00000
 181       59G-4        0.00000   0.00000   0.00000   0.00000   0.00000
 182       60G 0        0.00004   0.00000   0.00000  -0.00020   0.00170
 183       60G+1        0.00000   0.00000  -0.00006   0.00000   0.00000
 184       60G-1        0.00000  -0.00006   0.00000   0.00000   0.00000
 185       60G+2       -0.00000   0.00000   0.00000   0.00000  -0.00000
 186       60G-2        0.00000   0.00000   0.00000   0.00000   0.00000
 187       60G+3        0.00000   0.00000  -0.00000   0.00000   0.00000
 188       60G-3        0.00000   0.00000   0.00000   0.00000   0.00000
 189       60G+4       -0.00000   0.00000   0.00000  -0.00000   0.00000
 190       60G-4        0.00000   0.00000   0.00000   0.00000   0.00000
 191 2   H  1S          0.00005   0.00000   0.00000  -0.00024   0.00502
 192        2S          0.00029   0.00000   0.00000  -0.00143   0.03655
 193        3S          0.00096   0.00000   0.00000  -0.00617   0.14899
 194        4S          0.00291   0.00000   0.00000  -0.00847   0.33243
 195        5S         -0.00296   0.00000   0.00000  -0.01603   0.29435
 196        6S         -0.00149   0.00000   0.00000   0.00465   0.03427
 197        7PX         0.00000   0.00000   0.00039   0.00000   0.00000
 198        7PY         0.00000   0.00039   0.00000   0.00000   0.00000
 199        7PZ         0.00044   0.00000   0.00000  -0.00183   0.00651
 200        8PX         0.00000   0.00000   0.00026   0.00000   0.00000
 201        8PY         0.00000   0.00026   0.00000   0.00000   0.00000
 202        8PZ         0.00165   0.00000   0.00000  -0.00321   0.02337
 203        9PX         0.00000   0.00000   0.00010   0.00000   0.00000
 204        9PY         0.00000   0.00010   0.00000   0.00000   0.00000
 205        9PZ        -0.00093   0.00000   0.00000  -0.00462   0.01911
 206       10D 0        0.00029   0.00000   0.00000  -0.00075   0.00175
 207       10D+1        0.00000   0.00000   0.00033   0.00000   0.00000
 208       10D-1        0.00000   0.00033   0.00000   0.00000   0.00000
 209       10D+2       -0.00000   0.00000   0.00000   0.00000  -0.00000
 210       10D-2        0.00000   0.00000   0.00000   0.00000   0.00000
 211       11D 0        0.00047   0.00000   0.00000  -0.00082   0.00030
 212       11D+1        0.00000   0.00000  -0.00016   0.00000   0.00000
 213       11D-1        0.00000  -0.00016   0.00000   0.00000   0.00000
 214       11D+2       -0.00000   0.00000   0.00000   0.00000  -0.00000
 215       11D-2        0.00000   0.00000   0.00000   0.00000   0.00000
                          11        12        13        14        15
                           O         O         O         O         O
     Eigenvalues --    -0.63574  -0.63574  -0.62960  -0.62960  -0.41744
   1 1   Mn 1S          0.00000   0.00000   0.00000   0.00000   0.00000
   2        2S          0.00000   0.00000   0.00001   0.00000   0.00000
   3        3S          0.00000   0.00000   0.00002   0.00000   0.00000
   4        4S          0.00000   0.00000   0.00005   0.00000   0.00000
   5        5S          0.00000   0.00000   0.00012   0.00000   0.00000
   6        6S          0.00000   0.00000   0.00034   0.00000   0.00000
   7        7S          0.00000   0.00000   0.00088   0.00000   0.00000
   8        8S          0.00000   0.00000   0.00223   0.00000   0.00000
   9        9S          0.00000   0.00000   0.00491   0.00000   0.00000
  10       10S          0.00000   0.00000   0.00916   0.00000   0.00000
  11       11S          0.00000   0.00000   0.01009   0.00000   0.00000
  12       12S         -0.00000   0.00000  -0.00297   0.00000   0.00000
  13       13S         -0.00000   0.00000  -0.04682   0.00000   0.00000
  14       14S         -0.00000   0.00000  -0.05977   0.00000   0.00000
  15       15S         -0.00000   0.00000   0.07155   0.00000   0.00000
  16       16S          0.00000   0.00000   0.06084   0.00000   0.00000
  17       17S          0.00000   0.00000   0.08583   0.00000   0.00000
  18       18S          0.00000   0.00000  -0.26611   0.00000   0.00000
  19       19S          0.00000   0.00000  -0.27170   0.00000   0.00000
  20       20S          0.00000   0.00000  -0.08730   0.00000   0.00000
  21       21S          0.00000   0.00000  -0.03438   0.00000   0.00000
  22       22S         -0.00000   0.00000   0.11748   0.00000   0.00000
  23       23S          0.00000   0.00000   0.00397   0.00000   0.00000
  24       24PX         0.00000   0.00000   0.00000   0.00000   0.00000
  25       24PY         0.00000   0.00000   0.00000   0.00000   0.00000
  26       24PZ        -0.00000   0.00000  -0.00000   0.00000   0.00000
  27       25PX         0.00000   0.00000   0.00000   0.00000   0.00000
  28       25PY         0.00000   0.00000   0.00000   0.00000   0.00000
  29       25PZ        -0.00000   0.00000  -0.00000   0.00000   0.00000
  30       26PX         0.00000   0.00000   0.00000   0.00000   0.00001
  31       26PY         0.00000   0.00000   0.00000   0.00001   0.00000
  32       26PZ        -0.00000   0.00000  -0.00002   0.00000   0.00000
  33       27PX         0.00000   0.00000   0.00000   0.00000   0.00002
  34       27PY         0.00000   0.00000   0.00000   0.00002   0.00000
  35       27PZ        -0.00000   0.00000  -0.00009   0.00000   0.00000
  36       28PX         0.00000   0.00000   0.00000   0.00000   0.00007
  37       28PY         0.00000   0.00000   0.00000   0.00007   0.00000
  38       28PZ        -0.00000   0.00000  -0.00032   0.00000   0.00000
  39       29PX         0.00000   0.00000   0.00000   0.00000   0.00021
  40       29PY         0.00000   0.00000   0.00000   0.00021   0.00000
  41       29PZ        -0.00000   0.00000  -0.00091   0.00000   0.00000
  42       30PX         0.00000   0.00000   0.00000   0.00000   0.00047
  43       30PY         0.00000   0.00000   0.00000   0.00047   0.00000
  44       30PZ        -0.00000   0.00000  -0.00211   0.00000   0.00000
  45       31PX         0.00000   0.00000   0.00000   0.00000   0.00082
  46       31PY         0.00000   0.00000   0.00000   0.00082   0.00000
  47       31PZ        -0.00000   0.00000  -0.00338   0.00000   0.00000
  48       32PX         0.00000   0.00000   0.00000   0.00000   0.00072
  49       32PY         0.00000   0.00000   0.00000   0.00072   0.00000
  50       32PZ        -0.00000   0.00000  -0.00391   0.00000   0.00000
  51       33PX         0.00000   0.00000   0.00000   0.00000  -0.00211
  52       33PY         0.00000   0.00000   0.00000  -0.00211   0.00000
  53       33PZ        -0.00000   0.00000  -0.00382   0.00000   0.00000
  54       34PX         0.00000   0.00000   0.00000   0.00000  -0.00188
  55       34PY         0.00000   0.00000   0.00000  -0.00188   0.00000
  56       34PZ         0.00000   0.00000   0.01043   0.00000   0.00000
  57       35PX         0.00000   0.00000   0.00000   0.00000  -0.00123
  58       35PY         0.00000   0.00000   0.00000  -0.00123   0.00000
  59       35PZ        -0.00000   0.00000   0.01134   0.00000   0.00000
  60       36PX         0.00000   0.00000   0.00000   0.00000  -0.00158
  61       36PY         0.00000   0.00000   0.00000  -0.00158   0.00000
  62       36PZ         0.00000   0.00000   0.01596   0.00000   0.00000
  63       37PX         0.00000   0.00000   0.00000   0.00000   0.00662
  64       37PY         0.00000   0.00000   0.00000   0.00662   0.00000
  65       37PZ        -0.00000   0.00000  -0.01881   0.00000   0.00000
  66       38PX         0.00000   0.00000   0.00000   0.00000   0.00623
  67       38PY         0.00000   0.00000   0.00000   0.00623   0.00000
  68       38PZ        -0.00000   0.00000  -0.09381   0.00000   0.00000
  69       39PX         0.00000   0.00000   0.00000   0.00000   0.00039
  70       39PY         0.00000   0.00000   0.00000   0.00039   0.00000
  71       39PZ        -0.00000   0.00000  -0.06884   0.00000   0.00000
  72       40PX         0.00000   0.00000   0.00000   0.00000   0.00174
  73       40PY         0.00000   0.00000   0.00000   0.00174   0.00000
  74       40PZ         0.00000   0.00000   0.00479   0.00000   0.00000
  75       41PX         0.00000   0.00000   0.00000   0.00000  -0.00286
  76       41PY         0.00000   0.00000   0.00000  -0.00286   0.00000
  77       41PZ         0.00000   0.00000   0.00225   0.00000   0.00000
  78       42PX         0.00000   0.00000   0.00000   0.00000   0.00009
  79       42PY         0.00000   0.00000   0.00000   0.00009   0.00000
  80       42PZ        -0.00000   0.00000   0.00044   0.00000   0.00000
  81       43D 0        0.00000   0.00000   0.00309   0.00000   0.00000
  82       43D+1        0.00000   0.00000   0.00000   0.00000   0.00371
  83       43D-1        0.00000   0.00000   0.00000   0.00371   0.00000
  84       43D+2        0.00370   0.00000  -0.00000   0.00000   0.00000
  85       43D-2        0.00000   0.00370   0.00000   0.00000   0.00000
  86       44D 0        0.00000   0.00000   0.02210   0.00000   0.00000
  87       44D+1        0.00000   0.00000   0.00000   0.00000   0.02648
  88       44D-1        0.00000   0.00000   0.00000   0.02648   0.00000
  89       44D+2        0.02648   0.00000  -0.00000   0.00000   0.00000
  90       44D-2        0.00000   0.02648   0.00000   0.00000   0.00000
  91       45D 0        0.00000   0.00000   0.08453   0.00000   0.00000
  92       45D+1        0.00000   0.00000   0.00000   0.00000   0.10138
  93       45D-1        0.00000   0.00000   0.00000   0.10138   0.00000
  94       45D+2        0.10121   0.00000  -0.00000   0.00000   0.00000
  95       45D-2        0.00000   0.10121   0.00000   0.00000   0.00000
  96       46D 0        0.00000   0.00000   0.20523   0.00000   0.00000
  97       46D+1        0.00000   0.00000   0.00000   0.00000   0.24377
  98       46D-1        0.00000   0.00000   0.00000   0.24377   0.00000
  99       46D+2        0.24725   0.00000  -0.00000   0.00000   0.00000
 100       46D-2        0.00000   0.24725   0.00000   0.00000   0.00000
 101       47D 0        0.00000   0.00000   0.28336   0.00000   0.00000
 102       47D+1        0.00000   0.00000   0.00000   0.00000   0.39547
 103       47D-1        0.00000   0.00000   0.00000   0.39547   0.00000
 104       47D+2        0.33328   0.00000  -0.00000   0.00000   0.00000
 105       47D-2        0.00000   0.33328   0.00000   0.00000   0.00000
 106       48D 0        0.00000   0.00000   0.31111   0.00000   0.00000
 107       48D+1        0.00000   0.00000   0.00000   0.00000   0.36914
 108       48D-1        0.00000   0.00000   0.00000   0.36914   0.00000
 109       48D+2        0.37429   0.00000  -0.00000   0.00000   0.00000
 110       48D-2        0.00000   0.37429   0.00000   0.00000   0.00000
 111       49D 0        0.00000   0.00000   0.17315   0.00000   0.00000
 112       49D+1        0.00000   0.00000   0.00000   0.00000   0.20768
 113       49D-1        0.00000   0.00000   0.00000   0.20768   0.00000
 114       49D+2        0.20617   0.00000  -0.00000   0.00000   0.00000
 115       49D-2        0.00000   0.20617   0.00000   0.00000   0.00000
[...]
   7        7S          0.06654   0.03327   0.03326   0.00001
   8        8S          0.21739   0.10872   0.10868   0.00004
   9        9S          0.50864   0.25435   0.25428   0.00007
  10       10S          0.70798   0.35400   0.35398   0.00002
  11       11S          0.38023   0.19002   0.19021  -0.00019
  12       12S          0.16583   0.08298   0.08286   0.00012
  13       13S          0.96451   0.48290   0.48162   0.00128
  14       14S          0.86742   0.43309   0.43433  -0.00124
  15       15S          0.35304   0.17846   0.17458   0.00388
  16       16S          1.05842   0.53263   0.52579   0.00684
  17       17S          0.62321   0.30330   0.31991  -0.01661
  18       18S          0.41838   0.30314   0.11524   0.18790
  19       19S          0.43019   0.38304   0.04715   0.33589
  20       20S          0.10655   0.10030   0.00625   0.09406
  21       21S         -0.06198  -0.03148  -0.03050  -0.00098
  22       22S          0.10365   0.05245   0.05121   0.00124
  23       23S         -0.01278  -0.00784  -0.00494  -0.00290
  24       24PX         0.00000   0.00000   0.00000   0.00000
  25       24PY         0.00000   0.00000   0.00000   0.00000
  26       24PZ         0.00000   0.00000   0.00000   0.00000
  27       25PX         0.00003   0.00001   0.00001   0.00000
  28       25PY         0.00003   0.00001   0.00001   0.00000
  29       25PZ         0.00003   0.00001   0.00001   0.00000
  30       26PX         0.00044   0.00022   0.00022   0.00000
  31       26PY         0.00044   0.00022   0.00022   0.00000
  32       26PZ         0.00045   0.00022   0.00022   0.00000
  33       27PX         0.00436   0.00218   0.00218   0.00000
  34       27PY         0.00436   0.00218   0.00218   0.00000
  35       27PZ         0.00438   0.00219   0.00219   0.00001
  36       28PX         0.02922   0.01461   0.01461   0.00000
  37       28PY         0.02922   0.01461   0.01461   0.00000
  38       28PZ         0.02934   0.01469   0.01465   0.00004
  39       29PX         0.13244   0.06622   0.06622   0.00000
  40       29PY         0.13244   0.06622   0.06622   0.00000
  41       29PZ         0.13296   0.06657   0.06639   0.00019
  42       30PX         0.38618   0.19309   0.19309   0.00000
  43       30PY         0.38618   0.19309   0.19309   0.00000
  44       30PZ         0.38747   0.19397   0.19350   0.00047
  45       31PX         0.67251   0.33625   0.33625   0.00000
  46       31PY         0.67251   0.33625   0.33625   0.00000
  47       31PZ         0.67380   0.33713   0.33667   0.00046
  48       32PX         0.58418   0.29209   0.29209  -0.00000
  49       32PY         0.58418   0.29209   0.29209  -0.00000
  50       32PZ         0.58322   0.29141   0.29181  -0.00039
  51       33PX         0.26779   0.13390   0.13389   0.00001
  52       33PY         0.26779   0.13390   0.13389   0.00001
  53       33PZ         0.27251   0.13629   0.13621   0.00008
  54       34PX         0.52567   0.26284   0.26283   0.00001
  55       34PY         0.52567   0.26284   0.26283   0.00001
  56       34PZ         0.54124   0.27378   0.26746   0.00632
  57       35PX         0.46043   0.23022   0.23021   0.00000
  58       35PY         0.46043   0.23022   0.23021   0.00000
  59       35PZ         0.46708   0.23450   0.23258   0.00191
  60       36PX         0.48963   0.24481   0.24482  -0.00000
  61       36PY         0.48963   0.24481   0.24482  -0.00000
  62       36PZ         0.46307   0.22723   0.23585  -0.00862
  63       37PX         0.04293   0.02150   0.02143   0.00007
  64       37PY         0.04293   0.02150   0.02143   0.00007
  65       37PZ         0.15553   0.10704   0.04849   0.05855
  66       38PX        -0.00169  -0.00081  -0.00089   0.00008
  67       38PY        -0.00169  -0.00081  -0.00089   0.00008
  68       38PZ         0.33727   0.29187   0.04540   0.24646
  69       39PX         0.00029   0.00015   0.00015   0.00000
  70       39PY         0.00029   0.00015   0.00015   0.00000
  71       39PZ         0.13236   0.12440   0.00796   0.11644
  72       40PX        -0.00825  -0.00413  -0.00412  -0.00000
  73       40PY        -0.00825  -0.00413  -0.00412  -0.00000
  74       40PZ        -0.01145  -0.00554  -0.00591   0.00037
  75       41PX         0.41401   0.20701   0.20700   0.00001
  76       41PY         0.41401   0.20701   0.20700   0.00001
  77       41PZ         0.42056   0.21166   0.20890   0.00276
  78       42PX        -0.00003  -0.00001  -0.00001   0.00000
  79       42PY        -0.00003  -0.00001  -0.00001   0.00000
  80       42PZ        -0.00048   0.00021  -0.00068   0.00089
  81       43D 0        0.00018   0.00017   0.00000   0.00017
  82       43D+1        0.00018   0.00018   0.00000   0.00018
  83       43D-1        0.00018   0.00018   0.00000   0.00018
  84       43D+2        0.00018   0.00018   0.00000   0.00018
  85       43D-2        0.00018   0.00018   0.00000   0.00018
  86       44D 0        0.00485   0.00473   0.00012   0.00461
  87       44D+1        0.00492   0.00492   0.00000   0.00492
  88       44D-1        0.00492   0.00492   0.00000   0.00492
  89       44D+2        0.00492   0.00492   0.00000   0.00492
  90       44D-2        0.00492   0.00492   0.00000   0.00492
  91       45D 0        0.04316   0.04206   0.00109   0.04097
  92       45D+1        0.04373   0.04373   0.00000   0.04373
  93       45D-1        0.04373   0.04373   0.00000   0.04373
  94       45D+2        0.04363   0.04363  -0.00000   0.04363
  95       45D-2        0.04363   0.04363   0.00000   0.04363
  96       46D 0        0.17188   0.16714   0.00474   0.16240
  97       46D+1        0.17324   0.17324   0.00000   0.17324
  98       46D-1        0.17324   0.17324   0.00000   0.17324
  99       46D+2        0.17573   0.17573  -0.00000   0.17573
 100       46D-2        0.17573   0.17573   0.00000   0.17573
 101       47D 0        0.31988   0.31684   0.00303   0.31381
 102       47D+1        0.35253   0.35253   0.00000   0.35253
 103       47D-1        0.35253   0.35253   0.00000   0.35253
 104       47D+2        0.29751   0.29751  -0.00000   0.29751
 105       47D-2        0.29751   0.29751   0.00000   0.29751
 106       48D 0        0.32796   0.30956   0.01840   0.29116
 107       48D+1        0.31458   0.31458   0.00000   0.31458
 108       48D-1        0.31458   0.31458   0.00000   0.31458
 109       48D+2        0.31947   0.31947   0.00000   0.31947
 110       48D-2        0.31947   0.31947  -0.00000   0.31947
 111       49D 0        0.15215   0.12909   0.02307   0.10602
 112       49D+1        0.12122   0.12122   0.00000   0.12122
 113       49D-1        0.12122   0.12122   0.00000   0.12122
 114       49D+2        0.11971   0.11971   0.00000   0.11971
 115       49D-2        0.11971   0.11971   0.00000   0.11971
 116       50D 0        0.01620   0.01003   0.00617   0.00386
 117       50D+1        0.00860   0.00860   0.00000   0.00860
 118       50D-1        0.00860   0.00860   0.00000   0.00860
 119       50D+2        0.00662   0.00662   0.00000   0.00662
 120       50D-2        0.00662   0.00662   0.00000   0.00662
 121       51D 0        0.00150   0.00168  -0.00017   0.00185
 122       51D+1        0.00223   0.00223   0.00000   0.00223
 123       51D-1        0.00223   0.00223   0.00000   0.00223
 124       51D+2       -0.00147  -0.00147   0.00000  -0.00147
 125       51D-2       -0.00147  -0.00147  -0.00000  -0.00147
 126       52D 0        0.00985   0.00265   0.00720  -0.00455
 127       52D+1       -0.02115  -0.02114  -0.00000  -0.02114
 128       52D-1       -0.02114  -0.02114  -0.00000  -0.02114
 129       52D+2        0.03390   0.03390  -0.00000   0.03390
 130       52D-2        0.03390   0.03390  -0.00000   0.03390
 131       53D 0       -0.00039  -0.00025  -0.00014  -0.00011
 132       53D+1       -0.00010  -0.00010   0.00000  -0.00010
 133       53D-1       -0.00010  -0.00010   0.00000  -0.00010
 134       53D+2       -0.00010  -0.00010   0.00000  -0.00010
 135       53D-2       -0.00010  -0.00010   0.00000  -0.00010
 136       54F 0        0.00000   0.00000   0.00000   0.00000
 137       54F+1        0.00000   0.00000   0.00000   0.00000
 138       54F-1        0.00000   0.00000   0.00000   0.00000
 139       54F+2        0.00000   0.00000   0.00000   0.00000
 140       54F-2        0.00000   0.00000   0.00000   0.00000
 141       54F+3        0.00000   0.00000   0.00000   0.00000
 142       54F-3        0.00000   0.00000   0.00000   0.00000
 143       55F 0        0.00007   0.00004   0.00003   0.00000
 144       55F+1        0.00000   0.00000   0.00000   0.00000
 145       55F-1        0.00000   0.00000   0.00000   0.00000
 146       55F+2        0.00000   0.00000  -0.00000   0.00000
 147       55F-2        0.00000   0.00000  -0.00000   0.00000
 148       55F+3        0.00000   0.00000   0.00000   0.00000
 149       55F-3        0.00000   0.00000  -0.00000   0.00000
 150       56F 0        0.00191   0.00101   0.00090   0.00011
 151       56F+1        0.00000   0.00000   0.00000   0.00000
 152       56F-1        0.00000   0.00000   0.00000   0.00000
 153       56F+2        0.00000   0.00000   0.00000   0.00000
 154       56F-2        0.00000   0.00000   0.00000   0.00000
 155       56F+3        0.00000   0.00000   0.00000   0.00000
 156       56F-3        0.00000   0.00000   0.00000   0.00000
 157       57F 0        0.00231   0.00123   0.00107   0.00016
 158       57F+1       -0.00000  -0.00000  -0.00000  -0.00000
 159       57F-1       -0.00000  -0.00000  -0.00000  -0.00000
 160       57F+2        0.00001   0.00001   0.00000   0.00001
 161       57F-2        0.00001   0.00001   0.00000   0.00001
 162       57F+3        0.00000   0.00000   0.00000   0.00000
 163       57F-3       -0.00000  -0.00000   0.00000  -0.00000
 164       58G 0       -0.00000  -0.00000  -0.00000   0.00000
 165       58G+1        0.00000   0.00000   0.00000   0.00000
 166       58G-1        0.00000   0.00000   0.00000   0.00000
 167       58G+2       -0.00000  -0.00000   0.00000  -0.00000
 168       58G-2       -0.00000  -0.00000   0.00000  -0.00000
 169       58G+3       -0.00000  -0.00000   0.00000  -0.00000
 170       58G-3       -0.00000  -0.00000  -0.00000   0.00000
 171       58G+4        0.00000   0.00000   0.00000   0.00000
 172       58G-4        0.00000   0.00000   0.00000   0.00000
 173       59G 0        0.00001   0.00001   0.00001   0.00000
 174       59G+1        0.00000   0.00000  -0.00000   0.00000
 175       59G-1        0.00000   0.00000  -0.00000   0.00000
 176       59G+2        0.00000   0.00000  -0.00000   0.00000
 177       59G-2        0.00000   0.00000  -0.00000   0.00000
 178       59G+3       -0.00000  -0.00000   0.00000  -0.00000
 179       59G-3        0.00000   0.00000   0.00000   0.00000
 180       59G+4       -0.00000  -0.00000  -0.00000  -0.00000
 181       59G-4       -0.00000  -0.00000  -0.00000  -0.00000
 182       60G 0        0.00029   0.00016   0.00013   0.00003
 183       60G+1        0.00000   0.00000   0.00000   0.00000
 184       60G-1        0.00000   0.00000   0.00000   0.00000
 185       60G+2        0.00000   0.00000  -0.00000   0.00000
 186       60G-2        0.00000   0.00000  -0.00000   0.00000
 187       60G+3       -0.00000  -0.00000  -0.00000  -0.00000
 188       60G-3        0.00000   0.00000   0.00000   0.00000
 189       60G+4        0.00000   0.00000   0.00000   0.00000
 190       60G-4       -0.00000  -0.00000   0.00000  -0.00000
 191 2   H  1S          0.00114   0.00059   0.00055   0.00004
 192        2S          0.02623   0.01355   0.01268   0.00087
 193        3S          0.21102   0.10880   0.10222   0.00657
 194        4S          0.62668   0.32303   0.30366   0.01937
 195        5S          0.52393   0.26810   0.25583   0.01228
 196        6S          0.04371   0.02526   0.01845   0.00681
 197        7PX         0.00026   0.00025   0.00000   0.00025
 198        7PY         0.00026   0.00025   0.00000   0.00025
 199        7PZ         0.00175   0.00114   0.00060   0.00054
 200        8PX         0.00061   0.00059   0.00002   0.00056
 201        8PY         0.00061   0.00059   0.00002   0.00056
 202        8PZ         0.00545   0.00250   0.00295  -0.00044
 203        9PX        -0.00053  -0.00054   0.00001  -0.00056
 204        9PY        -0.00053  -0.00054   0.00001  -0.00056
 205        9PZ         0.00023  -0.00094   0.00118  -0.00212
 206       10D 0        0.00036   0.00025   0.00011   0.00013
 207       10D+1        0.00026   0.00025   0.00001   0.00023
 208       10D-1        0.00026   0.00025   0.00001   0.00023
 209       10D+2        0.00001   0.00001   0.00000   0.00001
 210       10D-2        0.00001   0.00001   0.00000   0.00001
 211       11D 0        0.00066   0.00037   0.00029   0.00008
 212       11D+1       -0.00072  -0.00068  -0.00004  -0.00064
 213       11D-1       -0.00072  -0.00068  -0.00004  -0.00064
 214       11D+2       -0.00012  -0.00012   0.00000  -0.00012
 215       11D-2       -0.00012  -0.00012   0.00000  -0.00012
          Condensed to atoms (all electrons):
               1          2
     1  Mn  24.254516   0.304789
     2  H    0.304789   1.135906
          Atomic-Atomic Spin Densities.
               1          2
     1  Mn   5.983045  -0.026668
     2  H   -0.026668   0.070292
 Mulliken charges and spin densities:
               1          2
     1  Mn   0.440695   5.956377
     2  H   -0.440695   0.043623
 Sum of Mulliken charges =   0.00000   6.00000
 Mulliken charges and spin densities with hydrogens summed into heavy atoms:
               1          2
     1  Mn   0.000000   6.000000
 Electronic spatial extent (au):  <R**2>=             51.3024
 Charge=             -0.0000 electrons
 Dipole moment (field-independent basis, Debye):
    X=              0.0000    Y=              0.0000    Z=              0.6076  Tot=              0.6076
 Quadrupole moment (field-independent basis, Debye-Ang):
   XX=            -16.3277   YY=            -16.3277   ZZ=            -25.9566
   XY=              0.0000   XZ=              0.0000   YZ=              0.0000
 Traceless Quadrupole moment (field-independent basis, Debye-Ang):
   XX=              3.2096   YY=              3.2096   ZZ=             -6.4193
   XY=              0.0000   XZ=              0.0000   YZ=              0.0000
 Octapole moment (field-independent basis, Debye-Ang**2):
  XXX=              0.0000  YYY=              0.0000  ZZZ=              0.8868  XYY=              0.0000
  XXY=              0.0000  XXZ=             -1.1088  XZZ=              0.0000  YZZ=              0.0000
  YYZ=             -1.1088  XYZ=              0.0000
 Hexadecapole moment (field-independent basis, Debye-Ang**3):
 XXXX=            -27.3885 YYYY=            -27.3885 ZZZZ=            -91.6618 XXXY=              0.0000
 XXXZ=              0.0000 YYYX=              0.0000 YYYZ=              0.0000 ZZZX=              0.0000
 ZZZY=              0.0000 XXYY=             -9.1295 XXZZ=            -18.8438 YYZZ=            -18.8438
 XXYZ=              0.0000 YYXZ=              0.0000 ZZXY=              0.0000
 N-N= 8.819620182000D+00 E-N=-2.816641310548D+03  KE= 1.203539949706D+03
 Symmetry A1   KE= 9.263171949336D+02
 Symmetry A2   KE= 6.363803115258D+00
 Symmetry B1   KE= 1.354294758246D+02
 Symmetry B2   KE= 1.354294758278D+02
 Symmetry A1   SP= 3.000000000000D+00
 Symmetry A2   SP= 1.000000000000D+00
 Symmetry B1   SP= 1.000000000000D+00
 Symmetry B2   SP= 1.000000000000D+00
 Orbital energies and kinetic energies (alpha):
                                 1                 2
   6         O                -4.087189         11.837388
   7         O                -2.739642          9.970203
   8         O                -2.739266          9.970203
   9         O                -2.739266          9.976010
  10         O                -0.644305          1.065879
  11         O                -0.635739          6.363803
  12         O                -0.635739          6.363803
  13         O                -0.629599          4.749493
  14         O                -0.629599          6.363671
  15         O                -0.417443          6.363671
  16         O                -0.252989          2.135027
  17         V                 0.013430          0.089796
  18         V                 0.013430          0.089796
  19         V                 0.022540          0.041218
  20         V                 0.031963          0.054681
  21         V                 0.058231          0.265547
 Total kinetic energy from orbitals= 1.235879418519D+03
 FoFCou: FMM=F IPFlag=           8 FMFlag=           0 FMFlg1=           0
         NFxFlg=           0 DoJE=F BraDBF=T KetDBF=F FulRan=T
         wScrn=  0.000000 ICntrl=   2000500 IOpCl=  0 I1Cent=           5 NGrid=           0
         NMat0=    1 NMatS0=      1 NMatT0=    0 NMatD0=    1 NMtDS0=    0 NMtDT0=    0
 Symmetry not used in FoFCou.
                          Isotropic Fermi Contact Couplings
        Atom                 a.u.       MegaHertz       Gauss      10(-4) cm-1
     1  Mn(55)             3.49385     643.65561     229.67233     214.70040
     2  H(1)               0.01371      10.21258       3.64410       3.40655
 --------------------------------------------------------
       Center         ----  Spin Dipole Couplings  ----
                      3XX-RR        3YY-RR        3ZZ-RR
 --------------------------------------------------------
     1   Atom       -0.445643     -0.445643      0.891287
     2   Atom       -0.198624     -0.198624      0.397249
 --------------------------------------------------------
                        XY            XZ            YZ
 --------------------------------------------------------
     1   Atom        0.000000      0.000000      0.000000
     2   Atom        0.000000      0.000000      0.000000
 --------------------------------------------------------


 ---------------------------------------------------------------------------------
              Anisotropic Spin Dipole Couplings in Principal Axis System
 ---------------------------------------------------------------------------------

       Atom             a.u.   MegaHertz   Gauss  10(-4) cm-1        Axes

              Baa    -0.4456   -58.799   -20.981   -19.613  1.0000  0.0000  0.0000
     1 Mn(55) Bbb    -0.4456   -58.799   -20.981   -19.613 -0.0000  1.0000  0.0000
              Bcc     0.8913   117.598    41.962    39.226  0.0000  0.0000  1.0000
 
              Baa    -0.1986  -105.977   -37.815   -35.350  1.0000  0.0000  0.0000
     2 H(1)   Bbb    -0.1986  -105.977   -37.815   -35.350 -0.0000  1.0000  0.0000
              Bcc     0.3972   211.953    75.630    70.700  0.0000  0.0000  1.0000
 

 ---------------------------------------------------------------------------------

 No NMR shielding tensors so no spin-rotation constants.
 Leave Link  601 at Sun Feb 25 22:48:21 2018, MaxMem= 21474836480 cpu:              14.8 elap:               0.5
 (Enter /home1/apps/gaussian/16rA.03/g16/l9999.exe)

 Test job not archived.
 1\1\GINC-C504-081\SP\ROCCSD(T)-RW\Gen\H1Mn1(7)\AANNABE\25-Feb-2018\0\\
 #P ROCCSD(T)=(maxcyc=150, Window=(6,0), SaveAmplitudes, ReadAmplitudes
 )/Gen 5d 7f SCF=(maxcycles=300) Integral(NoXCTest, DKHSO) MaxDisk=500G
 B Pop=Regular Guess=Read IOp(5/15=2)\\MnH\\0,7\Mn,0,0.,0.,0.\H,0,0.,0.
 ,1.5\\Version=ES64L-G16RevA.03\State=7-SG\HF=-1157.9280656\MP2=-1158.4
 914626\MP3=-1158.4836007\PUHF=-1157.9280656\PMP2-0=-1158.4914626\MP4SD
 Q=-1158.4913929\CCSD=-1158.491417\CCSD(T)=-1158.5063549\RMSD=8.950e-09
 \PG=C*V [C*(H1Mn1)]\\@


 THOSE WHO TRY TO PASS CHEMISTRY OFF AS A NEW SCIENCE
 SHOW HOW LITTLE KNOWLEDGE THEY HAVE OF THE CHARACTER
 AND LITERATURE OF THE ANCIENTS.
   -- NICOLAS LEFEVRE
 "COURS DE CHYMIE" J.-N.LELOUP, PARIS, 1751
 Job cpu time:       0 days  1 hours 29 minutes 45.4 seconds.
 Elapsed time:       0 days  0 hours  2 minutes 51.7 seconds.
 File lengths (MBytes):  RWF=   2405 Int=      0 D2E=      0 Chk=     13 Scr=      1
 Normal termination of Gaussian 16 at Sun Feb 25 22:48:21 2018.
