 Entering Gaussian System, Link 0=g16
 Initial command:
 /home1/apps/gaussian/16rA.03/g16/l1.exe "/tmp/Gau-75093.inp" -scrdir="/tmp/"
 Entering Link 1 = /home1/apps/gaussian/16rA.03/g16/l1.exe PID=     75094.
  
 Copyright (c) 1988,1990,1992,1993,1995,1998,2003,2009,2016,
            Gaussian, Inc.  All Rights Reserved.
  
 This is part of the Gaussian(R) 16 program.  It is based on
 the Gaussian(R) 09 system (copyright 2009, Gaussian, Inc.),
 the Gaussian(R) 03 system (copyright 2003, Gaussian, Inc.),
 the Gaussian(R) 98 system (copyright 1998, Gaussian, Inc.),
 the Gaussian(R) 94 system (copyright 1995, Gaussian, Inc.),
 the Gaussian 92(TM) system (copyright 1992, Gaussian, Inc.),
 the Gaussian 90(TM) system (copyright 1990, Gaussian, Inc.),
 the Gaussian 88(TM) system (copyright 1988, Gaussian, Inc.),
 the Gaussian 86(TM) system (copyright 1986, Carnegie Mellon
 University), and the Gaussian 82(TM) system (copyright 1983,
 Carnegie Mellon University). Gaussian is a federally registered
 trademark of Gaussian, Inc.
  
 This software contains proprietary and confidential information,
 including trade secrets, belonging to Gaussian, Inc.
  
 This software is provided under written license and may be
 used, copied, transmitted, or stored only in accord with that
 written license.
  
 The following legend is applicable only to US Government
 contracts under FAR:
  
                    RESTRICTED RIGHTS LEGEND
  
 Use, reproduction and disclosure by the US Government is
 subject to restrictions as set forth in subparagraphs (a)
 and (c) of the Commercial Computer Software - Restricted
 Rights clause in FAR 52.227-19.
  
 Gaussian, Inc.
 340 Quinnipiac St., Bldg. 40, Wallingford CT 06492
  
  
 ---------------------------------------------------------------
 Warning -- This program may not be used in any manner that
 competes with the business of Gaussian, Inc. or will provide
 assistance to any competitor of Gaussian, Inc.  The licensee
 of this program is prohibited from giving any competitor of
 Gaussian, Inc. access to this program.  By using this program,
 the user acknowledges that Gaussian, Inc. is engaged in the
 business of creating and licensing software in the field of
 computational chemistry and represents and warrants to the
 licensee that it is not a competitor of Gaussian, Inc. and that
 it will not use this program in any manner prohibited above.
 ---------------------------------------------------------------
  

 Cite this work as:
 Gaussian 16, Revision A.03,
 M. J. Frisch, G. W. Trucks, H. B. Schlegel, G. E. Scuseria, 
 M. A. Robb, J. R. Cheeseman, G. Scalmani, V. Barone, 
 G. A. Petersson, H. Nakatsuji, X. Li, M. Caricato, A. V. Marenich, 
 J. Bloino, B. G. Janesko, R. Gomperts, B. Mennucci, H. P. Hratchian, 
 J. V. Ortiz, A. F. Izmaylov, J. L. Sonnenberg, D. Williams-Young, 
 F. Ding, F. Lipparini, F. Egidi, J. Goings, B. Peng, A. Petrone, 
 T. Henderson, D. Ranasinghe, V. G. Zakrzewski, J. Gao, N. Rega, 
 G. Zheng, W. Liang, M. Hada, M. Ehara, K. Toyota, R. Fukuda, 
 J. Hasegawa, M. Ishida, T. Nakajima, Y. Honda, O. Kitao, H. Nakai, 
 T. Vreven, K. Throssell, J. A. Montgomery, Jr., J. E. Peralta, 
 F. Ogliaro, M. J. Bearpark, J. J. Heyd, E. N. Brothers, K. N. Kudin, 
 V. N. Staroverov, T. A. Keith, R. Kobayashi, J. Normand, 
 K. Raghavachari, A. P. Rendell, J. C. Burant, S. S. Iyengar, 
 J. Tomasi, M. Cossi, J. M. Millam, M. Klene, C. Adamo, R. Cammi, 
 J. W. Ochterski, R. L. Martin, K. Morokuma, O. Farkas, 
 J. B. Foresman, and D. J. Fox, Gaussian, Inc., Wallingford CT, 2016.
 
 ******************************************
 Gaussian 16:  ES64L-G16RevA.03 25-Dec-2016
                21-Feb-2018 
 ******************************************
 %mem=80GB
 %cpu=0-31
 SetSPE:  set environment variable "MP_BIND" = "yes"
 SetSPE:  set environment variable "MP_BLIST" = "0,1,2,3,4,5,6,7,8,9,10,11,12,13,14,15,16,17,18,19,20,21,22,23,24,25,26,27,28,29,30,31"
 Will use up to   32 processors via shared memory.
 %chk=ScO
 %rwf=/scratch/04843/aannabe/gaussian/
 ----------------------------------------------------------------------
 #P ROCCSD(T)=(maxcyc=150, Full, SaveAmplitudes, ReadAmplitudes)/Gen 5d
  7f SCF=(maxcycles=300) Integral(NoXCTest) MaxDisk=500GB Pop=Regular P
 seudo=Read Guess=Read
 ----------------------------------------------------------------------
 1/38=1,172=1/1;
 2/12=2,17=6,18=5,40=1/2;
 3/5=7,8=11,11=2,16=1,17=8,25=1,30=1,47=8,116=101/1,2,3;
 4/5=1/1;
 5/5=2,7=300,38=6/2;
 8/5=-1,6=4,9=120000,10=90,24=1/1,4;
 9/5=7,6=150,14=2,77=1/13;
 6//1;
 99/5=1,9=1/99;
 Leave Link    1 at Wed Feb 21 04:07:51 2018, MaxMem= 10737418240 cpu:               6.8 elap:               0.2
 (Enter /home1/apps/gaussian/16rA.03/g16/l101.exe)
 ---
 ScO
 ---
 Symbolic Z-matrix:
 Charge =  0 Multiplicity = 2
 Sc                    0.        0.        0. 
 O                     0.        0.        1.7 
 
 ITRead=  0  0
 MicOpt= -1 -1
 NAtoms=      2 NQM=        2 NQMF=       0 NMMI=      0 NMMIF=      0
                NMic=       0 NMicF=      0.
                    Isotopes and Nuclear Properties:
 (Nuclear quadrupole moments (NQMom) in fm**2, nuclear magnetic moments (NMagM)
  in nuclear magnetons)

  Atom         1           2
 IAtWgt=          45          16
 AtmWgt=  44.9559136  15.9949146
 NucSpn=           7           0
 AtZEff=  -0.0000000  -0.0000000
 NQMom=  -22.0000000   0.0000000
 NMagM=    4.7564830   0.0000000
 AtZNuc=  21.0000000   8.0000000
 Leave Link  101 at Wed Feb 21 04:07:51 2018, MaxMem= 10737418240 cpu:               2.9 elap:               0.1
 (Enter /home1/apps/gaussian/16rA.03/g16/l202.exe)
                          Input orientation:                          
 ---------------------------------------------------------------------
 Center     Atomic      Atomic             Coordinates (Angstroms)
 Number     Number       Type             X           Y           Z
 ---------------------------------------------------------------------
      1         21           0        0.000000    0.000000    0.000000
      2          8           0        0.000000    0.000000    1.700000
 ---------------------------------------------------------------------
 Stoichiometry    OSc(2)
 Framework group  C*V[C*(OSc)]
 Deg. of freedom     1
 Full point group                 C*V     NOp   4
 Largest Abelian subgroup         C2V     NOp   4
 Largest concise Abelian subgroup C1      NOp   1
                         Standard orientation:                         
 ---------------------------------------------------------------------
 Center     Atomic      Atomic             Coordinates (Angstroms)
 Number     Number       Type             X           Y           Z
 ---------------------------------------------------------------------
      1         21           0        0.000000    0.000000    0.468966
      2          8           0        0.000000    0.000000   -1.231034
 ---------------------------------------------------------------------
 Rotational constants (GHZ):           0.0000000          14.8227988          14.8227988
 Leave Link  202 at Wed Feb 21 04:07:52 2018, MaxMem= 10737418240 cpu:               0.6 elap:               0.1
 (Enter /home1/apps/gaussian/16rA.03/g16/l301.exe)
 General basis read from cards:  (5D, 7F)
 Centers:       1
 S 1 1.00
     Exponent=  8.4179090000D+06 Coefficients=  1.0000000000D+00
 S 1 1.00
     Exponent=  1.2603120000D+06 Coefficients=  1.0000000000D+00
 S 1 1.00
     Exponent=  2.8679840000D+05 Coefficients=  1.0000000000D+00
 S 1 1.00
     Exponent=  8.1234690000D+04 Coefficients=  1.0000000000D+00
 S 1 1.00
     Exponent=  2.6503110000D+04 Coefficients=  1.0000000000D+00
 S 1 1.00
     Exponent=  9.5687010000D+03 Coefficients=  1.0000000000D+00
 S 1 1.00
     Exponent=  3.7324970000D+03 Coefficients=  1.0000000000D+00
 S 1 1.00
     Exponent=  1.5484220000D+03 Coefficients=  1.0000000000D+00
 S 1 1.00
     Exponent=  6.7554200000D+02 Coefficients=  1.0000000000D+00
 S 1 1.00
     Exponent=  3.0725220000D+02 Coefficients=  1.0000000000D+00
 S 1 1.00
     Exponent=  1.4466720000D+02 Coefficients=  1.0000000000D+00
 S 1 1.00
     Exponent=  7.0043870000D+01 Coefficients=  1.0000000000D+00
 S 1 1.00
     Exponent=  3.4322500000D+01 Coefficients=  1.0000000000D+00
 S 1 1.00
     Exponent=  1.5612240000D+01 Coefficients=  1.0000000000D+00
 S 1 1.00
     Exponent=  7.7437220000D+00 Coefficients=  1.0000000000D+00
 S 1 1.00
     Exponent=  3.8442600000D+00 Coefficients=  1.0000000000D+00
 S 1 1.00
     Exponent=  1.7197660000D+00 Coefficients=  1.0000000000D+00
 S 1 1.00
     Exponent=  8.3252300000D-01 Coefficients=  1.0000000000D+00
 S 1 1.00
     Exponent=  3.8556400000D-01 Coefficients=  1.0000000000D+00
 S 1 1.00
     Exponent=  9.6700000000D-02 Coefficients=  1.0000000000D+00
 S 1 1.00
     Exponent=  4.7778000000D-02 Coefficients=  1.0000000000D+00
 S 1 1.00
     Exponent=  2.2363000000D-02 Coefficients=  1.0000000000D+00
 S 1 1.00
     Exponent=  3.1672000000D+00 Coefficients=  1.0000000000D+00
 S 1 1.00
     Exponent=  1.6879000000D+00 Coefficients=  1.0000000000D+00
 S 1 1.00
     Exponent=  1.0470000000D-02 Coefficients=  1.0000000000D+00
 P 1 1.00
     Exponent=  2.2640970000D+04 Coefficients=  1.0000000000D+00
 P 1 1.00
     Exponent=  5.3575450000D+03 Coefficients=  1.0000000000D+00
 P 1 1.00
     Exponent=  1.7403730000D+03 Coefficients=  1.0000000000D+00
 P 1 1.00
     Exponent=  6.6661630000D+02 Coefficients=  1.0000000000D+00
 P 1 1.00
     Exponent=  2.8363840000D+02 Coefficients=  1.0000000000D+00
 P 1 1.00
     Exponent=  1.2979760000D+02 Coefficients=  1.0000000000D+00
 P 1 1.00
     Exponent=  6.2679560000D+01 Coefficients=  1.0000000000D+00
 P 1 1.00
     Exponent=  3.1504410000D+01 Coefficients=  1.0000000000D+00
 P 1 1.00
     Exponent=  1.6235250000D+01 Coefficients=  1.0000000000D+00
 P 1 1.00
     Exponent=  8.5183240000D+00 Coefficients=  1.0000000000D+00
 P 1 1.00
     Exponent=  4.5190050000D+00 Coefficients=  1.0000000000D+00
 P 1 1.00
     Exponent=  2.3665910000D+00 Coefficients=  1.0000000000D+00
 P 1 1.00
     Exponent=  1.2152350000D+00 Coefficients=  1.0000000000D+00
 P 1 1.00
     Exponent=  6.1434800000D-01 Coefficients=  1.0000000000D+00
 P 1 1.00
     Exponent=  3.0074500000D-01 Coefficients=  1.0000000000D+00
 P 1 1.00
     Exponent=  1.2583400000D-01 Coefficients=  1.0000000000D+00
 P 1 1.00
     Exponent=  5.4719000000D-02 Coefficients=  1.0000000000D+00
 P 1 1.00
     Exponent=  2.3488000000D-02 Coefficients=  1.0000000000D+00
 P 1 1.00
     Exponent=  4.0719000000D+00 Coefficients=  1.0000000000D+00
 P 1 1.00
     Exponent=  9.9940000000D-01 Coefficients=  1.0000000000D+00
 P 1 1.00
     Exponent=  1.0080000000D-02 Coefficients=  1.0000000000D+00
 D 1 1.00
     Exponent=  1.4802800000D+02 Coefficients=  1.0000000000D+00
 D 1 1.00
     Exponent=  4.3852800000D+01 Coefficients=  1.0000000000D+00
 D 1 1.00
     Exponent=  1.6664600000D+01 Coefficients=  1.0000000000D+00
 D 1 1.00
     Exponent=  6.9789300000D+00 Coefficients=  1.0000000000D+00
 D 1 1.00
     Exponent=  3.1236900000D+00 Coefficients=  1.0000000000D+00
 D 1 1.00
     Exponent=  1.4468700000D+00 Coefficients=  1.0000000000D+00
 D 1 1.00
     Exponent=  6.6740700000D-01 Coefficients=  1.0000000000D+00
 D 1 1.00
     Exponent=  3.0163300000D-01 Coefficients=  1.0000000000D+00
 D 1 1.00
     Exponent=  1.3267400000D-01 Coefficients=  1.0000000000D+00
 D 1 1.00
     Exponent=  5.6739000000D-02 Coefficients=  1.0000000000D+00
 D 1 1.00
     Exponent=  2.3175000000D-02 Coefficients=  1.0000000000D+00
 D 1 1.00
     Exponent=  2.1282000000D+00 Coefficients=  1.0000000000D+00
 D 1 1.00
     Exponent=  9.6910000000D-01 Coefficients=  1.0000000000D+00
 D 1 1.00
     Exponent=  9.4700000000D-03 Coefficients=  1.0000000000D+00
 F 1 1.00
     Exponent=  2.7590000000D+00 Coefficients=  1.0000000000D+00
 F 1 1.00
     Exponent=  1.0490000000D+00 Coefficients=  1.0000000000D+00
 F 1 1.00
     Exponent=  3.9890000000D-01 Coefficients=  1.0000000000D+00
 F 1 1.00
     Exponent=  1.1060000000D-01 Coefficients=  1.0000000000D+00
 F 1 1.00
     Exponent=  3.0670000000D-02 Coefficients=  1.0000000000D+00
 G 1 1.00
     Exponent=  2.4852000000D+00 Coefficients=  1.0000000000D+00
 G 1 1.00
     Exponent=  9.0670000000D-01 Coefficients=  1.0000000000D+00
 G 1 1.00
     Exponent=  2.5300000000D-01 Coefficients=  1.0000000000D+00
 G 1 1.00
     Exponent=  7.0600000000D-02 Coefficients=  1.0000000000D+00
 H 1 1.00
     Exponent=  2.0405000000D+00 Coefficients=  1.0000000000D+00
 H 1 1.00
     Exponent=  4.9340000000D-01 Coefficients=  1.0000000000D+00
 H 1 1.00
     Exponent=  1.1931000000D-01 Coefficients=  1.0000000000D+00
 ****
 Centers:       2
 S 1 1.00
     Exponent=  6.1420000000D+04 Coefficients=  1.0000000000D+00
 S 1 1.00
     Exponent=  9.1990000000D+03 Coefficients=  1.0000000000D+00
 S 1 1.00
     Exponent=  2.0910000000D+03 Coefficients=  1.0000000000D+00
 S 1 1.00
     Exponent=  5.9090000000D+02 Coefficients=  1.0000000000D+00
 S 1 1.00
     Exponent=  1.9230000000D+02 Coefficients=  1.0000000000D+00
 S 1 1.00
     Exponent=  6.9320000000D+01 Coefficients=  1.0000000000D+00
 S 1 1.00
     Exponent=  2.6970000000D+01 Coefficients=  1.0000000000D+00
 S 1 1.00
     Exponent=  1.1100000000D+01 Coefficients=  1.0000000000D+00
 S 1 1.00
     Exponent=  4.6820000000D+00 Coefficients=  1.0000000000D+00
 S 1 1.00
     Exponent=  1.4280000000D+00 Coefficients=  1.0000000000D+00
 S 1 1.00
     Exponent=  5.5470000000D-01 Coefficients=  1.0000000000D+00
 S 1 1.00
     Exponent=  2.0670000000D-01 Coefficients=  1.0000000000D+00
 S 1 1.00
     Exponent=  1.2974000000D+01 Coefficients=  1.0000000000D+00
 S 1 1.00
     Exponent=  3.4900000000D+01 Coefficients=  1.0000000000D+00
 S 1 1.00
     Exponent=  9.3881000000D+01 Coefficients=  1.0000000000D+00
 S 1 1.00
     Exponent=  6.9590000000D-02 Coefficients=  1.0000000000D+00
 P 1 1.00
     Exponent=  6.3420000000D+01 Coefficients=  1.0000000000D+00
 P 1 1.00
     Exponent=  1.4660000000D+01 Coefficients=  1.0000000000D+00
 P 1 1.00
     Exponent=  4.4590000000D+00 Coefficients=  1.0000000000D+00
 P 1 1.00
     Exponent=  1.5310000000D+00 Coefficients=  1.0000000000D+00
 P 1 1.00
     Exponent=  5.3020000000D-01 Coefficients=  1.0000000000D+00
 P 1 1.00
     Exponent=  1.7500000000D-01 Coefficients=  1.0000000000D+00
 P 1 1.00
     Exponent=  1.4475000000D+01 Coefficients=  1.0000000000D+00
 P 1 1.00
     Exponent=  4.2730000000D+01 Coefficients=  1.0000000000D+00
 P 1 1.00
     Exponent=  1.2614000000D+02 Coefficients=  1.0000000000D+00
 P 1 1.00
     Exponent=  5.3480000000D-02 Coefficients=  1.0000000000D+00
 D 1 1.00
     Exponent=  3.7750000000D+00 Coefficients=  1.0000000000D+00
 D 1 1.00
     Exponent=  1.3000000000D+00 Coefficients=  1.0000000000D+00
 D 1 1.00
     Exponent=  4.4400000000D-01 Coefficients=  1.0000000000D+00
 D 1 1.00
     Exponent=  1.4927000000D+01 Coefficients=  1.0000000000D+00
 D 1 1.00
     Exponent=  5.7544000000D+01 Coefficients=  1.0000000000D+00
 D 1 1.00
     Exponent=  1.5400000000D-01 Coefficients=  1.0000000000D+00
 F 1 1.00
     Exponent=  2.6660000000D+00 Coefficients=  1.0000000000D+00
 F 1 1.00
     Exponent=  8.5900000000D-01 Coefficients=  1.0000000000D+00
 F 1 1.00
     Exponent=  2.6483000000D+01 Coefficients=  1.0000000000D+00
 F 1 1.00
     Exponent=  3.2400000000D-01 Coefficients=  1.0000000000D+00
 G 1 1.00
     Exponent=  1.8460000000D+00 Coefficients=  1.0000000000D+00
 G 1 1.00
     Exponent=  7.1400000000D-01 Coefficients=  1.0000000000D+00
 ****
 ======================================================================================================
                                       Pseudopotential Parameters
 ======================================================================================================
  Center     Atomic      Valence      Angular      Power
  Number     Number     Electrons     Momentum     of R      Exponent        Coefficient   SO-Coeffient
 ======================================================================================================
    1         21           11
                                      D and up 
                                                     1       16.0239439       11.00000000    0.00000000
                                                     3       14.0864740      176.26338272    0.00000000
                                                     2       11.9398512      -83.68149600    0.00000000
                                                     2        3.6944011        0.43282765    0.00000000
                                      S - D
                                                     2       11.4946654      153.96530176    0.00000000
                                                     2        5.0103139       14.93675658    0.00000000
                                      P - D
                                                     2       11.4512673       97.21725690    0.00000000
                                                     2        4.7679845       10.81704018    0.00000000
    2          8            6
                                      P and up 
                                                     1       12.3099700        6.00000000    0.00000000
                                                     3       14.7696200       73.85984000    0.00000000
                                                     2       13.7141900      -47.87600000    0.00000000
                                      S - P
                                                     2       13.6551200       85.86406000    0.00000000
 ======================================================================================================
 Ernie: Thresh=  0.10000D-02 Tol=  0.10000D-05 Strict=F.
 There are   213 symmetry adapted cartesian basis functions of A1  symmetry.
 There are    56 symmetry adapted cartesian basis functions of A2  symmetry.
 There are   114 symmetry adapted cartesian basis functions of B1  symmetry.
 There are   114 symmetry adapted cartesian basis functions of B2  symmetry.
 There are   157 symmetry adapted basis functions of A1  symmetry.
 There are    47 symmetry adapted basis functions of A2  symmetry.
 There are    90 symmetry adapted basis functions of B1  symmetry.
 There are    90 symmetry adapted basis functions of B2  symmetry.
   384 basis functions,   497 primitive gaussians,   497 cartesian basis functions
     9 alpha electrons        8 beta electrons
       nuclear repulsion energy        20.5445270122 Hartrees.
 IExCor=    0 DFT=F Ex=HF Corr=None ExCW=0 ScaHFX=  1.000000
 ScaDFX=  1.000000  1.000000  1.000000  1.000000 ScalE2=  1.000000  1.000000
 IRadAn=      5 IRanWt=     -1 IRanGd=            0 ICorTp=0 IEmpDi=  4
 NAtoms=    2 NActive=    2 NUniq=    2 SFac= 1.00D+00 NAtFMM=   60 NAOKFM=F Big=F
 Integral buffers will be    131072 words long.
 Raffenetti 2 integral format.
 Two-electron integral symmetry is turned on.
 Leave Link  301 at Wed Feb 21 04:07:52 2018, MaxMem= 10737418240 cpu:               9.2 elap:               0.3
 (Enter /home1/apps/gaussian/16rA.03/g16/l302.exe)
 NPDir=0 NMtPBC=     1 NCelOv=     1 NCel=       1 NClECP=     1 NCelD=      1
         NCelK=      1 NCelE2=     1 NClLst=     1 CellRange=     0.0.
 One-electron integrals computed using PRISM.
 One-electron integral symmetry used in STVInt
   4 Symmetry operations used in ECPInt.
 ECPInt:  NShTT=    6105 NPrTT=    6105 LenC2=    5599 LenP2D=    5598.
 LDataN:  DoStor=T MaxTD1=10 Len=  848
 NBasis=   384 RedAO= T EigKep=  1.25D-06  NBF=   157    47    90    90
 NBsUse=   383 1.00D-06 EigRej=  8.44D-09 NBFU=   156    47    90    90
 Leave Link  302 at Wed Feb 21 04:07:55 2018, MaxMem= 10737418240 cpu:              79.0 elap:               2.5
 (Enter /home1/apps/gaussian/16rA.03/g16/l303.exe)
 DipDrv:  MaxL=1.
 Leave Link  303 at Wed Feb 21 04:07:55 2018, MaxMem= 10737418240 cpu:               3.8 elap:               0.2
 (Enter /home1/apps/gaussian/16rA.03/g16/l401.exe)
 Initial guess from the checkpoint file:  "ScO.chk"
 B after Tr=     0.000000    0.000000    0.000000
         Rot=    1.000000    0.000000    0.000000    0.000000 Ang=   0.00 deg.
 Guess basis will be translated and rotated to current coordinates.
 JPrj=2 DoOrth=T DoCkMO=T.
 Initial guess orbital symmetries:
       Occupied  (SG) (SG) (PI) (PI) (SG) (SG) (PI) (PI) (SG)
       Virtual   (PI) (PI) (SG) (SG) (DLTA) (DLTA) (PI) (PI) (PI)
                 (PI) (SG) (SG) (DLTA) (DLTA) (SG) (PI) (PI) (SG)
                 (PI) (PI) (SG) (PI) (PI) (PHI) (PHI) (DLTA) (DLTA)
                 (SG) (DLTA) (DLTA) (PI) (PI) (SG) (PI) (PI) (SG)
                 (SG) (SG) (DLTA) (DLTA) (PI) (PI) (DLTA) (DLTA)
                 (?A) (?A) (PHI) (PHI) (SG) (PI) (PI) (PI) (PI)
                 (SG) (PHI) (PHI) (DLTA) (DLTA) (SG) (PI) (PI)
                 (SG) (PI) (PI) (DLTA) (DLTA) (SG) (SG) (DLTA)
                 (DLTA) (PI) (PI) (SG) (SG) (PI) (PI) (PI) (PI)
                 (SG) (DLTA) (DLTA) (PHI) (PHI) (?A) (?A) (SG)
                 (PI) (PI) (SG) (DLTA) (DLTA) (PHI) (PHI) (PI)
                 (PI) (PHI) (PHI) (DLTA) (DLTA) (SG) (PI) (PI)
                 (DLTA) (DLTA) (SG) (DLTA) (DLTA) (PI) (PI) (SG)
                 (PI) (PI) (SG) (SG) (PI) (PI) (SG) (PI) (PI) (SG)
                 (SG) (DLTA) (DLTA) (PI) (PI) (SG) (PHI) (PHI)
                 (PHI) (PHI) (DLTA) (DLTA) (DLTA) (DLTA) (PI) (PI)
                 (PI) (PI) (SG) (DLTA) (DLTA) (SG) (PI) (PI) (SG)
                 (?A) (?A) (PHI) (PHI) (DLTA) (DLTA) (PI) (PI)
                 (SG) (SG) (PI) (PI) (SG) (DLTA) (DLTA) (PI) (PI)
                 (SG) (PI) (PI) (SG) (SG) (SG) (PI) (PI) (SG) (DLTA)
                 (DLTA) (PI) (PI) (SG) (SG) (PI) (PI) (SG) (SG)
                 (DLTA) (DLTA) (PI) (PI) (SG) (PI) (PI) (SG) (DLTA)
                 (DLTA) (PI) (PI) (SG) (SG) (SG) (PI) (PI) (SG)
                 (PI) (PI) (SG) (SG) (SG) (PI) (PI) (SG) (DLTA)
                 (DLTA) (PI) (PI) (SG) (SG) (SG) (PI) (PI) (SG)
                 (PI) (PI) (SG) (SG) (SG) (PI) (PI) (SG) (SG) (PI)
                 (PI) (SG) (SG) (SG) (PI) (PI) (SG) (SG) (SG) (PI)
                 (PI) (SG) (SG) (SG) (SG) (PI) (PI) (SG) (SG) (SG)
                 (SG) (SG) (DLTA) (SG) (SG) (SG) (DLTA) (SG) (SG)
                 (SG) (SG) (SG) (DLTA) (DLTA) (SG) (SG) (DLTA)
                 (SG) (SG) (SG) (DLTA) (SG) (SG) (DLTA) (SG) (?A)
                 (DLTA) (SG) (?A) (DLTA) (SG) (DLTA) (DLTA) (SG)
                 (SG) (?A) (DLTA) (?A) (DLTA) (SG) (DLTA) (SG)
                 (?A) (SG) (?A) (DLTA) (DLTA) (DLTA) (DLTA) (DLTA)
                 (DLTA) (DLTA) (?A) (DLTA) (?A) (DLTA) (DLTA) (DLTA)
                 (?A) (DLTA) (?A) (DLTA) (DLTA) (?A) (?A) (PI)
                 (PI) (PI) (PI) (PI) (PI) (PI) (PI) (PHI) (PI)
                 (PI) (PHI) (PI) (PI) (PI) (PHI) (PI) (PHI) (PHI)
                 (PI) (PI) (?B) (PHI) (PHI) (PI) (PI) (PHI) (PI)
                 (?B) (PHI) (?B) (PI) (PI) (PI) (PI) (PI) (PI)
                 (PI) (PI) (PHI) (PI) (PI) (PHI) (PI) (PI) (PI)
                 (PHI) (PI) (PHI) (PHI) (PI) (PI) (?B) (PHI) (PHI)
                 (PI) (PI) (PHI) (PI) (?B) (PHI) (?B)
 The electronic state of the initial guess is 2-SG.
 Leave Link  401 at Wed Feb 21 04:07:56 2018, MaxMem= 10737418240 cpu:              24.7 elap:               0.9
 (Enter /home1/apps/gaussian/16rA.03/g16/l502.exe)
 Keep R1 and R2 ints in memory in symmetry-blocked form, NReq=3425113631.
 FoFCou: FMM=F IPFlag=           8 FMFlag=           0 FMFlg1=           0
         NFxFlg=           0 DoJE=F BraDBF=F KetDBF=F FulRan=T
         wScrn=  0.000000 ICntrl=       600 IOpCl=  0 I1Cent=           0 NGrid=           0
         NMat0=    1 NMatS0=  73920 NMatT0=    0 NMatD0=    1 NMtDS0=    0 NMtDT0=    0
 Petite list used in FoFCou.
 Restricted open shell SCF:
 Using DIIS extrapolation, IDIIS=  1040.
 NGot= 10737418240 LenX=  9351085953 LenY=  9350838447
 Requested convergence on RMS density matrix=1.00D-08 within 300 cycles.
 Requested convergence on MAX density matrix=1.00D-06.
 Requested convergence on             energy=1.00D-06.
 No special actions if energy rises.

 Cycle   1  Pass 1  IDiag  1:
 E= -61.9329660382972    
 DIIS: error= 2.46D-01 at cycle   1 NSaved=   1.
 NSaved= 1 IEnMin= 1 EnMin= -61.9329660382972     IErMin= 1 ErrMin= 2.46D-01
 ErrMax= 2.46D-01  0.00D+00 EMaxC= 1.00D-01 BMatC= 1.43D+01 BMatP= 1.43D+01
 IDIUse=3 WtCom= 0.00D+00 WtEn= 1.00D+00
 Coeff-Com:  0.100D+01
 Coeff-En:   0.100D+01
 Coeff:      0.100D+01
 Gap=     0.089 Goal=   None    Shift=    0.000
 GapD=    0.089 DampG=0.500 DampE=0.125 DampFc=0.1250 IDamp=-1.
 Damping current iteration by 1.25D-01
 RMSDP=1.70D-03 MaxDP=9.35D-02              OVMax= 4.02D-03

 Cycle   2  Pass 1  IDiag  1:
 E= -61.9330612907125     Delta-E=       -0.000095252415 Rises=F Damp=T
 DIIS: error= 2.15D-01 at cycle   2 NSaved=   2.
 NSaved= 2 IEnMin= 2 EnMin= -61.9330612907125     IErMin= 2 ErrMin= 2.15D-01
 ErrMax= 2.15D-01  0.00D+00 EMaxC= 1.00D-01 BMatC= 1.10D+01 BMatP= 1.43D+01
 IDIUse=3 WtCom= 0.00D+00 WtEn= 1.00D+00
 Coeff-Com: -0.700D+01 0.800D+01
 Coeff-En:   0.000D+00 0.100D+01
 Coeff:      0.000D+00 0.100D+01
 Gap=     0.089 Goal=   None    Shift=    0.000
 RMSDP=1.50D-03 MaxDP=8.21D-02 DE=-9.53D-05 OVMax= 1.21D-03

 Cycle   3  Pass 1  IDiag  1:
 E= -61.9337516059828     Delta-E=       -0.000690315270 Rises=F Damp=F
 DIIS: error= 1.69D-04 at cycle   3 NSaved=   3.
 NSaved= 3 IEnMin= 3 EnMin= -61.9337516059828     IErMin= 3 ErrMin= 1.69D-04
 ErrMax= 1.69D-04  0.00D+00 EMaxC= 1.00D-01 BMatC= 4.49D-06 BMatP= 1.10D+01
 IDIUse=3 WtCom= 9.98D-01 WtEn= 1.69D-03
 Coeff-Com:  0.731D-01-0.835D-01 0.101D+01
 Coeff-En:   0.000D+00 0.000D+00 0.100D+01
 Coeff:      0.729D-01-0.834D-01 0.101D+01
 Gap=     0.089 Goal=   None    Shift=    0.000
 RMSDP=7.23D-05 MaxDP=4.56D-03 DE=-6.90D-04 OVMax= 1.49D-03

 Cycle   4  Pass 1  IDiag  1:
 E= -61.9337537169692     Delta-E=       -0.000002110986 Rises=F Damp=F
 DIIS: error= 7.68D-05 at cycle   4 NSaved=   4.
 NSaved= 4 IEnMin= 4 EnMin= -61.9337537169692     IErMin= 4 ErrMin= 7.68D-05
 ErrMax= 7.68D-05  0.00D+00 EMaxC= 1.00D-01 BMatC= 5.55D-07 BMatP= 4.49D-06
 IDIUse=1 WtCom= 1.00D+00 WtEn= 0.00D+00
 Coeff-Com:  0.177D+00-0.202D+00 0.158D+00 0.868D+00
 Coeff:      0.177D+00-0.202D+00 0.158D+00 0.868D+00
 Gap=     0.089 Goal=   None    Shift=    0.000
 RMSDP=1.61D-05 MaxDP=2.80D-03 DE=-2.11D-06 OVMax= 9.54D-04

 Cycle   5  Pass 1  IDiag  1:
 E= -61.9337539160165     Delta-E=       -0.000000199047 Rises=F Damp=F
 DIIS: error= 6.87D-05 at cycle   5 NSaved=   5.
 NSaved= 5 IEnMin= 5 EnMin= -61.9337539160165     IErMin= 5 ErrMin= 6.87D-05
 ErrMax= 6.87D-05  0.00D+00 EMaxC= 1.00D-01 BMatC= 4.28D-07 BMatP= 5.55D-07
 IDIUse=1 WtCom= 1.00D+00 WtEn= 0.00D+00
 Coeff-Com:  0.224D+00-0.257D+00-0.114D-01 0.471D+00 0.572D+00
 Coeff:      0.224D+00-0.257D+00-0.114D-01 0.471D+00 0.572D+00
 Gap=     0.089 Goal=   None    Shift=    0.000
 RMSDP=4.43D-06 MaxDP=5.43D-04 DE=-1.99D-07 OVMax= 3.20D-04

 Cycle   6  Pass 1  IDiag  1:
 E= -61.9337542393553     Delta-E=       -0.000000323339 Rises=F Damp=F
 DIIS: error= 6.03D-06 at cycle   6 NSaved=   6.
 NSaved= 6 IEnMin= 6 EnMin= -61.9337542393553     IErMin= 6 ErrMin= 6.03D-06
 ErrMax= 6.03D-06  0.00D+00 EMaxC= 1.00D-01 BMatC= 3.66D-09 BMatP= 4.28D-07
 IDIUse=1 WtCom= 1.00D+00 WtEn= 0.00D+00
 Coeff-Com:  0.168D+00-0.192D+00 0.209D-01 0.322D-01 0.570D-01 0.914D+00
 Coeff:      0.168D+00-0.192D+00 0.209D-01 0.322D-01 0.570D-01 0.914D+00
 Gap=     0.089 Goal=   None    Shift=    0.000
 RMSDP=9.47D-07 MaxDP=2.26D-04 DE=-3.23D-07 OVMax= 8.85D-05

 Cycle   7  Pass 1  IDiag  1:
 E= -61.9337542396909     Delta-E=       -0.000000000336 Rises=F Damp=F
 DIIS: error= 4.98D-06 at cycle   7 NSaved=   7.
 NSaved= 7 IEnMin= 7 EnMin= -61.9337542396909     IErMin= 7 ErrMin= 4.98D-06
 ErrMax= 4.98D-06  0.00D+00 EMaxC= 1.00D-01 BMatC= 2.58D-09 BMatP= 3.66D-09
 IDIUse=1 WtCom= 1.00D+00 WtEn= 0.00D+00
 Coeff-Com:  0.149D+00-0.171D+00 0.274D-01-0.382D-01-0.432D-01 0.116D+00
 Coeff-Com:  0.959D+00
 Coeff:      0.149D+00-0.171D+00 0.274D-01-0.382D-01-0.432D-01 0.116D+00
 Coeff:      0.959D+00
 Gap=     0.089 Goal=   None    Shift=    0.000
 RMSDP=7.09D-07 MaxDP=1.02D-04 DE=-3.36D-10 OVMax= 6.56D-05

 Cycle   8  Pass 1  IDiag  1:
 E= -61.9337542432924     Delta-E=       -0.000000003602 Rises=F Damp=F
 DIIS: error= 4.29D-06 at cycle   8 NSaved=   8.
 NSaved= 8 IEnMin= 8 EnMin= -61.9337542432924     IErMin= 8 ErrMin= 4.29D-06
 ErrMax= 4.29D-06  0.00D+00 EMaxC= 1.00D-01 BMatC= 1.57D-09 BMatP= 2.58D-09
 IDIUse=1 WtCom= 1.00D+00 WtEn= 0.00D+00
 Coeff-Com:  0.115D+00-0.131D+00 0.193D-01-0.311D-02-0.223D-02-0.156D+00
 Coeff-Com:  0.131D-02 0.116D+01
 Coeff:      0.115D+00-0.131D+00 0.193D-01-0.311D-02-0.223D-02-0.156D+00
 Coeff:      0.131D-02 0.116D+01
 Gap=     0.089 Goal=   None    Shift=    0.000
 RMSDP=5.82D-07 MaxDP=8.72D-05 DE=-3.60D-09 OVMax= 2.51D-05

 Cycle   9  Pass 1  IDiag  1:
 E= -61.9337542445772     Delta-E=       -0.000000001285 Rises=F Damp=F
 DIIS: error= 3.38D-06 at cycle   9 NSaved=   9.
 NSaved= 9 IEnMin= 9 EnMin= -61.9337542445772     IErMin= 9 ErrMin= 3.38D-06
 ErrMax= 3.38D-06  0.00D+00 EMaxC= 1.00D-01 BMatC= 9.97D-10 BMatP= 1.57D-09
 IDIUse=1 WtCom= 1.00D+00 WtEn= 0.00D+00
 Coeff-Com:  0.763D-01-0.872D-01 0.112D-01 0.132D-01 0.175D-01-0.772D-01
 Coeff-Com: -0.349D+00-0.509D-01 0.145D+01
 Coeff:      0.763D-01-0.872D-01 0.112D-01 0.132D-01 0.175D-01-0.772D-01
 Coeff:     -0.349D+00-0.509D-01 0.145D+01
 Gap=     0.089 Goal=   None    Shift=    0.000
 RMSDP=7.20D-07 MaxDP=1.16D-04 DE=-1.28D-09 OVMax= 3.62D-05

 Cycle  10  Pass 1  IDiag  1:
 E= -61.9337542461420     Delta-E=       -0.000000001565 Rises=F Damp=F
 DIIS: error= 2.17D-06 at cycle  10 NSaved=  10.
 NSaved=10 IEnMin=10 EnMin= -61.9337542461420     IErMin=10 ErrMin= 2.17D-06
 ErrMax= 2.17D-06  0.00D+00 EMaxC= 1.00D-01 BMatC= 4.13D-10 BMatP= 9.97D-10
 IDIUse=1 WtCom= 1.00D+00 WtEn= 0.00D+00
 Coeff-Com:  0.563D-01-0.643D-01 0.925D-02-0.257D-02-0.145D-02 0.216D-01
 Coeff-Com:  0.688D-01-0.284D+00 0.465D-01 0.115D+01
 Coeff:      0.563D-01-0.643D-01 0.925D-02-0.257D-02-0.145D-02 0.216D-01
 Coeff:      0.688D-01-0.284D+00 0.465D-01 0.115D+01
 Gap=     0.089 Goal=   None    Shift=    0.000
 RMSDP=3.17D-07 MaxDP=4.00D-05 DE=-1.56D-09 OVMax= 1.54D-05

 Cycle  11  Pass 1  IDiag  1:
 E= -61.9337542465913     Delta-E=       -0.000000000449 Rises=F Damp=F
 DIIS: error= 1.65D-06 at cycle  11 NSaved=  11.
 NSaved=11 IEnMin=11 EnMin= -61.9337542465913     IErMin=11 ErrMin= 1.65D-06
 ErrMax= 1.65D-06  0.00D+00 EMaxC= 1.00D-01 BMatC= 2.27D-10 BMatP= 4.13D-10
 IDIUse=1 WtCom= 1.00D+00 WtEn= 0.00D+00
 Coeff-Com:  0.475D-01-0.542D-01 0.785D-02-0.257D-02-0.176D-02 0.109D-01
 Coeff-Com:  0.663D-01-0.155D+00-0.311D-03 0.268D+00 0.814D+00
 Coeff:      0.475D-01-0.542D-01 0.785D-02-0.257D-02-0.176D-02 0.109D-01
 Coeff:      0.663D-01-0.155D+00-0.311D-03 0.268D+00 0.814D+00
 Gap=     0.089 Goal=   None    Shift=    0.000
 RMSDP=1.60D-07 MaxDP=2.40D-05 DE=-4.49D-10 OVMax= 6.94D-06

 Cycle  12  Pass 1  IDiag  1:
 E= -61.9337542467455     Delta-E=       -0.000000000154 Rises=F Damp=F
 DIIS: error= 1.37D-06 at cycle  12 NSaved=  12.
 NSaved=12 IEnMin=12 EnMin= -61.9337542467455     IErMin=12 ErrMin= 1.37D-06
 ErrMax= 1.37D-06  0.00D+00 EMaxC= 1.00D-01 BMatC= 1.62D-10 BMatP= 2.27D-10
 IDIUse=1 WtCom= 1.00D+00 WtEn= 0.00D+00
 Coeff-Com:  0.322D-01-0.368D-01 0.515D-02 0.764D-03 0.172D-02-0.169D-01
 Coeff-Com: -0.239D-01 0.274D-01 0.199D+00-0.627D+00-0.314D+00 0.175D+01
 Coeff:      0.322D-01-0.368D-01 0.515D-02 0.764D-03 0.172D-02-0.169D-01
 Coeff:     -0.239D-01 0.274D-01 0.199D+00-0.627D+00-0.314D+00 0.175D+01
 Gap=     0.089 Goal=   None    Shift=    0.000
 RMSDP=2.56D-07 MaxDP=3.06D-05 DE=-1.54D-10 OVMax= 1.24D-05

 Cycle  13  Pass 1  IDiag  1:
 E= -61.9337542469605     Delta-E=       -0.000000000215 Rises=F Damp=F
 DIIS: error= 9.33D-07 at cycle  13 NSaved=  13.
 NSaved=13 IEnMin=13 EnMin= -61.9337542469605     IErMin=13 ErrMin= 9.33D-07
 ErrMax= 9.33D-07  0.00D+00 EMaxC= 1.00D-01 BMatC= 7.37D-11 BMatP= 1.62D-10
 IDIUse=1 WtCom= 1.00D+00 WtEn= 0.00D+00
 Coeff-Com:  0.174D-01-0.199D-01 0.275D-02 0.815D-03 0.142D-02-0.835D-02
 Coeff-Com: -0.237D-01-0.768D-02 0.136D+00-0.824D-01-0.696D+00 0.186D+00
 Coeff-Com:  0.149D+01
 Coeff:      0.174D-01-0.199D-01 0.275D-02 0.815D-03 0.142D-02-0.835D-02
 Coeff:     -0.237D-01-0.768D-02 0.136D+00-0.824D-01-0.696D+00 0.186D+00
 Coeff:      0.149D+01
 Gap=     0.089 Goal=   None    Shift=    0.000
 RMSDP=2.43D-07 MaxDP=3.08D-05 DE=-2.15D-10 OVMax= 1.16D-05

 Cycle  14  Pass 1  IDiag  1:
 E= -61.9337542470862     Delta-E=       -0.000000000126 Rises=F Damp=F
 DIIS: error= 5.08D-07 at cycle  14 NSaved=  14.
 NSaved=14 IEnMin=14 EnMin= -61.9337542470862     IErMin=14 ErrMin= 5.08D-07
 ErrMax= 5.08D-07  0.00D+00 EMaxC= 1.00D-01 BMatC= 2.17D-11 BMatP= 7.37D-11
 IDIUse=1 WtCom= 1.00D+00 WtEn= 0.00D+00
 Coeff-Com:  0.161D-02-0.184D-02 0.281D-03-0.331D-03-0.362D-03 0.369D-02
 Coeff-Com:  0.100D-01-0.266D-01-0.202D-01 0.171D+00 0.503D-01-0.379D+00
 Coeff-Com: -0.869D+00 0.206D+01
 Coeff:      0.161D-02-0.184D-02 0.281D-03-0.331D-03-0.362D-03 0.369D-02
 Coeff:      0.100D-01-0.266D-01-0.202D-01 0.171D+00 0.503D-01-0.379D+00
 Coeff:     -0.869D+00 0.206D+01
 Gap=     0.089 Goal=   None    Shift=    0.000
 RMSDP=2.63D-07 MaxDP=3.33D-05 DE=-1.26D-10 OVMax= 1.25D-05

 Cycle  15  Pass 1  IDiag  1:
 E= -61.9337542471381     Delta-E=       -0.000000000052 Rises=F Damp=F
 DIIS: error= 4.62D-08 at cycle  15 NSaved=  15.
 NSaved=15 IEnMin=15 EnMin= -61.9337542471381     IErMin=15 ErrMin= 4.62D-08
 ErrMax= 4.62D-08  0.00D+00 EMaxC= 1.00D-01 BMatC= 1.89D-13 BMatP= 2.17D-11
 IDIUse=1 WtCom= 1.00D+00 WtEn= 0.00D+00
 Coeff-Com:  0.191D-02-0.218D-02 0.316D-03-0.949D-04-0.763D-04 0.662D-04
 Coeff-Com:  0.269D-02-0.328D-02 0.537D-03-0.115D-01 0.629D-01 0.769D-01
 Coeff-Com: -0.318D+00 0.266D+00 0.924D+00
 Coeff:      0.191D-02-0.218D-02 0.316D-03-0.949D-04-0.763D-04 0.662D-04
 Coeff:      0.269D-02-0.328D-02 0.537D-03-0.115D-01 0.629D-01 0.769D-01
 Coeff:     -0.318D+00 0.266D+00 0.924D+00
 Gap=     0.089 Goal=   None    Shift=    0.000
 RMSDP=5.44D-09 MaxDP=7.86D-07 DE=-5.19D-11 OVMax= 2.95D-07

 SCF Done:  E(ROHF) =  -61.9337542471     A.U. after   15 cycles
            NFock= 15  Conv=0.54D-08     -V/T= 3.0435
 <Sx>= 0.0000 <Sy>= 0.0000 <Sz>= 0.5000 <S**2>= 0.7500 S= 0.5000
 <L.S>=  0.00000000000    
 KE= 3.030696128529D+01 PE=-1.750950103376D+02 EE= 6.230976779299D+01
 Annihilation of the first spin contaminant:
 S**2 before annihilation     0.7500,   after     0.7500
 Leave Link  502 at Wed Feb 21 04:09:18 2018, MaxMem= 10737418240 cpu:            2199.7 elap:              82.2
 (Enter /home1/apps/gaussian/16rA.03/g16/l801.exe)
 Windowed orbitals will be sorted by symmetry type.
 GenMOA:  NOpAll=  4 NOp2=4 NOpUse=  4 JSym2X=1
 FoFJK:  IHMeth= 1 ICntrl=       0 DoSepK=F KAlg= 0 I1Cent=           0 FoldK=F
 IRaf=         0 NMat=       1 IRICut=       1 DoRegI=T DoRafI=F ISym2E= 1 IDoP0=0 IntGTp=1.
 FoFCou: FMM=F IPFlag=           8 FMFlag=      100000 FMFlg1=           0
         NFxFlg=           0 DoJE=F BraDBF=F KetDBF=F FulRan=T
         wScrn=  0.000000 ICntrl=         0 IOpCl=  1 I1Cent=           0 NGrid=           0
         NMat0=    1 NMatS0=      1 NMatT0=    0 NMatD0=    1 NMtDS0=    0 NMtDT0=    0
 Petite list used in FoFCou.
 <Sx>= 0.0000 <Sy>= 0.0000 <Sz>= 0.5000 <S**2>= 0.7500 S= 0.5000
 Range of M.O.s used for correlation:     1   383
 NBasis=   384 NAE=     9 NBE=     8 NFC=     0 NFV=     0
 NROrb=    383 NOA=     9 NOB=     8 NVA=   374 NVB=   375

 **** Warning!!: The largest alpha MO coefficient is  0.31320720D+03


 **** Warning!!: The largest beta MO coefficient is  0.31320315D+03

 Singles contribution to E2=   -0.1990549291D-03
 Leave Link  801 at Wed Feb 21 04:09:39 2018, MaxMem= 10737418240 cpu:             662.8 elap:              20.8
 (Enter /home1/apps/gaussian/16rA.03/g16/l804.exe)
 Open-shell transformation, MDV= 10737418240 ITran=4 ISComp=2.
 Unit  1 TFree=       4459698 TCopy=       3230129.
 Semi-Direct transformation.
 ModeAB=           4 MOrb=             9 LenV=   10733048763
 LASXX=     63702177 LTotXX=    63702177 LenRXX=   128059521
 LTotAB=    64357344 MaxLAS=   422478108 LenRXY=           0
 NonZer=   191761698 LenScr=   288771072 LnRSAI=   422478108
 LnScr1=   636203008 LExtra=    17918610 Total=   1493430319
 MaxDsk= 67108864000 SrtSym=           T ITran=            4
 DoSDTr:  NPSUse= 32
 JobTyp=1 Pass  1:  I=   1 to   9.
 (rs|ai) integrals will be sorted in core.
 Complete sort for first half transformation.
 First half transformation complete.
 Complete sort for second half transformation.
 Second half transformation complete.
 ModeAB=           4 MOrb=             8 LenV=   10733048763
 LASXX=     56573606 LTotXX=    56573606 LenRXX=   111007430
 LTotAB=    54433824 MaxLAS=   375536096 LenRXY=           0
 NonZer=   167581036 LenScr=   252357632 LnRSAI=   375536096
 LnScr1=   565513216 LExtra=   145978131 Total=   1450392505
 MaxDsk= 67108864000 SrtSym=           T ITran=            4
 DoSDTr:  NPSUse= 32
 JobTyp=2 Pass  1:  I=   1 to   8.
 (rs|ai) integrals will be sorted in core.
 Complete sort for first half transformation.
 First half transformation complete.
 Complete sort for second half transformation.
 Second half transformation complete.
 Spin components of T(2) and E(2):
     alpha-alpha T2 =       0.3123673752D-01 E2=     -0.9856966016D-01
     alpha-beta  T2 =       0.1330285214D+00 E2=     -0.5222600145D+00
     beta-beta   T2 =       0.2698152565D-01 E2=     -0.8969817056D-01
 ANorm=    0.1091528333D+01
 E2 =    -0.7107269001D+00 EUMP2 =    -0.62644481147245D+02
 (S**2,0)=  0.75000D+00           (S**2,1)=  0.75000D+00
 E(PUHF)=      -0.61933754247D+02        E(PMP2)=      -0.62644481147D+02
 Recovering and transforming amplitudes from chk file.
 B after Tr=     0.000000    0.000000    0.000000
         Rot=    1.000000    0.000000    0.000000    0.000000 Ang=   0.00 deg.
 Alpha occ  Sing. vals= 9.999996D-01 9.999995D-01 9.999995D-01 9.999990D-01 9.999969D-01 9.999966D-01 9.999793D-01 9.999713D-01 9.999713D-01
 Alpha occ  NOrbO=     9 NOrbN=     9 NSVal=     9 ThrEig=  0.900000.
 TrMax= 1.000000D+00 PrMax= 1.000000D+00 Trace(Pr)= 9.000000D+00
 B after Tr=     0.000000    0.000000    0.000000
         Rot=    1.000000    0.000000    0.000000    0.000000 Ang=   0.00 deg.
 Alpha virt Sing. vals= 1.000000D+00 1.000000D+00 1.000000D+00 1.000000D+00 1.000000D+00 1.000000D+00 1.000000D+00 1.000000D+00 1.000000D+00 1.000000D+00
 Alpha virt Sing. vals= 1.000000D+00 1.000000D+00 1.000000D+00 1.000000D+00 1.000000D+00 1.000000D+00 1.000000D+00 1.000000D+00 1.000000D+00 1.000000D+00
 Alpha virt Sing. vals= 1.000000D+00 1.000000D+00 1.000000D+00 1.000000D+00 1.000000D+00 1.000000D+00 1.000000D+00 1.000000D+00 1.000000D+00 1.000000D+00
 Alpha virt Sing. vals= 1.000000D+00 1.000000D+00 1.000000D+00 1.000000D+00 1.000000D+00 1.000000D+00 1.000000D+00 9.999999D-01 9.999999D-01 9.999999D-01
 Alpha virt Sing. vals= 9.999999D-01 9.999999D-01 9.999999D-01 9.999998D-01 9.999997D-01 9.999997D-01 9.999996D-01 9.999994D-01 9.999991D-01 9.999991D-01
 Alpha virt Sing. vals= 9.999991D-01 9.999991D-01 9.999990D-01 9.999990D-01 9.999988D-01 9.999977D-01 9.999975D-01 9.999975D-01 9.999972D-01 9.999972D-01
 Alpha virt Sing. vals= 9.999972D-01 9.999954D-01 9.999950D-01 9.999950D-01 9.999948D-01 9.999927D-01 9.999921D-01 9.999921D-01 9.999912D-01 9.999910D-01
 Alpha virt Sing. vals= 9.999910D-01 9.999905D-01 9.999905D-01 9.999888D-01 9.999871D-01 9.999866D-01 9.999866D-01 9.999865D-01 9.999821D-01 9.999821D-01
 Alpha virt Sing. vals= 9.999804D-01 9.999743D-01 9.999609D-01 9.999609D-01 9.999603D-01 9.999547D-01 9.999547D-01 9.999501D-01 9.999343D-01 9.999343D-01
 Alpha virt Sing. vals= 9.999281D-01 9.999240D-01 9.999221D-01 9.998959D-01 9.998887D-01 9.998887D-01 9.998835D-01 9.998835D-01 9.998423D-01 9.998226D-01
 Alpha virt Sing. vals= 9.998226D-01 9.998056D-01 9.997675D-01 9.997653D-01 9.997653D-01 9.997613D-01 9.997613D-01 9.997407D-01 9.997407D-01 9.997407D-01
 Alpha virt Sing. vals= 9.996943D-01 9.996307D-01 9.996307D-01 9.996117D-01 9.995815D-01 9.995590D-01 9.995382D-01 9.995382D-01 9.994786D-01 9.994786D-01
 Alpha virt Sing. vals= 9.993154D-01 9.992811D-01 9.992811D-01 9.992170D-01 9.992170D-01 9.991006D-01 9.990979D-01 9.990979D-01 9.990380D-01 9.990380D-01
 Alpha virt Sing. vals= 9.990083D-01 9.990083D-01 9.987828D-01 9.987828D-01 9.987774D-01 9.987751D-01 9.987751D-01 9.987513D-01 9.984219D-01 9.983704D-01
 Alpha virt Sing. vals= 9.983704D-01 9.983664D-01 9.983664D-01 9.982423D-01 9.982013D-01 9.982013D-01 9.979871D-01 9.979871D-01 9.979357D-01 9.979270D-01
 Alpha virt Sing. vals= 9.979270D-01 9.976534D-01 9.974621D-01 9.974621D-01 9.969505D-01 9.965212D-01 9.965212D-01 9.965028D-01 9.964973D-01 9.964973D-01
 Alpha virt Sing. vals= 9.956151D-01 9.953159D-01 9.948013D-01 9.948013D-01 9.947870D-01 9.947870D-01 9.947382D-01 9.947380D-01 9.947380D-01 9.946615D-01
 Alpha virt Sing. vals= 9.946615D-01 9.944547D-01 9.944547D-01 9.937720D-01 9.933472D-01 9.933472D-01 9.926660D-01 9.926660D-01 9.924542D-01 9.924542D-01
 Alpha virt Sing. vals= 9.922469D-01 9.908090D-01 9.908090D-01 9.900518D-01 9.894798D-01 9.894798D-01 9.886844D-01 9.857247D-01 9.836125D-01 9.836125D-01
 Alpha virt Sing. vals= 9.834165D-01 9.834165D-01 9.800669D-01 9.788687D-01 9.787625D-01 9.787625D-01 9.777727D-01 9.777727D-01 9.776239D-01 9.776239D-01
 Alpha virt Sing. vals= 9.771864D-01 9.771864D-01 9.771266D-01 9.771266D-01 9.767578D-01 9.767578D-01 9.766509D-01 9.766509D-01 9.740391D-01 9.722027D-01
 Alpha virt Sing. vals= 9.722027D-01 9.576260D-01 9.526273D-01 9.507416D-01 9.507416D-01 9.500408D-01 9.500408D-01 9.430290D-01 9.351134D-01 9.351134D-01
 Alpha virt Sing. vals= 9.350908D-01 9.322881D-01 9.322881D-01 9.317165D-01 9.317165D-01 9.311983D-01 9.311983D-01 9.308094D-01 9.200378D-01 9.182450D-01
 Alpha virt Sing. vals= 9.182450D-01 9.101755D-01 9.101755D-01 9.096831D-01 9.096831D-01 9.096361D-01 9.012612D-01 9.012612D-01 8.962109D-01 8.962109D-01
 Alpha virt Sing. vals= 8.938134D-01 8.888611D-01 8.888611D-01 8.852015D-01 8.852015D-01 8.801984D-01 8.801984D-01 8.427310D-01 5.293447D-01
 Alpha virt NOrbO=   249 NOrbN=   374 NSVal=   238 ThrEig=  0.900000.
 TrMax= 9.994672D-01 PrMax= 9.997364D-01 Trace(Pr)= 2.380000D+02
 B after Tr=     0.000000    0.000000    0.000000
         Rot=    1.000000    0.000000    0.000000    0.000000 Ang=   0.00 deg.
 Beta  occ  Sing. vals= 9.999996D-01 9.999995D-01 9.999995D-01 9.999990D-01 9.999968D-01 9.999793D-01 9.999713D-01 9.999713D-01
 Beta  occ  NOrbO=     8 NOrbN=     8 NSVal=     8 ThrEig=  0.900000.
 TrMax= 1.000000D+00 PrMax= 1.000000D+00 Trace(Pr)= 8.000000D+00
 B after Tr=     0.000000    0.000000    0.000000
         Rot=    1.000000    0.000000    0.000000    0.000000 Ang=   0.00 deg.
 Beta  virt Sing. vals= 1.000000D+00 1.000000D+00 1.000000D+00 1.000000D+00 1.000000D+00 1.000000D+00 1.000000D+00 1.000000D+00 1.000000D+00 1.000000D+00
 Beta  virt Sing. vals= 1.000000D+00 1.000000D+00 1.000000D+00 1.000000D+00 1.000000D+00 1.000000D+00 1.000000D+00 1.000000D+00 1.000000D+00 1.000000D+00
 Beta  virt Sing. vals= 1.000000D+00 1.000000D+00 1.000000D+00 1.000000D+00 1.000000D+00 1.000000D+00 1.000000D+00 1.000000D+00 1.000000D+00 1.000000D+00
 Beta  virt Sing. vals= 1.000000D+00 1.000000D+00 1.000000D+00 1.000000D+00 1.000000D+00 1.000000D+00 1.000000D+00 1.000000D+00 9.999999D-01 9.999999D-01
 Beta  virt Sing. vals= 9.999999D-01 9.999999D-01 9.999999D-01 9.999999D-01 9.999998D-01 9.999997D-01 9.999997D-01 9.999996D-01 9.999994D-01 9.999991D-01
 Beta  virt Sing. vals= 9.999991D-01 9.999991D-01 9.999991D-01 9.999990D-01 9.999990D-01 9.999988D-01 9.999977D-01 9.999975D-01 9.999975D-01 9.999972D-01
 Beta  virt Sing. vals= 9.999972D-01 9.999972D-01 9.999954D-01 9.999950D-01 9.999950D-01 9.999948D-01 9.999927D-01 9.999921D-01 9.999921D-01 9.999912D-01
 Beta  virt Sing. vals= 9.999910D-01 9.999910D-01 9.999905D-01 9.999905D-01 9.999888D-01 9.999871D-01 9.999866D-01 9.999866D-01 9.999865D-01 9.999821D-01
 Beta  virt Sing. vals= 9.999821D-01 9.999804D-01 9.999743D-01 9.999609D-01 9.999609D-01 9.999603D-01 9.999547D-01 9.999547D-01 9.999500D-01 9.999343D-01
 Beta  virt Sing. vals= 9.999343D-01 9.999281D-01 9.999239D-01 9.999221D-01 9.998959D-01 9.998887D-01 9.998887D-01 9.998835D-01 9.998835D-01 9.998422D-01
 Beta  virt Sing. vals= 9.998226D-01 9.998226D-01 9.998056D-01 9.997675D-01 9.997653D-01 9.997653D-01 9.997613D-01 9.997613D-01 9.997407D-01 9.997407D-01
 Beta  virt Sing. vals= 9.997407D-01 9.996941D-01 9.996307D-01 9.996307D-01 9.996117D-01 9.995815D-01 9.995590D-01 9.995382D-01 9.995382D-01 9.994786D-01
 Beta  virt Sing. vals= 9.994786D-01 9.993154D-01 9.992811D-01 9.992811D-01 9.992170D-01 9.992170D-01 9.991006D-01 9.990979D-01 9.990979D-01 9.990380D-01
 Beta  virt Sing. vals= 9.990380D-01 9.990083D-01 9.990083D-01 9.987828D-01 9.987828D-01 9.987774D-01 9.987751D-01 9.987751D-01 9.987514D-01 9.984218D-01
 Beta  virt Sing. vals= 9.983704D-01 9.983704D-01 9.983664D-01 9.983664D-01 9.982423D-01 9.982013D-01 9.982013D-01 9.979871D-01 9.979871D-01 9.979357D-01
 Beta  virt Sing. vals= 9.979270D-01 9.979270D-01 9.976531D-01 9.974621D-01 9.974621D-01 9.969505D-01 9.965212D-01 9.965212D-01 9.965028D-01 9.964973D-01
 Beta  virt Sing. vals= 9.964973D-01 9.956150D-01 9.953158D-01 9.948013D-01 9.948013D-01 9.947870D-01 9.947870D-01 9.947382D-01 9.947380D-01 9.947380D-01
 Beta  virt Sing. vals= 9.946615D-01 9.946615D-01 9.944547D-01 9.944547D-01 9.937719D-01 9.933472D-01 9.933472D-01 9.926660D-01 9.926660D-01 9.924542D-01
 Beta  virt Sing. vals= 9.924542D-01 9.922469D-01 9.908090D-01 9.908090D-01 9.900516D-01 9.894798D-01 9.894798D-01 9.886844D-01 9.857247D-01 9.836125D-01
 Beta  virt Sing. vals= 9.836125D-01 9.834165D-01 9.834165D-01 9.800669D-01 9.788685D-01 9.787625D-01 9.787625D-01 9.777727D-01 9.777727D-01 9.776239D-01
 Beta  virt Sing. vals= 9.776239D-01 9.771864D-01 9.771864D-01 9.771266D-01 9.771266D-01 9.767578D-01 9.767578D-01 9.766509D-01 9.766509D-01 9.740389D-01
 Beta  virt Sing. vals= 9.722027D-01 9.722027D-01 9.576259D-01 9.526273D-01 9.507416D-01 9.507416D-01 9.500408D-01 9.500408D-01 9.430290D-01 9.351134D-01
 Beta  virt Sing. vals= 9.351134D-01 9.350908D-01 9.322881D-01 9.322881D-01 9.317165D-01 9.317165D-01 9.311983D-01 9.311983D-01 9.308094D-01 9.200377D-01
 Beta  virt Sing. vals= 9.182450D-01 9.182450D-01 9.101755D-01 9.101755D-01 9.096831D-01 9.096831D-01 9.096361D-01 9.012612D-01 9.012612D-01 8.962109D-01
 Beta  virt Sing. vals= 8.962109D-01 8.938134D-01 8.888611D-01 8.888611D-01 8.852015D-01 8.852015D-01 8.801984D-01 8.801984D-01 8.427309D-01 5.293448D-01
 Beta  virt NOrbO=   250 NOrbN=   375 NSVal=   239 ThrEig=  0.900000.
 TrMax= 9.999403D-01 PrMax= 9.999782D-01 Trace(Pr)= 2.390000D+02
 Leave Link  804 at Wed Feb 21 04:20:50 2018, MaxMem= 10737418240 cpu:           21457.1 elap:             671.0
 (Enter /home1/apps/gaussian/16rA.03/g16/l913.exe)
 CIDS:  MDV= 10737418240.
 IFCWin=0 IBDFC=1 NFBD=     0     0 NFCmp=     0     0 NFFFC=     0     0
 Amplitudes recovered.
 Using DD4UQ or CC4UQ for all iterations.
 Keep R2 and R3 ints in memory in symmetry-blocked form, NReq=3425131966.
 FoFCou: FMM=F IPFlag=           8 FMFlag=           0 FMFlg1=           0
         NFxFlg=           0 DoJE=F BraDBF=F KetDBF=F FulRan=T
         wScrn=  0.000000 ICntrl=       600 IOpCl=  0 I1Cent=           0 NGrid=           0
         NMat0=    1 NMatS0=  73920 NMatT0=    0 NMatD0=    1 NMtDS0=    0 NMtDT0=    0
 Petite list used in FoFCou.
 CIDS: In Core Option IDoMem=           1.
 CCSD(T)
 =======
 Iterations= 150 Convergence= 0.100D-06
 Produce multiple copies of IABC intergrals
 Iteration Nr.   1
 **********************
 DD1Dir will call FoFMem   1 times, MxPair=       208
 NAB=    72 NAA=    36 NBB=    28.
 Maximum subspace dimension=  5
 A-vector RMS=  1.2918638D-04 Max=  9.4052259D-04 conv= 1.00D-05.
 RLE energy=       -0.6955218557
 DE(Corr)= -0.69531264     E(Corr)=     -62.629066891    
 NORM(A)=   0.11059836D+01
 Iteration Nr.   2
 **********************
 DD1Dir will call FoFMem   1 times, MxPair=       208
 NAB=    72 NAA=    36 NBB=    28.
 A-vector RMS=  8.4482196D-05 Max=  8.3240366D-04 conv= 1.00D-05.
 RLE energy=       -0.6953945601
 DE(Corr)= -0.69540848     E(CORR)=     -62.629162727     Delta=-9.58D-05
 NORM(A)=   0.11064636D+01
 Iteration Nr.   3
 **********************
 DD1Dir will call FoFMem   1 times, MxPair=       208
 NAB=    72 NAA=    36 NBB=    28.
 A-vector RMS=  4.8941867D-05 Max=  6.0180957D-04 conv= 1.00D-05.
 RLE energy=       -0.6959299315
 DE(Corr)= -0.69605100     E(CORR)=     -62.629805244     Delta=-6.43D-04
 NORM(A)=   0.11065700D+01
 Iteration Nr.   4
 **********************
 DD1Dir will call FoFMem   1 times, MxPair=       208
 NAB=    72 NAA=    36 NBB=    28.
 A-vector RMS=  4.1666067D-05 Max=  4.1003566D-04 conv= 1.00D-05.
 RLE energy=       -0.6957989503
 DE(Corr)= -0.69565264     E(CORR)=     -62.629406891     Delta= 3.98D-04
 NORM(A)=   0.11067510D+01
 Iteration Nr.   5
 **********************
 DD1Dir will call FoFMem   1 times, MxPair=       208
 NAB=    72 NAA=    36 NBB=    28.
 A-vector RMS=  1.0476990D-05 Max=  2.3928223D-04 conv= 1.00D-05.
 RLE energy=       -0.6958238302
 DE(Corr)= -0.69584152     E(CORR)=     -62.629595768     Delta=-1.89D-04
 NORM(A)=   0.11068774D+01
 Iteration Nr.   6
 **********************
 DD1Dir will call FoFMem   1 times, MxPair=       208
 NAB=    72 NAA=    36 NBB=    28.
 A-vector RMS=  7.6113056D-06 Max=  1.3022846D-04 conv= 1.00D-05.
 RLE energy=       -0.6958259818
 DE(Corr)= -0.69582021     E(CORR)=     -62.629574462     Delta= 2.13D-05
 NORM(A)=   0.11069665D+01
 Iteration Nr.   7
 **********************
 DD1Dir will call FoFMem   1 times, MxPair=       208
 NAB=    72 NAA=    36 NBB=    28.
 A-vector RMS=  3.0970617D-06 Max=  6.0441951D-05 conv= 1.00D-05.
 RLE energy=       -0.6958345748
 DE(Corr)= -0.69583327     E(CORR)=     -62.629587517     Delta=-1.31D-05
 NORM(A)=   0.11069933D+01
 Iteration Nr.   8
 **********************
 DD1Dir will call FoFMem   1 times, MxPair=       208
 NAB=    72 NAA=    36 NBB=    28.
 A-vector RMS=  1.6268205D-06 Max=  3.0372082D-05 conv= 1.00D-05.
 RLE energy=       -0.6958303708
 DE(Corr)= -0.69583147     E(CORR)=     -62.629585719     Delta= 1.80D-06
 NORM(A)=   0.11070038D+01
 Iteration Nr.   9
 **********************
 DD1Dir will call FoFMem   1 times, MxPair=       208
 NAB=    72 NAA=    36 NBB=    28.
 A-vector RMS=  9.9767408D-07 Max=  1.1487319D-05 conv= 1.00D-05.
 RLE energy=       -0.6958350425
 DE(Corr)= -0.69583474     E(CORR)=     -62.629588985     Delta=-3.27D-06
 NORM(A)=   0.11070071D+01
 Iteration Nr.  10
 **********************
 DD1Dir will call FoFMem   1 times, MxPair=       208
 NAB=    72 NAA=    36 NBB=    28.
 A-vector RMS=  4.7630361D-07 Max=  5.0678862D-06 conv= 1.00D-05.
 RLE energy=       -0.6958321517
 DE(Corr)= -0.69583172     E(CORR)=     -62.629585963     Delta= 3.02D-06
 NORM(A)=   0.11070089D+01
 Iteration Nr.  11
 **********************
 DD1Dir will call FoFMem   1 times, MxPair=       208
 NAB=    72 NAA=    36 NBB=    28.
 A-vector RMS=  4.0857638D-07 Max=  4.6880172D-06 conv= 1.00D-05.
 RLE energy=       -0.6958341563
 DE(Corr)= -0.69583486     E(CORR)=     -62.629589102     Delta=-3.14D-06
 NORM(A)=   0.11070086D+01
 Iteration Nr.  12
 **********************
 DD1Dir will call FoFMem   1 times, MxPair=       208
 NAB=    72 NAA=    36 NBB=    28.
 A-vector RMS=  1.9332669D-07 Max=  2.2538042D-06 conv= 1.00D-05.
 RLE energy=       -0.6958333042
 DE(Corr)= -0.69583276     E(CORR)=     -62.629587002     Delta= 2.10D-06
 NORM(A)=   0.11070090D+01
 Iteration Nr.  13
 **********************
 DD1Dir will call FoFMem   1 times, MxPair=       208
 NAB=    72 NAA=    36 NBB=    28.
 A-vector RMS=  9.5398337D-08 Max=  1.0340242D-06 conv= 1.00D-05.
 RLE energy=       -0.6958335620
 DE(Corr)= -0.69583371     E(CORR)=     -62.629587954     Delta=-9.52D-07
 NORM(A)=   0.11070091D+01
 Iteration Nr.  14
 **********************
 DD1Dir will call FoFMem   1 times, MxPair=       208
 NAB=    72 NAA=    36 NBB=    28.
 A-vector RMS=  4.0451581D-08 Max=  4.0056888D-07 conv= 1.00D-05.
 RLE energy=       -0.6958335283
 DE(Corr)= -0.69583349     E(CORR)=     -62.629587742     Delta= 2.12D-07
 NORM(A)=   0.11070091D+01
 Iteration Nr.  15
 **********************
 DD1Dir will call FoFMem   1 times, MxPair=       208
 NAB=    72 NAA=    36 NBB=    28.
 A-vector RMS=  3.2054773D-08 Max=  3.4106304D-07 conv= 1.00D-05.
 RLE energy=       -0.6958335641
 DE(Corr)= -0.69583352     E(CORR)=     -62.629587772     Delta=-2.97D-08
 NORM(A)=   0.11070091D+01
 CI/CC converged in   15 iterations to DelEn=-2.97D-08 Conv= 1.00D-07 ErrA1= 3.21D-08 Conv= 1.00D-05
 Wavefunction amplitudes converged. E(Corr)=     -62.629587772    
 Largest amplitude= 8.84D-02
 Time for triples=    77916.30 seconds.
 T4(CCSD)= -0.51439210D-01
 T5(CCSD)=  0.90872052D-02
 CCSD(T)= -0.62671939777D+02
 Discarding MO integrals.
 Leave Link  913 at Wed Feb 21 05:12:14 2018, MaxMem= 10737418240 cpu:           98616.8 elap:            3083.5
 (Enter /home1/apps/gaussian/16rA.03/g16/l601.exe)
 Copying SCF densities to generalized density rwf, IOpCl= 0 IROHF=1.

 **********************************************************************

            Population analysis using the SCF density.

 **********************************************************************

 Orbital symmetries:
       Occupied  (SG) (SG) (PI) (PI) (SG) (SG) (PI) (PI) (SG)
       Virtual   (PI) (PI) (SG) (SG) (DLTA) (DLTA) (PI) (PI) (SG)
                 (PI) (PI) (SG) (DLTA) (DLTA) (PI) (PI) (SG) (SG)
                 (PI) (PI) (SG) (DLTA) (DLTA) (PHI) (PHI) (PI)
                 (PI) (DLTA) (DLTA) (SG) (PI) (PI) (SG) (PI) (PI)
                 (DLTA) (DLTA) (SG) (PI) (PI) (SG) (SG) (DLTA)
                 (DLTA) (PI) (PI) (?A) (?A) (SG) (PHI) (PHI) (PI)
                 (PI) (PHI) (PHI) (DLTA) (DLTA) (SG) (SG) (SG)
                 (PI) (PI) (DLTA) (DLTA) (PI) (PI) (SG) (?B) (?B)
                 (DLTA) (DLTA) (PHI) (PHI) (PI) (PI) (?A) (?A)
                 (SG) (PI) (PI) (DLTA) (DLTA) (SG) (SG) (PI) (PI)
                 (SG) (PI) (PI) (?A) (?A) (PHI) (PHI) (DLTA) (DLTA)
                 (SG) (PI) (PI) (PHI) (PHI) (DLTA) (DLTA) (SG)
                 (DLTA) (DLTA) (PI) (PI) (PI) (PI) (SG) (PHI) (PHI)
                 (SG) (DLTA) (DLTA) (PI) (PI) (SG) (DLTA) (DLTA)
                 (SG) (SG) (PI) (PI) (PI) (PI) (SG) (?B) (?B) (?A)
                 (?A) (SG) (PHI) (PHI) (DLTA) (DLTA) (PI) (PI)
                 (PI) (PI) (DLTA) (DLTA) (SG) (PI) (PI) (PHI) (PHI)
                 (DLTA) (DLTA) (PI) (PI) (?A) (?A) (SG) (SG) (PHI)
                 (PHI) (DLTA) (DLTA) (?A) (?A) (SG) (PHI) (PHI)
                 (PI) (PI) (PHI) (PHI) (SG) (DLTA) (DLTA) (DLTA)
                 (DLTA) (SG) (PI) (PI) (PI) (PI) (DLTA) (DLTA)
                 (SG) (SG) (DLTA) (DLTA) (PI) (PI) (SG) (PI) (PI)
                 (PI) (PI) (SG) (SG) (PI) (PI) (PHI) (PHI) (DLTA)
                 (DLTA) (SG) (PI) (PI) (DLTA) (DLTA) (PI) (PI)
                 (SG) (?A) (?A) (SG) (SG) (PHI) (PHI) (PI) (PI)
                 (DLTA) (DLTA) (PI) (PI) (?B) (?B) (?A) (?A) (PHI)
                 (PHI) (SG) (DLTA) (DLTA) (PI) (PI) (?A) (?A) (PHI)
                 (PHI) (DLTA) (DLTA) (SG) (PI) (PI) (PHI) (PHI)
                 (SG) (DLTA) (DLTA) (DLTA) (DLTA) (SG) (PI) (PI)
                 (PI) (PI) (SG) (SG) (SG) (DLTA) (DLTA) (PI) (PI)
                 (SG) (PI) (PI) (SG) (PI) (PI) (SG) (SG) (DLTA)
                 (DLTA) (PI) (PI) (SG) (SG) (PI) (PI) (SG) (DLTA)
                 (DLTA) (PI) (PI) (SG) (SG) (PI) (PI) (SG) (DLTA)
                 (DLTA) (PI) (PI) (SG) (SG) (PI) (PI) (SG) (PHI)
                 (PHI) (DLTA) (DLTA) (PI) (PI) (SG) (PI) (PI) (SG)
                 (SG) (SG) (PI) (PI) (SG) (DLTA) (DLTA) (PI) (PI)
                 (SG) (PI) (PI) (SG) (SG) (DLTA) (DLTA) (PI) (PI)
                 (SG) (SG) (PI) (PI) (SG) (SG) (PI) (PI) (SG) (SG)
                 (DLTA) (DLTA) (PI) (PI) (SG) (SG) (SG) (PI) (PI)
                 (SG) (PI) (PI) (SG) (SG) (SG) (PI) (PI) (SG) (SG)
                 (SG) (PI) (PI) (SG) (SG) (SG) (PI) (PI) (SG) (SG)
                 (PI) (PI) (SG) (SG) (SG) (PI) (PI) (SG) (SG) (SG)
                 (SG) (SG) (SG) (SG)
 The electronic state is 2-SG.
 Alpha  occ. eigenvalues --   -2.65592  -1.66771  -1.63833  -1.63833  -1.12627
 Alpha  occ. eigenvalues --   -0.42733  -0.41140  -0.41140  -0.25223
 Alpha virt. eigenvalues --   -0.00058  -0.00058   0.01319   0.02034   0.02700
 Alpha virt. eigenvalues --    0.02700   0.02974   0.02974   0.03225   0.03225
 Alpha virt. eigenvalues --    0.03450   0.04606   0.06756   0.06756   0.09310
 Alpha virt. eigenvalues --    0.09310   0.09386   0.10012   0.11503   0.11503
 Alpha virt. eigenvalues --    0.11678   0.11678   0.11754   0.12024   0.12024
 Alpha virt. eigenvalues --    0.12387   0.12387   0.12787   0.13151   0.13151
 Alpha virt. eigenvalues --    0.20389   0.20389   0.22097   0.25824   0.25824
 Alpha virt. eigenvalues --    0.25970   0.25970   0.27231   0.28910   0.28910
 Alpha virt. eigenvalues --    0.29398   0.33061   0.33971   0.33971   0.34099
 Alpha virt. eigenvalues --    0.34099   0.34949   0.35332   0.35332   0.36146
 Alpha virt. eigenvalues --    0.36146   0.42865   0.42865   0.43875   0.43875
 Alpha virt. eigenvalues --    0.44429   0.44429   0.46975   0.56263   0.58367
 Alpha virt. eigenvalues --    0.58837   0.58837   0.60773   0.60773   0.63606
 Alpha virt. eigenvalues --    0.63606   0.71582   0.72150   0.72150   0.72609
 Alpha virt. eigenvalues --    0.72609   0.72868   0.72868   0.72980   0.72980
 Alpha virt. eigenvalues --    0.73433   0.73433   0.75910   0.78518   0.78518
 Alpha virt. eigenvalues --    0.79698   0.79698   0.87750   1.06438   1.15019
 Alpha virt. eigenvalues --    1.15019   1.20554   1.23517   1.23517   1.24956
 Alpha virt. eigenvalues --    1.24956   1.25590   1.25590   1.29524   1.29524
 Alpha virt. eigenvalues --    1.29859   1.35986   1.35986   1.38576   1.38576
 Alpha virt. eigenvalues --    1.39232   1.39232   1.41628   1.44258   1.44258
 Alpha virt. eigenvalues --    1.44952   1.44952   1.58573   1.58573   1.63764
 Alpha virt. eigenvalues --    1.72597   1.72597   1.74706   1.82530   1.82530
 Alpha virt. eigenvalues --    1.98661   1.98661   2.01930   2.10678   2.10678
 Alpha virt. eigenvalues --    2.27446   2.42399   2.52381   2.52381   2.77697
 Alpha virt. eigenvalues --    2.77697   2.83618   2.88979   2.88979   2.90006
 Alpha virt. eigenvalues --    2.90006   2.95216   2.95662   2.95662   2.97459
 Alpha virt. eigenvalues --    2.97459   2.99494   2.99494   3.07110   3.07110
 Alpha virt. eigenvalues --    3.15735   3.15735   3.28025   3.34230   3.34230
 Alpha virt. eigenvalues --    3.75171   3.75171   3.78688   3.78688   3.78710
 Alpha virt. eigenvalues --    3.78710   3.81711   3.81711   3.89588   3.96775
 Alpha virt. eigenvalues --    4.06037   4.06037   4.06270   4.06270   4.17281
 Alpha virt. eigenvalues --    4.17281   4.30872   4.33391   4.33391   4.34547
 Alpha virt. eigenvalues --    4.34547   4.35638   4.35638   4.47511   4.49969
 Alpha virt. eigenvalues --    4.49969   4.57933   4.57933   4.70973   4.74050
 Alpha virt. eigenvalues --    4.74050   5.17626   5.17626   5.27461   5.27461
 Alpha virt. eigenvalues --    5.46375   5.60283   5.72480   5.72480   5.76244
 Alpha virt. eigenvalues --    5.76244   5.84664   5.85316   5.85316   6.13305
 Alpha virt. eigenvalues --    6.13305   6.29920   6.81154   9.67358   9.67358
 Alpha virt. eigenvalues --    9.77549   9.77549   9.91461   9.91461  10.15622
 Alpha virt. eigenvalues --   10.21248  10.21248  10.26762  10.26762  10.27807
 Alpha virt. eigenvalues --   10.27807  10.29163  10.76751  10.76751  10.84592
 Alpha virt. eigenvalues --   10.87310  10.89287  10.89287  11.01923  11.01923
 Alpha virt. eigenvalues --   11.07871  11.07871  11.22523  11.22523  11.37786
 Alpha virt. eigenvalues --   11.37786  11.39375  11.39375  11.43916  11.43916
 Alpha virt. eigenvalues --   11.47386  11.49490  11.49490  11.51538  11.51538
 Alpha virt. eigenvalues --   11.75021  11.75021  11.76672  11.76672  11.86347
 Alpha virt. eigenvalues --   11.86347  11.90315  12.07324  12.07324  12.07616
 Alpha virt. eigenvalues --   12.07616  12.17635  12.25853  12.25853  12.86767
 Alpha virt. eigenvalues --   12.86767  13.00326  13.00797  13.00797  13.31808
 Alpha virt. eigenvalues --   13.31808  13.49187  13.72125  14.89843  17.79698
 Alpha virt. eigenvalues --   17.79698  17.85618  17.85618  18.08781  20.04363
 Alpha virt. eigenvalues --   20.04363  20.33527  28.17944  28.17944  28.50593
 Alpha virt. eigenvalues --   29.16148  31.52725  31.52725  31.57251  31.57251
 Alpha virt. eigenvalues --   31.76967  34.64059  34.90168  34.90168  35.12698
 Alpha virt. eigenvalues --   46.82644  46.82644  47.02595  47.02595  47.30776
 Alpha virt. eigenvalues --   58.58913  59.81138  59.81138  59.99287  65.12056
 Alpha virt. eigenvalues --   65.12056  65.15352  65.15352  65.32100  67.99282
 Alpha virt. eigenvalues --   69.61481  69.61481  70.49068 103.01108 103.01108
 Alpha virt. eigenvalues --  103.02233 103.02233 103.06306 103.06306 103.09594
 Alpha virt. eigenvalues --  103.77125 103.77125 103.93116 107.43737 121.37105
 Alpha virt. eigenvalues --  154.39283 154.39283 155.13370 172.61690 172.61690
 Alpha virt. eigenvalues --  172.63956 172.63956 172.75682 184.87757 184.87757
 Alpha virt. eigenvalues --  185.02502 186.62311 206.79110 206.79110 206.90107
 Alpha virt. eigenvalues --  206.90107 207.03131 209.82096 324.62836 324.62836
 Alpha virt. eigenvalues --  325.29848 338.40575 341.04622 341.04622 341.18404
 Alpha virt. eigenvalues --  357.81973 593.52937 593.52937 593.54318 593.54318
 Alpha virt. eigenvalues --  593.61849 611.97325 641.02794 657.79493 657.79493
 Alpha virt. eigenvalues --  657.92215 690.88992 690.88992 691.509161089.86503
 Alpha virt. eigenvalues -- 1268.379641344.046661344.046661344.162272262.20528
 Alpha virt. eigenvalues -- 2628.641952954.940522954.940522955.043525717.49325
 Alpha virt. eigenvalues -- 6140.888197161.999297161.999297162.08836**********
 Alpha virt. eigenvalues -- **************************************************
 Alpha virt. eigenvalues -- **************************************************
 Alpha virt. eigenvalues -- ****************************************
     Molecular Orbital Coefficients:
                           4         5         6         7         8
                           O         O         O         O         O
     Eigenvalues --    -1.63833  -1.12627  -0.42733  -0.41140  -0.41140
   1 1   Sc 1S          0.00000   0.00000   0.00000   0.00000   0.00000
   2        2S          0.00000  -0.00000  -0.00000   0.00000   0.00000
   3        3S          0.00000   0.00000   0.00000   0.00000   0.00000
   4        4S          0.00000  -0.00000  -0.00000   0.00000   0.00000
   5        5S          0.00000   0.00000   0.00000   0.00000   0.00000
   6        6S          0.00000  -0.00000  -0.00000   0.00000   0.00000
   7        7S          0.00000   0.00000   0.00000   0.00000   0.00000
   8        8S          0.00000  -0.00001  -0.00001   0.00000   0.00000
   9        9S          0.00000   0.00002   0.00003   0.00000   0.00000
  10       10S          0.00000  -0.00007  -0.00008   0.00000   0.00000
  11       11S          0.00000   0.00018   0.00023   0.00000   0.00000
  12       12S          0.00000  -0.00053  -0.00064   0.00000   0.00000
  13       13S          0.00000   0.00175   0.00212   0.00000   0.00000
  14       14S          0.00000  -0.00913  -0.01100   0.00000   0.00000
  15       15S          0.00000   0.01241   0.01572   0.00000   0.00000
  16       16S          0.00000   0.06414   0.07305   0.00000   0.00000
  17       17S          0.00000  -0.01342  -0.01490   0.00000   0.00000
  18       18S          0.00000  -0.10801  -0.14123   0.00000   0.00000
  19       19S          0.00000  -0.04129  -0.07861   0.00000   0.00000
  20       20S          0.00000  -0.01511   0.00698   0.00000   0.00000
  21       21S          0.00000  -0.02732  -0.05906   0.00000   0.00000
  22       22S          0.00000   0.00596   0.02340   0.00000   0.00000
  23       23S          0.00000  -0.02495  -0.02655   0.00000   0.00000
  24       24S          0.00000  -0.00734  -0.01005   0.00000   0.00000
  25       25S          0.00000  -0.00059  -0.00216   0.00000   0.00000
  26       26PX         0.00000   0.00000   0.00000   0.00000   0.00000
  27       26PY        -0.00000   0.00000   0.00000   0.00000   0.00000
  28       26PZ         0.00000  -0.00000  -0.00000   0.00000   0.00000
  29       27PX         0.00000   0.00000   0.00000  -0.00000   0.00000
  30       27PY         0.00000   0.00000   0.00000   0.00000  -0.00000
  31       27PZ         0.00000   0.00000   0.00000   0.00000   0.00000
  32       28PX         0.00000   0.00000   0.00000   0.00000   0.00000
  33       28PY        -0.00000   0.00000   0.00000   0.00000   0.00000
  34       28PZ         0.00000  -0.00000  -0.00000   0.00000   0.00000
  35       29PX         0.00000   0.00000   0.00000  -0.00000   0.00000
  36       29PY         0.00001   0.00000   0.00000   0.00000  -0.00000
  37       29PZ         0.00000   0.00000   0.00000   0.00000   0.00000
  38       30PX         0.00000   0.00000   0.00000   0.00000   0.00000
  39       30PY        -0.00002   0.00000   0.00000   0.00000   0.00000
  40       30PZ         0.00000  -0.00001  -0.00001   0.00000   0.00000
  41       31PX         0.00000   0.00000   0.00000  -0.00001   0.00000
  42       31PY         0.00008   0.00000   0.00000   0.00000  -0.00001
  43       31PZ         0.00000   0.00003   0.00003   0.00000   0.00000
  44       32PX         0.00000   0.00000   0.00000   0.00004   0.00000
  45       32PY        -0.00024   0.00000   0.00000   0.00000   0.00004
  46       32PZ         0.00000  -0.00009  -0.00008   0.00000   0.00000
  47       33PX         0.00000   0.00000   0.00000  -0.00011   0.00000
  48       33PY         0.00052   0.00000   0.00000   0.00000  -0.00011
  49       33PZ         0.00000   0.00021   0.00022   0.00000   0.00000
  50       34PX         0.00000   0.00000   0.00000  -0.00068   0.00000
  51       34PY         0.00800   0.00000   0.00000   0.00000  -0.00068
  52       34PZ         0.00000   0.00249   0.00107   0.00000   0.00000
  53       35PX         0.00000   0.00000   0.00000   0.00656   0.00000
  54       35PY        -0.06574   0.00000   0.00000   0.00000   0.00656
  55       35PZ         0.00000  -0.02137  -0.01090   0.00000   0.00000
  56       36PX         0.00000   0.00000   0.00000   0.00770   0.00000
  57       36PY         0.00159   0.00000   0.00000   0.00000   0.00770
  58       36PZ         0.00000  -0.00483  -0.02370   0.00000   0.00000
  59       37PX         0.00000   0.00000   0.00000  -0.01722   0.00000
  60       37PY         0.18613   0.00000   0.00000   0.00000  -0.01722
  61       37PZ         0.00000   0.06043   0.02350   0.00000   0.00000
  62       38PX         0.00000   0.00000   0.00000  -0.05752   0.00000
  63       38PY         0.39790   0.00000   0.00000   0.00000  -0.05752
  64       38PZ         0.00000   0.14636   0.12185   0.00000   0.00000
  65       39PX         0.00000   0.00000   0.00000  -0.05557   0.00000
  66       39PY         0.39887   0.00000   0.00000   0.00000  -0.05557
  67       39PZ         0.00000   0.13596   0.08946   0.00000   0.00000
  68       40PX         0.00000   0.00000   0.00000  -0.01079   0.00000
  69       40PY         0.15557   0.00000   0.00000   0.00000  -0.01079
  70       40PZ         0.00000   0.05030   0.02594   0.00000   0.00000
  71       41PX         0.00000   0.00000   0.00000   0.01172   0.00000
  72       41PY         0.00890   0.00000   0.00000   0.00000   0.01172
  73       41PZ         0.00000   0.01869   0.03646   0.00000   0.00000
  74       42PX         0.00000   0.00000   0.00000   0.00427   0.00000
  75       42PY        -0.00175   0.00000   0.00000   0.00000   0.00427
  76       42PZ         0.00000   0.00892   0.01832   0.00000   0.00000
  77       43PX         0.00000   0.00000   0.00000  -0.01211   0.00000
  78       43PY        -0.00020   0.00000   0.00000   0.00000  -0.01211
  79       43PZ         0.00000  -0.00252  -0.01440   0.00000   0.00000
  80       44PX         0.00000   0.00000   0.00000  -0.00493   0.00000
  81       44PY        -0.04490   0.00000   0.00000   0.00000  -0.00493
  82       44PZ         0.00000  -0.00792   0.02162   0.00000   0.00000
  83       45PX         0.00000   0.00000   0.00000   0.01286   0.00000
  84       45PY         0.00363   0.00000   0.00000   0.00000   0.01286
  85       45PZ         0.00000  -0.01015  -0.04129   0.00000   0.00000
  86       46PX         0.00000   0.00000   0.00000   0.00257   0.00000
  87       46PY         0.00003   0.00000   0.00000   0.00000   0.00257
  88       46PZ         0.00000   0.00004   0.00113   0.00000   0.00000
  89       47D 0        0.00000   0.00000   0.00000   0.00000   0.00000
  90       47D+1        0.00000   0.00000   0.00000  -0.00000   0.00000
  91       47D-1        0.00000   0.00000   0.00000   0.00000  -0.00000
  92       47D+2        0.00000  -0.00000  -0.00000   0.00000   0.00000
  93       47D-2        0.00000   0.00000   0.00000   0.00000   0.00000
  94       48D 0        0.00000   0.00003   0.00011   0.00000   0.00000
  95       48D+1        0.00000   0.00000   0.00000  -0.00007   0.00000
  96       48D-1       -0.00000   0.00000   0.00000   0.00000  -0.00007
  97       48D+2        0.00000   0.00000   0.00000   0.00000   0.00000
  98       48D-2        0.00000   0.00000   0.00000   0.00000   0.00000
  99       49D 0        0.00000   0.00181   0.00627   0.00000   0.00000
 100       49D+1        0.00000   0.00000   0.00000  -0.00397   0.00000
 101       49D-1        0.00001   0.00000   0.00000   0.00000  -0.00397
 102       49D+2        0.00000   0.00000   0.00000   0.00000   0.00000
 103       49D-2        0.00000   0.00000   0.00000   0.00000   0.00000
 104       50D 0        0.00000   0.00775   0.02710   0.00000   0.00000
 105       50D+1        0.00000   0.00000   0.00000  -0.01722   0.00000
 106       50D-1       -0.00002   0.00000   0.00000   0.00000  -0.01722
 107       50D+2        0.00000  -0.00000  -0.00000   0.00000   0.00000
 108       50D-2        0.00000   0.00000   0.00000   0.00000   0.00000
 109       51D 0        0.00000   0.01465   0.04964   0.00000   0.00000
 110       51D+1        0.00000   0.00000   0.00000  -0.03153   0.00000
 111       51D-1        0.00024   0.00000   0.00000   0.00000  -0.03153
 112       51D+2        0.00000   0.00000   0.00000   0.00000   0.00000
 113       51D-2        0.00000   0.00000   0.00000   0.00000   0.00000
 114       52D 0        0.00000   0.02342   0.07011   0.00000   0.00000
 115       52D+1        0.00000   0.00000   0.00000  -0.04761   0.00000
 116       52D-1        0.00222   0.00000   0.00000   0.00000  -0.04761
 117       52D+2        0.00000   0.00000   0.00000   0.00000   0.00000
 118       52D-2        0.00000   0.00000   0.00000   0.00000   0.00000
 119       53D 0        0.00000   0.03858   0.11638   0.00000   0.00000
 120       53D+1        0.00000   0.00000   0.00000  -0.07653   0.00000
 121       53D-1        0.00684   0.00000   0.00000   0.00000  -0.07653
 122       53D+2        0.00000   0.00000   0.00000   0.00000   0.00000
 123       53D-2        0.00000   0.00000   0.00000   0.00000   0.00000
 124       54D 0        0.00000   0.03051   0.12168   0.00000   0.00000
 125       54D+1        0.00000   0.00000   0.00000  -0.08824   0.00000
 126       54D-1        0.00634   0.00000   0.00000   0.00000  -0.08824
 127       54D+2        0.00000  -0.00000  -0.00000   0.00000   0.00000
 128       54D-2        0.00000   0.00000   0.00000   0.00000   0.00000
 129       55D 0        0.00000   0.00064   0.04015   0.00000   0.00000
 130       55D+1        0.00000   0.00000   0.00000  -0.03214   0.00000
 131       55D-1        0.00297   0.00000   0.00000   0.00000  -0.03214
 132       55D+2        0.00000   0.00000  -0.00000   0.00000   0.00000
 133       55D-2        0.00000   0.00000   0.00000   0.00000   0.00000
 134       56D 0        0.00000   0.00082   0.01305   0.00000   0.00000
 135       56D+1        0.00000   0.00000   0.00000  -0.00387   0.00000
 136       56D-1        0.00138   0.00000   0.00000   0.00000  -0.00387
 137       56D+2        0.00000  -0.00000   0.00000   0.00000   0.00000
 138       56D-2        0.00000   0.00000   0.00000   0.00000   0.00000
 139       57D 0        0.00000   0.00145   0.00850   0.00000   0.00000
 140       57D+1        0.00000   0.00000   0.00000   0.00894   0.00000
 141       57D-1        0.00018   0.00000   0.00000   0.00000   0.00894
 142       57D+2        0.00000   0.00000  -0.00000   0.00000   0.00000
 143       57D-2        0.00000   0.00000   0.00000   0.00000   0.00000
 144       58D 0        0.00000   0.00266   0.01670   0.00000   0.00000
 145       58D+1        0.00000   0.00000   0.00000  -0.00958   0.00000
 146       58D-1       -0.00220   0.00000   0.00000   0.00000  -0.00958
 147       58D+2        0.00000  -0.00000  -0.00000   0.00000   0.00000
 148       58D-2        0.00000   0.00000   0.00000   0.00000   0.00000
 149       59D 0        0.00000   0.00354   0.02319   0.00000   0.00000
 150       59D+1        0.00000   0.00000   0.00000  -0.01066   0.00000
 151       59D-1       -0.00347   0.00000   0.00000   0.00000  -0.01066
 152       59D+2        0.00000  -0.00000  -0.00000   0.00000   0.00000
 153       59D-2        0.00000   0.00000   0.00000   0.00000   0.00000
 154       60D 0        0.00000  -0.00014  -0.00124   0.00000   0.00000
 155       60D+1        0.00000   0.00000   0.00000  -0.00208   0.00000
 156       60D-1       -0.00003   0.00000   0.00000   0.00000  -0.00208
 157       60D+2        0.00000   0.00000   0.00000   0.00000   0.00000
 158       60D-2        0.00000   0.00000   0.00000   0.00000   0.00000
 159       61F 0        0.00000  -0.00114  -0.00211   0.00000   0.00000
 160       61F+1        0.00000   0.00000   0.00000   0.00164   0.00000
 161       61F-1       -0.00063   0.00000   0.00000   0.00000   0.00164
 162       61F+2        0.00000   0.00000   0.00000   0.00000   0.00000
 163       61F-2        0.00000   0.00000   0.00000   0.00000   0.00000
 164       61F+3        0.00000   0.00000   0.00000   0.00000   0.00000
 165       61F-3        0.00000   0.00000   0.00000   0.00000  -0.00000
 166       62F 0        0.00000  -0.00557  -0.00873   0.00000   0.00000
 167       62F+1        0.00000   0.00000   0.00000   0.00657   0.00000
 168       62F-1       -0.00294   0.00000   0.00000   0.00000   0.00657
 169       62F+2        0.00000  -0.00000  -0.00000   0.00000   0.00000
 170       62F-2        0.00000   0.00000   0.00000   0.00000   0.00000
 171       62F+3        0.00000   0.00000   0.00000  -0.00000   0.00000
 172       62F-3        0.00000   0.00000   0.00000   0.00000   0.00000
 173       63F 0        0.00000  -0.00741  -0.01434   0.00000   0.00000
 174       63F+1        0.00000   0.00000   0.00000   0.01497   0.00000
 175       63F-1       -0.00392   0.00000   0.00000   0.00000   0.01497
 176       63F+2        0.00000  -0.00000  -0.00000   0.00000   0.00000
 177       63F-2        0.00000   0.00000   0.00000   0.00000   0.00000
 178       63F+3        0.00000   0.00000   0.00000   0.00000   0.00000
 179       63F-3        0.00000   0.00000   0.00000   0.00000   0.00000
 180       64F 0        0.00000  -0.00153  -0.00772   0.00000   0.00000
 181       64F+1        0.00000   0.00000   0.00000  -0.00276   0.00000
 182       64F-1       -0.00142   0.00000   0.00000   0.00000  -0.00276
 183       64F+2        0.00000  -0.00000  -0.00000   0.00000   0.00000
 184       64F-2        0.00000   0.00000   0.00000   0.00000   0.00000
 185       64F+3        0.00000   0.00000   0.00000  -0.00000   0.00000
 186       64F-3        0.00000   0.00000   0.00000   0.00000   0.00000
 187       65F 0        0.00000  -0.00123  -0.00571   0.00000   0.00000
 188       65F+1        0.00000   0.00000   0.00000  -0.00417   0.00000
 189       65F-1       -0.00024   0.00000   0.00000   0.00000  -0.00417
 190       65F+2        0.00000  -0.00000   0.00000   0.00000   0.00000
 191       65F-2        0.00000   0.00000   0.00000   0.00000   0.00000
 192       65F+3        0.00000   0.00000   0.00000   0.00000   0.00000
 193       65F-3       -0.00000   0.00000   0.00000   0.00000  -0.00000
 194       66G 0        0.00000   0.00016   0.00003   0.00000   0.00000
 195       66G+1        0.00000   0.00000   0.00000  -0.00006   0.00000
 196       66G-1       -0.00009   0.00000   0.00000   0.00000  -0.00006
 197       66G+2        0.00000   0.00000   0.00000   0.00000   0.00000
 198       66G-2        0.00000   0.00000   0.00000   0.00000   0.00000
 199       66G+3        0.00000   0.00000   0.00000   0.00000   0.00000
 200       66G-3        0.00000   0.00000   0.00000   0.00000  -0.00000
 201       66G+4        0.00000  -0.00000  -0.00000   0.00000   0.00000
 202       66G-4        0.00000   0.00000   0.00000   0.00000   0.00000
 203       67G 0        0.00000   0.00101   0.00214   0.00000   0.00000
 204       67G+1        0.00000   0.00000   0.00000  -0.00212   0.00000
 205       67G-1        0.00009   0.00000   0.00000   0.00000  -0.00212
 206       67G+2        0.00000   0.00000   0.00000   0.00000   0.00000
 207       67G-2        0.00000   0.00000   0.00000   0.00000   0.00000
 208       67G+3        0.00000   0.00000   0.00000  -0.00000   0.00000
 209       67G-3       -0.00000   0.00000   0.00000   0.00000   0.00000
 210       67G+4        0.00000   0.00000   0.00000   0.00000   0.00000
 211       67G-4        0.00000   0.00000   0.00000   0.00000   0.00000
 212       68G 0        0.00000   0.00084   0.00101   0.00000   0.00000
 213       68G+1        0.00000   0.00000   0.00000  -0.00071   0.00000
 214       68G-1        0.00056   0.00000   0.00000   0.00000  -0.00071
 215       68G+2        0.00000   0.00000   0.00000   0.00000   0.00000
 216       68G-2        0.00000   0.00000   0.00000   0.00000   0.00000
 217       68G+3        0.00000   0.00000   0.00000  -0.00000   0.00000
 218       68G-3       -0.00000   0.00000   0.00000   0.00000  -0.00000
 219       68G+4        0.00000  -0.00000  -0.00000   0.00000   0.00000
 220       68G-4        0.00000   0.00000   0.00000   0.00000   0.00000
 221       69G 0        0.00000   0.00084   0.00370   0.00000   0.00000
 222       69G+1        0.00000   0.00000   0.00000   0.00255   0.00000
 223       69G-1        0.00031   0.00000   0.00000   0.00000   0.00255
 224       69G+2        0.00000   0.00000  -0.00000   0.00000   0.00000
 225       69G-2        0.00000   0.00000   0.00000   0.00000   0.00000
 226       69G+3        0.00000   0.00000   0.00000  -0.00000   0.00000
 227       69G-3       -0.00000   0.00000   0.00000   0.00000  -0.00000
 228       69G+4        0.00000  -0.00000  -0.00000   0.00000   0.00000
 229       69G-4        0.00000   0.00000   0.00000   0.00000   0.00000
 230       70H 0        0.00000  -0.00020  -0.00055   0.00000   0.00000
 231       70H+1        0.00000   0.00000   0.00000   0.00034   0.00000
 232       70H-1       -0.00000   0.00000   0.00000   0.00000   0.00034
 233       70H+2        0.00000  -0.00000  -0.00000   0.00000   0.00000
 234       70H-2        0.00000   0.00000   0.00000   0.00000   0.00000
 235       70H+3        0.00000   0.00000   0.00000  -0.00000   0.00000
 236       70H-3        0.00000   0.00000   0.00000   0.00000   0.00000
 237       70H+4        0.00000  -0.00000  -0.00000   0.00000   0.00000
 238       70H-4        0.00000   0.00000   0.00000   0.00000   0.00000
[...]
 163       61F-2       -0.00000  -0.00000  -0.00000   0.00000
 164       61F+3        0.00000   0.00000   0.00000   0.00000
 165       61F-3        0.00000  -0.00000   0.00000  -0.00000
 166       62F 0        0.00217   0.00109   0.00108   0.00001
 167       62F+1        0.00095   0.00047   0.00047   0.00000
 168       62F-1        0.00095   0.00047   0.00047   0.00000
 169       62F+2       -0.00000  -0.00000  -0.00000   0.00000
 170       62F-2        0.00000  -0.00000   0.00000  -0.00000
 171       62F+3       -0.00000  -0.00000  -0.00000  -0.00000
 172       62F-3       -0.00000  -0.00000  -0.00000  -0.00000
 173       63F 0        0.00766   0.00381   0.00385  -0.00004
 174       63F+1        0.00804   0.00402   0.00402   0.00000
 175       63F-1        0.00804   0.00402   0.00402   0.00000
 176       63F+2        0.00000  -0.00000   0.00000  -0.00000
 177       63F-2        0.00000   0.00000  -0.00000   0.00000
 178       63F+3        0.00000   0.00000   0.00000  -0.00000
 179       63F-3        0.00000   0.00000   0.00000   0.00000
 180       64F 0       -0.00249  -0.00124  -0.00125   0.00000
 181       64F+1       -0.00194  -0.00097  -0.00097   0.00000
 182       64F-1       -0.00194  -0.00097  -0.00097  -0.00000
 183       64F+2       -0.00000  -0.00000   0.00000  -0.00000
 184       64F-2        0.00000   0.00000   0.00000  -0.00000
 185       64F+3       -0.00000  -0.00000  -0.00000   0.00000
 186       64F-3       -0.00000   0.00000  -0.00000   0.00000
 187       65F 0       -0.00100  -0.00050  -0.00050   0.00000
 188       65F+1       -0.00079  -0.00040  -0.00040   0.00000
 189       65F-1       -0.00079  -0.00040  -0.00040   0.00000
 190       65F+2        0.00000   0.00000  -0.00000   0.00000
 191       65F-2        0.00000   0.00000   0.00000   0.00000
 192       65F+3       -0.00000  -0.00000  -0.00000  -0.00000
 193       65F-3       -0.00000  -0.00000  -0.00000  -0.00000
 194       66G 0        0.00000   0.00000   0.00000  -0.00000
 195       66G+1        0.00000   0.00000   0.00000   0.00000
 196       66G-1        0.00000   0.00000   0.00000   0.00000
 197       66G+2        0.00000   0.00000   0.00000   0.00000
 198       66G-2       -0.00000  -0.00000  -0.00000   0.00000
 199       66G+3       -0.00000   0.00000  -0.00000   0.00000
 200       66G-3        0.00000   0.00000   0.00000  -0.00000
 201       66G+4        0.00000   0.00000   0.00000   0.00000
 202       66G-4        0.00000   0.00000  -0.00000   0.00000
 203       67G 0        0.00046   0.00023   0.00023  -0.00000
 204       67G+1        0.00030   0.00015   0.00015   0.00000
 205       67G-1        0.00030   0.00015   0.00015   0.00000
 206       67G+2       -0.00000  -0.00000  -0.00000   0.00000
 207       67G-2       -0.00000  -0.00000  -0.00000   0.00000
 208       67G+3       -0.00000  -0.00000  -0.00000   0.00000
 209       67G-3        0.00000   0.00000   0.00000  -0.00000
 210       67G+4        0.00000   0.00000   0.00000   0.00000
 211       67G-4        0.00000   0.00000   0.00000   0.00000
 212       68G 0        0.00035   0.00018   0.00017   0.00001
 213       68G+1        0.00047   0.00023   0.00023   0.00000
 214       68G-1        0.00047   0.00023   0.00023   0.00000
 215       68G+2       -0.00000  -0.00000   0.00000  -0.00000
 216       68G-2       -0.00000  -0.00000   0.00000  -0.00000
 217       68G+3       -0.00000  -0.00000  -0.00000   0.00000
 218       68G-3        0.00000   0.00000   0.00000   0.00000
 219       68G+4        0.00000   0.00000   0.00000   0.00000
 220       68G-4        0.00000   0.00000   0.00000   0.00000
 221       69G 0       -0.00097  -0.00048  -0.00049   0.00000
 222       69G+1       -0.00079  -0.00040  -0.00040   0.00000
 223       69G-1       -0.00079  -0.00040  -0.00040   0.00000
 224       69G+2        0.00000   0.00000   0.00000  -0.00000
 225       69G-2        0.00000  -0.00000   0.00000  -0.00000
 226       69G+3       -0.00000  -0.00000  -0.00000   0.00000
 227       69G-3       -0.00000  -0.00000  -0.00000  -0.00000
 228       69G+4        0.00000   0.00000  -0.00000   0.00000
 229       69G-4        0.00000   0.00000   0.00000  -0.00000
 230       70H 0        0.00001   0.00001   0.00001   0.00000
 231       70H+1        0.00001   0.00000   0.00000   0.00000
 232       70H-1        0.00001   0.00000   0.00000   0.00000
 233       70H+2       -0.00000  -0.00000  -0.00000   0.00000
 234       70H-2       -0.00000  -0.00000   0.00000  -0.00000
 235       70H+3        0.00000   0.00000  -0.00000   0.00000
 236       70H-3        0.00000   0.00000   0.00000   0.00000
 237       70H+4        0.00000  -0.00000   0.00000  -0.00000
 238       70H-4        0.00000   0.00000   0.00000  -0.00000
 239       70H+5       -0.00000  -0.00000  -0.00000  -0.00000
 240       70H-5        0.00000   0.00000   0.00000   0.00000
 241       71H 0        0.00013   0.00007   0.00006   0.00000
 242       71H+1        0.00005   0.00003   0.00003   0.00000
 243       71H-1        0.00005   0.00003   0.00003   0.00000
 244       71H+2        0.00000   0.00000   0.00000  -0.00000
 245       71H-2        0.00000  -0.00000   0.00000  -0.00000
 246       71H+3       -0.00000  -0.00000  -0.00000  -0.00000
 247       71H-3        0.00000   0.00000   0.00000   0.00000
 248       71H+4       -0.00000  -0.00000   0.00000  -0.00000
 249       71H-4       -0.00000  -0.00000   0.00000  -0.00000
 250       71H+5        0.00000   0.00000   0.00000   0.00000
 251       71H-5        0.00000   0.00000   0.00000   0.00000
 252       72H 0       -0.00012  -0.00006  -0.00006   0.00000
 253       72H+1        0.00029   0.00015   0.00015   0.00000
 254       72H-1        0.00029   0.00015   0.00015   0.00000
 255       72H+2       -0.00000  -0.00000  -0.00000   0.00000
 256       72H-2       -0.00000  -0.00000  -0.00000  -0.00000
 257       72H+3       -0.00000  -0.00000  -0.00000  -0.00000
 258       72H-3        0.00000   0.00000   0.00000  -0.00000
 259       72H+4        0.00000   0.00000   0.00000  -0.00000
 260       72H-4        0.00000   0.00000   0.00000  -0.00000
 261       72H+5       -0.00000  -0.00000  -0.00000  -0.00000
 262       72H-5       -0.00000   0.00000  -0.00000   0.00000
 263 2   O  1S         -0.00000  -0.00000  -0.00000  -0.00000
 264        2S          0.00000   0.00000   0.00000   0.00000
 265        3S         -0.00000  -0.00000  -0.00000  -0.00000
 266        4S          0.00000   0.00000   0.00000   0.00000
 267        5S         -0.00000  -0.00000  -0.00000  -0.00000
 268        6S         -0.00008  -0.00004  -0.00004  -0.00000
 269        7S         -0.00073  -0.00037  -0.00036  -0.00000
 270        8S         -0.09203  -0.04608  -0.04595  -0.00013
 271        9S         -0.07561  -0.03786  -0.03775  -0.00011
 272       10S          0.43062   0.21559   0.21503   0.00057
 273       11S          1.05429   0.52754   0.52675   0.00078
 274       12S          0.58598   0.29285   0.29314  -0.00029
 275       13S          0.05580   0.02794   0.02786   0.00008
 276       14S          0.00043   0.00022   0.00022   0.00000
 277       15S          0.00003   0.00002   0.00002   0.00000
 278       16S          0.08741   0.05056   0.03685   0.01371
 279       17PX        -0.00014  -0.00007  -0.00007   0.00000
 280       17PY        -0.00014  -0.00007  -0.00007   0.00000
 281       17PZ        -0.00017  -0.00008  -0.00008  -0.00000
 282       18PX        -0.10520  -0.05260  -0.05260   0.00000
 283       18PY        -0.10520  -0.05260  -0.05260   0.00000
 284       18PZ        -0.12158  -0.06086  -0.06072  -0.00013
 285       19PX         0.12498   0.06249   0.06249   0.00000
 286       19PY         0.12498   0.06249   0.06249   0.00000
 287       19PZ         0.13833   0.06924   0.06908   0.00016
 288       20PX         0.42661   0.21330   0.21330   0.00000
 289       20PY         0.42661   0.21330   0.21330   0.00000
 290       20PZ         0.47130   0.23590   0.23540   0.00050
 291       21PX         0.65657   0.32828   0.32828   0.00000
 292       21PY         0.65657   0.32828   0.32828   0.00000
 293       21PZ         0.67219   0.33624   0.33595   0.00029
 294       22PX         0.46858   0.23429   0.23429   0.00000
 295       22PY         0.46858   0.23429   0.23429  -0.00000
 296       22PZ         0.33031   0.16429   0.16602  -0.00174
 297       23PX         0.12117   0.06059   0.06059   0.00000
 298       23PY         0.12117   0.06059   0.06059   0.00000
 299       23PZ         0.13940   0.06978   0.06963   0.00015
 300       24PX         0.00056   0.00028   0.00028   0.00000
 301       24PY         0.00056   0.00028   0.00028   0.00000
 302       24PZ         0.00064   0.00032   0.00032   0.00000
 303       25PX         0.00001   0.00000   0.00000  -0.00000
 304       25PY         0.00001   0.00000   0.00000   0.00000
 305       25PZ         0.00001   0.00000   0.00000   0.00000
 306       26PX         0.06002   0.03001   0.03001   0.00000
 307       26PY         0.06002   0.03001   0.03001   0.00000
 308       26PZ         0.04117   0.01974   0.02143  -0.00169
 309       27D 0        0.00007   0.00004   0.00003   0.00000
 310       27D+1        0.00005   0.00003   0.00003  -0.00000
 311       27D-1        0.00005   0.00003   0.00003   0.00000
 312       27D+2       -0.00000  -0.00000   0.00000  -0.00000
 313       27D-2       -0.00000  -0.00000  -0.00000   0.00000
 314       28D 0        0.00169   0.00086   0.00084   0.00002
 315       28D+1        0.00095   0.00048   0.00048  -0.00000
 316       28D-1        0.00095   0.00048   0.00048   0.00000
 317       28D+2        0.00000  -0.00000   0.00000  -0.00000
 318       28D-2       -0.00000  -0.00000  -0.00000  -0.00000
 319       29D 0        0.00559   0.00287   0.00272   0.00015
 320       29D+1        0.00844   0.00422   0.00422   0.00000
 321       29D-1        0.00844   0.00422   0.00422   0.00000
 322       29D+2        0.00000   0.00000   0.00000  -0.00000
 323       29D-2       -0.00000  -0.00000  -0.00000  -0.00000
 324       30D 0        0.00000   0.00000   0.00000   0.00000
 325       30D+1        0.00000   0.00000   0.00000   0.00000
 326       30D-1        0.00000   0.00000   0.00000   0.00000
 327       30D+2        0.00000  -0.00000   0.00000  -0.00000
 328       30D-2        0.00000   0.00000   0.00000   0.00000
 329       31D 0       -0.00000  -0.00000  -0.00000  -0.00000
 330       31D+1       -0.00000  -0.00000  -0.00000   0.00000
 331       31D-1       -0.00000  -0.00000  -0.00000   0.00000
 332       31D+2       -0.00000   0.00000  -0.00000   0.00000
 333       31D-2        0.00000  -0.00000   0.00000  -0.00000
 334       32D 0       -0.00406  -0.00222  -0.00184  -0.00038
 335       32D+1        0.00799   0.00399   0.00399   0.00000
 336       32D-1        0.00799   0.00399   0.00399   0.00000
 337       32D+2       -0.00000  -0.00000  -0.00000  -0.00000
 338       32D-2        0.00000   0.00000   0.00000   0.00000
 339       33F 0        0.00001   0.00001   0.00001   0.00000
 340       33F+1        0.00000   0.00000   0.00000  -0.00000
 341       33F-1        0.00000   0.00000   0.00000   0.00000
 342       33F+2        0.00000   0.00000   0.00000   0.00000
 343       33F-2        0.00000   0.00000   0.00000   0.00000
 344       33F+3        0.00000   0.00000   0.00000  -0.00000
 345       33F-3        0.00000   0.00000   0.00000   0.00000
 346       34F 0        0.00098   0.00050   0.00047   0.00003
 347       34F+1        0.00057   0.00028   0.00028   0.00000
 348       34F-1        0.00057   0.00028   0.00028   0.00000
 349       34F+2       -0.00000  -0.00000  -0.00000  -0.00000
 350       34F-2        0.00000   0.00000   0.00000  -0.00000
 351       34F+3        0.00000   0.00000   0.00000  -0.00000
 352       34F-3       -0.00000  -0.00000  -0.00000  -0.00000
 353       35F 0        0.00000   0.00000   0.00000   0.00000
 354       35F+1        0.00000   0.00000   0.00000   0.00000
 355       35F-1        0.00000   0.00000   0.00000   0.00000
 356       35F+2        0.00000   0.00000   0.00000   0.00000
 357       35F-2        0.00000   0.00000  -0.00000   0.00000
 358       35F+3       -0.00000  -0.00000   0.00000  -0.00000
 359       35F-3       -0.00000  -0.00000  -0.00000   0.00000
 360       36F 0       -0.00004   0.00010  -0.00014   0.00023
 361       36F+1        0.00133   0.00067   0.00067   0.00000
 362       36F-1        0.00133   0.00067   0.00067   0.00000
 363       36F+2        0.00000  -0.00000   0.00000  -0.00000
 364       36F-2        0.00000   0.00000   0.00000  -0.00000
 365       36F+3       -0.00000  -0.00000  -0.00000   0.00000
 366       36F-3        0.00000   0.00000   0.00000  -0.00000
 367       37G 0        0.00002   0.00001   0.00001   0.00000
 368       37G+1        0.00001   0.00000   0.00000   0.00000
 369       37G-1        0.00001   0.00000   0.00000   0.00000
 370       37G+2        0.00000   0.00000  -0.00000   0.00000
 371       37G-2       -0.00000  -0.00000   0.00000  -0.00000
 372       37G+3       -0.00000  -0.00000  -0.00000  -0.00000
 373       37G-3       -0.00000  -0.00000  -0.00000  -0.00000
 374       37G+4       -0.00000  -0.00000   0.00000  -0.00000
 375       37G-4       -0.00000  -0.00000   0.00000  -0.00000
 376       38G 0        0.00029   0.00016   0.00013   0.00002
 377       38G+1        0.00024   0.00012   0.00012   0.00000
 378       38G-1        0.00024   0.00012   0.00012   0.00000
 379       38G+2       -0.00000  -0.00000  -0.00000   0.00000
 380       38G-2        0.00000  -0.00000   0.00000  -0.00000
 381       38G+3       -0.00000  -0.00000  -0.00000  -0.00000
 382       38G-3        0.00000   0.00000   0.00000  -0.00000
 383       38G+4       -0.00000  -0.00000  -0.00000  -0.00000
 384       38G-4       -0.00000  -0.00000  -0.00000  -0.00000
          Condensed to atoms (all electrons):
               1          2
     1  Sc   9.683486   0.048786
     2  O    0.048786   7.218941
          Atomic-Atomic Spin Densities.
               1          2
     1  Sc   0.979608   0.008174
     2  O    0.008174   0.004043
 Mulliken charges and spin densities:
               1          2
     1  Sc   1.267728   0.987783
     2  O   -1.267728   0.012217
 Sum of Mulliken charges =  -0.00000   1.00000
 Mulliken charges and spin densities with hydrogens summed into heavy atoms:
               1          2
     1  Sc   1.267728   0.987783
     2  O   -1.267728   0.012217
 Electronic spatial extent (au):  <R**2>=             97.8968
 Charge=             -0.0000 electrons
 Dipole moment (field-independent basis, Debye):
    X=              0.0000    Y=              0.0000    Z=              4.8291  Tot=              4.8291
 Quadrupole moment (field-independent basis, Debye-Ang):
   XX=            -21.8669   YY=            -21.8669   ZZ=            -32.6467
   XY=              0.0000   XZ=              0.0000   YZ=              0.0000
 Traceless Quadrupole moment (field-independent basis, Debye-Ang):
   XX=              3.5933   YY=              3.5933   ZZ=             -7.1865
   XY=              0.0000   XZ=              0.0000   YZ=              0.0000
 Octapole moment (field-independent basis, Debye-Ang**2):
  XXX=              0.0000  YYY=              0.0000  ZZZ=             -8.1650  XYY=              0.0000
  XXY=              0.0000  XXZ=             -2.6905  XZZ=              0.0000  YZZ=              0.0000
  YYZ=             -2.6905  XYZ=              0.0000
 Hexadecapole moment (field-independent basis, Debye-Ang**3):
 XXXX=            -45.4080 YYYY=            -45.4080 ZZZZ=           -182.7107 XXXY=              0.0000
 XXXZ=              0.0000 YYYX=              0.0000 YYYZ=              0.0000 ZZZX=              0.0000
 ZZZY=              0.0000 XXYY=            -15.1360 XXZZ=            -36.7924 YYZZ=            -36.7924
 XXYZ=              0.0000 YYXZ=              0.0000 ZZXY=              0.0000
 N-N= 2.054452701219D+01 E-N=-1.750950103777D+02  KE= 3.030696128529D+01
 Symmetry A1   KE= 1.396234539498D+01
 Symmetry A2   KE= 1.786615613459D-50
 Symmetry B1   KE= 8.172307945458D+00
 Symmetry B2   KE= 8.172307945092D+00
 Symmetry A1   SP= 1.000000000000D+00
 Symmetry A2   SP=-8.414180800003D-51
 Symmetry B1   SP=-3.036258606596D-17
 Symmetry B2   SP=-1.520413202457D-17
 Orbital energies and kinetic energies (alpha):
                                 1                 2
   4         O                -1.638331          2.127558
   5         O                -1.126265          1.116915
   6         O                -0.427326          2.453016
   7         O                -0.411397          1.958596
   8         O                -0.411397          1.958596
   9         O                -0.252227          0.330018
  10         V                -0.000583          0.100663
  11         V                -0.000583          0.100663
  12         V                 0.013190          0.049499
  13         V                 0.020340          0.036346
  14         V                 0.027002          0.035657
 Total kinetic energy from orbitals= 3.063697889435D+01
                          Isotropic Fermi Contact Couplings
        Atom                 a.u.       MegaHertz       Gauss      10(-4) cm-1
     1  Sc(45)             0.00003       0.03297       0.01177       0.01100
     2  O(17)              0.00004      -0.02157      -0.00770      -0.00719
 --------------------------------------------------------
       Center         ----  Spin Dipole Couplings  ----
                      3XX-RR        3YY-RR        3ZZ-RR
 --------------------------------------------------------
     1   Atom       -0.044260     -0.044260      0.088521
     2   Atom       -0.007024     -0.007024      0.014048
 --------------------------------------------------------
                        XY            XZ            YZ
 --------------------------------------------------------
     1   Atom        0.000000      0.000000      0.000000
     2   Atom        0.000000      0.000000      0.000000
 --------------------------------------------------------


 ---------------------------------------------------------------------------------
              Anisotropic Spin Dipole Couplings in Principal Axis System
 ---------------------------------------------------------------------------------

       Atom             a.u.   MegaHertz   Gauss  10(-4) cm-1        Axes

              Baa    -0.0443    -5.746    -2.050    -1.917  1.0000  0.0000  0.0000
     1 Sc(45) Bbb    -0.0443    -5.746    -2.050    -1.917 -0.0000  1.0000  0.0000
              Bcc     0.0885    11.491     4.100     3.833  0.0000  0.0000  1.0000
 
              Baa    -0.0070     0.508     0.181     0.170  1.0000  0.0000  0.0000
     2 O(17)  Bbb    -0.0070     0.508     0.181     0.170 -0.0000  1.0000  0.0000
              Bcc     0.0140    -1.017    -0.363    -0.339  0.0000  0.0000  1.0000
 

 ---------------------------------------------------------------------------------

 No NMR shielding tensors so no spin-rotation constants.
 Leave Link  601 at Wed Feb 21 05:12:22 2018, MaxMem= 10737418240 cpu:             227.4 elap:               7.4
 (Enter /home1/apps/gaussian/16rA.03/g16/l9999.exe)
 1\1\GINC-C417-034\SP\ROCCSD(T)-Full\Gen\O1Sc1(2)\AANNABE\21-Feb-2018\0
 \\#P ROCCSD(T)=(maxcyc=150, Full, SaveAmplitudes, ReadAmplitudes)/Gen 
 5d 7f SCF=(maxcycles=300) Integral(NoXCTest) MaxDisk=500GB Pop=Regular
  Pseudo=Read Guess=Read\\ScO\\0,2\Sc,0,0.,0.,0.\O,0,0.,0.,1.7\\Version
 =ES64L-G16RevA.03\State=2-SG\HF=-61.9337542\MP2=-62.6444811\PUHF=-61.9
 337542\PMP2-0=-62.6444811\CCSD=-62.6295878\CCSD(T)=-62.6719398\RMSD=5.
 445e-09\PG=C*V [C*(O1Sc1)]\\@


 A BIRD IN THE HAND IS SAFER THAN ONE OVERHEAD.

                       -- NEWTON'S SEVENTH LAW
 Job cpu time:       1 days 10 hours 14 minutes 58.9 seconds.
 Elapsed time:       0 days  1 hours  4 minutes 29.5 seconds.
 File lengths (MBytes):  RWF=  11399 Int=      0 D2E=      0 Chk=     61 Scr=      1
 Normal termination of Gaussian 16 at Wed Feb 21 05:12:22 2018.
