 Entering Gaussian System, Link 0=g16
 Initial command:
 /home1/apps/gaussian/16rA.03/g16/l1.exe "/tmp/Gau-239630.inp" -scrdir="/tmp/"
 Entering Link 1 = /home1/apps/gaussian/16rA.03/g16/l1.exe PID=    239631.
  
 Copyright (c) 1988,1990,1992,1993,1995,1998,2003,2009,2016,
            Gaussian, Inc.  All Rights Reserved.
  
 This is part of the Gaussian(R) 16 program.  It is based on
 the Gaussian(R) 09 system (copyright 2009, Gaussian, Inc.),
 the Gaussian(R) 03 system (copyright 2003, Gaussian, Inc.),
 the Gaussian(R) 98 system (copyright 1998, Gaussian, Inc.),
 the Gaussian(R) 94 system (copyright 1995, Gaussian, Inc.),
 the Gaussian 92(TM) system (copyright 1992, Gaussian, Inc.),
 the Gaussian 90(TM) system (copyright 1990, Gaussian, Inc.),
 the Gaussian 88(TM) system (copyright 1988, Gaussian, Inc.),
 the Gaussian 86(TM) system (copyright 1986, Carnegie Mellon
 University), and the Gaussian 82(TM) system (copyright 1983,
 Carnegie Mellon University). Gaussian is a federally registered
 trademark of Gaussian, Inc.
  
 This software contains proprietary and confidential information,
 including trade secrets, belonging to Gaussian, Inc.
  
 This software is provided under written license and may be
 used, copied, transmitted, or stored only in accord with that
 written license.
  
 The following legend is applicable only to US Government
 contracts under FAR:
  
                    RESTRICTED RIGHTS LEGEND
  
 Use, reproduction and disclosure by the US Government is
 subject to restrictions as set forth in subparagraphs (a)
 and (c) of the Commercial Computer Software - Restricted
 Rights clause in FAR 52.227-19.
  
 Gaussian, Inc.
 340 Quinnipiac St., Bldg. 40, Wallingford CT 06492
  
  
 ---------------------------------------------------------------
 Warning -- This program may not be used in any manner that
 competes with the business of Gaussian, Inc. or will provide
 assistance to any competitor of Gaussian, Inc.  The licensee
 of this program is prohibited from giving any competitor of
 Gaussian, Inc. access to this program.  By using this program,
 the user acknowledges that Gaussian, Inc. is engaged in the
 business of creating and licensing software in the field of
 computational chemistry and represents and warrants to the
 licensee that it is not a competitor of Gaussian, Inc. and that
 it will not use this program in any manner prohibited above.
 ---------------------------------------------------------------
  

 Cite this work as:
 Gaussian 16, Revision A.03,
 M. J. Frisch, G. W. Trucks, H. B. Schlegel, G. E. Scuseria, 
 M. A. Robb, J. R. Cheeseman, G. Scalmani, V. Barone, 
 G. A. Petersson, H. Nakatsuji, X. Li, M. Caricato, A. V. Marenich, 
 J. Bloino, B. G. Janesko, R. Gomperts, B. Mennucci, H. P. Hratchian, 
 J. V. Ortiz, A. F. Izmaylov, J. L. Sonnenberg, D. Williams-Young, 
 F. Ding, F. Lipparini, F. Egidi, J. Goings, B. Peng, A. Petrone, 
 T. Henderson, D. Ranasinghe, V. G. Zakrzewski, J. Gao, N. Rega, 
 G. Zheng, W. Liang, M. Hada, M. Ehara, K. Toyota, R. Fukuda, 
 J. Hasegawa, M. Ishida, T. Nakajima, Y. Honda, O. Kitao, H. Nakai, 
 T. Vreven, K. Throssell, J. A. Montgomery, Jr., J. E. Peralta, 
 F. Ogliaro, M. J. Bearpark, J. J. Heyd, E. N. Brothers, K. N. Kudin, 
 V. N. Staroverov, T. A. Keith, R. Kobayashi, J. Normand, 
 K. Raghavachari, A. P. Rendell, J. C. Burant, S. S. Iyengar, 
 J. Tomasi, M. Cossi, J. M. Millam, M. Klene, C. Adamo, R. Cammi, 
 J. W. Ochterski, R. L. Martin, K. Morokuma, O. Farkas, 
 J. B. Foresman, and D. J. Fox, Gaussian, Inc., Wallingford CT, 2016.
 
 ******************************************
 Gaussian 16:  ES64L-G16RevA.03 25-Dec-2016
                 3-May-2018 
 ******************************************
 %mem=80GB
 %cpu=0-31
 SetSPE:  set environment variable "MP_BIND" = "yes"
 SetSPE:  set environment variable "MP_BLIST" = "0,1,2,3,4,5,6,7,8,9,10,11,12,13,14,15,16,17,18,19,20,21,22,23,24,25,26,27,28,29,30,31"
 Will use up to   32 processors via shared memory.
 %chk=tz.chk
 %rwf=/scratch/04843/gwang18/znh/
 ----------------------------------------------------------------------
 #P ROCCSD(T)=(MaxCyc=150, Full)/Gen SCF=(maxcycle=400, vshift=200) Pse
 udo=Read Integral(NoXCTest) Pop=Regular MaxDisk=500GB Guess=Read IOp(5
 /15=2)
 ----------------------------------------------------------------------
 1/38=1,172=1/1;
 2/12=2,17=6,18=5,40=1/2;
 3/5=7,11=2,16=1,17=8,25=1,30=1,47=8,116=101/1,2,3;
 4/5=1/1;
 5/5=2,7=400,10=200,15=2,38=6/2;
 8/5=-1,6=4,9=120000,10=90/1,4;
 9/5=7,6=150,14=2/13;
 6//1;
 99/5=1,9=1/99;
 Leave Link    1 at Thu May  3 15:00:14 2018, MaxMem= 10737418240 cpu:               8.7 elap:               0.3
 (Enter /home1/apps/gaussian/16rA.03/g16/l101.exe)
 ---
 CoH
 ---
 Symbolic Z-matrix:
 Charge =  0 Multiplicity = 3
 Co                    0.        0.        0. 
 H                     0.        0.        1.8 
 
 ITRead=  0  0
 MicOpt= -1 -1
 NAtoms=      2 NQM=        2 NQMF=       0 NMMI=      0 NMMIF=      0
                NMic=       0 NMicF=      0.
                    Isotopes and Nuclear Properties:
 (Nuclear quadrupole moments (NQMom) in fm**2, nuclear magnetic moments (NMagM)
  in nuclear magnetons)

  Atom         1           2
 IAtWgt=          59           1
 AtmWgt=  58.9331978   1.0078250
 NucSpn=           7           1
 AtZEff=  -0.0000000  -0.0000000
 NQMom=   42.0000000   0.0000000
 NMagM=    4.6270000   2.7928460
 AtZNuc=  27.0000000   1.0000000
 Leave Link  101 at Thu May  3 15:00:14 2018, MaxMem= 10737418240 cpu:               3.1 elap:               0.1
 (Enter /home1/apps/gaussian/16rA.03/g16/l202.exe)
                          Input orientation:                          
 ---------------------------------------------------------------------
 Center     Atomic      Atomic             Coordinates (Angstroms)
 Number     Number       Type             X           Y           Z
 ---------------------------------------------------------------------
      1         27           0        0.000000    0.000000    0.000000
      2          1           0        0.000000    0.000000    1.800000
 ---------------------------------------------------------------------
 Stoichiometry    CoH(3)
 Framework group  C*V[C*(HCo)]
 Deg. of freedom     1
 Full point group                 C*V     NOp   4
 Largest Abelian subgroup         C2V     NOp   4
 Largest concise Abelian subgroup C1      NOp   1
                         Standard orientation:                         
 ---------------------------------------------------------------------
 Center     Atomic      Atomic             Coordinates (Angstroms)
 Number     Number       Type             X           Y           Z
 ---------------------------------------------------------------------
      1         27           0        0.000000    0.000000    0.064286
      2          1           0        0.000000    0.000000   -1.735714
 ---------------------------------------------------------------------
 Rotational constants (GHZ):           0.0000000         157.4168395         157.4168395
 Leave Link  202 at Thu May  3 15:00:15 2018, MaxMem= 10737418240 cpu:               0.8 elap:               0.1
 (Enter /home1/apps/gaussian/16rA.03/g16/l301.exe)
 General basis read from cards:  (5D, 7F)
 Centers:       1
 S 1 1.00
     Exponent=  4.6756750000D+06 Coefficients=  1.0000000000D+00
 S 1 1.00
     Exponent=  7.0016150000D+05 Coefficients=  1.0000000000D+00
 S 1 1.00
     Exponent=  1.5933730000D+05 Coefficients=  1.0000000000D+00
 S 1 1.00
     Exponent=  4.5130460000D+04 Coefficients=  1.0000000000D+00
 S 1 1.00
     Exponent=  1.4722380000D+04 Coefficients=  1.0000000000D+00
 S 1 1.00
     Exponent=  5.3142220000D+03 Coefficients=  1.0000000000D+00
 S 1 1.00
     Exponent=  2.0720180000D+03 Coefficients=  1.0000000000D+00
 S 1 1.00
     Exponent=  8.5861880000D+02 Coefficients=  1.0000000000D+00
 S 1 1.00
     Exponent=  3.7354970000D+02 Coefficients=  1.0000000000D+00
 S 1 1.00
     Exponent=  1.6892290000D+02 Coefficients=  1.0000000000D+00
 S 1 1.00
     Exponent=  7.8296390000D+01 Coefficients=  1.0000000000D+00
 S 1 1.00
     Exponent=  3.5521230000D+01 Coefficients=  1.0000000000D+00
 S 1 1.00
     Exponent=  1.7041440000D+01 Coefficients=  1.0000000000D+00
 S 1 1.00
     Exponent=  8.1730000000D+00 Coefficients=  1.0000000000D+00
 S 1 1.00
     Exponent=  3.6103180000D+00 Coefficients=  1.0000000000D+00
 S 1 1.00
     Exponent=  1.6970470000D+00 Coefficients=  1.0000000000D+00
 S 1 1.00
     Exponent=  7.4353200000D-01 Coefficients=  1.0000000000D+00
 S 1 1.00
     Exponent=  1.5834400000D-01 Coefficients=  1.0000000000D+00
 S 1 1.00
     Exponent=  7.5036000000D-02 Coefficients=  1.0000000000D+00
 S 1 1.00
     Exponent=  3.3091000000D-02 Coefficients=  1.0000000000D+00
 S 1 1.00
     Exponent=  5.2255000000D+00 Coefficients=  1.0000000000D+00
 S 1 1.00
     Exponent=  1.3638000000D+00 Coefficients=  1.0000000000D+00
 S 1 1.00
     Exponent=  1.4590000000D-02 Coefficients=  1.0000000000D+00
 P 1 1.00
     Exponent=  1.9267780000D+04 Coefficients=  1.0000000000D+00
 P 1 1.00
     Exponent=  4.5609860000D+03 Coefficients=  1.0000000000D+00
 P 1 1.00
     Exponent=  1.4814360000D+03 Coefficients=  1.0000000000D+00
 P 1 1.00
     Exponent=  5.6686710000D+02 Coefficients=  1.0000000000D+00
 P 1 1.00
     Exponent=  2.4049100000D+02 Coefficients=  1.0000000000D+00
 P 1 1.00
     Exponent=  1.0961050000D+02 Coefficients=  1.0000000000D+00
 P 1 1.00
     Exponent=  5.2594910000D+01 Coefficients=  1.0000000000D+00
 P 1 1.00
     Exponent=  2.6083610000D+01 Coefficients=  1.0000000000D+00
 P 1 1.00
     Exponent=  1.3261430000D+01 Coefficients=  1.0000000000D+00
 P 1 1.00
     Exponent=  6.7997780000D+00 Coefficients=  1.0000000000D+00
 P 1 1.00
     Exponent=  3.3934140000D+00 Coefficients=  1.0000000000D+00
 P 1 1.00
     Exponent=  1.6487660000D+00 Coefficients=  1.0000000000D+00
 P 1 1.00
     Exponent=  7.7628200000D-01 Coefficients=  1.0000000000D+00
 P 1 1.00
     Exponent=  2.9720900000D-01 Coefficients=  1.0000000000D+00
 P 1 1.00
     Exponent=  1.1335200000D-01 Coefficients=  1.0000000000D+00
 P 1 1.00
     Exponent=  4.1510000000D-02 Coefficients=  1.0000000000D+00
 P 1 1.00
     Exponent=  7.7411000000D+00 Coefficients=  1.0000000000D+00
 P 1 1.00
     Exponent=  1.7672000000D+00 Coefficients=  1.0000000000D+00
 P 1 1.00
     Exponent=  1.5200000000D-02 Coefficients=  1.0000000000D+00
 D 1 1.00
     Exponent=  1.2839200000D+02 Coefficients=  1.0000000000D+00
 D 1 1.00
     Exponent=  3.7893800000D+01 Coefficients=  1.0000000000D+00
 D 1 1.00
     Exponent=  1.3879800000D+01 Coefficients=  1.0000000000D+00
 D 1 1.00
     Exponent=  5.6254400000D+00 Coefficients=  1.0000000000D+00
 D 1 1.00
     Exponent=  2.3353900000D+00 Coefficients=  1.0000000000D+00
 D 1 1.00
     Exponent=  9.3519200000D-01 Coefficients=  1.0000000000D+00
 D 1 1.00
     Exponent=  3.4695300000D-01 Coefficients=  1.0000000000D+00
 D 1 1.00
     Exponent=  1.1172300000D-01 Coefficients=  1.0000000000D+00
 D 1 1.00
     Exponent=  5.1384000000D+00 Coefficients=  1.0000000000D+00
 D 1 1.00
     Exponent=  2.4056000000D+00 Coefficients=  1.0000000000D+00
 D 1 1.00
     Exponent=  3.5980000000D-02 Coefficients=  1.0000000000D+00
 F 1 1.00
     Exponent=  6.9240000000D+00 Coefficients=  1.0000000000D+00
 F 1 1.00
     Exponent=  2.6244000000D+00 Coefficients=  1.0000000000D+00
 F 1 1.00
     Exponent=  9.1700000000D-01 Coefficients=  1.0000000000D+00
 F 1 1.00
     Exponent=  3.2041000000D-01 Coefficients=  1.0000000000D+00
 G 1 1.00
     Exponent=  6.3248000000D+00 Coefficients=  1.0000000000D+00
 G 1 1.00
     Exponent=  2.4229000000D+00 Coefficients=  1.0000000000D+00
 G 1 1.00
     Exponent=  9.2816000000D-01 Coefficients=  1.0000000000D+00
 ****
 Centers:       2
 S 1 1.00
     Exponent=  3.3870000000D+01 Coefficients=  1.0000000000D+00
 S 1 1.00
     Exponent=  5.0950000000D+00 Coefficients=  1.0000000000D+00
 S 1 1.00
     Exponent=  1.1590000000D+00 Coefficients=  1.0000000000D+00
 S 1 1.00
     Exponent=  3.2580000000D-01 Coefficients=  1.0000000000D+00
 S 1 1.00
     Exponent=  1.0270000000D-01 Coefficients=  1.0000000000D+00
 S 1 1.00
     Exponent=  2.5260000000D-02 Coefficients=  1.0000000000D+00
 P 1 1.00
     Exponent=  1.4070000000D+00 Coefficients=  1.0000000000D+00
 P 1 1.00
     Exponent=  3.8800000000D-01 Coefficients=  1.0000000000D+00
 P 1 1.00
     Exponent=  1.0200000000D-01 Coefficients=  1.0000000000D+00
 D 1 1.00
     Exponent=  1.0570000000D+00 Coefficients=  1.0000000000D+00
 D 1 1.00
     Exponent=  2.4700000000D-01 Coefficients=  1.0000000000D+00
 ****
 ======================================================================================================
                                       Pseudopotential Parameters
 ======================================================================================================
  Center     Atomic      Valence      Angular      Power
  Number     Number     Electrons     Momentum     of R      Exponent        Coefficient   SO-Coeffient
 ======================================================================================================
    1         27           17
                                      D and up 
                                                     1       25.0012412       17.00000000    0.00000000
                                                     3       22.8349010      425.02109972    0.00000000
                                                     2       23.4746816     -195.48211283    0.00000000
                                                     2       10.3379483       -2.81572866    0.00000000
                                      S - D
                                                     2       23.4142703      271.77708487    0.00000000
                                                     2       10.7693169       54.26461122    0.00000000
                                      P - D
                                                     2       25.4744632      201.53430745    0.00000000
                                                     2       10.6840490       38.99231927    0.00000000
    2          1            1
                                      P and up 
                                                     2       21.7769666      -10.85192405    0.00000000
                                                     1       21.2435951        1.00000000    0.00000000
                                                     3       21.2435951       21.24359508    0.00000000
                                      S - P
                                                     2        1.0000000        0.00000000    0.00000000
 ======================================================================================================
 Ernie: Thresh=  0.10000D-02 Tol=  0.10000D-05 Strict=F.
 There are   120 symmetry adapted cartesian basis functions of A1  symmetry.
 There are    26 symmetry adapted cartesian basis functions of A2  symmetry.
 There are    56 symmetry adapted cartesian basis functions of B1  symmetry.
 There are    56 symmetry adapted cartesian basis functions of B2  symmetry.
 There are    94 symmetry adapted basis functions of A1  symmetry.
 There are    23 symmetry adapted basis functions of A2  symmetry.
 There are    49 symmetry adapted basis functions of B1  symmetry.
 There are    49 symmetry adapted basis functions of B2  symmetry.
   215 basis functions,   258 primitive gaussians,   258 cartesian basis functions
    10 alpha electrons        8 beta electrons
       nuclear repulsion energy         4.9977847698 Hartrees.
 IExCor=    0 DFT=F Ex=HF Corr=None ExCW=0 ScaHFX=  1.000000
 ScaDFX=  1.000000  1.000000  1.000000  1.000000 ScalE2=  1.000000  1.000000
 IRadAn=      5 IRanWt=     -1 IRanGd=            0 ICorTp=0 IEmpDi=  4
 NAtoms=    2 NActive=    2 NUniq=    2 SFac= 1.00D+00 NAtFMM=   60 NAOKFM=F Big=F
 Integral buffers will be    131072 words long.
 Raffenetti 2 integral format.
 Two-electron integral symmetry is turned on.
 Leave Link  301 at Thu May  3 15:00:16 2018, MaxMem= 10737418240 cpu:               7.4 elap:               0.3
 (Enter /home1/apps/gaussian/16rA.03/g16/l302.exe)
 NPDir=0 NMtPBC=     1 NCelOv=     1 NCel=       1 NClECP=     1 NCelD=      1
         NCelK=      1 NCelE2=     1 NClLst=     1 CellRange=     0.0.
 One-electron integrals computed using PRISM.
 One-electron integral symmetry used in STVInt
   4 Symmetry operations used in ECPInt.
 ECPInt:  NShTT=    2556 NPrTT=    2556 LenC2=    2523 LenP2D=    2522.
 LDataN:  DoStor=T MaxTD1= 8 Len=  415
 NBasis=   215 RedAO= T EigKep=  2.07D-06  NBF=    94    23    49    49
 NBsUse=   215 1.00D-06 EigRej= -1.00D+00 NBFU=    94    23    49    49
 Leave Link  302 at Thu May  3 15:00:17 2018, MaxMem= 10737418240 cpu:              29.1 elap:               1.0
 (Enter /home1/apps/gaussian/16rA.03/g16/l303.exe)
 DipDrv:  MaxL=1.
 Leave Link  303 at Thu May  3 15:00:18 2018, MaxMem= 10737418240 cpu:               2.1 elap:               0.2
 (Enter /home1/apps/gaussian/16rA.03/g16/l401.exe)
 Initial guess from the checkpoint file:  "tz.chk"
 B after Tr=     0.000000    0.000000    0.000000
         Rot=    1.000000    0.000000    0.000000    0.000000 Ang=   0.00 deg.
 Guess basis will be translated and rotated to current coordinates.
 JPrj=2 DoOrth=T DoCkMO=T.
 Initial guess orbital symmetries:
       Occupied  (SG) (SG) (PI) (PI) (DLTA) (PI) (PI) (SG) (SG)
                 (DLTA)
       Virtual   (SG) (PI) (PI) (SG) (SG) (PI) (PI) (SG) (DLTA)
                 (DLTA) (PI) (PI) (SG) (SG) (SG) (PI) (PI) (SG)
                 (PI) (PI) (DLTA) (SG) (DLTA) (PI) (PI) (SG) (SG)
                 (SG) (DLTA) (DLTA) (PI) (PI) (SG) (PI) (PI) (PHI)
                 (PHI) (PI) (PI) (SG) (?A) (?A) (PI) (PI) (SG)
                 (?A) (?A) (SG) (PI) (PI) (SG) (SG) (SG) (PI) (PI)
                 (SG) (PI) (PI) (PHI) (PHI) (DLTA) (DLTA) (SG)
                 (PI) (PI) (SG) (?A) (?A) (?A) (?A) (?B) (?B) (?C)
                 (?C) (?B) (?B) (PI) (PI) (DLTA) (DLTA) (SG) (PI)
                 (PI) (SG) (SG) (SG) (PI) (PI) (SG) (DLTA) (DLTA)
                 (?B) (?B) (?B) (?B) (DLTA) (DLTA) (SG) (PI) (PI)
                 (SG) (SG) (?C) (?C) (?B) (?B) (DLTA) (DLTA) (?B)
                 (?B) (SG) (PI) (PI) (SG) (SG) (DLTA) (DLTA) (PI)
                 (PI) (SG) (?B) (?B) (DLTA) (DLTA) (?B) (?B) (SG)
                 (PI) (PI) (SG) (?D) (?D) (?B) (?B) (DLTA) (DLTA)
                 (?B) (?B) (?D) (SG) (DLTA) (DLTA) (PI) (PI) (SG)
                 (PI) (PI) (SG) (DLTA) (DLTA) (PI) (PI) (SG) (SG)
                 (SG) (PI) (PI) (SG) (SG) (DLTA) (DLTA) (PI) (PI)
                 (SG) (PI) (PI) (SG) (SG) (PI) (PI) (SG) (SG) (DLTA)
                 (DLTA) (PI) (PI) (SG) (PI) (PI) (SG) (SG) (PI)
                 (PI) (SG) (SG) (PI) (PI) (SG) (SG) (PI) (PI) (SG)
                 (SG) (PI) (PI) (SG) (SG) (SG) (PI) (PI) (SG) (SG)
                 (SG) (SG) (SG)
 Leave Link  401 at Thu May  3 15:00:19 2018, MaxMem= 10737418240 cpu:              20.3 elap:               0.8
 (Enter /home1/apps/gaussian/16rA.03/g16/l502.exe)
 Keep R1 and R2 ints in memory in symmetry-blocked form, NReq=338797193.
 FoFCou: FMM=F IPFlag=           8 FMFlag=           0 FMFlg1=           0
         NFxFlg=           0 DoJE=F BraDBF=F KetDBF=F FulRan=T
         wScrn=  0.000000 ICntrl=       600 IOpCl=  0 I1Cent=           0 NGrid=           0
         NMat0=    1 NMatS0=  23220 NMatT0=    0 NMatD0=    1 NMtDS0=    0 NMtDT0=    0
 Petite list used in FoFCou.
 Restricted open shell SCF:
 Using DIIS extrapolation, IDIIS=  1040.
 NGot= 10737418240 LenX= 10598929943 LenY= 10598862938
 Requested convergence on RMS density matrix=1.00D-08 within 400 cycles.
 Requested convergence on MAX density matrix=1.00D-06.
 Requested convergence on             energy=1.00D-06.
 Virtual orbitals will be shifted by   0.200 hartree.
 No special actions if energy rises.

 Cycle   1  Pass 1  IDiag  1:
 E= -144.555699008698    
 DIIS: error= 3.58D-01 at cycle   1 NSaved=   1.
 NSaved= 1 IEnMin= 1 EnMin= -144.555699008698     IErMin= 1 ErrMin= 3.58D-01
 ErrMax= 3.58D-01  0.00D+00 EMaxC= 1.00D-01 BMatC= 1.37D+01 BMatP= 1.37D+01
 IDIUse=3 WtCom= 0.00D+00 WtEn= 1.00D+00
 Coeff-Com:  0.100D+01
 Coeff-En:   0.100D+01
 Coeff:      0.100D+01
 Gap=     0.016 Goal=   None    Shift=    0.200
 GapD=    0.016 DampG=0.250 DampE=0.125 DampFc=0.1250 IDamp=-1.
 Damping current iteration by 1.25D-01
 RMSDP=4.13D-03 MaxDP=2.42D-01              OVMax= 3.81D-02

 Cycle   2  Pass 1  IDiag  1:
 E= -144.585918042582     Delta-E=       -0.030219033884 Rises=F Damp=T
 DIIS: error= 3.11D-01 at cycle   2 NSaved=   2.
 NSaved= 2 IEnMin= 2 EnMin= -144.585918042582     IErMin= 2 ErrMin= 3.11D-01
 ErrMax= 3.11D-01  0.00D+00 EMaxC= 1.00D-01 BMatC= 1.05D+01 BMatP= 1.37D+01
 IDIUse=3 WtCom= 0.00D+00 WtEn= 1.00D+00
 Coeff-Com: -0.699D+01 0.799D+01
 Coeff-En:   0.000D+00 0.100D+01
 Coeff:      0.000D+00 0.100D+01
 Gap=     0.004 Goal=   None    Shift=    0.200
 RMSDP=3.66D-03 MaxDP=2.06D-01 DE=-3.02D-02 OVMax= 1.88D-02

 Cycle   3  Pass 1  IDiag  1:
 E= -144.800389679568     Delta-E=       -0.214471636986 Rises=F Damp=F
 DIIS: error= 5.35D-03 at cycle   3 NSaved=   3.
 NSaved= 3 IEnMin= 3 EnMin= -144.800389679568     IErMin= 3 ErrMin= 5.35D-03
 ErrMax= 5.35D-03  0.00D+00 EMaxC= 1.00D-01 BMatC= 2.63D-03 BMatP= 1.05D+01
 IDIUse=3 WtCom= 9.47D-01 WtEn= 5.35D-02
 Coeff-Com: -0.454D+00 0.508D+00 0.947D+00
 Coeff-En:   0.000D+00 0.000D+00 0.100D+01
 Coeff:     -0.430D+00 0.480D+00 0.950D+00
 Gap=     0.009 Goal=   None    Shift=    0.200
 RMSDP=2.57D-04 MaxDP=1.49D-02 DE=-2.14D-01 OVMax= 1.63D-02

 Cycle   4  Pass 1  IDiag  1:
 E= -144.803028006316     Delta-E=       -0.002638326747 Rises=F Damp=F
 DIIS: error= 2.25D-03 at cycle   4 NSaved=   4.
 NSaved= 4 IEnMin= 4 EnMin= -144.803028006316     IErMin= 4 ErrMin= 2.25D-03
 ErrMax= 2.25D-03  0.00D+00 EMaxC= 1.00D-01 BMatC= 5.18D-04 BMatP= 2.63D-03
 IDIUse=3 WtCom= 9.77D-01 WtEn= 2.25D-02
 Coeff-Com: -0.400D+00 0.452D+00 0.309D+00 0.639D+00
 Coeff-En:   0.000D+00 0.000D+00 0.000D+00 0.100D+01
 Coeff:     -0.391D+00 0.442D+00 0.302D+00 0.647D+00
 Gap=     0.004 Goal=   None    Shift=    0.200
 RMSDP=5.05D-05 MaxDP=2.70D-03 DE=-2.64D-03 OVMax= 7.22D-03

 Cycle   5  Pass 1  IDiag  1:
 E= -144.803107346587     Delta-E=       -0.000079340271 Rises=F Damp=F
 DIIS: error= 1.63D-03 at cycle   5 NSaved=   5.
 NSaved= 5 IEnMin= 5 EnMin= -144.803107346587     IErMin= 5 ErrMin= 1.63D-03
 ErrMax= 1.63D-03  0.00D+00 EMaxC= 1.00D-01 BMatC= 8.41D-05 BMatP= 5.18D-04
 IDIUse=3 WtCom= 9.84D-01 WtEn= 1.63D-02
 Coeff-Com: -0.304D+00 0.348D+00-0.980D-01-0.253D-01 0.108D+01
 Coeff-En:   0.000D+00 0.000D+00 0.000D+00 0.000D+00 0.100D+01
 Coeff:     -0.299D+00 0.342D+00-0.965D-01-0.249D-01 0.108D+01
 Gap=     0.005 Goal=   None    Shift=    0.200
 RMSDP=3.73D-05 MaxDP=2.51D-03 DE=-7.93D-05 OVMax= 6.50D-03

 Cycle   6  Pass 1  IDiag  1:
 E= -144.803287762253     Delta-E=       -0.000180415666 Rises=F Damp=F
 DIIS: error= 1.06D-03 at cycle   6 NSaved=   6.
 NSaved= 6 IEnMin= 6 EnMin= -144.803287762253     IErMin= 6 ErrMin= 1.06D-03
 ErrMax= 1.06D-03  0.00D+00 EMaxC= 1.00D-01 BMatC= 5.17D-05 BMatP= 8.41D-05
 IDIUse=3 WtCom= 9.89D-01 WtEn= 1.06D-02
 Coeff-Com: -0.251D+00 0.287D+00-0.378D-01-0.694D-01-0.412D+00 0.148D+01
 Coeff-En:   0.000D+00 0.000D+00 0.000D+00 0.000D+00 0.000D+00 0.100D+01
 Coeff:     -0.249D+00 0.284D+00-0.374D-01-0.687D-01-0.407D+00 0.148D+01
 Gap=     0.005 Goal=   None    Shift=    0.200
 RMSDP=3.15D-05 MaxDP=2.21D-03 DE=-1.80D-04 OVMax= 5.91D-03

 Cycle   7  Pass 1  IDiag  1:
 E= -144.803411943701     Delta-E=       -0.000124181449 Rises=F Damp=F
 DIIS: error= 9.28D-04 at cycle   7 NSaved=   7.
 NSaved= 7 IEnMin= 7 EnMin= -144.803411943701     IErMin= 7 ErrMin= 9.28D-04
 ErrMax= 9.28D-04  0.00D+00 EMaxC= 1.00D-01 BMatC= 3.60D-05 BMatP= 5.17D-05
 IDIUse=3 WtCom= 9.91D-01 WtEn= 9.28D-03
 Coeff-Com: -0.220D+00 0.251D+00-0.233D-01-0.702D-02-0.435D+00 0.495D+00
 Coeff-Com:  0.939D+00
 Coeff-En:   0.000D+00 0.000D+00 0.000D+00 0.000D+00 0.000D+00 0.000D+00
 Coeff-En:   0.100D+01
 Coeff:     -0.218D+00 0.249D+00-0.230D-01-0.695D-02-0.431D+00 0.491D+00
 Coeff:      0.939D+00
 Gap=     0.005 Goal=   None    Shift=    0.200
 RMSDP=2.09D-05 MaxDP=1.55D-03 DE=-1.24D-04 OVMax= 4.25D-03

 Cycle   8  Pass 1  IDiag  1:
 E= -144.803464727487     Delta-E=       -0.000052783786 Rises=F Damp=F
 DIIS: error= 8.29D-04 at cycle   8 NSaved=   8.
 NSaved= 8 IEnMin= 8 EnMin= -144.803464727487     IErMin= 8 ErrMin= 8.29D-04
 ErrMax= 8.29D-04  0.00D+00 EMaxC= 1.00D-01 BMatC= 2.76D-05 BMatP= 3.60D-05
 IDIUse=3 WtCom= 9.92D-01 WtEn= 8.29D-03
 Coeff-Com: -0.186D+00 0.213D+00-0.260D-01-0.302D-02-0.443D-01-0.592D-01
 Coeff-Com: -0.616D+00 0.172D+01
 Coeff-En:   0.000D+00 0.000D+00 0.000D+00 0.000D+00 0.000D+00 0.000D+00
 Coeff-En:   0.000D+00 0.100D+01
 Coeff:     -0.185D+00 0.211D+00-0.257D-01-0.300D-02-0.439D-01-0.588D-01
 Coeff:     -0.611D+00 0.172D+01
 Gap=     0.005 Goal=   None    Shift=    0.200
 RMSDP=2.55D-05 MaxDP=2.28D-03 DE=-5.28D-05 OVMax= 2.36D-03

 Cycle   9  Pass 1  IDiag  1:
 E= -144.803513827128     Delta-E=       -0.000049099641 Rises=F Damp=F
 DIIS: error= 7.07D-04 at cycle   9 NSaved=   9.
 NSaved= 9 IEnMin= 9 EnMin= -144.803513827128     IErMin= 9 ErrMin= 7.07D-04
 ErrMax= 7.07D-04  0.00D+00 EMaxC= 1.00D-01 BMatC= 2.03D-05 BMatP= 2.76D-05
 IDIUse=3 WtCom= 9.93D-01 WtEn= 7.07D-03
 Coeff-Com: -0.169D+00 0.193D+00-0.294D-01 0.662D-02 0.549D-01-0.710D-01
 Coeff-Com: -0.931D+00 0.135D+01 0.598D+00
 Coeff-En:   0.000D+00 0.000D+00 0.000D+00 0.000D+00 0.000D+00 0.000D+00
 Coeff-En:   0.000D+00 0.000D+00 0.100D+01
 Coeff:     -0.168D+00 0.192D+00-0.292D-01 0.657D-02 0.545D-01-0.705D-01
 Coeff:     -0.925D+00 0.134D+01 0.601D+00
 Gap=     0.005 Goal=   None    Shift=    0.200
 RMSDP=1.01D-05 MaxDP=7.63D-04 DE=-4.91D-05 OVMax= 2.06D-03

 Cycle  10  Pass 1  IDiag  1:
 E= -144.803536483418     Delta-E=       -0.000022656290 Rises=F Damp=F
 DIIS: error= 6.41D-04 at cycle  10 NSaved=  10.
 NSaved=10 IEnMin=10 EnMin= -144.803536483418     IErMin=10 ErrMin= 6.41D-04
 ErrMax= 6.41D-04  0.00D+00 EMaxC= 1.00D-01 BMatC= 1.63D-05 BMatP= 2.03D-05
 IDIUse=3 WtCom= 9.94D-01 WtEn= 6.41D-03
 Coeff-Com: -0.147D+00 0.168D+00-0.261D-01-0.140D-01 0.774D-01 0.236D-01
 Coeff-Com: -0.818D+00 0.110D+01-0.103D+01 0.166D+01
 Coeff-En:   0.000D+00 0.000D+00 0.000D+00 0.000D+00 0.000D+00 0.000D+00
 Coeff-En:   0.000D+00 0.000D+00 0.000D+00 0.100D+01
 Coeff:     -0.146D+00 0.167D+00-0.259D-01-0.139D-01 0.769D-01 0.234D-01
 Coeff:     -0.813D+00 0.110D+01-0.102D+01 0.166D+01
 Gap=     0.005 Goal=   None    Shift=    0.200
 RMSDP=1.39D-05 MaxDP=1.17D-03 DE=-2.27D-05 OVMax= 1.51D-03

 Cycle  11  Pass 1  IDiag  1:
 E= -144.803561843820     Delta-E=       -0.000025360403 Rises=F Damp=F
 DIIS: error= 5.65D-04 at cycle  11 NSaved=  11.
 NSaved=11 IEnMin=11 EnMin= -144.803561843820     IErMin=11 ErrMin= 5.65D-04
 ErrMax= 5.65D-04  0.00D+00 EMaxC= 1.00D-01 BMatC= 1.24D-05 BMatP= 1.63D-05
 IDIUse=3 WtCom= 9.94D-01 WtEn= 5.65D-03
 Coeff-Com: -0.105D+00 0.120D+00-0.154D-01-0.227D-01-0.204D-01 0.130D+00
 Coeff-Com: -0.270D+00 0.798D+00-0.282D+01 0.173D+01 0.147D+01
 Coeff-En:   0.000D+00 0.000D+00 0.000D+00 0.000D+00 0.000D+00 0.000D+00
 Coeff-En:   0.000D+00 0.000D+00 0.000D+00 0.000D+00 0.100D+01
 Coeff:     -0.104D+00 0.119D+00-0.153D-01-0.226D-01-0.203D-01 0.130D+00
 Coeff:     -0.269D+00 0.794D+00-0.280D+01 0.172D+01 0.147D+01
 Gap=     0.005 Goal=   None    Shift=    0.200
 RMSDP=1.24D-05 MaxDP=8.01D-04 DE=-2.54D-05 OVMax= 1.54D-03

 Cycle  12  Pass 1  IDiag  1:
 E= -144.803592215492     Delta-E=       -0.000030371672 Rises=F Damp=F
 DIIS: error= 4.25D-04 at cycle  12 NSaved=  12.
 NSaved=12 IEnMin=12 EnMin= -144.803592215492     IErMin=12 ErrMin= 4.25D-04
 ErrMax= 4.25D-04  0.00D+00 EMaxC= 1.00D-01 BMatC= 7.82D-06 BMatP= 1.24D-05
 IDIUse=3 WtCom= 9.96D-01 WtEn= 4.25D-03
 Coeff-Com: -0.887D-01 0.101D+00-0.123D-01-0.257D-01-0.381D-02 0.788D-01
 Coeff-Com: -0.222D+00 0.947D+00-0.323D+01 0.211D+01 0.782D+00 0.560D+00
 Coeff-En:   0.000D+00 0.000D+00 0.000D+00 0.000D+00 0.000D+00 0.000D+00
 Coeff-En:   0.000D+00 0.000D+00 0.000D+00 0.000D+00 0.000D+00 0.100D+01
 Coeff:     -0.884D-01 0.101D+00-0.123D-01-0.256D-01-0.379D-02 0.785D-01
 Coeff:     -0.221D+00 0.943D+00-0.321D+01 0.210D+01 0.779D+00 0.562D+00
 Gap=     0.005 Goal=   None    Shift=    0.200
 RMSDP=7.11D-06 MaxDP=4.95D-04 DE=-3.04D-05 OVMax= 1.25D-03

 Cycle  13  Pass 1  IDiag  1:
 E= -144.803602991198     Delta-E=       -0.000010775706 Rises=F Damp=F
 DIIS: error= 3.61D-04 at cycle  13 NSaved=  13.
 NSaved=13 IEnMin=13 EnMin= -144.803602991198     IErMin=13 ErrMin= 3.61D-04
 ErrMax= 3.61D-04  0.00D+00 EMaxC= 1.00D-01 BMatC= 5.79D-06 BMatP= 7.82D-06
 IDIUse=3 WtCom= 9.96D-01 WtEn= 3.61D-03
 Coeff-Com: -0.767D-01 0.877D-01-0.102D-01-0.181D-01 0.141D-01-0.659D-01
 Coeff-Com:  0.408D-02 0.834D+00-0.275D+01 0.205D+01 0.405D+00-0.127D+01
 Coeff-Com:  0.179D+01
 Coeff-En:   0.000D+00 0.000D+00 0.000D+00 0.000D+00 0.000D+00 0.000D+00
 Coeff-En:   0.000D+00 0.000D+00 0.000D+00 0.000D+00 0.000D+00 0.000D+00
 Coeff-En:   0.100D+01
 Coeff:     -0.765D-01 0.873D-01-0.102D-01-0.181D-01 0.141D-01-0.656D-01
 Coeff:      0.407D-02 0.831D+00-0.274D+01 0.204D+01 0.403D+00-0.126D+01
 Coeff:      0.179D+01
 Gap=     0.005 Goal=   None    Shift=    0.200
 RMSDP=6.21D-06 MaxDP=6.50D-04 DE=-1.08D-05 OVMax= 1.05D-03

 Cycle  14  Pass 1  IDiag  1:
 E= -144.803610717059     Delta-E=       -0.000007725861 Rises=F Damp=F
 DIIS: error= 3.09D-04 at cycle  14 NSaved=  14.
 NSaved=14 IEnMin=14 EnMin= -144.803610717059     IErMin=14 ErrMin= 3.09D-04
 ErrMax= 3.09D-04  0.00D+00 EMaxC= 1.00D-01 BMatC= 4.42D-06 BMatP= 5.79D-06
 IDIUse=3 WtCom= 9.97D-01 WtEn= 3.09D-03
 Coeff-Com: -0.585D-02 0.667D-02-0.143D-03 0.131D-02 0.551D-01-0.310D+00
 Coeff-Com:  0.306D+00 0.465D+00-0.175D+01 0.244D+01-0.171D+01-0.867D+00
 Coeff-Com: -0.219D+01 0.457D+01
 Coeff-En:   0.000D+00 0.000D+00 0.000D+00 0.000D+00 0.000D+00 0.000D+00
 Coeff-En:   0.000D+00 0.000D+00 0.000D+00 0.000D+00 0.000D+00 0.000D+00
 Coeff-En:   0.000D+00 0.100D+01
 Coeff:     -0.583D-02 0.665D-02-0.142D-03 0.130D-02 0.549D-01-0.309D+00
 Coeff:      0.305D+00 0.463D+00-0.175D+01 0.243D+01-0.171D+01-0.865D+00
 Coeff:     -0.218D+01 0.456D+01
 Gap=     0.006 Goal=   None    Shift=    0.200
 RMSDP=1.58D-05 MaxDP=1.07D-03 DE=-7.73D-06 OVMax= 1.80D-03

 Cycle  15  Pass 1  IDiag  1:
 E= -144.803626145862     Delta-E=       -0.000015428803 Rises=F Damp=F
 DIIS: error= 2.85D-04 at cycle  15 NSaved=  15.
 NSaved=15 IEnMin=15 EnMin= -144.803626145862     IErMin=15 ErrMin= 2.85D-04
 ErrMax= 2.85D-04  0.00D+00 EMaxC= 1.00D-01 BMatC= 2.56D-06 BMatP= 4.42D-06
 IDIUse=3 WtCom= 9.97D-01 WtEn= 2.85D-03
 Coeff-Com: -0.733D-03 0.840D-03-0.486D-03 0.241D-02 0.777D-01-0.323D+00
 Coeff-Com:  0.239D+00 0.467D+00-0.169D+01 0.247D+01-0.126D+01-0.143D+01
 Coeff-Com: -0.234D+01 0.447D+01 0.326D+00
 Coeff-En:   0.000D+00 0.000D+00 0.000D+00 0.000D+00 0.000D+00 0.000D+00
 Coeff-En:   0.000D+00 0.000D+00 0.000D+00 0.000D+00 0.000D+00 0.000D+00
 Coeff-En:   0.000D+00 0.000D+00 0.100D+01
 Coeff:     -0.731D-03 0.837D-03-0.484D-03 0.240D-02 0.774D-01-0.322D+00
 Coeff:      0.238D+00 0.466D+00-0.169D+01 0.247D+01-0.126D+01-0.143D+01
 Coeff:     -0.234D+01 0.446D+01 0.328D+00
 Gap=     0.006 Goal=   None    Shift=    0.200
 RMSDP=5.40D-06 MaxDP=3.85D-04 DE=-1.54D-05 OVMax= 1.13D-03

 Cycle  16  Pass 1  IDiag  1:
 E= -144.803627734081     Delta-E=       -0.000001588218 Rises=F Damp=F
 DIIS: error= 2.58D-04 at cycle  16 NSaved=  16.
 NSaved=16 IEnMin=16 EnMin= -144.803627734081     IErMin=16 ErrMin= 2.58D-04
 ErrMax= 2.58D-04  0.00D+00 EMaxC= 1.00D-01 BMatC= 2.05D-06 BMatP= 2.56D-06
 IDIUse=3 WtCom= 9.97D-01 WtEn= 2.58D-03
 Coeff-Com: -0.635D-02 0.724D-02-0.723D-03 0.388D-02 0.406D-01-0.286D+00
 Coeff-Com:  0.336D+00 0.314D+00-0.151D+01 0.215D+01-0.172D+01 0.185D+01
 Coeff-Com: -0.579D+01 0.554D+01-0.144D+01 0.152D+01
 Coeff-En:   0.000D+00 0.000D+00 0.000D+00 0.000D+00 0.000D+00 0.000D+00
 Coeff-En:   0.000D+00 0.000D+00 0.000D+00 0.000D+00 0.000D+00 0.000D+00
 Coeff-En:   0.000D+00 0.000D+00 0.000D+00 0.100D+01
 Coeff:     -0.633D-02 0.722D-02-0.721D-03 0.387D-02 0.405D-01-0.286D+00
 Coeff:      0.335D+00 0.313D+00-0.151D+01 0.214D+01-0.171D+01 0.184D+01
 Coeff:     -0.577D+01 0.553D+01-0.144D+01 0.152D+01
 Gap=     0.006 Goal=   None    Shift=    0.200
 RMSDP=5.20D-06 MaxDP=5.31D-04 DE=-1.59D-06 OVMax= 6.69D-04

 Cycle  17  Pass 1  IDiag  1:
 E= -144.803628729405     Delta-E=       -0.000000995324 Rises=F Damp=F
 DIIS: error= 2.29D-04 at cycle  17 NSaved=  17.
 NSaved=17 IEnMin=17 EnMin= -144.803628729405     IErMin=17 ErrMin= 2.29D-04
 ErrMax= 2.29D-04  0.00D+00 EMaxC= 1.00D-01 BMatC= 1.65D-06 BMatP= 2.05D-06
 IDIUse=3 WtCom= 9.98D-01 WtEn= 2.29D-03
 Coeff-Com:  0.519D-02-0.597D-02 0.329D-02-0.477D-02 0.198D-01-0.238D+00
 Coeff-Com:  0.398D+00 0.254D+00-0.188D+01 0.267D+01-0.265D+01 0.395D+01
 Coeff-Com: -0.667D+01 0.463D+01-0.192D+00-0.227D+01 0.297D+01
 Coeff-En:   0.000D+00 0.000D+00 0.000D+00 0.000D+00 0.000D+00 0.000D+00
 Coeff-En:   0.000D+00 0.000D+00 0.000D+00 0.000D+00 0.000D+00 0.000D+00
 Coeff-En:   0.000D+00 0.000D+00 0.000D+00 0.000D+00 0.100D+01
 Coeff:      0.518D-02-0.595D-02 0.328D-02-0.475D-02 0.198D-01-0.237D+00
 Coeff:      0.397D+00 0.253D+00-0.188D+01 0.267D+01-0.264D+01 0.394D+01
 Coeff:     -0.665D+01 0.462D+01-0.192D+00-0.226D+01 0.297D+01
 Gap=     0.006 Goal=   None    Shift=    0.200
 RMSDP=6.72D-06 MaxDP=7.21D-04 DE=-9.95D-07 OVMax= 5.81D-04

 Cycle  18  Pass 1  IDiag  1:
 E= -144.803629187320     Delta-E=       -0.000000457915 Rises=F Damp=F
 DIIS: error= 2.21D-04 at cycle  18 NSaved=  18.
 NSaved=18 IEnMin=18 EnMin= -144.803629187320     IErMin=18 ErrMin= 2.21D-04
 ErrMax= 2.21D-04  0.00D+00 EMaxC= 1.00D-01 BMatC= 1.63D-06 BMatP= 1.65D-06
 IDIUse=3 WtCom= 9.98D-01 WtEn= 2.21D-03
 Coeff-Com:  0.220D-02-0.254D-02 0.220D-02-0.892D-02 0.263D-01-0.146D+00
 Coeff-Com:  0.290D+00 0.122D+00-0.198D+01 0.294D+01-0.205D+01 0.386D+01
 Coeff-Com: -0.622D+01 0.339D+01 0.332D+00-0.328D+01 0.136D+01 0.236D+01
 Coeff-En:   0.000D+00 0.000D+00 0.000D+00 0.000D+00 0.000D+00 0.000D+00
 Coeff-En:   0.000D+00 0.000D+00 0.000D+00 0.000D+00 0.000D+00 0.000D+00
 Coeff-En:   0.000D+00 0.000D+00 0.000D+00 0.000D+00 0.000D+00 0.100D+01
 Coeff:      0.220D-02-0.253D-02 0.220D-02-0.890D-02 0.262D-01-0.145D+00
 Coeff:      0.289D+00 0.122D+00-0.198D+01 0.293D+01-0.204D+01 0.385D+01
 Coeff:     -0.621D+01 0.339D+01 0.331D+00-0.327D+01 0.136D+01 0.236D+01
 Gap=     0.006 Goal=   None    Shift=    0.200
 RMSDP=4.23D-06 MaxDP=4.05D-04 DE=-4.58D-07 OVMax= 3.88D-04

 Cycle  19  Pass 1  IDiag  1:
 E= -144.803629789719     Delta-E=       -0.000000602399 Rises=F Damp=F
 DIIS: error= 2.01D-04 at cycle  19 NSaved=  19.
 NSaved=19 IEnMin=19 EnMin= -144.803629789719     IErMin=19 ErrMin= 2.01D-04
 ErrMax= 2.01D-04  0.00D+00 EMaxC= 1.00D-01 BMatC= 1.41D-06 BMatP= 1.63D-06
 IDIUse=3 WtCom= 9.98D-01 WtEn= 2.01D-03
 Coeff-Com:  0.342D-03-0.410D-03 0.180D-02-0.100D-01 0.120D-01-0.982D-01
 Coeff-Com:  0.305D+00 0.101D-01-0.192D+01 0.291D+01-0.216D+01 0.397D+01
 Coeff-Com: -0.592D+01 0.327D+01 0.217D+00-0.247D+01-0.568D-01 0.117D+01
 Coeff-Com:  0.176D+01
 Coeff-En:   0.000D+00 0.000D+00 0.000D+00 0.000D+00 0.000D+00 0.000D+00
 Coeff-En:   0.000D+00 0.000D+00 0.000D+00 0.000D+00 0.000D+00 0.000D+00
 Coeff-En:   0.000D+00 0.000D+00 0.000D+00 0.000D+00 0.000D+00 0.000D+00
 Coeff-En:   0.100D+01
 Coeff:      0.342D-03-0.409D-03 0.179D-02-0.100D-01 0.120D-01-0.980D-01
 Coeff:      0.305D+00 0.101D-01-0.192D+01 0.291D+01-0.215D+01 0.396D+01
 Coeff:     -0.591D+01 0.327D+01 0.216D+00-0.246D+01-0.567D-01 0.117D+01
 Coeff:      0.176D+01
 Gap=     0.006 Goal=   None    Shift=    0.200
 RMSDP=2.64D-06 MaxDP=3.00D-04 DE=-6.02D-07 OVMax= 2.73D-04

 Cycle  20  Pass 1  IDiag  1:
 E= -144.803630204731     Delta-E=       -0.000000415012 Rises=F Damp=F
 DIIS: error= 1.84D-04 at cycle  20 NSaved=  20.
 NSaved=20 IEnMin=20 EnMin= -144.803630204731     IErMin=20 ErrMin= 1.84D-04
 ErrMax= 1.84D-04  0.00D+00 EMaxC= 1.00D-01 BMatC= 1.25D-06 BMatP= 1.41D-06
 IDIUse=3 WtCom= 9.98D-01 WtEn= 1.84D-03
 Coeff-Com:  0.888D-03-0.103D-02 0.196D-02-0.889D-02 0.618D-02-0.111D+00
 Coeff-Com:  0.350D+00-0.456D-01-0.168D+01 0.278D+01-0.248D+01 0.367D+01
 Coeff-Com: -0.550D+01 0.358D+01 0.246D-01-0.164D+01-0.529D+00 0.503D+00
 Coeff-Com:  0.821D+00 0.126D+01
 Coeff-En:   0.000D+00 0.000D+00 0.000D+00 0.000D+00 0.000D+00 0.000D+00
 Coeff-En:   0.000D+00 0.000D+00 0.000D+00 0.000D+00 0.000D+00 0.000D+00
 Coeff-En:   0.000D+00 0.000D+00 0.000D+00 0.000D+00 0.000D+00 0.000D+00
 Coeff-En:   0.000D+00 0.100D+01
 Coeff:      0.886D-03-0.103D-02 0.195D-02-0.887D-02 0.617D-02-0.111D+00
 Coeff:      0.349D+00-0.455D-01-0.167D+01 0.278D+01-0.248D+01 0.366D+01
 Coeff:     -0.549D+01 0.357D+01 0.245D-01-0.164D+01-0.528D+00 0.502D+00
 Coeff:      0.819D+00 0.126D+01
 Gap=     0.006 Goal=   None    Shift=    0.200
 RMSDP=1.74D-06 MaxDP=2.00D-04 DE=-4.15D-07 OVMax= 2.31D-04

 Cycle  21  Pass 1  IDiag  1:
 E= -144.803630515165     Delta-E=       -0.000000310434 Rises=F Damp=F
 DIIS: error= 1.73D-04 at cycle  21 NSaved=  20.
 NSaved=20 IEnMin=20 EnMin= -144.803630515165     IErMin=20 ErrMin= 1.73D-04
 ErrMax= 1.73D-04  0.00D+00 EMaxC= 1.00D-01 BMatC= 1.15D-06 BMatP= 1.25D-06
 IDIUse=3 WtCom= 9.98D-01 WtEn= 1.73D-03
 Coeff-Com: -0.914D-05 0.721D-03-0.794D-03 0.230D-01-0.161D+00 0.357D+00
 Coeff-Com: -0.194D+00-0.804D+00 0.228D+01-0.249D+01 0.147D+01-0.337D+01
 Coeff-Com:  0.364D+01-0.260D-02-0.770D+00-0.688D+00 0.396D+00 0.427D+00
 Coeff-Com: -0.479D+01 0.568D+01
 Coeff-En:   0.000D+00 0.000D+00 0.000D+00 0.000D+00 0.000D+00 0.000D+00
 Coeff-En:   0.000D+00 0.000D+00 0.000D+00 0.000D+00 0.000D+00 0.000D+00
 Coeff-En:   0.000D+00 0.000D+00 0.000D+00 0.000D+00 0.000D+00 0.000D+00
 Coeff-En:   0.000D+00 0.100D+01
 Coeff:     -0.913D-05 0.719D-03-0.792D-03 0.230D-01-0.161D+00 0.356D+00
 Coeff:     -0.194D+00-0.803D+00 0.228D+01-0.249D+01 0.147D+01-0.336D+01
 Coeff:      0.363D+01-0.259D-02-0.769D+00-0.686D+00 0.395D+00 0.426D+00
 Coeff:     -0.478D+01 0.567D+01
 Gap=     0.006 Goal=   None    Shift=    0.200
 RMSDP=1.62D-06 MaxDP=1.68D-04 DE=-3.10D-07 OVMax= 1.92D-04

 Cycle  22  Pass 1  IDiag  1:
 E= -144.803630800392     Delta-E=       -0.000000285227 Rises=F Damp=F
 DIIS: error= 1.59D-04 at cycle  22 NSaved=  20.
 NSaved=20 IEnMin=20 EnMin= -144.803630800392     IErMin=20 ErrMin= 1.59D-04
 ErrMax= 1.59D-04  0.00D+00 EMaxC= 1.00D-01 BMatC= 1.03D-06 BMatP= 1.15D-06
 IDIUse=3 WtCom= 9.98D-01 WtEn= 1.59D-03
 Coeff-Com:  0.968D-05 0.563D-03 0.323D-01-0.169D+00 0.349D+00-0.248D+00
 Coeff-Com: -0.621D+00 0.216D+01-0.240D+01 0.137D+01-0.329D+01 0.351D+01
 Coeff-Com: -0.183D-01-0.828D+00-0.585D+00 0.651D+00 0.841D+00-0.633D+01
 Coeff-Com:  0.569D+01 0.886D+00
 Coeff-En:   0.000D+00 0.000D+00 0.000D+00 0.000D+00 0.000D+00 0.000D+00
 Coeff-En:   0.000D+00 0.000D+00 0.000D+00 0.000D+00 0.000D+00 0.000D+00
 Coeff-En:   0.000D+00 0.000D+00 0.000D+00 0.000D+00 0.000D+00 0.000D+00
 Coeff-En:   0.000D+00 0.100D+01
 Coeff:      0.966D-05 0.562D-03 0.323D-01-0.169D+00 0.348D+00-0.248D+00
 Coeff:     -0.620D+00 0.216D+01-0.239D+01 0.136D+01-0.329D+01 0.351D+01
 Coeff:     -0.183D-01-0.827D+00-0.584D+00 0.650D+00 0.840D+00-0.632D+01
 Coeff:      0.569D+01 0.886D+00
 Gap=     0.006 Goal=   None    Shift=    0.200
 RMSDP=9.83D-07 MaxDP=1.18D-04 DE=-2.85D-07 OVMax= 1.66D-04

 Cycle  23  Pass 1  IDiag  1:
 E= -144.803631042749     Delta-E=       -0.000000242357 Rises=F Damp=F
 DIIS: error= 1.50D-04 at cycle  23 NSaved=  20.
 NSaved=20 IEnMin=20 EnMin= -144.803631042749     IErMin=20 ErrMin= 1.50D-04
 ErrMax= 1.50D-04  0.00D+00 EMaxC= 1.00D-01 BMatC= 9.49D-07 BMatP= 1.03D-06
 IDIUse=3 WtCom= 9.99D-01 WtEn= 1.50D-03
 Coeff-Com:  0.252D-03 0.304D-01-0.160D+00 0.347D+00-0.247D+00-0.660D+00
 Coeff-Com:  0.212D+01-0.235D+01 0.165D+01-0.342D+01 0.334D+01-0.117D+00
 Coeff-Com: -0.853D+00-0.447D+00 0.702D+00 0.108D+01-0.617D+01 0.541D+01
 Coeff-Com: -0.722D+00 0.145D+01
 Coeff-En:   0.000D+00 0.000D+00 0.000D+00 0.000D+00 0.000D+00 0.000D+00
 Coeff-En:   0.000D+00 0.000D+00 0.000D+00 0.000D+00 0.000D+00 0.000D+00
 Coeff-En:   0.000D+00 0.000D+00 0.000D+00 0.000D+00 0.000D+00 0.000D+00
 Coeff-En:   0.000D+00 0.100D+01
 Coeff:      0.252D-03 0.303D-01-0.160D+00 0.347D+00-0.247D+00-0.659D+00
 Coeff:      0.212D+01-0.235D+01 0.165D+01-0.341D+01 0.333D+01-0.117D+00
 Coeff:     -0.852D+00-0.447D+00 0.701D+00 0.108D+01-0.616D+01 0.541D+01
 Coeff:     -0.721D+00 0.145D+01
 Gap=     0.006 Goal=   None    Shift=    0.200
 RMSDP=5.53D-07 MaxDP=6.04D-05 DE=-2.42D-07 OVMax= 1.51D-04

 Cycle  24  Pass 1  IDiag  1:
 E= -144.803631264861     Delta-E=       -0.000000222112 Rises=F Damp=F
 DIIS: error= 1.43D-04 at cycle  24 NSaved=  20.
 NSaved=20 IEnMin=20 EnMin= -144.803631264861     IErMin=20 ErrMin= 1.43D-04
 ErrMax= 1.43D-04  0.00D+00 EMaxC= 1.00D-01 BMatC= 8.75D-07 BMatP= 9.49D-07
 IDIUse=3 WtCom= 9.99D-01 WtEn= 1.43D-03
 Large coefficients: NSaved= 20 BigCof=   13.13 CofMax=   10.00 Det=-1.11D-11
 Inversion failed.  Reducing to 19 matrices.
 Large coefficients: NSaved= 19 BigCof=   14.48 CofMax=   10.00 Det=-1.11D-11
 Inversion failed.  Reducing to 18 matrices.
 Large coefficients: NSaved= 18 BigCof=   19.58 CofMax=   10.00 Det=-1.13D-11
 Inversion failed.  Reducing to 17 matrices.
 Large coefficients: NSaved= 17 BigCof=   26.46 CofMax=   10.00 Det=-1.82D-11
 Inversion failed.  Reducing to 16 matrices.
 Large coefficients: NSaved= 16 BigCof=   26.48 CofMax=   10.00 Det=-1.84D-11
 Inversion failed.  Reducing to 15 matrices.
 Large coefficients: NSaved= 15 BigCof=   30.26 CofMax=   10.00 Det=-2.21D-11
 Inversion failed.  Reducing to 14 matrices.
 Large coefficients: NSaved= 14 BigCof=   33.50 CofMax=   10.00 Det=-2.25D-11
 Inversion failed.  Reducing to 13 matrices.
 Large coefficients: NSaved= 13 BigCof=   35.52 CofMax=   10.00 Det=-2.73D-11
 Inversion failed.  Reducing to 12 matrices.
 Large coefficients: NSaved= 12 BigCof=   34.65 CofMax=   10.00 Det=-3.01D-11
 Inversion failed.  Reducing to 11 matrices.
 Large coefficients: NSaved= 11 BigCof=   32.29 CofMax=   10.00 Det=-3.02D-11
 Inversion failed.  Reducing to 10 matrices.
 Large coefficients: NSaved= 10 BigCof=   31.95 CofMax=   10.00 Det=-3.08D-11
 Inversion failed.  Reducing to  9 matrices.
 Large coefficients: NSaved=  9 BigCof=   27.76 CofMax=   10.00 Det=-3.08D-11
 Inversion failed.  Reducing to  8 matrices.
 Large coefficients: NSaved=  8 BigCof=   28.58 CofMax=   10.00 Det=-3.14D-11
 Inversion failed.  Reducing to  7 matrices.
 Large coefficients: NSaved=  7 BigCof=   27.51 CofMax=   10.00 Det=-3.18D-11
 Inversion failed.  Reducing to  6 matrices.
 Large coefficients: NSaved=  6 BigCof=   27.18 CofMax=   10.00 Det=-3.18D-11
 Inversion failed.  Reducing to  5 matrices.
 Large coefficients: NSaved=  5 BigCof=   28.41 CofMax=   10.00 Det=-3.38D-11
 Inversion failed.  Reducing to  4 matrices.
 Large coefficients: NSaved=  4 BigCof=   29.15 CofMax=   10.00 Det=-3.40D-11
 Inversion failed.  Reducing to  3 matrices.
 Large coefficients: NSaved=  3 BigCof=   35.50 CofMax=   10.00 Det=-5.07D-11
 Inversion failed.  Reducing to  2 matrices.
 Large coefficients: NSaved=  2 BigCof=   21.80 CofMax=   10.00 Det=-1.72D-09
 Coeff-Com: -0.208D+02 0.218D+02
 Coeff-En:   0.000D+00 0.100D+01
 Coeff:     -0.208D+02 0.218D+02
 Gap=     0.006 Goal=   None    Shift=    0.200
 RMSDP=2.46D-05 MaxDP=2.41D-03 DE=-2.22D-07 OVMax= 1.18D-03

 Cycle  25  Pass 1  IDiag  1:
 E= -144.803631978976     Delta-E=       -0.000000714115 Rises=F Damp=F
 DIIS: error= 1.29D-04 at cycle  25 NSaved=   3.
 NSaved= 3 IEnMin= 3 EnMin= -144.803631978976     IErMin= 3 ErrMin= 1.29D-04
 ErrMax= 1.29D-04  0.00D+00 EMaxC= 1.00D-01 BMatC= 6.57D-07 BMatP= 8.75D-07
 IDIUse=3 WtCom= 9.99D-01 WtEn= 1.29D-03
 Large coefficients: NSaved=  3 BigCof=   19.88 CofMax=   10.00 Det=-1.64D-09
 Inversion failed.  Reducing to  2 matrices.
 Coeff-Com:  0.808D-01 0.919D+00
 Coeff-En:   0.166D+00 0.834D+00
 Coeff:      0.809D-01 0.919D+00
 Gap=     0.006 Goal=   None    Shift=    0.200
 RMSDP=2.34D-05 MaxDP=2.19D-03 DE=-7.14D-07 OVMax= 3.19D-03

 Cycle  26  Pass 1  IDiag  1:
 E= -144.803633377597     Delta-E=       -0.000001398621 Rises=F Damp=F
 DIIS: error= 8.06D-05 at cycle  26 NSaved=   3.
 NSaved= 3 IEnMin= 3 EnMin= -144.803633377597     IErMin= 3 ErrMin= 8.06D-05
 ErrMax= 8.06D-05  0.00D+00 EMaxC= 1.00D-01 BMatC= 4.13D-07 BMatP= 6.57D-07
 IDIUse=1 WtCom= 1.00D+00 WtEn= 0.00D+00
 Coeff-Com:  0.132D+00 0.298D+00 0.570D+00
 Coeff:      0.132D+00 0.298D+00 0.570D+00
 Gap=     0.006 Goal=   None    Shift=    0.200
 RMSDP=3.88D-06 MaxDP=3.68D-04 DE=-1.40D-06 OVMax= 8.20D-04

 Cycle  27  Pass 1  IDiag  1:
 E= -144.803633224759     Delta-E=        0.000000152838 Rises=F Damp=F
 DIIS: error= 7.80D-05 at cycle  27 NSaved=   4.
 NSaved= 4 IEnMin= 3 EnMin= -144.803633377597     IErMin= 4 ErrMin= 7.80D-05
 ErrMax= 7.80D-05  0.00D+00 EMaxC= 1.00D-01 BMatC= 2.25D-07 BMatP= 4.13D-07
 IDIUse=1 WtCom= 1.00D+00 WtEn= 0.00D+00
 Coeff-Com:  0.208D+00 0.136D+00 0.170D+00 0.486D+00
 Coeff:      0.208D+00 0.136D+00 0.170D+00 0.486D+00
 Gap=     0.006 Goal=   None    Shift=    0.200
 RMSDP=4.90D-06 MaxDP=4.86D-04 DE= 1.53D-07 OVMax= 3.16D-04

 Cycle  28  Pass 1  IDiag  1:
 E= -144.803633267050     Delta-E=       -0.000000042291 Rises=F Damp=F
 DIIS: error= 6.70D-05 at cycle  28 NSaved=   5.
 NSaved= 5 IEnMin= 3 EnMin= -144.803633377597     IErMin= 5 ErrMin= 6.70D-05
 ErrMax= 6.70D-05  0.00D+00 EMaxC= 1.00D-01 BMatC= 2.05D-07 BMatP= 2.25D-07
 IDIUse=1 WtCom= 1.00D+00 WtEn= 0.00D+00
 Coeff-Com:  0.256D+00 0.850D-01-0.400D-01-0.121D+00 0.820D+00
 Coeff:      0.256D+00 0.850D-01-0.400D-01-0.121D+00 0.820D+00
 Gap=     0.006 Goal=   None    Shift=    0.200
 RMSDP=1.69D-06 MaxDP=1.52D-04 DE=-4.23D-08 OVMax= 1.19D-04

 Cycle  29  Pass 1  IDiag  1:
 E= -144.803633305146     Delta-E=       -0.000000038096 Rises=F Damp=F
 DIIS: error= 6.04D-05 at cycle  29 NSaved=   6.
 NSaved= 6 IEnMin= 3 EnMin= -144.803633377597     IErMin= 6 ErrMin= 6.04D-05
 ErrMax= 6.04D-05  0.00D+00 EMaxC= 1.00D-01 BMatC= 1.78D-07 BMatP= 2.05D-07
 IDIUse=1 WtCom= 1.00D+00 WtEn= 0.00D+00
 Coeff-Com:  0.283D+00 0.372D-01-0.493D-01-0.184D+00 0.233D+00 0.680D+00
 Coeff:      0.283D+00 0.372D-01-0.493D-01-0.184D+00 0.233D+00 0.680D+00
 Gap=     0.006 Goal=   None    Shift=    0.200
 RMSDP=9.27D-07 MaxDP=6.95D-05 DE=-3.81D-08 OVMax= 7.20D-05

 Cycle  30  Pass 1  IDiag  1:
 E= -144.803633354209     Delta-E=       -0.000000049063 Rises=F Damp=F
 DIIS: error= 5.83D-05 at cycle  30 NSaved=   7.
 NSaved= 7 IEnMin= 3 EnMin= -144.803633377597     IErMin= 7 ErrMin= 5.83D-05
 ErrMax= 5.83D-05  0.00D+00 EMaxC= 1.00D-01 BMatC= 1.57D-07 BMatP= 1.78D-07
 IDIUse=1 WtCom= 1.00D+00 WtEn= 0.00D+00
 Coeff-Com:  0.290D+00 0.144D-01-0.374D-01-0.147D+00 0.327D+00-0.146D+00
 Coeff-Com:  0.699D+00
 Coeff:      0.290D+00 0.144D-01-0.374D-01-0.147D+00 0.327D+00-0.146D+00
 Coeff:      0.699D+00
 Gap=     0.006 Goal=   None    Shift=    0.200
 RMSDP=7.24D-07 MaxDP=7.73D-05 DE=-4.91D-08 OVMax= 5.68D-05

 Cycle  31  Pass 1  IDiag  1:
 E= -144.803633392347     Delta-E=       -0.000000038138 Rises=F Damp=F
 DIIS: error= 5.61D-05 at cycle  31 NSaved=   8.
 NSaved= 8 IEnMin= 8 EnMin= -144.803633392347     IErMin= 8 ErrMin= 5.61D-05
 ErrMax= 5.61D-05  0.00D+00 EMaxC= 1.00D-01 BMatC= 1.43D-07 BMatP= 1.57D-07
 IDIUse=1 WtCom= 1.00D+00 WtEn= 0.00D+00
 Coeff-Com:  0.302D+00-0.519D-01-0.593D-02-0.597D-02 0.452D+00-0.938D+00
 Coeff-Com: -0.143D+01 0.268D+01
 Coeff:      0.302D+00-0.519D-01-0.593D-02-0.597D-02 0.452D+00-0.938D+00
 Coeff:     -0.143D+01 0.268D+01
 Gap=     0.006 Goal=   None    Shift=    0.200
 RMSDP=3.05D-07 MaxDP=2.42D-05 DE=-3.81D-08 OVMax= 4.65D-05

 Cycle  32  Pass 1  IDiag  1:
 E= -144.803633423445     Delta-E=       -0.000000031098 Rises=F Damp=F
 DIIS: error= 5.36D-05 at cycle  32 NSaved=   9.
 NSaved= 9 IEnMin= 9 EnMin= -144.803633423445     IErMin= 9 ErrMin= 5.36D-05
 ErrMax= 5.36D-05  0.00D+00 EMaxC= 1.00D-01 BMatC= 1.31D-07 BMatP= 1.43D-07
 IDIUse=1 WtCom= 1.00D+00 WtEn= 0.00D+00
 Coeff-Com:  0.303D+00-0.506D-01-0.708D-02-0.653D-02 0.461D+00-0.968D+00
 Coeff-Com: -0.144D+01 0.290D+01-0.189D+00
 Coeff:      0.303D+00-0.506D-01-0.708D-02-0.653D-02 0.461D+00-0.968D+00
 Coeff:     -0.144D+01 0.290D+01-0.189D+00
 Gap=     0.006 Goal=   None    Shift=    0.200
 RMSDP=2.03D-07 MaxDP=1.74D-05 DE=-3.11D-08 OVMax= 4.34D-05

 Cycle  33  Pass 1  IDiag  1:
 E= -144.803633450511     Delta-E=       -0.000000027066 Rises=F Damp=F
 DIIS: error= 5.14D-05 at cycle  33 NSaved=  10.
 NSaved=10 IEnMin=10 EnMin= -144.803633450511     IErMin=10 ErrMin= 5.14D-05
 ErrMax= 5.14D-05  0.00D+00 EMaxC= 1.00D-01 BMatC= 1.22D-07 BMatP= 1.31D-07
 IDIUse=1 WtCom= 1.00D+00 WtEn= 0.00D+00
 Coeff-Com:  0.299D+00-0.547D-01-0.551D-02-0.379D-03 0.422D+00-0.912D+00
 Coeff-Com: -0.141D+01 0.306D+01-0.139D+01 0.987D+00
 Coeff:      0.299D+00-0.547D-01-0.551D-02-0.379D-03 0.422D+00-0.912D+00
 Coeff:     -0.141D+01 0.306D+01-0.139D+01 0.987D+00
 Gap=     0.006 Goal=   None    Shift=    0.200
 RMSDP=1.51D-07 MaxDP=1.56D-05 DE=-2.71D-08 OVMax= 4.14D-05

 Cycle  34  Pass 1  IDiag  1:
 E= -144.803633475334     Delta-E=       -0.000000024824 Rises=F Damp=F
 DIIS: error= 4.95D-05 at cycle  34 NSaved=  11.
 NSaved=11 IEnMin=11 EnMin= -144.803633475334     IErMin=11 ErrMin= 4.95D-05
 ErrMax= 4.95D-05  0.00D+00 EMaxC= 1.00D-01 BMatC= 1.14D-07 BMatP= 1.22D-07
 IDIUse=1 WtCom= 1.00D+00 WtEn= 0.00D+00
 Large coefficients: NSaved= 11 BigCof=   14.61 CofMax=   10.00 Det=-3.79D-13
 Inversion failed.  Reducing to 10 matrices.
 Large coefficients: NSaved= 10 BigCof=   43.52 CofMax=   10.00 Det=-6.02D-13
 Inversion failed.  Reducing to  9 matrices.
 Large coefficients: NSaved=  9 BigCof=   40.02 CofMax=   10.00 Det=-6.03D-13
 Inversion failed.  Reducing to  8 matrices.
 Large coefficients: NSaved=  8 BigCof=   38.69 CofMax=   10.00 Det=-6.11D-13
 Inversion failed.  Reducing to  7 matrices.
 Large coefficients: NSaved=  7 BigCof=   54.52 CofMax=   10.00 Det=-6.52D-13
 Inversion failed.  Reducing to  6 matrices.
 Large coefficients: NSaved=  6 BigCof=   52.25 CofMax=   10.00 Det=-6.58D-13
 Inversion failed.  Reducing to  5 matrices.
 Large coefficients: NSaved=  5 BigCof=   56.96 CofMax=   10.00 Det=-6.71D-13
 Inversion failed.  Reducing to  4 matrices.
 Large coefficients: NSaved=  4 BigCof=   56.96 CofMax=   10.00 Det=-6.76D-13
 Inversion failed.  Reducing to  3 matrices.
 Large coefficients: NSaved=  3 BigCof=   68.00 CofMax=   10.00 Det=-1.15D-12
 Inversion failed.  Reducing to  2 matrices.
 Large coefficients: NSaved=  2 BigCof=   26.71 CofMax=   10.00 Det=-1.60D-10
 Coeff-Com: -0.257D+02 0.267D+02
 Coeff:     -0.257D+02 0.267D+02
 Gap=     0.006 Goal=   None    Shift=    0.200
 RMSDP=7.70D-06 MaxDP=7.73D-04 DE=-2.48D-08 OVMax= 2.93D-04

 Cycle  35  Pass 1  IDiag  1:
 E= -144.803633536000     Delta-E=       -0.000000060665 Rises=F Damp=F
 DIIS: error= 4.58D-05 at cycle  35 NSaved=   3.
 NSaved= 3 IEnMin= 3 EnMin= -144.803633536000     IErMin= 3 ErrMin= 4.58D-05
 ErrMax= 4.58D-05  0.00D+00 EMaxC= 1.00D-01 BMatC= 9.33D-08 BMatP= 1.14D-07
 IDIUse=1 WtCom= 1.00D+00 WtEn= 0.00D+00
 Large coefficients: NSaved=  3 BigCof=   24.77 CofMax=   10.00 Det=-1.48D-10
 Inversion failed.  Reducing to  2 matrices.
 Coeff-Com: -0.130D+00 0.113D+01
 Coeff:     -0.130D+00 0.113D+01
 Gap=     0.006 Goal=   None    Shift=    0.200
 RMSDP=1.06D-05 MaxDP=1.15D-03 DE=-6.07D-08 OVMax= 1.31D-03

 Cycle  36  Pass 1  IDiag  1:
 E= -144.803633727530     Delta-E=       -0.000000191530 Rises=F Damp=F
 DIIS: error= 2.78D-05 at cycle  36 NSaved=   3.
 NSaved= 3 IEnMin= 3 EnMin= -144.803633727530     IErMin= 3 ErrMin= 2.78D-05
 ErrMax= 2.78D-05  0.00D+00 EMaxC= 1.00D-01 BMatC= 5.06D-08 BMatP= 9.33D-08
 IDIUse=1 WtCom= 1.00D+00 WtEn= 0.00D+00
 Coeff-Com: -0.605D-01 0.477D+00 0.584D+00
 Coeff:     -0.605D-01 0.477D+00 0.584D+00
 Gap=     0.006 Goal=   None    Shift=    0.200
 RMSDP=2.24D-06 MaxDP=2.33D-04 DE=-1.92D-07 OVMax= 2.62D-04

 Cycle  37  Pass 1  IDiag  1:
 E= -144.803633723904     Delta-E=        0.000000003626 Rises=F Damp=F
 DIIS: error= 2.74D-05 at cycle  37 NSaved=   4.
 NSaved= 4 IEnMin= 3 EnMin= -144.803633727530     IErMin= 4 ErrMin= 2.74D-05
 ErrMax= 2.74D-05  0.00D+00 EMaxC= 1.00D-01 BMatC= 3.29D-08 BMatP= 5.06D-08
 IDIUse=1 WtCom= 1.00D+00 WtEn= 0.00D+00
 Coeff-Com:  0.121D-01 0.355D+00 0.155D+00 0.479D+00
 Coeff:      0.121D-01 0.355D+00 0.155D+00 0.479D+00
 Gap=     0.006 Goal=   None    Shift=    0.200
 RMSDP=1.68D-06 MaxDP=1.79D-04 DE= 3.63D-09 OVMax= 1.28D-04

 Cycle  38  Pass 1  IDiag  1:
 E= -144.803633732211     Delta-E=       -0.000000008307 Rises=F Damp=F
 DIIS: error= 2.42D-05 at cycle  38 NSaved=   5.
 NSaved= 5 IEnMin= 5 EnMin= -144.803633732211     IErMin= 5 ErrMin= 2.42D-05
 ErrMax= 2.42D-05  0.00D+00 EMaxC= 1.00D-01 BMatC= 2.95D-08 BMatP= 3.29D-08
 IDIUse=1 WtCom= 1.00D+00 WtEn= 0.00D+00
 Coeff-Com:  0.102D+00 0.254D+00-0.305D-01 0.342D-01 0.641D+00
 Coeff:      0.102D+00 0.254D+00-0.305D-01 0.342D-01 0.641D+00
 Gap=     0.006 Goal=   None    Shift=    0.200
 RMSDP=8.42D-07 MaxDP=8.48D-05 DE=-8.31D-09 OVMax= 4.48D-05

 Cycle  39  Pass 1  IDiag  1:
 E= -144.803633736279     Delta-E=       -0.000000004068 Rises=F Damp=F
 DIIS: error= 2.26D-05 at cycle  39 NSaved=   6.
 NSaved= 6 IEnMin= 6 EnMin= -144.803633736279     IErMin= 6 ErrMin= 2.26D-05
 ErrMax= 2.26D-05  0.00D+00 EMaxC= 1.00D-01 BMatC= 2.61D-08 BMatP= 2.95D-08
 IDIUse=1 WtCom= 1.00D+00 WtEn= 0.00D+00
 Coeff-Com:  0.181D+00 0.152D+00-0.305D-01-0.109D+00-0.766D-01 0.882D+00
 Coeff:      0.181D+00 0.152D+00-0.305D-01-0.109D+00-0.766D-01 0.882D+00
 Gap=     0.006 Goal=   None    Shift=    0.200
 RMSDP=5.80D-07 MaxDP=6.43D-05 DE=-4.07D-09 OVMax= 2.81D-05

 Cycle  40  Pass 1  IDiag  1:
 E= -144.803633742906     Delta-E=       -0.000000006627 Rises=F Damp=F
 DIIS: error= 2.14D-05 at cycle  40 NSaved=   7.
 NSaved= 7 IEnMin= 7 EnMin= -144.803633742906     IErMin= 7 ErrMin= 2.14D-05
 ErrMax= 2.14D-05  0.00D+00 EMaxC= 1.00D-01 BMatC= 2.29D-08 BMatP= 2.61D-08
 IDIUse=1 WtCom= 1.00D+00 WtEn= 0.00D+00
 Coeff-Com:  0.205D+00 0.114D+00-0.247D-01-0.888D-01 0.131D+00-0.130D+00
 Coeff-Com:  0.793D+00
 Coeff:      0.205D+00 0.114D+00-0.247D-01-0.888D-01 0.131D+00-0.130D+00
 Coeff:      0.793D+00
 Gap=     0.006 Goal=   None    Shift=    0.200
 RMSDP=4.01D-07 MaxDP=3.17D-05 DE=-6.63D-09 OVMax= 2.22D-05

 Cycle  41  Pass 1  IDiag  1:
 E= -144.803633748162     Delta-E=       -0.000000005256 Rises=F Damp=F
 DIIS: error= 2.08D-05 at cycle  41 NSaved=   8.
 NSaved= 8 IEnMin= 8 EnMin= -144.803633748162     IErMin= 8 ErrMin= 2.08D-05
 ErrMax= 2.08D-05  0.00D+00 EMaxC= 1.00D-01 BMatC= 2.10D-08 BMatP= 2.29D-08
 IDIUse=1 WtCom= 1.00D+00 WtEn= 0.00D+00
 Coeff-Com:  0.243D+00 0.504D-01-0.238D-01-0.834D-02 0.330D+00-0.596D+00
 Coeff-Com: -0.573D+00 0.158D+01
 Coeff:      0.243D+00 0.504D-01-0.238D-01-0.834D-02 0.330D+00-0.596D+00
 Coeff:     -0.573D+00 0.158D+01
 Gap=     0.006 Goal=   None    Shift=    0.200
 RMSDP=2.90D-07 MaxDP=2.76D-05 DE=-5.26D-09 OVMax= 1.77D-05

 Cycle  42  Pass 1  IDiag  1:
 E= -144.803633752440     Delta-E=       -0.000000004277 Rises=F Damp=F
 DIIS: error= 2.01D-05 at cycle  42 NSaved=   9.
 NSaved= 9 IEnMin= 9 EnMin= -144.803633752440     IErMin= 9 ErrMin= 2.01D-05
 ErrMax= 2.01D-05  0.00D+00 EMaxC= 1.00D-01 BMatC= 1.95D-08 BMatP= 2.10D-08
 IDIUse=1 WtCom= 1.00D+00 WtEn= 0.00D+00
 Coeff-Com:  0.247D+00 0.422D-01-0.210D-01-0.699D-02 0.310D+00-0.579D+00
 Coeff-Com: -0.283D+00 0.666D+00 0.625D+00
 Coeff:      0.247D+00 0.422D-01-0.210D-01-0.699D-02 0.310D+00-0.579D+00
 Coeff:     -0.283D+00 0.666D+00 0.625D+00
 Gap=     0.006 Goal=   None    Shift=    0.200
 RMSDP=1.88D-07 MaxDP=1.88D-05 DE=-4.28D-09 OVMax= 1.58D-05

 Cycle  43  Pass 1  IDiag  1:
 E= -144.803633756084     Delta-E=       -0.000000003644 Rises=F Damp=F
 DIIS: error= 1.95D-05 at cycle  43 NSaved=  10.
 NSaved=10 IEnMin=10 EnMin= -144.803633756084     IErMin=10 ErrMin= 1.95D-05
 ErrMax= 1.95D-05  0.00D+00 EMaxC= 1.00D-01 BMatC= 1.82D-08 BMatP= 1.95D-08
 IDIUse=1 WtCom= 1.00D+00 WtEn= 0.00D+00
 Coeff-Com:  0.252D+00 0.272D-01-0.112D-01-0.166D-01 0.177D+00-0.409D+00
 Coeff-Com:  0.514D+00-0.107D+00-0.143D+01 0.200D+01
 Coeff:      0.252D+00 0.272D-01-0.112D-01-0.166D-01 0.177D+00-0.409D+00
 Coeff:      0.514D+00-0.107D+00-0.143D+01 0.200D+01
 Gap=     0.006 Goal=   None    Shift=    0.200
 RMSDP=1.41D-07 MaxDP=1.46D-05 DE=-3.64D-09 OVMax= 1.42D-05

 Cycle  44  Pass 1  IDiag  1:
 E= -144.803633759306     Delta-E=       -0.000000003222 Rises=F Damp=F
 DIIS: error= 1.89D-05 at cycle  44 NSaved=  11.
 NSaved=11 IEnMin=11 EnMin= -144.803633759306     IErMin=11 ErrMin= 1.89D-05
 ErrMax= 1.89D-05  0.00D+00 EMaxC= 1.00D-01 BMatC= 1.71D-08 BMatP= 1.82D-08
 IDIUse=1 WtCom= 1.00D+00 WtEn= 0.00D+00
 Coeff-Com:  0.246D+00 0.449D-01-0.184D-01-0.201D-01 0.206D+00-0.414D+00
 Coeff-Com:  0.553D+00-0.311D+00-0.193D+01 0.454D+01-0.190D+01
 Coeff:      0.246D+00 0.449D-01-0.184D-01-0.201D-01 0.206D+00-0.414D+00
 Coeff:      0.553D+00-0.311D+00-0.193D+01 0.454D+01-0.190D+01
 Gap=     0.006 Goal=   None    Shift=    0.200
 RMSDP=9.97D-08 MaxDP=1.06D-05 DE=-3.22D-09 OVMax= 1.33D-05

 Cycle  45  Pass 1  IDiag  1:
 E= -144.803633762266     Delta-E=       -0.000000002960 Rises=F Damp=F
 DIIS: error= 1.84D-05 at cycle  45 NSaved=  12.
 NSaved=12 IEnMin=12 EnMin= -144.803633762266     IErMin=12 ErrMin= 1.84D-05
 ErrMax= 1.84D-05  0.00D+00 EMaxC= 1.00D-01 BMatC= 1.61D-08 BMatP= 1.71D-08
 IDIUse=1 WtCom= 1.00D+00 WtEn= 0.00D+00
 Coeff-Com:  0.249D+00 0.298D-01-0.142D-01-0.169D-01 0.123D+00-0.280D+00
 Coeff-Com:  0.817D+00-0.882D+00-0.217D+01 0.620D+01-0.521D+01 0.216D+01
 Coeff:      0.249D+00 0.298D-01-0.142D-01-0.169D-01 0.123D+00-0.280D+00
 Coeff:      0.817D+00-0.882D+00-0.217D+01 0.620D+01-0.521D+01 0.216D+01
 Gap=     0.006 Goal=   None    Shift=    0.200
 RMSDP=1.01D-07 MaxDP=1.08D-05 DE=-2.96D-09 OVMax= 1.27D-05

 Cycle  46  Pass 1  IDiag  1:
 E= -144.803633765011     Delta-E=       -0.000000002745 Rises=F Damp=F
 DIIS: error= 1.78D-05 at cycle  46 NSaved=  13.
 NSaved=13 IEnMin=13 EnMin= -144.803633765011     IErMin=13 ErrMin= 1.78D-05
 ErrMax= 1.78D-05  0.00D+00 EMaxC= 1.00D-01 BMatC= 1.52D-08 BMatP= 1.61D-08
 IDIUse=1 WtCom= 1.00D+00 WtEn= 0.00D+00
 Coeff-Com:  0.248D+00 0.340D-01-0.156D-01-0.179D-01 0.133D+00-0.292D+00
 Coeff-Com:  0.802D+00-0.839D+00-0.222D+01 0.636D+01-0.531D+01 0.230D+01
 Coeff-Com: -0.185D+00
 Coeff:      0.248D+00 0.340D-01-0.156D-01-0.179D-01 0.133D+00-0.292D+00
 Coeff:      0.802D+00-0.839D+00-0.222D+01 0.636D+01-0.531D+01 0.230D+01
 Coeff:     -0.185D+00
 Gap=     0.006 Goal=   None    Shift=    0.200
 RMSDP=7.76D-08 MaxDP=8.93D-06 DE=-2.75D-09 OVMax= 1.22D-05

 Cycle  47  Pass 1  IDiag  1:
 E= -144.803633767601     Delta-E=       -0.000000002590 Rises=F Damp=F
 DIIS: error= 1.73D-05 at cycle  47 NSaved=  14.
 NSaved=14 IEnMin=14 EnMin= -144.803633767601     IErMin=14 ErrMin= 1.73D-05
 ErrMax= 1.73D-05  0.00D+00 EMaxC= 1.00D-01 BMatC= 1.43D-08 BMatP= 1.52D-08
 IDIUse=1 WtCom= 1.00D+00 WtEn= 0.00D+00
 Coeff-Com:  0.238D+00 0.508D-02-0.786D-02-0.450D-02 0.246D-01-0.771D-01
 Coeff-Com:  0.407D+00-0.613D+00-0.439D+00 0.393D+01-0.641D+01 0.654D+01
 Coeff-Com: -0.871D+01 0.611D+01
 Coeff:      0.238D+00 0.508D-02-0.786D-02-0.450D-02 0.246D-01-0.771D-01
 Coeff:      0.407D+00-0.613D+00-0.439D+00 0.393D+01-0.641D+01 0.654D+01
 Coeff:     -0.871D+01 0.611D+01
 Gap=     0.006 Goal=   None    Shift=    0.200
 RMSDP=7.34D-08 MaxDP=6.69D-06 DE=-2.59D-09 OVMax= 1.17D-05

 Cycle  48  Pass 1  IDiag  1:
 E= -144.803633770022     Delta-E=       -0.000000002421 Rises=F Damp=F
 DIIS: error= 1.68D-05 at cycle  48 NSaved=  15.
 NSaved=15 IEnMin=15 EnMin= -144.803633770022     IErMin=15 ErrMin= 1.68D-05
 ErrMax= 1.68D-05  0.00D+00 EMaxC= 1.00D-01 BMatC= 1.35D-08 BMatP= 1.43D-08
 IDIUse=1 WtCom= 1.00D+00 WtEn= 0.00D+00
 Coeff-Com:  0.237D+00 0.323D-01-0.176D-01-0.803D-02 0.123D+00-0.241D+00
 Coeff-Com:  0.362D+00-0.376D+00-0.103D+01 0.490D+01-0.584D+01 0.643D+01
 Coeff-Com: -0.952D+01 0.676D+01-0.812D+00
 Coeff:      0.237D+00 0.323D-01-0.176D-01-0.803D-02 0.123D+00-0.241D+00
 Coeff:      0.362D+00-0.376D+00-0.103D+01 0.490D+01-0.584D+01 0.643D+01
 Coeff:     -0.952D+01 0.676D+01-0.812D+00
 Gap=     0.006 Goal=   None    Shift=    0.200
 RMSDP=3.87D-08 MaxDP=4.58D-06 DE=-2.42D-09 OVMax= 1.12D-05

 Cycle  49  Pass 1  IDiag  1:
 E= -144.803633772269     Delta-E=       -0.000000002247 Rises=F Damp=F
 DIIS: error= 1.63D-05 at cycle  49 NSaved=  16.
 NSaved=16 IEnMin=16 EnMin= -144.803633772269     IErMin=16 ErrMin= 1.63D-05
 ErrMax= 1.63D-05  0.00D+00 EMaxC= 1.00D-01 BMatC= 1.27D-08 BMatP= 1.35D-08
 IDIUse=1 WtCom= 1.00D+00 WtEn= 0.00D+00
 Large coefficients: NSaved= 16 BigCof=    0.00 CofMax=   10.00 Det=-4.19D-15
 Inversion failed.  Reducing to 15 matrices.
 Large coefficients: NSaved= 15 BigCof=   68.62 CofMax=   10.00 Det=-1.36D-14
 Inversion failed.  Reducing to 14 matrices.
 Large coefficients: NSaved= 14 BigCof=   94.97 CofMax=   10.00 Det=-1.11D-14
 Inversion failed.  Reducing to 13 matrices.
 Large coefficients: NSaved= 13 BigCof=   90.55 CofMax=   10.00 Det=-1.45D-14
 Inversion failed.  Reducing to 12 matrices.
 Large coefficients: NSaved= 12 BigCof=   90.06 CofMax=   10.00 Det=-1.74D-14
 Inversion failed.  Reducing to 11 matrices.
 Large coefficients: NSaved= 11 BigCof=   87.39 CofMax=   10.00 Det=-3.37D-14
 Inversion failed.  Reducing to 10 matrices.
 Large coefficients: NSaved= 10 BigCof=   99.30 CofMax=   10.00 Det=-1.99D-14
 Inversion failed.  Reducing to  9 matrices.
 Large coefficients: NSaved=  9 BigCof=   92.67 CofMax=   10.00 Det=-2.02D-14
 Inversion failed.  Reducing to  8 matrices.
 Large coefficients: NSaved=  8 BigCof=   86.86 CofMax=   10.00 Det=-2.08D-14
 Inversion failed.  Reducing to  7 matrices.
 Large coefficients: NSaved=  7 BigCof=   83.76 CofMax=   10.00 Det=-4.01D-14
 Inversion failed.  Reducing to  6 matrices.
 Large coefficients: NSaved=  6 BigCof=  110.12 CofMax=   10.00 Det=-2.58D-14
 Inversion failed.  Reducing to  5 matrices.
 Large coefficients: NSaved=  5 BigCof=  128.21 CofMax=   10.00 Det=-3.00D-14
 Inversion failed.  Reducing to  4 matrices.
 Large coefficients: NSaved=  4 BigCof=   20.63 CofMax=   10.00 Det=-1.54D-13
 Inversion failed.  Reducing to  3 matrices.
 Large coefficients: NSaved=  3 BigCof=   27.53 CofMax=   10.00 Det=-1.56D-13
 Inversion failed.  Reducing to  2 matrices.
 Large coefficients: NSaved=  2 BigCof=   32.18 CofMax=   10.00 Det=-1.20D-11
 Coeff-Com: -0.312D+02 0.322D+02
 Coeff:     -0.312D+02 0.322D+02
 Gap=     0.006 Goal=   None    Shift=    0.200
 RMSDP=1.60D-06 MaxDP=1.76D-04 DE=-2.25D-09 OVMax= 1.00D-04

 Cycle  50  Pass 1  IDiag  1:
 E= -144.803633779298     Delta-E=       -0.000000007029 Rises=F Damp=F
 DIIS: error= 1.47D-05 at cycle  50 NSaved=   3.
 NSaved= 3 IEnMin= 3 EnMin= -144.803633779298     IErMin= 3 ErrMin= 1.47D-05
 ErrMax= 1.47D-05  0.00D+00 EMaxC= 1.00D-01 BMatC= 1.04D-08 BMatP= 1.27D-08
 IDIUse=1 WtCom= 1.00D+00 WtEn= 0.00D+00
 Large coefficients: NSaved=  3 BigCof=   29.90 CofMax=   10.00 Det=-1.13D-11
 Inversion failed.  Reducing to  2 matrices.
 Coeff-Com: -0.160D+00 0.116D+01
 Coeff:     -0.160D+00 0.116D+01
 Gap=     0.006 Goal=   None    Shift=    0.200
 RMSDP=2.68D-06 MaxDP=3.13D-04 DE=-7.03D-09 OVMax= 4.43D-04

 Cycle  51  Pass 1  IDiag  1:
 E= -144.803633799584     Delta-E=       -0.000000020285 Rises=F Damp=F
 DIIS: error= 9.18D-06 at cycle  51 NSaved=   3.
 NSaved= 3 IEnMin= 3 EnMin= -144.803633799584     IErMin= 3 ErrMin= 9.18D-06
 ErrMax= 9.18D-06  0.00D+00 EMaxC= 1.00D-01 BMatC= 5.00D-09 BMatP= 1.04D-08
 IDIUse=1 WtCom= 1.00D+00 WtEn= 0.00D+00
 Coeff-Com: -0.538D-01 0.457D+00 0.597D+00
 Coeff:     -0.538D-01 0.457D+00 0.597D+00
 Gap=     0.006 Goal=   None    Shift=    0.200
 RMSDP=7.56D-07 MaxDP=7.43D-05 DE=-2.03D-08 OVMax= 8.24D-05

 Cycle  52  Pass 1  IDiag  1:
 E= -144.803633800699     Delta-E=       -0.000000001115 Rises=F Damp=F
 DIIS: error= 8.75D-06 at cycle  52 NSaved=   4.
 NSaved= 4 IEnMin= 4 EnMin= -144.803633800699     IErMin= 4 ErrMin= 8.75D-06
 ErrMax= 8.75D-06  0.00D+00 EMaxC= 1.00D-01 BMatC= 3.45D-09 BMatP= 5.00D-09
 IDIUse=1 WtCom= 1.00D+00 WtEn= 0.00D+00
 Coeff-Com: -0.996D-03 0.365D+00 0.101D+00 0.535D+00
 Coeff:     -0.996D-03 0.365D+00 0.101D+00 0.535D+00
 Gap=     0.006 Goal=   None    Shift=    0.200
 RMSDP=2.85D-07 MaxDP=2.58D-05 DE=-1.11D-09 OVMax= 3.84D-05

 Cycle  53  Pass 1  IDiag  1:
 E= -144.803633801722     Delta-E=       -0.000000001023 Rises=F Damp=F
 DIIS: error= 7.63D-06 at cycle  53 NSaved=   5.
 NSaved= 5 IEnMin= 5 EnMin= -144.803633801722     IErMin= 5 ErrMin= 7.63D-06
 ErrMax= 7.63D-06  0.00D+00 EMaxC= 1.00D-01 BMatC= 3.05D-09 BMatP= 3.45D-09
 IDIUse=1 WtCom= 1.00D+00 WtEn= 0.00D+00
 Coeff-Com:  0.115D+00 0.230D+00-0.773D-01 0.989D-01 0.634D+00
 Coeff:      0.115D+00 0.230D+00-0.773D-01 0.989D-01 0.634D+00
 Gap=     0.006 Goal=   None    Shift=    0.200
 RMSDP=2.63D-07 MaxDP=2.85D-05 DE=-1.02D-09 OVMax= 1.53D-05

 Cycle  54  Pass 1  IDiag  1:
 E= -144.803633802216     Delta-E=       -0.000000000495 Rises=F Damp=F
 DIIS: error= 7.15D-06 at cycle  54 NSaved=   6.
 NSaved= 6 IEnMin= 6 EnMin= -144.803633802216     IErMin= 6 ErrMin= 7.15D-06
 ErrMax= 7.15D-06  0.00D+00 EMaxC= 1.00D-01 BMatC= 2.66D-09 BMatP= 3.05D-09
 IDIUse=1 WtCom= 1.00D+00 WtEn= 0.00D+00
 Coeff-Com:  0.203D+00 0.116D+00-0.593D-01-0.113D+00-0.313D-01 0.884D+00
 Coeff:      0.203D+00 0.116D+00-0.593D-01-0.113D+00-0.313D-01 0.884D+00
 Gap=     0.006 Goal=   None    Shift=    0.200
 RMSDP=1.55D-07 MaxDP=1.56D-05 DE=-4.95D-10 OVMax= 9.81D-06

 Cycle  55  Pass 1  IDiag  1:
 E= -144.803633802944     Delta-E=       -0.000000000728 Rises=F Damp=F
 DIIS: error= 6.64D-06 at cycle  55 NSaved=   7.
 NSaved= 7 IEnMin= 7 EnMin= -144.803633802944     IErMin= 7 ErrMin= 6.64D-06
 ErrMax= 6.64D-06  0.00D+00 EMaxC= 1.00D-01 BMatC= 2.32D-09 BMatP= 2.66D-09
 IDIUse=1 WtCom= 1.00D+00 WtEn= 0.00D+00
 Coeff-Com:  0.218D+00 0.907D-01-0.555D-01-0.920D-01 0.120D+00 0.106D+00
 Coeff-Com:  0.613D+00
 Coeff:      0.218D+00 0.907D-01-0.555D-01-0.920D-01 0.120D+00 0.106D+00
 Coeff:      0.613D+00
 Gap=     0.006 Goal=   None    Shift=    0.200
 RMSDP=8.81D-08 MaxDP=6.44D-06 DE=-7.28D-10 OVMax= 7.59D-06

 Cycle  56  Pass 1  IDiag  1:
 E= -144.803633803506     Delta-E=       -0.000000000562 Rises=F Damp=F
 DIIS: error= 6.37D-06 at cycle  56 NSaved=   8.
 NSaved= 8 IEnMin= 8 EnMin= -144.803633803506     IErMin= 8 ErrMin= 6.37D-06
 ErrMax= 6.37D-06  0.00D+00 EMaxC= 1.00D-01 BMatC= 2.11D-09 BMatP= 2.32D-09
 IDIUse=1 WtCom= 1.00D+00 WtEn= 0.00D+00
 Coeff-Com:  0.259D+00 0.185D-01-0.443D-01 0.122D-01 0.264D+00-0.289D+00
 Coeff-Com: -0.113D+01 0.191D+01
 Coeff:      0.259D+00 0.185D-01-0.443D-01 0.122D-01 0.264D+00-0.289D+00
 Coeff:     -0.113D+01 0.191D+01
 Gap=     0.006 Goal=   None    Shift=    0.200
 RMSDP=5.22D-08 MaxDP=4.70D-06 DE=-5.62D-10 OVMax= 5.84D-06

 Cycle  57  Pass 1  IDiag  1:
 E= -144.803633803949     Delta-E=       -0.000000000443 Rises=F Damp=F
 DIIS: error= 6.17D-06 at cycle  57 NSaved=   9.
 NSaved= 9 IEnMin= 9 EnMin= -144.803633803949     IErMin= 9 ErrMin= 6.17D-06
 ErrMax= 6.17D-06  0.00D+00 EMaxC= 1.00D-01 BMatC= 1.95D-09 BMatP= 2.11D-09
 IDIUse=1 WtCom= 1.00D+00 WtEn= 0.00D+00
 Coeff-Com:  0.261D+00 0.157D-01-0.429D-01 0.136D-01 0.262D+00-0.297D+00
 Coeff-Com: -0.107D+01 0.171D+01 0.150D+00
 Coeff:      0.261D+00 0.157D-01-0.429D-01 0.136D-01 0.262D+00-0.297D+00
 Coeff:     -0.107D+01 0.171D+01 0.150D+00
 Gap=     0.006 Goal=   None    Shift=    0.200
 RMSDP=4.15D-08 MaxDP=4.27D-06 DE=-4.43D-10 OVMax= 5.06D-06

 Cycle  58  Pass 1  IDiag  1:
 E= -144.803633804325     Delta-E=       -0.000000000376 Rises=F Damp=F
 DIIS: error= 5.98D-06 at cycle  58 NSaved=  10.
 NSaved=10 IEnMin=10 EnMin= -144.803633804325     IErMin=10 ErrMin= 5.98D-06
 ErrMax= 5.98D-06  0.00D+00 EMaxC= 1.00D-01 BMatC= 1.82D-09 BMatP= 1.95D-09
 IDIUse=1 WtCom= 1.00D+00 WtEn= 0.00D+00
 Coeff-Com:  0.267D+00-0.643D-02-0.234D-01 0.317D-02 0.152D+00-0.214D+00
 Coeff-Com: -0.289D+00 0.125D+01-0.272D+01 0.257D+01
 Coeff:      0.267D+00-0.643D-02-0.234D-01 0.317D-02 0.152D+00-0.214D+00
 Coeff:     -0.289D+00 0.125D+01-0.272D+01 0.257D+01
 Gap=     0.006 Goal=   None    Shift=    0.200
 RMSDP=3.33D-08 MaxDP=3.61D-06 DE=-3.76D-10 OVMax= 4.54D-06

 Cycle  59  Pass 1  IDiag  1:
 E= -144.803633804656     Delta-E=       -0.000000000331 Rises=F Damp=F
 DIIS: error= 5.80D-06 at cycle  59 NSaved=  11.
 NSaved=11 IEnMin=11 EnMin= -144.803633804656     IErMin=11 ErrMin= 5.80D-06
 ErrMax= 5.80D-06  0.00D+00 EMaxC= 1.00D-01 BMatC= 1.70D-09 BMatP= 1.82D-09
 IDIUse=1 WtCom= 1.00D+00 WtEn= 0.00D+00
 Coeff-Com:  0.267D+00-0.772D-02-0.212D-01 0.621D-03 0.140D+00-0.199D+00
 Coeff-Com: -0.211D+00 0.113D+01-0.259D+01 0.218D+01 0.312D+00
 Coeff:      0.267D+00-0.772D-02-0.212D-01 0.621D-03 0.140D+00-0.199D+00
 Coeff:     -0.211D+00 0.113D+01-0.259D+01 0.218D+01 0.312D+00
 Gap=     0.006 Goal=   None    Shift=    0.200
 RMSDP=3.02D-08 MaxDP=3.21D-06 DE=-3.31D-10 OVMax= 4.21D-06

 Cycle  60  Pass 1  IDiag  1:
 E= -144.803633804957     Delta-E=       -0.000000000301 Rises=F Damp=F
 DIIS: error= 5.63D-06 at cycle  60 NSaved=  12.
 NSaved=12 IEnMin=12 EnMin= -144.803633804957     IErMin=12 ErrMin= 5.63D-06
 ErrMax= 5.63D-06  0.00D+00 EMaxC= 1.00D-01 BMatC= 1.59D-09 BMatP= 1.70D-09
 IDIUse=1 WtCom= 1.00D+00 WtEn= 0.00D+00
 Coeff-Com:  0.258D+00-0.192D-01-0.700D-02-0.127D-01 0.104D-01 0.310D-01
 Coeff-Com:  0.292D+00-0.613D+00-0.250D+00 0.396D+01-0.895D+01 0.630D+01
 Coeff:      0.258D+00-0.192D-01-0.700D-02-0.127D-01 0.104D-01 0.310D-01
 Coeff:      0.292D+00-0.613D+00-0.250D+00 0.396D+01-0.895D+01 0.630D+01
 Gap=     0.006 Goal=   None    Shift=    0.200
 RMSDP=2.18D-08 MaxDP=2.24D-06 DE=-3.01D-10 OVMax= 3.90D-06

 Cycle  61  Pass 1  IDiag  1:
 E= -144.803633805231     Delta-E=       -0.000000000274 Rises=F Damp=F
 DIIS: error= 5.47D-06 at cycle  61 NSaved=  13.
 NSaved=13 IEnMin=13 EnMin= -144.803633805231     IErMin=13 ErrMin= 5.47D-06
 ErrMax= 5.47D-06  0.00D+00 EMaxC= 1.00D-01 BMatC= 1.50D-09 BMatP= 1.59D-09
 IDIUse=1 WtCom= 1.00D+00 WtEn= 0.00D+00
 Coeff-Com:  0.258D+00-0.179D-01-0.817D-02-0.120D-01 0.170D-01 0.234D-01
 Coeff-Com:  0.262D+00-0.561D+00-0.258D+00 0.391D+01-0.882D+01 0.630D+01
 Coeff-Com: -0.921D-01
 Coeff:      0.258D+00-0.179D-01-0.817D-02-0.120D-01 0.170D-01 0.234D-01
 Coeff:      0.262D+00-0.561D+00-0.258D+00 0.391D+01-0.882D+01 0.630D+01
 Coeff:     -0.921D-01
 Gap=     0.006 Goal=   None    Shift=    0.200
 RMSDP=1.71D-08 MaxDP=2.07D-06 DE=-2.74D-10 OVMax= 3.72D-06

 Cycle  62  Pass 1  IDiag  1:
 E= -144.803633805486     Delta-E=       -0.000000000255 Rises=F Damp=F
 DIIS: error= 5.31D-06 at cycle  62 NSaved=  14.
 NSaved=14 IEnMin=14 EnMin= -144.803633805486     IErMin=14 ErrMin= 5.31D-06
 ErrMax= 5.31D-06  0.00D+00 EMaxC= 1.00D-01 BMatC= 1.41D-09 BMatP= 1.50D-09
 IDIUse=1 WtCom= 1.00D+00 WtEn= 0.00D+00
 Coeff-Com:  0.272D+00-0.234D-01-0.605D-02-0.109D-01 0.347D-01-0.536D-01
 Coeff-Com:  0.403D+00-0.463D+00-0.105D+01 0.345D+01-0.731D+01 0.500D+01
 Coeff-Com:  0.407D+01-0.331D+01
 Coeff:      0.272D+00-0.234D-01-0.605D-02-0.109D-01 0.347D-01-0.536D-01
 Coeff:      0.403D+00-0.463D+00-0.105D+01 0.345D+01-0.731D+01 0.500D+01
 Coeff:      0.407D+01-0.331D+01
 Gap=     0.006 Goal=   None    Shift=    0.200
 RMSDP=1.80D-08 MaxDP=1.80D-06 DE=-2.55D-10 OVMax= 3.57D-06

 Cycle  63  Pass 1  IDiag  1:
 E= -144.803633805724     Delta-E=       -0.000000000238 Rises=F Damp=F
 DIIS: error= 5.16D-06 at cycle  63 NSaved=  15.
 NSaved=15 IEnMin=15 EnMin= -144.803633805724     IErMin=15 ErrMin= 5.16D-06
 ErrMax= 5.16D-06  0.00D+00 EMaxC= 1.00D-01 BMatC= 1.33D-09 BMatP= 1.41D-09
 IDIUse=1 WtCom= 1.00D+00 WtEn= 0.00D+00
 Coeff-Com:  0.272D+00-0.298D-01-0.857D-03-0.133D-01-0.233D-02 0.155D-02
 Coeff-Com:  0.511D+00-0.808D+00-0.641D+00 0.405D+01-0.953D+01 0.601D+01
 Coeff-Com:  0.344D+01-0.971D+00-0.129D+01
 Coeff:      0.272D+00-0.298D-01-0.857D-03-0.133D-01-0.233D-02 0.155D-02
 Coeff:      0.511D+00-0.808D+00-0.641D+00 0.405D+01-0.953D+01 0.601D+01
 Coeff:      0.344D+01-0.971D+00-0.129D+01
 Gap=     0.006 Goal=   None    Shift=    0.200
 RMSDP=1.56D-08 MaxDP=1.62D-06 DE=-2.38D-10 OVMax= 3.44D-06

 Cycle  64  Pass 1  IDiag  1:
 E= -144.803633805947     Delta-E=       -0.000000000223 Rises=F Damp=F
 DIIS: error= 5.01D-06 at cycle  64 NSaved=  16.
 NSaved=16 IEnMin=16 EnMin= -144.803633805947     IErMin=16 ErrMin= 5.01D-06
 ErrMax= 5.01D-06  0.00D+00 EMaxC= 1.00D-01 BMatC= 1.25D-09 BMatP= 1.33D-09
 IDIUse=1 WtCom= 1.00D+00 WtEn= 0.00D+00
 Large coefficients: NSaved= 16 BigCof=    0.00 CofMax=   10.00 Det=-3.14D-16
 Inversion failed.  Reducing to 15 matrices.
 Large coefficients: NSaved= 15 BigCof=   53.70 CofMax=   10.00 Det=-4.68D-16
 Inversion failed.  Reducing to 14 matrices.
 Large coefficients: NSaved= 14 BigCof=   65.26 CofMax=   10.00 Det=-6.96D-16
 Inversion failed.  Reducing to 13 matrices.
 Large coefficients: NSaved= 13 BigCof=   71.24 CofMax=   10.00 Det=-7.20D-16
 Inversion failed.  Reducing to 12 matrices.
 Large coefficients: NSaved= 12 BigCof=   72.73 CofMax=   10.00 Det=-7.25D-16
 Inversion failed.  Reducing to 11 matrices.
 Large coefficients: NSaved= 11 BigCof=   38.11 CofMax=   10.00 Det=-8.33D-16
 Inversion failed.  Reducing to 10 matrices.
 Large coefficients: NSaved= 10 BigCof=   33.73 CofMax=   10.00 Det=-8.46D-16
 Inversion failed.  Reducing to  9 matrices.
 Large coefficients: NSaved=  9 BigCof=   35.25 CofMax=   10.00 Det=-8.58D-16
 Inversion failed.  Reducing to  8 matrices.
 Large coefficients: NSaved=  8 BigCof=   34.07 CofMax=   10.00 Det=-8.66D-16
 Inversion failed.  Reducing to  7 matrices.
 Large coefficients: NSaved=  7 BigCof=   31.61 CofMax=   10.00 Det=-8.87D-16
 Inversion failed.  Reducing to  6 matrices.
 Large coefficients: NSaved=  6 BigCof=   32.88 CofMax=   10.00 Det=-9.17D-16
 Inversion failed.  Reducing to  5 matrices.
 Large coefficients: NSaved=  5 BigCof=   68.48 CofMax=   10.00 Det=-1.00D-15
 Inversion failed.  Reducing to  4 matrices.
 Large coefficients: NSaved=  4 BigCof=   64.78 CofMax=   10.00 Det=-2.63D-15
 Inversion failed.  Reducing to  3 matrices.
 Large coefficients: NSaved=  3 BigCof=   81.77 CofMax=   10.00 Det=-2.97D-15
 Inversion failed.  Reducing to  2 matrices.
 Large coefficients: NSaved=  2 BigCof=   32.74 CofMax=   10.00 Det=-1.19D-12
 Coeff-Com: -0.317D+02 0.327D+02
 Coeff:     -0.317D+02 0.327D+02
 Gap=     0.006 Goal=   None    Shift=    0.200
 RMSDP=4.26D-07 MaxDP=4.36D-05 DE=-2.23D-10 OVMax= 2.63D-05

 Cycle  65  Pass 1  IDiag  1:
 E= -144.803633806319     Delta-E=       -0.000000000372 Rises=F Damp=F
 DIIS: error= 4.49D-06 at cycle  65 NSaved=   3.
 NSaved= 3 IEnMin= 3 EnMin= -144.803633806319     IErMin= 3 ErrMin= 4.49D-06
 ErrMax= 4.49D-06  0.00D+00 EMaxC= 1.00D-01 BMatC= 1.12D-09 BMatP= 1.25D-09
 IDIUse=1 WtCom= 1.00D+00 WtEn= 0.00D+00
 Large coefficients: NSaved=  3 BigCof=   31.21 CofMax=   10.00 Det=-1.13D-12
 Inversion failed.  Reducing to  2 matrices.
 Coeff-Com: -0.625D-01 0.106D+01
 Coeff:     -0.625D-01 0.106D+01
 Gap=     0.006 Goal=   None    Shift=    0.200
 RMSDP=1.09D-06 MaxDP=1.13D-04 DE=-3.72D-10 OVMax= 1.51D-04

 Cycle  66  Pass 1  IDiag  1:
 E= -144.803633808307     Delta-E=       -0.000000001987 Rises=F Damp=F
 DIIS: error= 3.28D-06 at cycle  66 NSaved=   3.
 NSaved= 3 IEnMin= 3 EnMin= -144.803633808307     IErMin= 3 ErrMin= 3.28D-06
 ErrMax= 3.28D-06  0.00D+00 EMaxC= 1.00D-01 BMatC= 5.93D-10 BMatP= 1.12D-09
 IDIUse=1 WtCom= 1.00D+00 WtEn= 0.00D+00
 Coeff-Com: -0.493D-01 0.466D+00 0.583D+00
 Coeff:     -0.493D-01 0.466D+00 0.583D+00
 Gap=     0.006 Goal=   None    Shift=    0.200
 RMSDP=2.28D-07 MaxDP=2.33D-05 DE=-1.99D-09 OVMax= 2.49D-05

 Cycle  67  Pass 1  IDiag  1:
 E= -144.803633808413     Delta-E=       -0.000000000106 Rises=F Damp=F
 DIIS: error= 3.08D-06 at cycle  67 NSaved=   4.
 NSaved= 4 IEnMin= 4 EnMin= -144.803633808413     IErMin= 4 ErrMin= 3.08D-06
 ErrMax= 3.08D-06  0.00D+00 EMaxC= 1.00D-01 BMatC= 4.46D-10 BMatP= 5.93D-10
 IDIUse=1 WtCom= 1.00D+00 WtEn= 0.00D+00
 Coeff-Com: -0.354D-01 0.422D+00 0.953D-01 0.518D+00
 Coeff:     -0.354D-01 0.422D+00 0.953D-01 0.518D+00
 Gap=     0.006 Goal=   None    Shift=    0.200
 RMSDP=8.03D-08 MaxDP=6.55D-06 DE=-1.06D-10 OVMax= 1.19D-05

 Cycle  68  Pass 1  IDiag  1:
 E= -144.803633808531     Delta-E=       -0.000000000118 Rises=F Damp=F
 DIIS: error= 2.68D-06 at cycle  68 NSaved=   5.
 NSaved= 5 IEnMin= 5 EnMin= -144.803633808531     IErMin= 5 ErrMin= 2.68D-06
 ErrMax= 2.68D-06  0.00D+00 EMaxC= 1.00D-01 BMatC= 4.00D-10 BMatP= 4.46D-10
 IDIUse=1 WtCom= 1.00D+00 WtEn= 0.00D+00
 Coeff-Com:  0.813D-01 0.289D+00-0.823D-01 0.743D-01 0.637D+00
 Coeff:      0.813D-01 0.289D+00-0.823D-01 0.743D-01 0.637D+00
 Gap=     0.006 Goal=   None    Shift=    0.200
 RMSDP=7.92D-08 MaxDP=6.95D-06 DE=-1.18D-10 OVMax= 5.27D-06

 Cycle  69  Pass 1  IDiag  1:
 E= -144.803633808614     Delta-E=       -0.000000000083 Rises=F Damp=F
 DIIS: error= 2.55D-06 at cycle  69 NSaved=   6.
 NSaved= 6 IEnMin= 6 EnMin= -144.803633808614     IErMin= 6 ErrMin= 2.55D-06
 ErrMax= 2.55D-06  0.00D+00 EMaxC= 1.00D-01 BMatC= 3.53D-10 BMatP= 4.00D-10
 IDIUse=1 WtCom= 1.00D+00 WtEn= 0.00D+00
 Coeff-Com:  0.185D+00 0.162D+00-0.647D-01-0.137D+00-0.929D-01 0.948D+00
 Coeff:      0.185D+00 0.162D+00-0.647D-01-0.137D+00-0.929D-01 0.948D+00
 Gap=     0.006 Goal=   None    Shift=    0.200
 RMSDP=5.89D-08 MaxDP=5.23D-06 DE=-8.32D-11 OVMax= 3.37D-06

 Cycle  70  Pass 1  IDiag  1:
 E= -144.803633808727     Delta-E=       -0.000000000113 Rises=F Damp=F
 DIIS: error= 2.39D-06 at cycle  70 NSaved=   7.
 NSaved= 7 IEnMin= 7 EnMin= -144.803633808727     IErMin= 7 ErrMin= 2.39D-06
 ErrMax= 2.39D-06  0.00D+00 EMaxC= 1.00D-01 BMatC= 3.09D-10 BMatP= 3.53D-10
 IDIUse=1 WtCom= 1.00D+00 WtEn= 0.00D+00
 Coeff-Com:  0.193D+00 0.143D+00-0.595D-01-0.113D+00 0.731D-01 0.149D+00
 Coeff-Com:  0.613D+00
 Coeff:      0.193D+00 0.143D+00-0.595D-01-0.113D+00 0.731D-01 0.149D+00
 Coeff:      0.613D+00
 Gap=     0.006 Goal=   None    Shift=    0.200
 RMSDP=3.26D-08 MaxDP=3.28D-06 DE=-1.13D-10 OVMax= 2.77D-06

 Cycle  71  Pass 1  IDiag  1:
 E= -144.803633808811     Delta-E=       -0.000000000084 Rises=F Damp=F
 DIIS: error= 2.28D-06 at cycle  71 NSaved=   8.
 NSaved= 8 IEnMin= 8 EnMin= -144.803633808811     IErMin= 8 ErrMin= 2.28D-06
 ErrMax= 2.28D-06  0.00D+00 EMaxC= 1.00D-01 BMatC= 2.78D-10 BMatP= 3.09D-10
 IDIUse=1 WtCom= 1.00D+00 WtEn= 0.00D+00
 Coeff-Com:  0.252D+00 0.448D-01-0.437D-01 0.493D-01 0.295D+00-0.394D+00
 Coeff-Com: -0.171D+01 0.251D+01
 Coeff:      0.252D+00 0.448D-01-0.437D-01 0.493D-01 0.295D+00-0.394D+00
 Coeff:     -0.171D+01 0.251D+01
 Gap=     0.006 Goal=   None    Shift=    0.200
 RMSDP=3.31D-08 MaxDP=3.00D-06 DE=-8.37D-11 OVMax= 2.18D-06

 Cycle  72  Pass 1  IDiag  1:
 E= -144.803633808879     Delta-E=       -0.000000000068 Rises=F Damp=F
 DIIS: error= 2.19D-06 at cycle  72 NSaved=   9.
 NSaved= 9 IEnMin= 9 EnMin= -144.803633808879     IErMin= 9 ErrMin= 2.19D-06
 ErrMax= 2.19D-06  0.00D+00 EMaxC= 1.00D-01 BMatC= 2.55D-10 BMatP= 2.78D-10
 IDIUse=1 WtCom= 1.00D+00 WtEn= 0.00D+00
 Coeff-Com:  0.251D+00 0.457D-01-0.415D-01 0.421D-01 0.272D+00-0.351D+00
 Coeff-Com: -0.148D+01 0.199D+01 0.273D+00
 Coeff:      0.251D+00 0.457D-01-0.415D-01 0.421D-01 0.272D+00-0.351D+00
 Coeff:     -0.148D+01 0.199D+01 0.273D+00
 Gap=     0.006 Goal=   None    Shift=    0.200
 RMSDP=2.04D-08 MaxDP=2.13D-06 DE=-6.79D-11 OVMax= 1.90D-06

 Cycle  73  Pass 1  IDiag  1:
 E= -144.803633808931     Delta-E=       -0.000000000053 Rises=F Damp=F
 DIIS: error= 2.12D-06 at cycle  73 NSaved=  10.
 NSaved=10 IEnMin=10 EnMin= -144.803633808931     IErMin=10 ErrMin= 2.12D-06
 ErrMax= 2.12D-06  0.00D+00 EMaxC= 1.00D-01 BMatC= 2.36D-10 BMatP= 2.55D-10
 IDIUse=1 WtCom= 1.00D+00 WtEn= 0.00D+00
 Coeff-Com:  0.253D+00 0.419D-01-0.350D-01 0.266D-01 0.210D+00-0.263D+00
[...]
 211       11D 0        0.00001
 212       11D+1        0.00000   0.00000
 213       11D-1        0.00000   0.00000   0.00000
 214       11D+2        0.00000   0.00000   0.00000   0.00000
 215       11D-2        0.00000   0.00000   0.00000   0.00000   0.00000
     Gross orbital populations:
                         Total     Alpha     Beta      Spin
   1 1   Co 1S         -0.00000  -0.00000  -0.00000  -0.00000
   2        2S          0.00000   0.00000   0.00000   0.00000
   3        3S         -0.00000  -0.00000  -0.00000  -0.00000
   4        4S          0.00000   0.00000   0.00000   0.00000
   5        5S         -0.00000  -0.00000  -0.00000  -0.00000
   6        6S          0.00000   0.00000   0.00000   0.00000
   7        7S         -0.00000  -0.00000  -0.00000  -0.00000
   8        8S          0.00000   0.00000   0.00000   0.00000
   9        9S         -0.00001  -0.00000  -0.00000  -0.00000
  10       10S          0.00005   0.00002   0.00002   0.00000
  11       11S         -0.00036  -0.00018  -0.00018  -0.00000
  12       12S          0.00372   0.00187   0.00186   0.00001
  13       13S          0.00905   0.00453   0.00453   0.00000
  14       14S         -0.39955  -0.20000  -0.19955  -0.00045
  15       15S          0.00520   0.00279   0.00240   0.00039
  16       16S          1.65785   0.82910   0.82875   0.00035
  17       17S          0.76260   0.38104   0.38156  -0.00052
  18       18S          0.14480   0.07847   0.06634   0.01213
  19       19S          0.25794   0.13226   0.12568   0.00657
  20       20S          0.10665   0.05584   0.05081   0.00502
  21       21S          0.21357   0.10681   0.10677   0.00004
  22       22S         -0.27099  -0.13523  -0.13576   0.00054
  23       23S         -0.01531  -0.00790  -0.00742  -0.00048
  24       24PX         0.00000   0.00000   0.00000   0.00000
  25       24PY         0.00000   0.00000   0.00000   0.00000
  26       24PZ         0.00000   0.00000   0.00000   0.00000
  27       25PX        -0.00000  -0.00000  -0.00000  -0.00000
  28       25PY        -0.00000  -0.00000  -0.00000  -0.00000
  29       25PZ        -0.00000  -0.00000  -0.00000  -0.00000
  30       26PX         0.00000   0.00000   0.00000   0.00000
  31       26PY         0.00000   0.00000   0.00000   0.00000
  32       26PZ         0.00000   0.00000   0.00000   0.00000
  33       27PX        -0.00000  -0.00000  -0.00000   0.00000
  34       27PY        -0.00000  -0.00000  -0.00000   0.00000
  35       27PZ        -0.00000  -0.00000  -0.00000  -0.00000
  36       28PX         0.00000   0.00000   0.00000   0.00000
  37       28PY         0.00000   0.00000   0.00000   0.00000
  38       28PZ         0.00000   0.00000   0.00000   0.00000
  39       29PX        -0.00002  -0.00001  -0.00001  -0.00000
  40       29PY        -0.00002  -0.00001  -0.00001  -0.00000
  41       29PZ        -0.00002  -0.00001  -0.00001  -0.00000
  42       30PX         0.00026   0.00013   0.00013   0.00000
  43       30PY         0.00026   0.00013   0.00013   0.00000
  44       30PZ         0.00026   0.00013   0.00013   0.00000
  45       31PX         0.00012   0.00006   0.00006   0.00000
  46       31PY         0.00012   0.00006   0.00006   0.00000
  47       31PZ         0.00013   0.00007   0.00007  -0.00000
  48       32PX        -0.05680  -0.02840  -0.02840  -0.00000
  49       32PY        -0.05680  -0.02840  -0.02840  -0.00000
  50       32PZ        -0.05742  -0.02872  -0.02870  -0.00001
  51       33PX         0.07226   0.03613   0.03613   0.00000
  52       33PY         0.07226   0.03613   0.03613   0.00000
  53       33PZ         0.07023   0.03515   0.03508   0.00007
  54       34PX         0.56954   0.28477   0.28477   0.00000
  55       34PY         0.56954   0.28477   0.28477   0.00000
  56       34PZ         0.57561   0.28786   0.28775   0.00012
  57       35PX         0.71251   0.35626   0.35626   0.00000
  58       35PY         0.71251   0.35626   0.35626   0.00000
  59       35PZ         0.73964   0.36980   0.36983  -0.00003
  60       36PX         0.49947   0.24974   0.24974   0.00000
  61       36PY         0.49947   0.24974   0.24974   0.00000
  62       36PZ         0.49084   0.24541   0.24543  -0.00002
  63       37PX         0.04890   0.02445   0.02445   0.00000
  64       37PY         0.04890   0.02445   0.02445   0.00000
  65       37PZ         0.06851   0.03454   0.03396   0.00058
  66       38PX        -0.00063  -0.00032  -0.00032  -0.00000
  67       38PY        -0.00063  -0.00032  -0.00032  -0.00000
  68       38PZ         0.07053   0.03521   0.03532  -0.00011
  69       39PX         0.00022   0.00011   0.00011   0.00000
  70       39PY         0.00022   0.00011   0.00011   0.00000
  71       39PZ         0.03654   0.01830   0.01824   0.00007
  72       40PX        -0.02906  -0.01453  -0.01453  -0.00000
  73       40PY        -0.02906  -0.01453  -0.01453  -0.00000
  74       40PZ        -0.02711  -0.01358  -0.01353  -0.00005
  75       41PX         0.18482   0.09241   0.09241   0.00000
  76       41PY         0.18482   0.09241   0.09241   0.00000
  77       41PZ         0.16203   0.08113   0.08090   0.00023
  78       42PX        -0.00002  -0.00001  -0.00001  -0.00000
  79       42PY        -0.00002  -0.00001  -0.00001   0.00000
  80       42PZ        -0.00323  -0.00160  -0.00164   0.00004
  81       43D 0       -0.00000   0.00000  -0.00000   0.00000
  82       43D+1        0.00000   0.00000   0.00000   0.00000
  83       43D-1        0.00000   0.00000   0.00000   0.00000
  84       43D+2        0.00000   0.00000   0.00000   0.00000
  85       43D-2       -0.00000  -0.00000   0.00000  -0.00000
  86       44D 0        0.00487   0.00484   0.00003   0.00482
  87       44D+1        0.00957   0.00479   0.00479   0.00000
  88       44D-1        0.00957   0.00479   0.00479   0.00000
  89       44D+2        0.00962   0.00481   0.00481   0.00000
  90       44D-2        0.00500   0.00500   0.00000   0.00500
  91       45D 0        0.04229   0.04205   0.00024   0.04181
  92       45D+1        0.08312   0.04156   0.04156   0.00000
  93       45D-1        0.08312   0.04156   0.04156   0.00000
  94       45D+2        0.08352   0.04176   0.04176   0.00000
  95       45D-2        0.04338   0.04338   0.00000   0.04338
  96       46D 0        0.09357   0.09294   0.00063   0.09232
  97       46D+1        0.18349   0.09175   0.09175   0.00000
  98       46D-1        0.18349   0.09175   0.09175   0.00000
  99       46D+2        0.18430   0.09215   0.09215   0.00000
 100       46D-2        0.09673   0.09673   0.00000   0.09673
 101       47D 0        0.52762   0.52484   0.00277   0.52207
 102       47D+1        1.04071   0.52035   0.52035   0.00000
 103       47D-1        1.04071   0.52035   0.52035   0.00000
 104       47D+2        1.04408   0.52204   0.52204   0.00000
 105       47D-2        0.52966   0.52966   0.00000   0.52966
 106       48D 0        0.30015   0.29670   0.00345   0.29325
 107       48D+1        0.59953   0.29977   0.29977   0.00000
 108       48D-1        0.59953   0.29977   0.29977   0.00000
 109       48D+2        0.60229   0.30114   0.30114   0.00000
 110       48D-2        0.30583   0.30583   0.00000   0.30583
 111       49D 0        0.16718   0.15910   0.00808   0.15102
 112       49D+1        0.34178   0.17089   0.17089   0.00000
 113       49D-1        0.34178   0.17089   0.17089   0.00000
 114       49D+2        0.34201   0.17100   0.17100   0.00000
 115       49D-2        0.15618   0.15618   0.00000   0.15618
 116       50D 0        0.03517   0.02863   0.00654   0.02209
 117       50D+1        0.06287   0.03143   0.03143   0.00000
 118       50D-1        0.06287   0.03143   0.03143   0.00000
 119       50D+2        0.05775   0.02887   0.02887  -0.00000
 120       50D-2        0.01998   0.01998   0.00000   0.01998
 121       51D 0        0.07355   0.07320   0.00035   0.07285
 122       51D+1        0.14441   0.07221   0.07221   0.00000
 123       51D-1        0.14441   0.07221   0.07221   0.00000
 124       51D+2        0.14522   0.07261   0.07261   0.00000
 125       51D-2        0.07436   0.07436   0.00000   0.07436
 126       52D 0       -0.23530  -0.23457  -0.00073  -0.23384
 127       52D+1       -0.46765  -0.23383  -0.23383  -0.00000
 128       52D-1       -0.46765  -0.23383  -0.23383   0.00000
 129       52D+2       -0.46855  -0.23427  -0.23427  -0.00000
 130       52D-2       -0.23093  -0.23093  -0.00000  -0.23093
 131       53D 0        0.00151   0.00069   0.00082  -0.00013
 132       53D+1        0.00031   0.00016   0.00016   0.00000
 133       53D-1        0.00031   0.00016   0.00016   0.00000
 134       53D+2       -0.00029  -0.00015  -0.00015   0.00000
 135       53D-2       -0.00023  -0.00023  -0.00000  -0.00023
 136       54F 0        0.00001   0.00001   0.00001   0.00000
 137       54F+1        0.00000   0.00000   0.00000   0.00000
 138       54F-1        0.00000   0.00000   0.00000   0.00000
 139       54F+2        0.00000   0.00000   0.00000   0.00000
 140       54F-2        0.00000   0.00000   0.00000   0.00000
 141       54F+3        0.00001   0.00000   0.00000   0.00000
 142       54F-3        0.00001   0.00000   0.00000   0.00000
 143       55F 0        0.00005   0.00003   0.00002   0.00000
 144       55F+1        0.00002   0.00001   0.00001   0.00000
 145       55F-1        0.00002   0.00001   0.00001   0.00000
 146       55F+2        0.00001   0.00000   0.00000   0.00000
 147       55F-2        0.00000   0.00000   0.00000   0.00000
 148       55F+3        0.00002   0.00001   0.00001   0.00000
 149       55F-3        0.00002   0.00001   0.00001   0.00000
 150       56F 0        0.00023   0.00014   0.00010   0.00004
 151       56F+1        0.00009   0.00004   0.00004   0.00000
 152       56F-1        0.00009   0.00004   0.00004   0.00000
 153       56F+2        0.00005   0.00002   0.00002   0.00000
 154       56F-2        0.00002   0.00002   0.00000   0.00002
 155       56F+3        0.00003   0.00002   0.00002   0.00000
 156       56F-3        0.00003   0.00002   0.00002   0.00000
 157       57F 0        0.00128   0.00069   0.00059   0.00010
 158       57F+1        0.00018   0.00009   0.00009   0.00000
 159       57F-1        0.00018   0.00009   0.00009   0.00000
 160       57F+2        0.00018   0.00009   0.00009   0.00000
 161       57F-2        0.00007   0.00007   0.00000   0.00007
 162       57F+3        0.00001   0.00000   0.00000   0.00000
 163       57F-3        0.00001   0.00000   0.00000   0.00000
 164       58G 0        0.00000   0.00000   0.00000   0.00000
 165       58G+1        0.00000   0.00000   0.00000   0.00000
 166       58G-1        0.00000   0.00000   0.00000   0.00000
 167       58G+2        0.00000   0.00000   0.00000   0.00000
 168       58G-2        0.00000   0.00000   0.00000   0.00000
 169       58G+3        0.00000   0.00000   0.00000   0.00000
 170       58G-3        0.00000   0.00000   0.00000   0.00000
 171       58G+4        0.00000   0.00000   0.00000   0.00000
 172       58G-4        0.00000   0.00000   0.00000   0.00000
 173       59G 0        0.00000   0.00000  -0.00000   0.00000
 174       59G+1        0.00000   0.00000   0.00000   0.00000
 175       59G-1        0.00000   0.00000   0.00000   0.00000
 176       59G+2        0.00000   0.00000   0.00000   0.00000
 177       59G-2        0.00000   0.00000   0.00000   0.00000
 178       59G+3        0.00000   0.00000   0.00000   0.00000
 179       59G-3        0.00000   0.00000   0.00000   0.00000
 180       59G+4        0.00000   0.00000   0.00000   0.00000
 181       59G-4        0.00000   0.00000   0.00000   0.00000
 182       60G 0        0.00004   0.00002   0.00002   0.00000
 183       60G+1        0.00000   0.00000   0.00000  -0.00000
 184       60G-1        0.00000   0.00000   0.00000   0.00000
 185       60G+2        0.00000   0.00000   0.00000   0.00000
 186       60G-2        0.00001   0.00001   0.00000   0.00001
 187       60G+3        0.00000   0.00000   0.00000   0.00000
 188       60G-3        0.00000   0.00000   0.00000   0.00000
 189       60G+4        0.00000   0.00000   0.00000   0.00000
 190       60G-4        0.00000   0.00000   0.00000   0.00000
 191 2   H  1S          0.00061   0.00030   0.00030   0.00000
 192        2S          0.02113   0.01057   0.01057   0.00000
 193        3S          0.16295   0.08150   0.08145   0.00005
 194        4S          0.54527   0.27255   0.27273  -0.00018
 195        5S          0.58257   0.29448   0.28809   0.00639
 196        6S          0.06220   0.03177   0.03043   0.00135
 197        7PX         0.00010   0.00005   0.00005   0.00000
 198        7PY         0.00010   0.00005   0.00005   0.00000
 199        7PZ         0.00043   0.00027   0.00016   0.00010
 200        8PX         0.00138   0.00069   0.00069   0.00000
 201        8PY         0.00138   0.00069   0.00069   0.00000
 202        8PZ         0.00478   0.00245   0.00233   0.00011
 203        9PX        -0.00167  -0.00083  -0.00083  -0.00000
 204        9PY        -0.00167  -0.00083  -0.00083  -0.00000
 205        9PZ         0.00583   0.00356   0.00227   0.00129
 206       10D 0        0.00014   0.00010   0.00004   0.00006
 207       10D+1        0.00009   0.00004   0.00004   0.00000
 208       10D-1        0.00009   0.00004   0.00004   0.00000
 209       10D+2        0.00001   0.00001   0.00001   0.00000
 210       10D-2        0.00000   0.00000   0.00000   0.00000
 211       11D 0        0.00010   0.00001   0.00009  -0.00007
 212       11D+1        0.00002   0.00001   0.00001   0.00000
 213       11D-1        0.00002   0.00001   0.00001   0.00000
 214       11D+2       -0.00018  -0.00009  -0.00009  -0.00000
 215       11D-2       -0.00008  -0.00008  -0.00000  -0.00008
          Condensed to atoms (all electrons):
               1          2
     1  Co  16.269757   0.344624
     2  H    0.344624   1.040994
          Atomic-Atomic Spin Densities.
               1          2
     1  Co   1.990302   0.000661
     2  H    0.000661   0.008376
 Mulliken charges and spin densities:
               1          2
     1  Co   0.385619   1.990963
     2  H   -0.385619   0.009037
 Sum of Mulliken charges =  -0.00000   2.00000
 Mulliken charges and spin densities with hydrogens summed into heavy atoms:
               1          2
     1  Co  -0.000000   2.000000
 Electronic spatial extent (au):  <R**2>=             46.5673
 Charge=             -0.0000 electrons
 Dipole moment (field-independent basis, Debye):
    X=              0.0000    Y=              0.0000    Z=              4.9444  Tot=              4.9444
 Quadrupole moment (field-independent basis, Debye-Ang):
   XX=            -14.1009   YY=            -14.1009   ZZ=            -19.6248
   XY=              0.0000   XZ=              0.0000   YZ=              0.0000
 Traceless Quadrupole moment (field-independent basis, Debye-Ang):
   XX=              1.8413   YY=              1.8413   ZZ=             -3.6826
   XY=              0.0000   XZ=              0.0000   YZ=              0.0000
 Octapole moment (field-independent basis, Debye-Ang**2):
  XXX=              0.0000  YYY=              0.0000  ZZZ=             22.2690  XYY=              0.0000
  XXY=              0.0000  XXZ=              5.1725  XZZ=              0.0000  YZZ=              0.0000
  YYZ=              5.1725  XYZ=              0.0000
 Hexadecapole moment (field-independent basis, Debye-Ang**3):
 XXXX=            -18.0275 YYYY=            -18.0275 ZZZZ=            -73.5435 XXXY=              0.0000
 XXXZ=              0.0000 YYYX=              0.0000 YYYZ=              0.0000 ZZZX=              0.0000
 ZZZY=              0.0000 XXYY=             -5.7436 XXZZ=            -14.3123 YYZZ=            -14.3123
 XXYZ=              0.0000 YYXZ=              0.0000 ZZXY=              0.0000
 N-N= 4.997784769800D+00 E-N=-3.596245968559D+02  KE= 9.020813632098D+01
 Symmetry A1   KE= 3.635469398789D+01
 Symmetry A2   KE= 7.650175703551D+00
 Symmetry B1   KE= 2.310163330187D+01
 Symmetry B2   KE= 2.310163332785D+01
 Symmetry A1   SP= 1.000000000000D+00
 Symmetry A2   SP= 1.000000000000D+00
 Symmetry B1   SP= 4.202916932285D-16
 Symmetry B2   SP= 3.665903655828D-16
 Orbital energies and kinetic energies (alpha):
                                 1                 2
   4         O                -2.963591          4.202588
   5         O                -0.497405          7.387873
   6         O                -0.491455          7.354649
   7         O                -0.450223          7.354649
   8         O                -0.445868          0.445347
   9         O                -0.445868          7.650176
  10         O                -0.320316          7.392270
  11         V                -0.005797          0.127625
  12         V                 0.025813          0.047298
  13         V                 0.025813          0.047298
  14         V                 0.035446          0.038899
  15         V                 0.043738          0.188703
 Total kinetic energy from orbitals= 1.052505819658D+02
                          Isotropic Fermi Contact Couplings
        Atom                 a.u.       MegaHertz       Gauss      10(-4) cm-1
     1  Co(59)             0.00001       0.00362       0.00129       0.00121
     2  H(1)               0.00005       0.10959       0.03910       0.03655
 --------------------------------------------------------
       Center         ----  Spin Dipole Couplings  ----
                      3XX-RR        3YY-RR        3ZZ-RR
 --------------------------------------------------------
     1   Atom       -0.101184     -0.101182      0.202366
     2   Atom       -0.049177     -0.049177      0.098354
 --------------------------------------------------------
                        XY            XZ            YZ
 --------------------------------------------------------
     1   Atom        0.000000      0.000000      0.000000
     2   Atom        0.000000      0.000000      0.000000
 --------------------------------------------------------


 ---------------------------------------------------------------------------------
              Anisotropic Spin Dipole Couplings in Principal Axis System
 ---------------------------------------------------------------------------------

       Atom             a.u.   MegaHertz   Gauss  10(-4) cm-1        Axes

              Baa    -0.1012   -12.777    -4.559    -4.262  1.0000  0.0000  0.0000
     1 Co(59) Bbb    -0.1012   -12.777    -4.559    -4.262 -0.0000  1.0000  0.0000
              Bcc     0.2024    25.555     9.119     8.524  0.0000  0.0000  1.0000
 
              Baa    -0.0492   -26.239    -9.363    -8.752  1.0000  0.0000  0.0000
     2 H(1)   Bbb    -0.0492   -26.239    -9.363    -8.752 -0.0000  1.0000  0.0000
              Bcc     0.0984    52.477    18.725    17.504  0.0000  0.0000  1.0000
 

 ---------------------------------------------------------------------------------

 No NMR shielding tensors so no spin-rotation constants.
 Leave Link  601 at Thu May  3 15:15:38 2018, MaxMem= 10737418240 cpu:              89.2 elap:               3.0
 (Enter /home1/apps/gaussian/16rA.03/g16/l9999.exe)

 Test job not archived.
 1\1\GINC-C418-101\SP\ROCCSD(T)-Full\Gen\Co1H1(3)\GWANG18\03-May-2018\0
 \\#P ROCCSD(T)=(MaxCyc=150, Full)/Gen SCF=(maxcycle=400, vshift=200) P
 seudo=Read Integral(NoXCTest) Pop=Regular MaxDisk=500GB Guess=Read IOp
 (5/15=2)\\CoH\\0,3\Co,0,0.,0.,0.\H,0,0.,0.,1.8\\Version=ES64L-G16RevA.
 03\HF=-144.8036338\MP2=-145.6524301\MP3=-145.5634722\PUHF=-144.8036338
 \PMP2-0=-145.6524301\MP4SDQ=-145.6281601\CCSD=-145.6047874\CCSD(T)=-14
 5.6342875\RMSD=9.678e-09\PG=C*V [C*(H1Co1)]\\@


 EDUCATION WITHOUT COMMON SENSE IS A LOAD OF BOOKS ON THE BACK OF AN ASS.
 Job cpu time:       0 days  8 hours  2 minutes 23.1 seconds.
 Elapsed time:       0 days  0 hours 15 minutes 13.2 seconds.
 File lengths (MBytes):  RWF=   2930 Int=      0 D2E=      0 Chk=      6 Scr=      1
 Normal termination of Gaussian 16 at Thu May  3 15:15:39 2018.
