 Entering Gaussian System, Link 0=g16
 Initial command:
 /home1/apps/gaussian/16rA.03/g16/l1.exe "/tmp/Gau-122573.inp" -scrdir="/tmp/"
 Entering Link 1 = /home1/apps/gaussian/16rA.03/g16/l1.exe PID=    122574.
  
 Copyright (c) 1988,1990,1992,1993,1995,1998,2003,2009,2016,
            Gaussian, Inc.  All Rights Reserved.
  
 This is part of the Gaussian(R) 16 program.  It is based on
 the Gaussian(R) 09 system (copyright 2009, Gaussian, Inc.),
 the Gaussian(R) 03 system (copyright 2003, Gaussian, Inc.),
 the Gaussian(R) 98 system (copyright 1998, Gaussian, Inc.),
 the Gaussian(R) 94 system (copyright 1995, Gaussian, Inc.),
 the Gaussian 92(TM) system (copyright 1992, Gaussian, Inc.),
 the Gaussian 90(TM) system (copyright 1990, Gaussian, Inc.),
 the Gaussian 88(TM) system (copyright 1988, Gaussian, Inc.),
 the Gaussian 86(TM) system (copyright 1986, Carnegie Mellon
 University), and the Gaussian 82(TM) system (copyright 1983,
 Carnegie Mellon University). Gaussian is a federally registered
 trademark of Gaussian, Inc.
  
 This software contains proprietary and confidential information,
 including trade secrets, belonging to Gaussian, Inc.
  
 This software is provided under written license and may be
 used, copied, transmitted, or stored only in accord with that
 written license.
  
 The following legend is applicable only to US Government
 contracts under FAR:
  
                    RESTRICTED RIGHTS LEGEND
  
 Use, reproduction and disclosure by the US Government is
 subject to restrictions as set forth in subparagraphs (a)
 and (c) of the Commercial Computer Software - Restricted
 Rights clause in FAR 52.227-19.
  
 Gaussian, Inc.
 340 Quinnipiac St., Bldg. 40, Wallingford CT 06492
  
  
 ---------------------------------------------------------------
 Warning -- This program may not be used in any manner that
 competes with the business of Gaussian, Inc. or will provide
 assistance to any competitor of Gaussian, Inc.  The licensee
 of this program is prohibited from giving any competitor of
 Gaussian, Inc. access to this program.  By using this program,
 the user acknowledges that Gaussian, Inc. is engaged in the
 business of creating and licensing software in the field of
 computational chemistry and represents and warrants to the
 licensee that it is not a competitor of Gaussian, Inc. and that
 it will not use this program in any manner prohibited above.
 ---------------------------------------------------------------
  

 Cite this work as:
 Gaussian 16, Revision A.03,
 M. J. Frisch, G. W. Trucks, H. B. Schlegel, G. E. Scuseria, 
 M. A. Robb, J. R. Cheeseman, G. Scalmani, V. Barone, 
 G. A. Petersson, H. Nakatsuji, X. Li, M. Caricato, A. V. Marenich, 
 J. Bloino, B. G. Janesko, R. Gomperts, B. Mennucci, H. P. Hratchian, 
 J. V. Ortiz, A. F. Izmaylov, J. L. Sonnenberg, D. Williams-Young, 
 F. Ding, F. Lipparini, F. Egidi, J. Goings, B. Peng, A. Petrone, 
 T. Henderson, D. Ranasinghe, V. G. Zakrzewski, J. Gao, N. Rega, 
 G. Zheng, W. Liang, M. Hada, M. Ehara, K. Toyota, R. Fukuda, 
 J. Hasegawa, M. Ishida, T. Nakajima, Y. Honda, O. Kitao, H. Nakai, 
 T. Vreven, K. Throssell, J. A. Montgomery, Jr., J. E. Peralta, 
 F. Ogliaro, M. J. Bearpark, J. J. Heyd, E. N. Brothers, K. N. Kudin, 
 V. N. Staroverov, T. A. Keith, R. Kobayashi, J. Normand, 
 K. Raghavachari, A. P. Rendell, J. C. Burant, S. S. Iyengar, 
 J. Tomasi, M. Cossi, J. M. Millam, M. Klene, C. Adamo, R. Cammi, 
 J. W. Ochterski, R. L. Martin, K. Morokuma, O. Farkas, 
 J. B. Foresman, and D. J. Fox, Gaussian, Inc., Wallingford CT, 2016.
 
 ******************************************
 Gaussian 16:  ES64L-G16RevA.03 25-Dec-2016
                 7-Mar-2018 
 ******************************************
 %mem=80GB
 %cpu=0-31
 SetSPE:  set environment variable "MP_BIND" = "yes"
 SetSPE:  set environment variable "MP_BLIST" = "0,1,2,3,4,5,6,7,8,9,10,11,12,13,14,15,16,17,18,19,20,21,22,23,24,25,26,27,28,29,30,31"
 Will use up to   32 processors via shared memory.
 %chk=tz.chk
 %rwf=/scratch/04843/gwang18/feh/
 ----------------------------------------------------------------------
 #P ROCCSD(T)=(MaxCyc=150, Full)/Gen SCF=(maxcycle=400) Integral(DKHSO,
  NoXCTest) Pop=Regular MaxDisk=500GB Guess=Read IOp(5/15=2)
 ----------------------------------------------------------------------
 1/38=1,172=1/1;
 2/12=2,17=6,18=5,40=1/2;
 3/5=7,11=2,25=1,30=1,47=8,91=5,116=101/1,2,3;
 4/5=1/1;
 5/5=2,7=400,15=2,38=6/2;
 8/5=-1,6=4,9=120000,10=90/1,4;
 9/5=7,6=150,14=2/13;
 6//1;
 99/5=1,9=1/99;
 Leave Link    1 at Wed Mar  7 11:04:24 2018, MaxMem= 10737418240 cpu:               9.6 elap:               0.3
 (Enter /home1/apps/gaussian/16rA.03/g16/l101.exe)
 ---
 FeH
 ---
 Symbolic Z-matrix:
 Charge =  0 Multiplicity = 4
 Fe                    0.        0.        0. 
 H                     0.        0.        1.4 
 
 ITRead=  0  0
 MicOpt= -1 -1
 NAtoms=      2 NQM=        2 NQMF=       0 NMMI=      0 NMMIF=      0
                NMic=       0 NMicF=      0.
                    Isotopes and Nuclear Properties:
 (Nuclear quadrupole moments (NQMom) in fm**2, nuclear magnetic moments (NMagM)
  in nuclear magnetons)

  Atom         1           2
 IAtWgt=          56           1
 AtmWgt=  55.9349393   1.0078250
 NucSpn=           0           1
 AtZEff=  -0.0000000  -0.0000000
 NQMom=    0.0000000   0.0000000
 NMagM=    0.0000000   2.7928460
 AtZNuc=  26.0000000   1.0000000
 Leave Link  101 at Wed Mar  7 11:04:28 2018, MaxMem= 10737418240 cpu:               4.3 elap:               0.2
 (Enter /home1/apps/gaussian/16rA.03/g16/l202.exe)
                          Input orientation:                          
 ---------------------------------------------------------------------
 Center     Atomic      Atomic             Coordinates (Angstroms)
 Number     Number       Type             X           Y           Z
 ---------------------------------------------------------------------
      1         26           0        0.000000    0.000000    0.000000
      2          1           0        0.000000    0.000000    1.400000
 ---------------------------------------------------------------------
 Stoichiometry    FeH(4)
 Framework group  C*V[C*(HFe)]
 Deg. of freedom     1
 Full point group                 C*V     NOp   4
 Largest Abelian subgroup         C2V     NOp   4
 Largest concise Abelian subgroup C1      NOp   1
                         Standard orientation:                         
 ---------------------------------------------------------------------
 Center     Atomic      Atomic             Coordinates (Angstroms)
 Number     Number       Type             X           Y           Z
 ---------------------------------------------------------------------
      1         26           0        0.000000    0.000000    0.051852
      2          1           0        0.000000    0.000000   -1.348148
 ---------------------------------------------------------------------
 Rotational constants (GHZ):           0.0000000         260.4541973         260.4541973
 Leave Link  202 at Wed Mar  7 11:04:29 2018, MaxMem= 10737418240 cpu:               0.7 elap:               0.1
 (Enter /home1/apps/gaussian/16rA.03/g16/l301.exe)
 General basis read from cards:  (5D, 7F)
 Centers:       1
 S 1 1.00
     Exponent=  4.3162650000D+06 Coefficients=  1.0000000000D+00
 S 1 1.00
     Exponent=  6.4634240000D+05 Coefficients=  1.0000000000D+00
 S 1 1.00
     Exponent=  1.4708970000D+05 Coefficients=  1.0000000000D+00
 S 1 1.00
     Exponent=  4.1661520000D+04 Coefficients=  1.0000000000D+00
 S 1 1.00
     Exponent=  1.3590770000D+04 Coefficients=  1.0000000000D+00
 S 1 1.00
     Exponent=  4.9057500000D+03 Coefficients=  1.0000000000D+00
 S 1 1.00
     Exponent=  1.9127460000D+03 Coefficients=  1.0000000000D+00
 S 1 1.00
     Exponent=  7.9260430000D+02 Coefficients=  1.0000000000D+00
 S 1 1.00
     Exponent=  3.4480650000D+02 Coefficients=  1.0000000000D+00
 S 1 1.00
     Exponent=  1.5589990000D+02 Coefficients=  1.0000000000D+00
 S 1 1.00
     Exponent=  7.2230910000D+01 Coefficients=  1.0000000000D+00
 S 1 1.00
     Exponent=  3.2725060000D+01 Coefficients=  1.0000000000D+00
 S 1 1.00
     Exponent=  1.5667620000D+01 Coefficients=  1.0000000000D+00
 S 1 1.00
     Exponent=  7.5034830000D+00 Coefficients=  1.0000000000D+00
 S 1 1.00
     Exponent=  3.3122230000D+00 Coefficients=  1.0000000000D+00
 S 1 1.00
     Exponent=  1.5584710000D+00 Coefficients=  1.0000000000D+00
 S 1 1.00
     Exponent=  6.8391400000D-01 Coefficients=  1.0000000000D+00
 S 1 1.00
     Exponent=  1.4675700000D-01 Coefficients=  1.0000000000D+00
 S 1 1.00
     Exponent=  7.0583000000D-02 Coefficients=  1.0000000000D+00
 S 1 1.00
     Exponent=  3.1449000000D-02 Coefficients=  1.0000000000D+00
 S 1 1.00
     Exponent=  4.6844000000D+00 Coefficients=  1.0000000000D+00
 S 1 1.00
     Exponent=  1.2204000000D+00 Coefficients=  1.0000000000D+00
 S 1 1.00
     Exponent=  1.4010000000D-02 Coefficients=  1.0000000000D+00
 P 1 1.00
     Exponent=  1.7745690000D+04 Coefficients=  1.0000000000D+00
 P 1 1.00
     Exponent=  4.2007210000D+03 Coefficients=  1.0000000000D+00
 P 1 1.00
     Exponent=  1.3644290000D+03 Coefficients=  1.0000000000D+00
 P 1 1.00
     Exponent=  5.2208060000D+02 Coefficients=  1.0000000000D+00
 P 1 1.00
     Exponent=  2.2145950000D+02 Coefficients=  1.0000000000D+00
 P 1 1.00
     Exponent=  1.0090960000D+02 Coefficients=  1.0000000000D+00
 P 1 1.00
     Exponent=  4.8401150000D+01 Coefficients=  1.0000000000D+00
 P 1 1.00
     Exponent=  2.3985360000D+01 Coefficients=  1.0000000000D+00
 P 1 1.00
     Exponent=  1.2182500000D+01 Coefficients=  1.0000000000D+00
 P 1 1.00
     Exponent=  6.2422980000D+00 Coefficients=  1.0000000000D+00
 P 1 1.00
     Exponent=  3.1109440000D+00 Coefficients=  1.0000000000D+00
 P 1 1.00
     Exponent=  1.5099580000D+00 Coefficients=  1.0000000000D+00
 P 1 1.00
     Exponent=  7.1084500000D-01 Coefficients=  1.0000000000D+00
 P 1 1.00
     Exponent=  2.7259800000D-01 Coefficients=  1.0000000000D+00
 P 1 1.00
     Exponent=  1.0397200000D-01 Coefficients=  1.0000000000D+00
 P 1 1.00
     Exponent=  3.8166000000D-02 Coefficients=  1.0000000000D+00
 P 1 1.00
     Exponent=  6.8788000000D+00 Coefficients=  1.0000000000D+00
 P 1 1.00
     Exponent=  1.5748000000D+00 Coefficients=  1.0000000000D+00
 P 1 1.00
     Exponent=  1.4010000000D-02 Coefficients=  1.0000000000D+00
 D 1 1.00
     Exponent=  1.1488400000D+02 Coefficients=  1.0000000000D+00
 D 1 1.00
     Exponent=  3.3887800000D+01 Coefficients=  1.0000000000D+00
 D 1 1.00
     Exponent=  1.2373000000D+01 Coefficients=  1.0000000000D+00
 D 1 1.00
     Exponent=  4.9992500000D+00 Coefficients=  1.0000000000D+00
 D 1 1.00
     Exponent=  2.0704300000D+00 Coefficients=  1.0000000000D+00
 D 1 1.00
     Exponent=  8.2818300000D-01 Coefficients=  1.0000000000D+00
 D 1 1.00
     Exponent=  3.0754700000D-01 Coefficients=  1.0000000000D+00
 D 1 1.00
     Exponent=  9.9455000000D-02 Coefficients=  1.0000000000D+00
 D 1 1.00
     Exponent=  4.5305000000D+00 Coefficients=  1.0000000000D+00
 D 1 1.00
     Exponent=  2.1205000000D+00 Coefficients=  1.0000000000D+00
 D 1 1.00
     Exponent=  3.2160000000D-02 Coefficients=  1.0000000000D+00
 F 1 1.00
     Exponent=  6.0066000000D+00 Coefficients=  1.0000000000D+00
 F 1 1.00
     Exponent=  2.2522000000D+00 Coefficients=  1.0000000000D+00
 F 1 1.00
     Exponent=  7.7580000000D-01 Coefficients=  1.0000000000D+00
 F 1 1.00
     Exponent=  2.6723000000D-01 Coefficients=  1.0000000000D+00
 G 1 1.00
     Exponent=  5.5068000000D+00 Coefficients=  1.0000000000D+00
 G 1 1.00
     Exponent=  2.0515000000D+00 Coefficients=  1.0000000000D+00
 G 1 1.00
     Exponent=  7.6426000000D-01 Coefficients=  1.0000000000D+00
 ****
 Centers:       2
 S 1 1.00
     Exponent=  3.3870000000D+01 Coefficients=  1.0000000000D+00
 S 1 1.00
     Exponent=  5.0950000000D+00 Coefficients=  1.0000000000D+00
 S 1 1.00
     Exponent=  1.1590000000D+00 Coefficients=  1.0000000000D+00
 S 1 1.00
     Exponent=  3.2580000000D-01 Coefficients=  1.0000000000D+00
 S 1 1.00
     Exponent=  1.0270000000D-01 Coefficients=  1.0000000000D+00
 S 1 1.00
     Exponent=  2.5260000000D-02 Coefficients=  1.0000000000D+00
 P 1 1.00
     Exponent=  1.4070000000D+00 Coefficients=  1.0000000000D+00
 P 1 1.00
     Exponent=  3.8800000000D-01 Coefficients=  1.0000000000D+00
 P 1 1.00
     Exponent=  1.0200000000D-01 Coefficients=  1.0000000000D+00
 D 1 1.00
     Exponent=  1.0570000000D+00 Coefficients=  1.0000000000D+00
 D 1 1.00
     Exponent=  2.4700000000D-01 Coefficients=  1.0000000000D+00
 ****
 Ernie: Thresh=  0.10000D-02 Tol=  0.10000D-05 Strict=F.
 There are   120 symmetry adapted cartesian basis functions of A1  symmetry.
 There are    26 symmetry adapted cartesian basis functions of A2  symmetry.
 There are    56 symmetry adapted cartesian basis functions of B1  symmetry.
 There are    56 symmetry adapted cartesian basis functions of B2  symmetry.
 There are    94 symmetry adapted basis functions of A1  symmetry.
 There are    23 symmetry adapted basis functions of A2  symmetry.
 There are    49 symmetry adapted basis functions of B1  symmetry.
 There are    49 symmetry adapted basis functions of B2  symmetry.
   215 basis functions,   258 primitive gaussians,   258 cartesian basis functions
    15 alpha electrons       12 beta electrons
       nuclear repulsion energy         9.8275767742 Hartrees.
 IExCor=    0 DFT=F Ex=HF Corr=None ExCW=0 ScaHFX=  1.000000
 ScaDFX=  1.000000  1.000000  1.000000  1.000000 ScalE2=  1.000000  1.000000
 IRadAn=      5 IRanWt=     -1 IRanGd=            0 ICorTp=0 IEmpDi=  4
 NAtoms=    2 NActive=    2 NUniq=    2 SFac= 1.00D+00 NAtFMM=   60 NAOKFM=F Big=F
 Integral buffers will be    131072 words long.
 Raffenetti 2 integral format.
 Two-electron integral symmetry is turned on.
 FoFCou: FMM=F IPFlag=           8 FMFlag=           0 FMFlg1=           0
         NFxFlg=           0 DoJE=F BraDBF=T KetDBF=T FulRan=T
         wScrn=  0.000000 ICntrl=       600 IOpCl=  3 I1Cent=           6 NGrid=           0
         NMat0=    1 NMatS0=      2 NMatT0=    0 NMatD0=    1 NMtDS0=    0 NMtDT0=    0
 Symmetry not used in FoFCou.
 Finite nuclear repulsion energy         9.8275767742.
 Leave Link  301 at Wed Mar  7 11:04:30 2018, MaxMem= 10737418240 cpu:              12.8 elap:               0.5
 (Enter /home1/apps/gaussian/16rA.03/g16/l302.exe)
 Using DK4 one-electron Hamiltonian with SO, DoBoet=T.
 NPDir=0 NMtPBC=     1 NCelOv=     1 NCel=       1 NClECP=     1 NCelD=      1
         NCelK=      1 NCelE2=     1 NClLst=     1 CellRange=     0.0.
 One-electron integrals computed using PRISM.
 One-electron integral symmetry used in STVInt
 FoFCou: FMM=F IPFlag=           8 FMFlag=      100000 FMFlg1=           0
         NFxFlg=           0 DoJE=T BraDBF=F KetDBF=T FulRan=T
         wScrn=  0.000000 ICntrl=       500 IOpCl=  0 I1Cent=           4 NGrid=           0
         NMat0=    1 NMatS0=      1 NMatT0=    0 NMatD0=    1 NMtDS0=    0 NMtDT0=    0
 Symmetry not used in FoFCou.
 UnConB:  Uncontracting AO basis from    215 functions to    215 functions (excluding duplicates).
 RelInt: Using uncontracted basis, NUnBas=   215 NBsUse=   215 0.100E-13 EigKep=  8.51D-07 EigRej= -1.00D+00
 NBasis=   215 RedAO= T EigKep=  2.28D-06  NBF=    94    23    49    49
 NBsUse=   212 1.00D-06 EigRej=  9.64D-07 NBFU=    93    23    48    48
 Leave Link  302 at Wed Mar  7 11:04:38 2018, MaxMem= 10737418240 cpu:             134.6 elap:               5.3
 (Enter /home1/apps/gaussian/16rA.03/g16/l303.exe)
 DipDrv:  MaxL=1.
 Leave Link  303 at Wed Mar  7 11:04:38 2018, MaxMem= 10737418240 cpu:               1.9 elap:               0.1
 (Enter /home1/apps/gaussian/16rA.03/g16/l401.exe)
 Initial guess from the checkpoint file:  "tz.chk"
 B after Tr=     0.000000    0.000000    0.000000
         Rot=    1.000000    0.000000    0.000000    0.000000 Ang=   0.00 deg.
 Guess basis will be translated and rotated to current coordinates.
 JPrj=2 DoOrth=T DoCkMO=T.
 Initial guess orbital symmetries:
       Occupied  (SG) (SG) (PI) (PI) (SG) (SG) (SG) (PI) (PI) (SG)
                 (?A) (SG) (PI) (PI) (?A)
       Virtual   (SG) (PI) (PI) (SG) (SG) (PI) (PI) (SG) (DLTA)
                 (DLTA) (PI) (PI) (SG) (SG) (SG) (PI) (PI) (SG)
                 (PI) (PI) (?A) (?A) (SG) (PI) (PI) (SG) (SG) (SG)
                 (DLTA) (DLTA) (PI) (PI) (SG) (PHI) (PHI) (PI)
                 (PI) (SG) (PI) (PI) (?A) (?A) (PI) (PI) (SG) (?A)
                 (?A) (SG) (PI) (PI) (SG) (SG) (SG) (?B) (?B) (?B)
                 (?B) (SG) (DLTA) (?B) (?B) (DLTA) (SG) (SG) (PI)
                 (PI) (DLTA) (DLTA) (DLTA) (PHI) (PHI) (DLTA) (?C)
                 (?C) (PI) (PI) (DLTA) (DLTA) (SG) (PI) (PI) (PI)
                 (PI) (SG) (SG) (SG) (?D) (?D) (DLTA) (DLTA) (?D)
                 (?D) (DLTA) (DLTA) (SG) (?D) (?D) (PI) (PI) (SG)
                 (SG) (?E) (?E) (?C) (?C) (DLTA) (DLTA) (?E) (?E)
                 (SG) (SG) (SG) (DLTA) (DLTA) (PI) (PI) (SG) (PI)
                 (PI) (SG) (DLTA) (?E) (?E) (DLTA) (?E) (?E) (SG)
                 (?E) (?E) (DLTA) (?F) (?F) (DLTA) (?E) (?E) (?F)
                 (SG) (DLTA) (DLTA) (PI) (PI) (SG) (PI) (PI) (SG)
                 (DLTA) (DLTA) (PI) (PI) (SG) (SG) (SG) (PI) (PI)
                 (SG) (DLTA) (DLTA) (PI) (PI) (SG) (SG) (PI) (PI)
                 (SG) (SG) (PI) (PI) (SG) (DLTA) (DLTA) (PI) (PI)
                 (SG) (PI) (PI) (SG) (SG) (PI) (PI) (SG) (SG) (PI)
                 (PI) (SG) (SG) (SG) (PI) (PI) (SG) (SG) (PI) (PI)
                 (SG) (SG) (SG) (SG) (SG)
 Leave Link  401 at Wed Mar  7 11:04:39 2018, MaxMem= 10737418240 cpu:              10.0 elap:               0.4
 (Enter /home1/apps/gaussian/16rA.03/g16/l502.exe)
 Keep R1 and R2 ints in memory in symmetry-blocked form, NReq=338797193.
 FoFCou: FMM=F IPFlag=           8 FMFlag=           0 FMFlg1=           0
         NFxFlg=           0 DoJE=F BraDBF=F KetDBF=F FulRan=T
         wScrn=  0.000000 ICntrl=       600 IOpCl=  0 I1Cent=           0 NGrid=           0
         NMat0=    1 NMatS0=  23220 NMatT0=    0 NMatD0=    1 NMtDS0=    0 NMtDT0=    0
 Petite list used in FoFCou.
 Restricted open shell SCF:
 Using DIIS extrapolation, IDIIS=  1040.
 NGot= 10737418240 LenX= 10598929943 LenY= 10598862938
 Requested convergence on RMS density matrix=1.00D-08 within 400 cycles.
 Requested convergence on MAX density matrix=1.00D-06.
 Requested convergence on             energy=1.00D-06.
 No special actions if energy rises.

 Cycle   1  Pass 1  IDiag  1:
 E= -1271.80717745595    
 DIIS: error= 1.32D-02 at cycle   1 NSaved=   1.
 NSaved= 1 IEnMin= 1 EnMin= -1271.80717745595     IErMin= 1 ErrMin= 1.32D-02
 ErrMax= 1.32D-02  0.00D+00 EMaxC= 1.00D-01 BMatC= 6.65D-03 BMatP= 6.65D-03
 IDIUse=3 WtCom= 8.68D-01 WtEn= 1.32D-01
 Coeff-Com:  0.100D+01
 Coeff-En:   0.100D+01
 Coeff:      0.100D+01
 Gap=     0.037 Goal=   None    Shift=    0.000
 GapD=    0.037 DampG=0.250 DampE=0.250 DampFc=0.1250 IDamp=-1.
 Damping current iteration by 1.25D-01
 RMSDP=2.77D-04 MaxDP=1.59D-02              OVMax= 2.41D-02

 Cycle   2  Pass 1  IDiag  1:
 E= -1271.80741659243     Delta-E=       -0.000239136477 Rises=F Damp=T
 DIIS: error= 1.16D-02 at cycle   2 NSaved=   2.
 NSaved= 2 IEnMin= 2 EnMin= -1271.80741659243     IErMin= 2 ErrMin= 1.16D-02
 ErrMax= 1.16D-02  0.00D+00 EMaxC= 1.00D-01 BMatC= 5.09D-03 BMatP= 6.65D-03
 IDIUse=3 WtCom= 8.84D-01 WtEn= 1.16D-01
 Coeff-Com: -0.239D+01 0.339D+01
 Coeff-En:   0.000D+00 0.100D+01
 Coeff:     -0.211D+01 0.311D+01
 Gap=     0.015 Goal=   None    Shift=    0.000
 RMSDP=8.67D-04 MaxDP=6.00D-02 DE=-2.39D-04 OVMax= 2.94D-01

 Cycle   3  Pass 1  IDiag  1:
 E= -1271.74869161369     Delta-E=        0.058724978737 Rises=F Damp=F
 DIIS: error= 2.48D-02 at cycle   3 NSaved=   3.
 NSaved= 3 IEnMin= 2 EnMin= -1271.80741659243     IErMin= 2 ErrMin= 1.16D-02
 ErrMax= 2.48D-02  0.00D+00 EMaxC= 1.00D-01 BMatC= 3.39D-02 BMatP= 5.09D-03
 IDIUse=2 WtCom= 0.00D+00 WtEn= 1.00D+00
 Coeff-En:   0.000D+00 0.793D+00 0.207D+00
 Coeff:      0.000D+00 0.793D+00 0.207D+00
 Gap=     0.026 Goal=   None    Shift=    0.000
 RMSDP=1.38D-03 MaxDP=1.15D-01 DE= 5.87D-02 OVMax= 4.00D-01

 Cycle   4  Pass 1  IDiag  1:
 E= -1271.79393628905     Delta-E=       -0.045244675357 Rises=F Damp=F
 DIIS: error= 1.07D-02 at cycle   4 NSaved=   4.
 NSaved= 4 IEnMin= 2 EnMin= -1271.80741659243     IErMin= 4 ErrMin= 1.07D-02
 ErrMax= 1.07D-02  0.00D+00 EMaxC= 1.00D-01 BMatC= 6.77D-03 BMatP= 5.09D-03
 IDIUse=2 WtCom= 0.00D+00 WtEn= 1.00D+00
 Coeff-En:   0.000D+00 0.000D+00 0.383D+00 0.617D+00
 Coeff:      0.000D+00 0.000D+00 0.383D+00 0.617D+00
 Gap=     0.038 Goal=   None    Shift=    0.000
 RMSDP=1.19D-03 MaxDP=9.04D-02 DE=-4.52D-02 OVMax= 1.73D-01

 Cycle   5  Pass 1  IDiag  1:
 E= -1271.80381610677     Delta-E=       -0.009879817728 Rises=F Damp=F
 DIIS: error= 9.17D-03 at cycle   5 NSaved=   5.
 NSaved= 5 IEnMin= 2 EnMin= -1271.80741659243     IErMin= 5 ErrMin= 9.17D-03
 ErrMax= 9.17D-03  0.00D+00 EMaxC= 1.00D-01 BMatC= 6.70D-03 BMatP= 5.09D-03
 IDIUse=3 WtCom= 9.46D-02 WtEn= 9.05D-01
 EnCoef did     2 forward-backward iterations
 Coeff-Com: -0.103D+01 0.116D+01 0.233D+00 0.391D+00 0.239D+00
 Coeff-En:   0.000D+00 0.000D+00 0.359D+00 0.575D+00 0.663D-01
 Coeff:     -0.969D-01 0.110D+00 0.347D+00 0.557D+00 0.826D-01
 Gap=     0.034 Goal=   None    Shift=    0.000
 RMSDP=1.78D-04 MaxDP=1.12D-02 DE=-9.88D-03 OVMax= 1.86D-02

 Cycle   6  Pass 1  IDiag  1:
 E= -1271.80629423190     Delta-E=       -0.002478125128 Rises=F Damp=F
 DIIS: error= 7.59D-03 at cycle   6 NSaved=   6.
 NSaved= 6 IEnMin= 2 EnMin= -1271.80741659243     IErMin= 6 ErrMin= 7.59D-03
 ErrMax= 7.59D-03  0.00D+00 EMaxC= 1.00D-01 BMatC= 4.28D-03 BMatP= 5.09D-03
 IDIUse=3 WtCom= 9.24D-01 WtEn= 7.59D-02
 Rare condition: small coef for last iteration:  0.000D+00
 Coeff-Com: -0.908D+00 0.102D+01 0.168D+00 0.251D+00-0.977D+00 0.144D+01
 Coeff-En:   0.000D+00 0.000D+00 0.245D+00 0.260D+00 0.000D+00 0.496D+00
 Coeff:     -0.908D+00 0.102D+01 0.168D+00 0.251D+00-0.977D+00 0.144D+01
 Gap=     0.021 Goal=   None    Shift=    0.000
 RMSDP=3.85D-04 MaxDP=2.87D-02 DE=-2.48D-03 OVMax= 7.38D-02

 Cycle   7  Pass 1  IDiag  1:
 E= -1271.80729139195     Delta-E=       -0.000997160046 Rises=F Damp=F
 DIIS: error= 4.27D-03 at cycle   7 NSaved=   7.
 NSaved= 7 IEnMin= 2 EnMin= -1271.80741659243     IErMin= 7 ErrMin= 4.27D-03
 ErrMax= 4.27D-03  0.00D+00 EMaxC= 1.00D-01 BMatC= 1.09D-03 BMatP= 4.28D-03
 IDIUse=3 WtCom= 9.57D-01 WtEn= 4.27D-02
 EnCoef did   100 forward-backward iterations
 Rare condition: small coef for last iteration:  0.000D+00
 Coeff-Com: -0.932D+00 0.105D+01 0.135D+00 0.249D+00-0.648D+00 0.963D+00
 Coeff-Com:  0.182D+00
 Coeff-En:   0.000D+00 0.000D+00 0.195D+00 0.270D+00 0.000D+00 0.224D+00
 Coeff-En:   0.311D+00
 Coeff:     -0.932D+00 0.105D+01 0.135D+00 0.249D+00-0.648D+00 0.963D+00
 Coeff:      0.182D+00
 Gap=     0.020 Goal=   None    Shift=    0.000
 RMSDP=4.01D-04 MaxDP=2.60D-02 DE=-9.97D-04 OVMax= 6.36D-02

 Cycle   8  Pass 1  IDiag  1:
 E= -1271.80752317540     Delta-E=       -0.000231783451 Rises=F Damp=F
 DIIS: error= 3.87D-03 at cycle   8 NSaved=   8.
 NSaved= 8 IEnMin= 8 EnMin= -1271.80752317540     IErMin= 8 ErrMin= 3.87D-03
 ErrMax= 3.87D-03  0.00D+00 EMaxC= 1.00D-01 BMatC= 9.93D-04 BMatP= 1.09D-03
 IDIUse=3 WtCom= 9.61D-01 WtEn= 3.87D-02
 EnCoef did   100 forward-backward iterations
 Rare condition: small coef for last iteration:  0.000D+00
 Coeff-Com: -0.992D+00 0.112D+01 0.591D-01 0.246D+00 0.309D+00-0.394D+00
 Coeff-Com:  0.422D+00 0.231D+00
 Coeff-En:   0.000D+00 0.000D+00 0.190D+00 0.267D+00 0.000D+00 0.185D+00
 Coeff-En:   0.163D+00 0.195D+00
 Coeff:     -0.992D+00 0.112D+01 0.591D-01 0.246D+00 0.309D+00-0.394D+00
 Coeff:      0.422D+00 0.231D+00
 Gap=     0.021 Goal=   None    Shift=    0.000
 RMSDP=3.12D-04 MaxDP=1.92D-02 DE=-2.32D-04 OVMax= 4.84D-02

 Cycle   9  Pass 1  IDiag  1:
 E= -1271.80934324286     Delta-E=       -0.001820067462 Rises=F Damp=F
 DIIS: error= 2.83D-03 at cycle   9 NSaved=   9.
 NSaved= 9 IEnMin= 9 EnMin= -1271.80934324286     IErMin= 9 ErrMin= 2.83D-03
 ErrMax= 2.83D-03  0.00D+00 EMaxC= 1.00D-01 BMatC= 3.33D-04 BMatP= 9.93D-04
 IDIUse=3 WtCom= 9.72D-01 WtEn= 2.83D-02
 EnCoef did   100 forward-backward iterations
 Rare condition: small coef for last iteration:  0.000D+00
 Coeff-Com: -0.977D+00 0.110D+01 0.303D-01 0.144D+00 0.964D+00-0.124D+01
 Coeff-Com: -0.565D-02 0.146D+00 0.838D+00
 Coeff-En:   0.000D+00 0.000D+00 0.197D+00 0.228D+00 0.550D-02 0.916D-01
 Coeff-En:   0.000D+00 0.343D-01 0.444D+00
 Coeff:     -0.977D+00 0.110D+01 0.303D-01 0.144D+00 0.964D+00-0.124D+01
 Coeff:     -0.565D-02 0.146D+00 0.838D+00
 Gap=     0.020 Goal=   None    Shift=    0.000
 RMSDP=9.61D-05 MaxDP=6.37D-03 DE=-1.82D-03 OVMax= 1.06D-02

 Cycle  10  Pass 1  IDiag  1:
 E= -1271.80966175534     Delta-E=       -0.000318512482 Rises=F Damp=F
 DIIS: error= 2.82D-03 at cycle  10 NSaved=  10.
 NSaved=10 IEnMin=10 EnMin= -1271.80966175534     IErMin=10 ErrMin= 2.82D-03
 ErrMax= 2.82D-03  0.00D+00 EMaxC= 1.00D-01 BMatC= 2.35D-04 BMatP= 3.33D-04
 IDIUse=3 WtCom= 9.72D-01 WtEn= 2.82D-02
 EnCoef did   100 forward-backward iterations
 Rare condition: small coef for last iteration:  0.000D+00
 Coeff-Com: -0.844D+00 0.953D+00 0.558D-01-0.396D-01 0.605D+00-0.647D+00
 Coeff-Com: -0.681D+00-0.255D+00 0.888D+00 0.964D+00
 Coeff-En:   0.000D+00 0.000D+00 0.200D+00 0.207D+00 0.160D-01 0.777D-01
 Coeff-En:   0.000D+00 0.000D+00 0.000D+00 0.499D+00
 Coeff:     -0.844D+00 0.953D+00 0.558D-01-0.396D-01 0.605D+00-0.647D+00
 Coeff:     -0.681D+00-0.255D+00 0.888D+00 0.964D+00
 Gap=     0.018 Goal=   None    Shift=    0.000
 RMSDP=2.84D-04 MaxDP=2.33D-02 DE=-3.19D-04 OVMax= 1.59D-02

 Cycle  11  Pass 1  IDiag  1:
 E= -1271.80927556068     Delta-E=        0.000386194666 Rises=F Damp=F
 DIIS: error= 3.17D-03 at cycle  11 NSaved=  11.
 NSaved=11 IEnMin=10 EnMin= -1271.80966175534     IErMin=10 ErrMin= 2.82D-03
 ErrMax= 3.17D-03  0.00D+00 EMaxC= 1.00D-01 BMatC= 4.16D-04 BMatP= 2.35D-04
 IDIUse=3 WtCom= 9.72D-01 WtEn= 2.82D-02
 EnCoef did   100 forward-backward iterations
 Rare condition: small coef for last iteration:  0.000D+00
 Coeff-Com: -0.765D+00 0.865D+00 0.424D-01-0.440D-01 0.412D+00-0.393D+00
 Coeff-Com: -0.661D+00-0.279D+00 0.622D+00 0.920D+00 0.281D+00
 Coeff-En:   0.000D+00 0.000D+00 0.199D+00 0.208D+00 0.157D-01 0.764D-01
 Coeff-En:   0.000D+00 0.000D+00 0.000D+00 0.472D+00 0.282D-01
 Coeff:     -0.765D+00 0.865D+00 0.424D-01-0.440D-01 0.412D+00-0.393D+00
 Coeff:     -0.661D+00-0.279D+00 0.622D+00 0.920D+00 0.281D+00
 Gap=     0.018 Goal=   None    Shift=    0.000
 RMSDP=5.87D-04 MaxDP=5.45D-02 DE= 3.86D-04 OVMax= 2.75D-02

 Cycle  12  Pass 1  IDiag  1:
 E= -1271.80955902931     Delta-E=       -0.000283468632 Rises=F Damp=F
 DIIS: error= 2.73D-03 at cycle  12 NSaved=  12.
 NSaved=12 IEnMin=10 EnMin= -1271.80966175534     IErMin=12 ErrMin= 2.73D-03
 ErrMax= 2.73D-03  0.00D+00 EMaxC= 1.00D-01 BMatC= 3.32D-04 BMatP= 2.35D-04
 IDIUse=3 WtCom= 9.72D-01 WtEn= 2.82D-02
 EnCoef did   100 forward-backward iterations
 Rare condition: small coef for last iteration:  0.000D+00
 Coeff-Com: -0.349D+00 0.396D+00-0.451D-01 0.462D-01-0.495D+00 0.718D+00
 Coeff-Com: -0.557D-01-0.144D+00-0.892D+00 0.144D-01 0.101D+01 0.793D+00
 Coeff-En:   0.000D+00 0.000D+00 0.196D+00 0.213D+00 0.149D-01 0.683D-01
 Coeff-En:   0.000D+00 0.000D+00 0.000D+00 0.353D+00 0.414D-01 0.113D+00
 Coeff:     -0.349D+00 0.396D+00-0.451D-01 0.462D-01-0.495D+00 0.718D+00
 Coeff:     -0.557D-01-0.144D+00-0.892D+00 0.144D-01 0.101D+01 0.793D+00
 Gap=     0.020 Goal=   None    Shift=    0.000
 RMSDP=6.74D-04 MaxDP=5.93D-02 DE=-2.83D-04 OVMax= 4.34D-02

 Cycle  13  Pass 1  IDiag  1:
 E= -1271.81028148666     Delta-E=       -0.000722457351 Rises=F Damp=F
 DIIS: error= 1.56D-03 at cycle  13 NSaved=  13.
 NSaved=13 IEnMin=13 EnMin= -1271.81028148666     IErMin=13 ErrMin= 1.56D-03
 ErrMax= 1.56D-03  0.00D+00 EMaxC= 1.00D-01 BMatC= 1.27D-04 BMatP= 2.35D-04
 IDIUse=3 WtCom= 9.84D-01 WtEn= 1.56D-02
 EnCoef did   100 forward-backward iterations
 Rare condition: small coef for last iteration:  0.000D+00
 Coeff-Com: -0.118D+00 0.133D+00-0.408D-01 0.746D-01-0.975D+00 0.133D+01
 Coeff-Com:  0.272D+00-0.487D-01-0.133D+01-0.404D+00 0.963D+00 0.832D+00
 Coeff-Com:  0.308D+00
 Coeff-En:   0.000D+00 0.000D+00 0.195D+00 0.136D+00 0.000D+00 0.000D+00
 Coeff-En:   0.000D+00 0.000D+00 0.000D+00 0.000D+00 0.417D-01 0.222D+00
 Coeff-En:   0.406D+00
 Coeff:     -0.118D+00 0.133D+00-0.408D-01 0.746D-01-0.975D+00 0.133D+01
 Coeff:      0.272D+00-0.487D-01-0.133D+01-0.404D+00 0.963D+00 0.832D+00
 Coeff:      0.308D+00
 Gap=     0.021 Goal=   None    Shift=    0.000
 RMSDP=4.59D-04 MaxDP=3.68D-02 DE=-7.22D-04 OVMax= 1.77D-02

 Cycle  14  Pass 1  IDiag  1:
 E= -1271.81038316080     Delta-E=       -0.000101674142 Rises=F Damp=F
 DIIS: error= 1.35D-03 at cycle  14 NSaved=  14.
 NSaved=14 IEnMin=14 EnMin= -1271.81038316080     IErMin=14 ErrMin= 1.35D-03
 ErrMax= 1.35D-03  0.00D+00 EMaxC= 1.00D-01 BMatC= 7.98D-05 BMatP= 1.27D-04
 IDIUse=3 WtCom= 9.86D-01 WtEn= 1.35D-02
 EnCoef did   100 forward-backward iterations
 Rare condition: small coef for last iteration:  0.669D-17
 Coeff-Com:  0.977D-01-0.115D+00 0.120D-01 0.571D-01-0.103D+01 0.141D+01
 Coeff-Com:  0.395D+00 0.671D-01-0.105D+01-0.508D+00 0.411D+00 0.400D+00
 Coeff-Com:  0.242D+00 0.612D+00
 Coeff-En:   0.000D+00 0.000D+00 0.195D+00 0.129D+00 0.000D+00 0.000D+00
 Coeff-En:   0.000D+00 0.000D+00 0.000D+00 0.000D+00 0.457D-01 0.202D+00
 Coeff-En:   0.889D-01 0.340D+00
 Coeff:      0.977D-01-0.115D+00 0.120D-01 0.571D-01-0.103D+01 0.141D+01
 Coeff:      0.395D+00 0.671D-01-0.105D+01-0.508D+00 0.411D+00 0.400D+00
 Coeff:      0.242D+00 0.612D+00
 Gap=     0.022 Goal=   None    Shift=    0.000
 RMSDP=1.99D-04 MaxDP=1.50D-02 DE=-1.02D-04 OVMax= 2.06D-02

 Cycle  15  Pass 1  IDiag  1:
 E= -1271.81053392629     Delta-E=       -0.000150765489 Rises=F Damp=F
 DIIS: error= 5.78D-04 at cycle  15 NSaved=  15.
 NSaved=15 IEnMin=15 EnMin= -1271.81053392629     IErMin=15 ErrMin= 5.78D-04
 ErrMax= 5.78D-04  0.00D+00 EMaxC= 1.00D-01 BMatC= 1.45D-05 BMatP= 7.98D-05
 IDIUse=3 WtCom= 9.94D-01 WtEn= 5.78D-03
 EnCoef did   100 forward-backward iterations
 Rare condition: small coef for last iteration:  0.000D+00
 Coeff-Com:  0.240D+00-0.276D+00 0.154D-01 0.239D-01-0.274D+00 0.364D+00
 Coeff-Com:  0.281D+00 0.116D+00-0.392D+00-0.335D+00-0.583D-01-0.127D-01
 Coeff-Com:  0.368D-01 0.670D+00 0.601D+00
 Coeff-En:   0.000D+00 0.000D+00 0.196D+00 0.122D+00 0.000D+00 0.000D+00
 Coeff-En:   0.000D+00 0.000D+00 0.000D+00 0.000D+00 0.956D-02 0.449D-01
 Coeff-En:   0.000D+00 0.220D+00 0.407D+00
 Coeff:      0.240D+00-0.276D+00 0.154D-01 0.239D-01-0.274D+00 0.364D+00
 Coeff:      0.281D+00 0.116D+00-0.392D+00-0.335D+00-0.583D-01-0.127D-01
 Coeff:      0.368D-01 0.670D+00 0.601D+00
 Gap=     0.023 Goal=   None    Shift=    0.000
 RMSDP=9.38D-05 MaxDP=6.24D-03 DE=-1.51D-04 OVMax= 8.86D-03

 Cycle  16  Pass 1  IDiag  1:
 E= -1271.81054095971     Delta-E=       -0.000007033420 Rises=F Damp=F
 DIIS: error= 9.06D-04 at cycle  16 NSaved=  16.
 NSaved=16 IEnMin=16 EnMin= -1271.81054095971     IErMin=15 ErrMin= 5.78D-04
 ErrMax= 9.06D-04  0.00D+00 EMaxC= 1.00D-01 BMatC= 2.13D-05 BMatP= 1.45D-05
 IDIUse=3 WtCom= 9.94D-01 WtEn= 5.78D-03
 EnCoef did   100 forward-backward iterations
 Rare condition: small coef for last iteration:  0.327D-17
 Coeff-Com:  0.235D+00-0.269D+00 0.306D-02 0.161D-01-0.475D-01 0.506D-01
 Coeff-Com:  0.193D+00 0.888D-01-0.246D+00-0.234D+00-0.500D-01-0.188D-01
 Coeff-Com:  0.813D-02 0.497D+00 0.559D+00 0.215D+00
 Coeff-En:   0.000D+00 0.000D+00 0.196D+00 0.117D+00 0.000D+00 0.000D+00
 Coeff-En:   0.000D+00 0.000D+00 0.000D+00 0.000D+00 0.343D-02 0.265D-01
 Coeff-En:   0.000D+00 0.200D+00 0.203D+00 0.253D+00
 Coeff:      0.235D+00-0.269D+00 0.306D-02 0.161D-01-0.475D-01 0.506D-01
 Coeff:      0.193D+00 0.888D-01-0.246D+00-0.234D+00-0.500D-01-0.188D-01
 Coeff:      0.813D-02 0.497D+00 0.559D+00 0.215D+00
 Gap=     0.023 Goal=   None    Shift=    0.000
 RMSDP=5.25D-05 MaxDP=4.38D-03 DE=-7.03D-06 OVMax= 1.13D-02

 Cycle  17  Pass 1  IDiag  1:
 E= -1271.81056841445     Delta-E=       -0.000027454739 Rises=F Damp=F
 DIIS: error= 6.38D-04 at cycle  17 NSaved=  17.
 NSaved=17 IEnMin=17 EnMin= -1271.81056841445     IErMin=15 ErrMin= 5.78D-04
 ErrMax= 6.38D-04  0.00D+00 EMaxC= 1.00D-01 BMatC= 8.34D-06 BMatP= 1.45D-05
 IDIUse=3 WtCom= 9.94D-01 WtEn= 5.78D-03
 EnCoef did   100 forward-backward iterations
 Rare condition: small coef for last iteration:  0.000D+00
 Coeff-Com:  0.203D+00-0.232D+00-0.421D-02 0.867D-02 0.664D-02-0.201D-01
 Coeff-Com:  0.694D-01 0.288D-01-0.146D+00-0.102D+00 0.344D-01 0.379D-01
 Coeff-Com:  0.197D-01 0.202D+00 0.239D+00 0.208D+00 0.448D+00
 Coeff-En:   0.000D+00 0.000D+00 0.195D+00 0.110D+00 0.000D+00 0.000D+00
 Coeff-En:   0.000D+00 0.000D+00 0.000D+00 0.000D+00 0.000D+00 0.000D+00
 Coeff-En:   0.000D+00 0.579D-01 0.000D+00 0.225D+00 0.412D+00
 Coeff:      0.203D+00-0.232D+00-0.421D-02 0.867D-02 0.664D-02-0.201D-01
 Coeff:      0.694D-01 0.288D-01-0.146D+00-0.102D+00 0.344D-01 0.379D-01
 Coeff:      0.197D-01 0.202D+00 0.239D+00 0.208D+00 0.448D+00
 Gap=     0.022 Goal=   None    Shift=    0.000
 RMSDP=3.84D-05 MaxDP=2.74D-03 DE=-2.75D-05 OVMax= 4.41D-03

 Cycle  18  Pass 1  IDiag  1:
 E= -1271.81056397931     Delta-E=        0.000004435144 Rises=F Damp=F
 DIIS: error= 6.63D-04 at cycle  18 NSaved=  18.
 NSaved=18 IEnMin=17 EnMin= -1271.81056841445     IErMin=15 ErrMin= 5.78D-04
 ErrMax= 6.63D-04  0.00D+00 EMaxC= 1.00D-01 BMatC= 1.05D-05 BMatP= 8.34D-06
 IDIUse=3 WtCom= 9.94D-01 WtEn= 5.78D-03
 EnCoef did   100 forward-backward iterations
 Rare condition: small coef for last iteration:  0.000D+00
 Coeff-Com:  0.181D+00-0.206D+00 0.143D-01-0.341D-02-0.106D+00 0.153D+00
 Coeff-Com: -0.769D-01-0.381D-01 0.601D-01 0.647D-01-0.625D-03-0.575D-02
 Coeff-Com:  0.192D-01-0.940D-01-0.204D+00 0.515D-02 0.431D+00 0.807D+00
 Coeff-En:   0.000D+00 0.000D+00 0.194D+00 0.110D+00 0.000D+00 0.000D+00
 Coeff-En:   0.000D+00 0.000D+00 0.000D+00 0.000D+00 0.000D+00 0.000D+00
 Coeff-En:   0.000D+00 0.155D-01 0.000D+00 0.228D+00 0.292D+00 0.161D+00
 Coeff:      0.181D+00-0.206D+00 0.143D-01-0.341D-02-0.106D+00 0.153D+00
 Coeff:     -0.769D-01-0.381D-01 0.601D-01 0.647D-01-0.625D-03-0.575D-02
 Coeff:      0.192D-01-0.940D-01-0.204D+00 0.515D-02 0.431D+00 0.807D+00
 Gap=     0.023 Goal=   None    Shift=    0.000
 RMSDP=3.39D-05 MaxDP=2.48D-03 DE= 4.44D-06 OVMax= 8.20D-03

 Cycle  19  Pass 1  IDiag  1:
 E= -1271.81057717496     Delta-E=       -0.000013195659 Rises=F Damp=F
 DIIS: error= 4.57D-04 at cycle  19 NSaved=  19.
 NSaved=19 IEnMin=19 EnMin= -1271.81057717496     IErMin=19 ErrMin= 4.57D-04
 ErrMax= 4.57D-04  0.00D+00 EMaxC= 1.00D-01 BMatC= 8.08D-06 BMatP= 8.34D-06
 IDIUse=3 WtCom= 9.95D-01 WtEn= 4.57D-03
 EnCoef did   100 forward-backward iterations
 Rare condition: small coef for last iteration:  0.000D+00
 Coeff-Com:  0.931D-01-0.106D+00 0.231D-02 0.127D-01-0.957D-01 0.133D+00
 Coeff-Com: -0.535D-01-0.238D-01 0.254D-01 0.285D-01 0.372D-01 0.371D-01
 Coeff-Com:  0.614D-01-0.564D-01-0.325D+00-0.216D+00-0.182D+00 0.492D+00
 Coeff-Com:  0.113D+01
 Coeff-En:   0.000D+00 0.000D+00 0.191D+00 0.112D+00 0.000D+00 0.000D+00
 Coeff-En:   0.000D+00 0.000D+00 0.000D+00 0.000D+00 0.000D+00 0.000D+00
 Coeff-En:   0.000D+00 0.000D+00 0.000D+00 0.000D+00 0.000D+00 0.292D+00
 Coeff-En:   0.406D+00
 Coeff:      0.931D-01-0.106D+00 0.231D-02 0.127D-01-0.957D-01 0.133D+00
 Coeff:     -0.535D-01-0.238D-01 0.254D-01 0.285D-01 0.372D-01 0.371D-01
 Coeff:      0.614D-01-0.564D-01-0.325D+00-0.216D+00-0.182D+00 0.492D+00
 Coeff:      0.113D+01
 Gap=     0.023 Goal=   None    Shift=    0.000
 RMSDP=2.10D-05 MaxDP=1.46D-03 DE=-1.32D-05 OVMax= 3.78D-03

 Cycle  20  Pass 1  IDiag  1:
 E= -1271.81059239677     Delta-E=       -0.000015221810 Rises=F Damp=F
 DIIS: error= 2.11D-04 at cycle  20 NSaved=  20.
 NSaved=20 IEnMin=20 EnMin= -1271.81059239677     IErMin=20 ErrMin= 2.11D-04
 ErrMax= 2.11D-04  0.00D+00 EMaxC= 1.00D-01 BMatC= 1.01D-06 BMatP= 8.08D-06
 IDIUse=3 WtCom= 9.98D-01 WtEn= 2.11D-03
 EnCoef did   100 forward-backward iterations
 Rare condition: small coef for last iteration:  0.000D+00
 Coeff-Com:  0.297D-01-0.338D-01 0.699D-03 0.472D-02-0.122D-01 0.166D-01
 Coeff-Com: -0.752D-02 0.279D-02 0.823D-03 0.399D-02 0.116D-01 0.107D-01
 Coeff-Com:  0.148D-01 0.740D-02-0.550D-01-0.661D-01-0.140D+00-0.275D-01
 Coeff-Com:  0.759D-01 0.116D+01
 Coeff-En:   0.000D+00 0.000D+00 0.189D+00 0.107D+00 0.000D+00 0.000D+00
 Coeff-En:   0.000D+00 0.000D+00 0.000D+00 0.000D+00 0.000D+00 0.000D+00
 Coeff-En:   0.000D+00 0.000D+00 0.000D+00 0.000D+00 0.000D+00 0.000D+00
 Coeff-En:   0.495D-01 0.655D+00
 Coeff:      0.297D-01-0.338D-01 0.699D-03 0.472D-02-0.122D-01 0.166D-01
 Coeff:     -0.752D-02 0.279D-02 0.823D-03 0.399D-02 0.116D-01 0.107D-01
 Coeff:      0.148D-01 0.740D-02-0.550D-01-0.661D-01-0.140D+00-0.275D-01
 Coeff:      0.759D-01 0.116D+01
 Gap=     0.023 Goal=   None    Shift=    0.000
 RMSDP=2.65D-05 MaxDP=2.45D-03 DE=-1.52D-05 OVMax= 1.42D-03

 Cycle  21  Pass 1  IDiag  1:
 E= -1271.81059471836     Delta-E=       -0.000002321590 Rises=F Damp=F
 DIIS: error= 7.10D-05 at cycle  21 NSaved=  20.
 NSaved=20 IEnMin=20 EnMin= -1271.81059471836     IErMin=20 ErrMin= 7.10D-05
 ErrMax= 7.10D-05  0.00D+00 EMaxC= 1.00D-01 BMatC= 1.86D-07 BMatP= 1.01D-06
 IDIUse=1 WtCom= 1.00D+00 WtEn= 0.00D+00
 Coeff-Com:  0.494D-02-0.567D-02 0.485D-03 0.154D-01-0.220D-01 0.808D-02
 Coeff-Com:  0.913D-02-0.921D-02-0.458D-02 0.352D-02 0.280D-02-0.220D-02
 Coeff-Com:  0.246D-01 0.391D-01-0.342D-03-0.782D-01-0.163D+00-0.275D+00
 Coeff-Com:  0.108D+01 0.376D+00
 Coeff:      0.494D-02-0.567D-02 0.485D-03 0.154D-01-0.220D-01 0.808D-02
 Coeff:      0.913D-02-0.921D-02-0.458D-02 0.352D-02 0.280D-02-0.220D-02
 Coeff:      0.246D-01 0.391D-01-0.342D-03-0.782D-01-0.163D+00-0.275D+00
 Coeff:      0.108D+01 0.376D+00
 Gap=     0.023 Goal=   None    Shift=    0.000
 RMSDP=2.30D-05 MaxDP=2.13D-03 DE=-2.32D-06 OVMax= 5.82D-04

 Cycle  22  Pass 1  IDiag  1:
 E= -1271.81059511956     Delta-E=       -0.000000401192 Rises=F Damp=F
 DIIS: error= 1.43D-05 at cycle  22 NSaved=  20.
 NSaved=20 IEnMin=20 EnMin= -1271.81059511956     IErMin=20 ErrMin= 1.43D-05
 ErrMax= 1.43D-05  0.00D+00 EMaxC= 1.00D-01 BMatC= 1.50D-08 BMatP= 1.86D-07
 IDIUse=1 WtCom= 1.00D+00 WtEn= 0.00D+00
 Coeff-Com: -0.610D-03 0.717D-03-0.345D-03 0.989D-04 0.701D-02 0.307D-02
 Coeff-Com: -0.123D-01-0.782D-02 0.492D-02 0.482D-02 0.210D-02 0.125D-01
 Coeff-Com:  0.109D-01 0.106D-02-0.146D-01-0.357D-01-0.648D-01 0.134D+00
 Coeff-Com:  0.148D+00 0.808D+00
 Coeff:     -0.610D-03 0.717D-03-0.345D-03 0.989D-04 0.701D-02 0.307D-02
 Coeff:     -0.123D-01-0.782D-02 0.492D-02 0.482D-02 0.210D-02 0.125D-01
 Coeff:      0.109D-01 0.106D-02-0.146D-01-0.357D-01-0.648D-01 0.134D+00
 Coeff:      0.148D+00 0.808D+00
 Gap=     0.023 Goal=   None    Shift=    0.000
 RMSDP=3.24D-06 MaxDP=2.10D-04 DE=-4.01D-07 OVMax= 1.87D-04

 Cycle  23  Pass 1  IDiag  1:
 E= -1271.81059513822     Delta-E=       -0.000000018660 Rises=F Damp=F
 DIIS: error= 4.27D-06 at cycle  23 NSaved=  20.
 NSaved=20 IEnMin=20 EnMin= -1271.81059513822     IErMin=20 ErrMin= 4.27D-06
 ErrMax= 4.27D-06  0.00D+00 EMaxC= 1.00D-01 BMatC= 1.71D-09 BMatP= 1.50D-08
 IDIUse=1 WtCom= 1.00D+00 WtEn= 0.00D+00
 Coeff-Com: -0.150D-02 0.173D-02-0.146D-03 0.427D-02 0.116D-02-0.597D-02
 Coeff-Com: -0.503D-02 0.116D-02 0.141D-02 0.125D-02 0.628D-02 0.336D-02
 Coeff-Com:  0.619D-03 0.141D-02-0.101D-02 0.116D-03-0.764D-01 0.268D-01
 Coeff-Com:  0.458D+00 0.582D+00
 Coeff:     -0.150D-02 0.173D-02-0.146D-03 0.427D-02 0.116D-02-0.597D-02
 Coeff:     -0.503D-02 0.116D-02 0.141D-02 0.125D-02 0.628D-02 0.336D-02
 Coeff:      0.619D-03 0.141D-02-0.101D-02 0.116D-03-0.764D-01 0.268D-01
 Coeff:      0.458D+00 0.582D+00
 Gap=     0.023 Goal=   None    Shift=    0.000
 RMSDP=1.66D-06 MaxDP=1.01D-04 DE=-1.87D-08 OVMax= 9.51D-05

 Cycle  24  Pass 1  IDiag  1:
 E= -1271.81059513867     Delta-E=       -0.000000000457 Rises=F Damp=F
 DIIS: error= 5.46D-06 at cycle  24 NSaved=  20.
 NSaved=20 IEnMin=20 EnMin= -1271.81059513867     IErMin=19 ErrMin= 4.27D-06
 ErrMax= 5.46D-06  0.00D+00 EMaxC= 1.00D-01 BMatC= 1.36D-09 BMatP= 1.71D-09
 IDIUse=1 WtCom= 1.00D+00 WtEn= 0.00D+00
 Coeff-Com: -0.112D-02 0.128D-02 0.148D-02-0.200D-03-0.921D-03-0.164D-02
 Coeff-Com: -0.125D-02-0.882D-03 0.104D-04 0.153D-02-0.532D-03 0.416D-03
 Coeff-Com:  0.547D-02 0.114D-01 0.227D-01-0.105D+00-0.370D-01 0.362D-01
 Coeff-Com:  0.521D+00 0.547D+00
 Coeff:     -0.112D-02 0.128D-02 0.148D-02-0.200D-03-0.921D-03-0.164D-02
 Coeff:     -0.125D-02-0.882D-03 0.104D-04 0.153D-02-0.532D-03 0.416D-03
 Coeff:      0.547D-02 0.114D-01 0.227D-01-0.105D+00-0.370D-01 0.362D-01
 Coeff:      0.521D+00 0.547D+00
 Gap=     0.023 Goal=   None    Shift=    0.000
 RMSDP=8.29D-07 MaxDP=7.17D-05 DE=-4.57D-10 OVMax= 4.70D-05

 Cycle  25  Pass 1  IDiag  1:
 E= -1271.81059514137     Delta-E=       -0.000000002697 Rises=F Damp=F
 DIIS: error= 3.07D-06 at cycle  25 NSaved=  20.
 NSaved=20 IEnMin=20 EnMin= -1271.81059514137     IErMin=20 ErrMin= 3.07D-06
 ErrMax= 3.07D-06  0.00D+00 EMaxC= 1.00D-01 BMatC= 2.40D-10 BMatP= 1.36D-09
 IDIUse=1 WtCom= 1.00D+00 WtEn= 0.00D+00
 Coeff-Com:  0.392D-05 0.508D-03-0.172D-03-0.665D-04-0.430D-03-0.614D-03
 Coeff-Com: -0.498D-03-0.254D-03 0.702D-03 0.276D-03 0.351D-03 0.157D-02
 Coeff-Com:  0.282D-02 0.449D-02-0.152D-01-0.101D-01-0.248D-01 0.835D-01
 Coeff-Com:  0.134D+00 0.824D+00
 Coeff:      0.392D-05 0.508D-03-0.172D-03-0.665D-04-0.430D-03-0.614D-03
 Coeff:     -0.498D-03-0.254D-03 0.702D-03 0.276D-03 0.351D-03 0.157D-02
 Coeff:      0.282D-02 0.449D-02-0.152D-01-0.101D-01-0.248D-01 0.835D-01
 Coeff:      0.134D+00 0.824D+00
 Gap=     0.023 Goal=   None    Shift=    0.000
 RMSDP=3.59D-07 MaxDP=2.90D-05 DE=-2.70D-09 OVMax= 3.42D-05

 Cycle  26  Pass 1  IDiag  1:
 E= -1271.81059514197     Delta-E=       -0.000000000600 Rises=F Damp=F
 DIIS: error= 6.63D-07 at cycle  26 NSaved=  20.
 NSaved=20 IEnMin=20 EnMin= -1271.81059514197     IErMin=20 ErrMin= 6.63D-07
 ErrMax= 6.63D-07  0.00D+00 EMaxC= 1.00D-01 BMatC= 3.17D-11 BMatP= 2.40D-10
 IDIUse=1 WtCom= 1.00D+00 WtEn= 0.00D+00
 Coeff-Com:  0.969D-06-0.113D-03 0.291D-03 0.173D-03-0.148D-03-0.161D-03
 Coeff-Com: -0.251D-03-0.280D-04 0.482D-03 0.169D-03-0.493D-03-0.175D-02
 Coeff-Com: -0.366D-02 0.183D-01 0.285D-02-0.307D-01-0.886D-01-0.569D-01
 Coeff-Com:  0.665D+00 0.495D+00
 Coeff:      0.969D-06-0.113D-03 0.291D-03 0.173D-03-0.148D-03-0.161D-03
 Coeff:     -0.251D-03-0.280D-04 0.482D-03 0.169D-03-0.493D-03-0.175D-02
 Coeff:     -0.366D-02 0.183D-01 0.285D-02-0.307D-01-0.886D-01-0.569D-01
 Coeff:      0.665D+00 0.495D+00
 Gap=     0.023 Goal=   None    Shift=    0.000
 RMSDP=1.02D-07 MaxDP=7.00D-06 DE=-6.00D-10 OVMax= 9.64D-06

 Cycle  27  Pass 1  IDiag  1:
 E= -1271.81059514203     Delta-E=       -0.000000000056 Rises=F Damp=F
 DIIS: error= 2.41D-07 at cycle  27 NSaved=  20.
 NSaved=20 IEnMin=20 EnMin= -1271.81059514203     IErMin=20 ErrMin= 2.41D-07
 ErrMax= 2.41D-07  0.00D+00 EMaxC= 1.00D-01 BMatC= 4.22D-12 BMatP= 3.17D-11
 IDIUse=1 WtCom= 1.00D+00 WtEn= 0.00D+00
 Coeff-Com: -0.943D-05-0.468D-05 0.234D-04 0.268D-04 0.138D-04-0.810D-04
 Coeff-Com:  0.871D-04 0.590D-03 0.276D-03-0.221D-03-0.152D-02-0.271D-02
 Coeff-Com:  0.946D-02 0.263D-02-0.996D-02-0.467D-01-0.374D-01 0.219D+00
 Coeff-Com:  0.274D+00 0.593D+00
 Coeff:     -0.943D-05-0.468D-05 0.234D-04 0.268D-04 0.138D-04-0.810D-04
 Coeff:      0.871D-04 0.590D-03 0.276D-03-0.221D-03-0.152D-02-0.271D-02
 Coeff:      0.946D-02 0.263D-02-0.996D-02-0.467D-01-0.374D-01 0.219D+00
 Coeff:      0.274D+00 0.593D+00
 Gap=     0.023 Goal=   None    Shift=    0.000
 RMSDP=1.45D-07 MaxDP=1.18D-05 DE=-5.57D-11 OVMax= 3.84D-06

 Cycle  28  Pass 1  IDiag  1:
 E= -1271.81059514204     Delta-E=       -0.000000000011 Rises=F Damp=F
 DIIS: error= 8.75D-08 at cycle  28 NSaved=  20.
 NSaved=20 IEnMin=20 EnMin= -1271.81059514204     IErMin=20 ErrMin= 8.75D-08
 ErrMax= 8.75D-08  0.00D+00 EMaxC= 1.00D-01 BMatC= 5.10D-13 BMatP= 4.22D-12
 IDIUse=1 WtCom= 1.00D+00 WtEn= 0.00D+00
 Coeff-Com: -0.411D-04-0.611D-05 0.410D-04 0.304D-04 0.366D-04-0.215D-04
 Coeff-Com: -0.205D-04 0.336D-04 0.112D-03 0.829D-04 0.941D-04-0.107D-02
 Coeff-Com:  0.169D-04 0.195D-02 0.346D-02 0.280D-02-0.508D-01-0.711D-02
 Coeff-Com:  0.207D+00 0.843D+00
 Coeff:     -0.411D-04-0.611D-05 0.410D-04 0.304D-04 0.366D-04-0.215D-04
 Coeff:     -0.205D-04 0.336D-04 0.112D-03 0.829D-04 0.941D-04-0.107D-02
 Coeff:      0.169D-04 0.195D-02 0.346D-02 0.280D-02-0.508D-01-0.711D-02
 Coeff:      0.207D+00 0.843D+00
 Gap=     0.023 Goal=   None    Shift=    0.000
 RMSDP=6.07D-08 MaxDP=4.94D-06 DE=-1.07D-11 OVMax= 1.94D-06

 Cycle  29  Pass 1  IDiag  1:
 E= -1271.81059514204     Delta-E=        0.000000000000 Rises=F Damp=F
 DIIS: error= 1.37D-07 at cycle  29 NSaved=  20.
 NSaved=20 IEnMin=19 EnMin= -1271.81059514204     IErMin=19 ErrMin= 8.75D-08
 ErrMax= 1.37D-07  0.00D+00 EMaxC= 1.00D-01 BMatC= 6.18D-13 BMatP= 5.10D-13
 IDIUse=1 WtCom= 1.00D+00 WtEn= 0.00D+00
 Coeff-Com:  0.120D-05 0.197D-05 0.718D-05 0.485D-04-0.265D-04-0.159D-03
 Coeff-Com: -0.821D-04 0.105D-04 0.327D-03 0.740D-03-0.220D-02-0.513D-03
 Coeff-Com:  0.195D-02 0.825D-02 0.674D-02-0.745D-01-0.494D-01 0.558D-01
 Coeff-Com:  0.639D+00 0.414D+00
 Coeff:      0.120D-05 0.197D-05 0.718D-05 0.485D-04-0.265D-04-0.159D-03
 Coeff:     -0.821D-04 0.105D-04 0.327D-03 0.740D-03-0.220D-02-0.513D-03
 Coeff:      0.195D-02 0.825D-02 0.674D-02-0.745D-01-0.494D-01 0.558D-01
 Coeff:      0.639D+00 0.414D+00
 Gap=     0.023 Goal=   None    Shift=    0.000
 RMSDP=3.79D-08 MaxDP=3.72D-06 DE= 4.55D-13 OVMax= 1.96D-06

 Cycle  30  Pass 1  IDiag  1:
 E= -1271.81059514204     Delta-E=       -0.000000000002 Rises=F Damp=F
 DIIS: error= 4.23D-08 at cycle  30 NSaved=  20.
 NSaved=20 IEnMin=20 EnMin= -1271.81059514204     IErMin=20 ErrMin= 4.23D-08
 ErrMax= 4.23D-08  0.00D+00 EMaxC= 1.00D-01 BMatC= 1.36D-13 BMatP= 5.10D-13
 IDIUse=1 WtCom= 1.00D+00 WtEn= 0.00D+00
 Coeff-Com:  0.558D-05 0.153D-04 0.238D-04-0.400D-04-0.134D-03-0.487D-04
 Coeff-Com:  0.686D-04 0.289D-03 0.385D-03-0.137D-02-0.264D-03 0.182D-02
 Coeff-Com:  0.537D-02 0.386D-02-0.352D-01-0.314D-01-0.217D-01 0.215D+00
 Coeff-Com:  0.267D+00 0.596D+00
 Coeff:      0.558D-05 0.153D-04 0.238D-04-0.400D-04-0.134D-03-0.487D-04
 Coeff:      0.686D-04 0.289D-03 0.385D-03-0.137D-02-0.264D-03 0.182D-02
 Coeff:      0.537D-02 0.386D-02-0.352D-01-0.314D-01-0.217D-01 0.215D+00
 Coeff:      0.267D+00 0.596D+00
 Gap=     0.023 Goal=   None    Shift=    0.000
 RMSDP=3.20D-08 MaxDP=2.32D-06 DE=-1.59D-12 OVMax= 2.29D-06

 Cycle  31  Pass 1  IDiag  1:
 E= -1271.81059514204     Delta-E=        0.000000000001 Rises=F Damp=F
 DIIS: error= 1.14D-07 at cycle  31 NSaved=  20.
 NSaved=20 IEnMin=19 EnMin= -1271.81059514204     IErMin=19 ErrMin= 4.23D-08
 ErrMax= 1.14D-07  0.00D+00 EMaxC= 1.00D-01 BMatC= 3.54D-13 BMatP= 1.36D-13
 IDIUse=1 WtCom= 1.00D+00 WtEn= 0.00D+00
 Coeff-Com:  0.116D-04 0.318D-05 0.120D-04-0.270D-04-0.375D-04-0.902D-04
 Coeff-Com: -0.301D-04 0.813D-04 0.174D-03 0.166D-04 0.179D-04 0.719D-03
 Coeff-Com: -0.417D-03-0.204D-01-0.192D-01-0.340D-01-0.382D-01 0.887D-01
 Coeff-Com:  0.568D+00 0.455D+00
 Coeff:      0.116D-04 0.318D-05 0.120D-04-0.270D-04-0.375D-04-0.902D-04
 Coeff:     -0.301D-04 0.813D-04 0.174D-03 0.166D-04 0.179D-04 0.719D-03
 Coeff:     -0.417D-03-0.204D-01-0.192D-01-0.340D-01-0.382D-01 0.887D-01
 Coeff:      0.568D+00 0.455D+00
 Gap=     0.023 Goal=   None    Shift=    0.000
 RMSDP=2.53D-08 MaxDP=2.20D-06 DE= 1.36D-12 OVMax= 2.34D-06

 Cycle  32  Pass 1  IDiag  1:
 E= -1271.81059514204     Delta-E=       -0.000000000002 Rises=F Damp=F
 DIIS: error= 1.08D-07 at cycle  32 NSaved=  20.
 NSaved=20 IEnMin=20 EnMin= -1271.81059514204     IErMin=18 ErrMin= 4.23D-08
 ErrMax= 1.08D-07  0.00D+00 EMaxC= 1.00D-01 BMatC= 3.20D-13 BMatP= 1.36D-13
 IDIUse=1 WtCom= 1.00D+00 WtEn= 0.00D+00
 Coeff-Com:  0.155D-05 0.125D-04-0.338D-04-0.250D-04-0.214D-04 0.496D-04
 Coeff-Com:  0.166D-03-0.376D-03-0.757D-04 0.836D-03 0.240D-02 0.856D-03
 Coeff-Com: -0.121D-01-0.154D-01-0.451D-01-0.138D+00 0.198D-01 0.548D+00
 Coeff-Com:  0.417D+00 0.221D+00
 Coeff:      0.155D-05 0.125D-04-0.338D-04-0.250D-04-0.214D-04 0.496D-04
 Coeff:      0.166D-03-0.376D-03-0.757D-04 0.836D-03 0.240D-02 0.856D-03
 Coeff:     -0.121D-01-0.154D-01-0.451D-01-0.138D+00 0.198D-01 0.548D+00
 Coeff:      0.417D+00 0.221D+00
 Gap=     0.023 Goal=   None    Shift=    0.000
 RMSDP=3.59D-08 MaxDP=3.16D-06 DE=-1.82D-12 OVMax= 1.76D-06

 Cycle  33  Pass 1  IDiag  1:
 E= -1271.81059514204     Delta-E=       -0.000000000000 Rises=F Damp=F
 DIIS: error= 3.54D-08 at cycle  33 NSaved=  20.
 NSaved=20 IEnMin=20 EnMin= -1271.81059514204     IErMin=20 ErrMin= 3.54D-08
 ErrMax= 3.54D-08  0.00D+00 EMaxC= 1.00D-01 BMatC= 8.30D-14 BMatP= 1.36D-13
 IDIUse=1 WtCom= 1.00D+00 WtEn= 0.00D+00
 Coeff-Com:  0.235D-04-0.163D-04-0.200D-04-0.335D-04-0.691D-05 0.101D-03
 Coeff-Com: -0.945D-04 0.900D-05 0.762D-03 0.139D-02 0.924D-05-0.378D-02
 Coeff-Com: -0.800D-02-0.317D-01-0.133D+00-0.605D-01 0.229D+00 0.294D+00
 Coeff-Com:  0.269D+00 0.444D+00
 Coeff:      0.235D-04-0.163D-04-0.200D-04-0.335D-04-0.691D-05 0.101D-03
 Coeff:     -0.945D-04 0.900D-05 0.762D-03 0.139D-02 0.924D-05-0.378D-02
 Coeff:     -0.800D-02-0.317D-01-0.133D+00-0.605D-01 0.229D+00 0.294D+00
 Coeff:      0.269D+00 0.444D+00
 Gap=     0.023 Goal=   None    Shift=    0.000
 RMSDP=1.38D-08 MaxDP=1.16D-06 DE=-2.27D-13 OVMax= 6.67D-07

 Cycle  34  Pass 1  IDiag  1:
 E= -1271.81059514204     Delta-E=       -0.000000000001 Rises=F Damp=F
 DIIS: error= 2.46D-08 at cycle  34 NSaved=  20.
 NSaved=20 IEnMin=20 EnMin= -1271.81059514204     IErMin=20 ErrMin= 2.46D-08
 ErrMax= 2.46D-08  0.00D+00 EMaxC= 1.00D-01 BMatC= 3.43D-14 BMatP= 8.30D-14
 IDIUse=1 WtCom= 1.00D+00 WtEn= 0.00D+00
 Coeff-Com:  0.458D-04 0.281D-04-0.303D-05-0.147D-03-0.216D-03 0.653D-03
 Coeff-Com:  0.192D-03-0.334D-03-0.298D-02-0.327D-02 0.124D-01 0.167D-01
 Coeff-Com:  0.329D-01-0.495D-01-0.146D+00-0.299D+00-0.293D+00 0.691D-01
 Coeff-Com:  0.441D+00 0.122D+01
 Coeff:      0.458D-04 0.281D-04-0.303D-05-0.147D-03-0.216D-03 0.653D-03
 Coeff:      0.192D-03-0.334D-03-0.298D-02-0.327D-02 0.124D-01 0.167D-01
 Coeff:      0.329D-01-0.495D-01-0.146D+00-0.299D+00-0.293D+00 0.691D-01
 Coeff:      0.441D+00 0.122D+01
 Gap=     0.023 Goal=   None    Shift=    0.000
 RMSDP=6.79D-09 MaxDP=5.01D-07 DE=-1.14D-12 OVMax= 4.44D-07

 SCF Done:  E(ROHF) =  -1271.81059514     A.U. after   34 cycles
            NFock= 34  Conv=0.68D-08     -V/T= 1.9594
 <Sx>= 0.0000 <Sy>= 0.0000 <Sz>= 1.5000 <S**2>= 3.7500 S= 1.5000
 <L.S>=  0.00000000000    
 KE= 1.325582764324D+03 PE=-3.105128466383D+03 EE= 4.979075301432D+02
 Annihilation of the first spin contaminant:
 S**2 before annihilation     3.7500,   after     3.7500
 Leave Link  502 at Wed Mar  7 11:04:56 2018, MaxMem= 10737418240 cpu:             452.4 elap:              17.2
 (Enter /home1/apps/gaussian/16rA.03/g16/l801.exe)
 Windowed orbitals will be sorted by symmetry type.
 GenMOA:  NOpAll=  4 NOp2=4 NOpUse=  4 JSym2X=1
 FoFJK:  IHMeth= 1 ICntrl=       0 DoSepK=F KAlg= 0 I1Cent=           0 FoldK=F
 IRaf=         0 NMat=       1 IRICut=       1 DoRegI=T DoRafI=F ISym2E= 1 IDoP0=0 IntGTp=1.
 FoFCou: FMM=F IPFlag=           8 FMFlag=      100000 FMFlg1=           0
         NFxFlg=           0 DoJE=F BraDBF=F KetDBF=F FulRan=T
         wScrn=  0.000000 ICntrl=         0 IOpCl=  1 I1Cent=           0 NGrid=           0
         NMat0=    1 NMatS0=      1 NMatT0=    0 NMatD0=    1 NMtDS0=    0 NMtDT0=    0
 Petite list used in FoFCou.
 <Sx>= 0.0000 <Sy>= 0.0000 <Sz>= 1.5000 <S**2>= 3.7500 S= 1.5000
 Range of M.O.s used for correlation:     1   212
 NBasis=   215 NAE=    15 NBE=    12 NFC=     0 NFV=     0
 NROrb=    212 NOA=    15 NOB=    12 NVA=   197 NVB=   200

 **** Warning!!: The largest alpha MO coefficient is  0.24185116D+03


 **** Warning!!: The largest beta MO coefficient is  0.24125659D+03

 Singles contribution to E2=   -0.6949111015D-02
 Leave Link  801 at Wed Mar  7 11:05:00 2018, MaxMem= 10737418240 cpu:              96.2 elap:               3.1
 (Enter /home1/apps/gaussian/16rA.03/g16/l804.exe)
 Open-shell transformation, MDV= 10737418240 ITran=4 ISComp=2.
 Unit  1 TFree=       1394465 TCopy=       1159373.
 Semi-Direct transformation.
 ModeAB=           2 MOrb=            15 LenV=   10735947360
 LASXX=     17565216 LTotXX=    17565216 LenRXX=    17565216
 LTotAB=    17966151 MaxLAS=   106246980 LenRXY=   106246980
 NonZer=   108466620 LenScr=   163471360 LnRSAI=           0
 LnScr1=           0 LExtra=    11705918 Total=    298989474
 MaxDsk= 67108864000 SrtSym=           F ITran=            4
 DoSDTr:  NPSUse= 32
 JobTyp=1 Pass  1:  I=   1 to  15.
 (rs|ai) integrals will be sorted in core.
 Complete sort for first half transformation.
 First half transformation complete.
 Begin second half transformation for I=  10.
 Begin second half transformation for I=  10.
 Complete sort for second half transformation.
 Second half transformation complete.
 ModeAB=           2 MOrb=            12 LenV=   10735947360
 LASXX=     14211818 LTotXX=    14211818 LenRXX=    84997584
 LTotAB=    12511779 MaxLAS=    84997584 LenRXY=    12511779
 NonZer=    86773296 LenScr=   130916864 LnRSAI=           0
 LnScr1=           0 LExtra=   135518114 Total=    363944341
 MaxDsk= 67108864000 SrtSym=           F ITran=            4
 DoSDTr:  NPSUse= 32
 JobTyp=2 Pass  1:  I=   1 to  12.
 (rs|ai) integrals will be sorted in core.
 Complete sort for first half transformation.
 First half transformation complete.
 Begin second half transformation for I=  10.
 Begin second half transformation for I=  10.
 Complete sort for second half transformation.
 Second half transformation complete.
 Spin components of T(2) and E(2):
     alpha-alpha T2 =       0.3086543503D-01 E2=     -0.2346693325D+00
     alpha-beta  T2 =       0.9499118751D-01 E2=     -0.8019033369D+00
     beta-beta   T2 =       0.1200435286D-01 E2=     -0.1300336549D+00
 ANorm=    0.1068147456D+01
 E2 =    -0.1173555435D+01 EUMP2 =    -0.12729841505773D+04
 (S**2,0)=  0.37500D+01           (S**2,1)=  0.37500D+01
 E(PUHF)=      -0.12718105951D+04        E(PMP2)=      -0.12729841506D+04
 Leave Link  804 at Wed Mar  7 11:07:16 2018, MaxMem= 10737418240 cpu:            4331.2 elap:             135.5
 (Enter /home1/apps/gaussian/16rA.03/g16/l913.exe)
 CIDS:  MDV= 10737418240.
 IFCWin=0 IBDFC=1 NFBD=     0     0 NFCmp=     0     0 NFFFC=     0     0
 Using original routines for 1st iteration.
 Using DD4UQ or CC4UQ for 2nd and later iterations.
 Keep R2 and R3 ints in memory in symmetry-blocked form, NReq=338812721.
 FoFCou: FMM=F IPFlag=           8 FMFlag=           0 FMFlg1=           0
         NFxFlg=           0 DoJE=F BraDBF=F KetDBF=F FulRan=T
         wScrn=  0.000000 ICntrl=       600 IOpCl=  0 I1Cent=           0 NGrid=           0
         NMat0=    1 NMatS0=  23220 NMatT0=    0 NMatD0=    1 NMtDS0=    0 NMtDT0=    0
 Petite list used in FoFCou.
 CIDS: In Core Option IDoMem=           1.
 CCSD(T)
 =======
 Iterations= 150 Convergence= 0.100D-06
 Produce multiple copies of IABC intergrals
 Iteration Nr.   1
 **********************
 DD1Dir will call FoFMem   1 times, MxPair=       532
 NAB=   180 NAA=   105 NBB=    66.
 DD1Dir will call FoFMem   1 times, MxPair=       532
 NAB=   180 NAA=   105 NBB=    66.
 MP4(R+Q)= -0.75929168D-01
 Maximum subspace dimension=  5
 A-vector RMS=  4.5888292D-04 Max=  6.5937593D-03 conv= 1.00D-05.
 RLE energy=       -1.1667697630
 E3=        0.82352931D-01        EROMP3=      -0.12729017976D+04
 E4(SDQ)=  -0.46366687D-01        ROMP4(SDQ)=  -0.12729481643D+04
 VARIATIONAL ENERGIES WITH THE FIRST-ORDER WAVEFUNCTION:
 DE(Corr)=  -1.1667295     E(Corr)=     -1272.9773246    
 NORM(A)=   0.10639336D+01
 Iteration Nr.   2
 **********************
 DD1Dir will call FoFMem   1 times, MxPair=       532
 NAB=   180 NAA=   105 NBB=    66.
 A-vector RMS=  3.2232346D-03 Max=  3.7909626D-02 conv= 1.00D-05.
 RLE energy=       -1.1459504069
 DE(Corr)=  -1.0824940     E(CORR)=     -1272.8930892     Delta= 8.42D-02
 NORM(A)=   0.10605925D+01
 Iteration Nr.   3
 **********************
 DD1Dir will call FoFMem   1 times, MxPair=       532
 NAB=   180 NAA=   105 NBB=    66.
 A-vector RMS=  2.2616306D-03 Max=  2.6724360D-02 conv= 1.00D-05.
 RLE energy=       -1.1391525358
 DE(Corr)=  -1.0931307     E(CORR)=     -1272.9037259     Delta=-1.06D-02
 NORM(A)=   0.10629800D+01
 Iteration Nr.   4
 **********************
 DD1Dir will call FoFMem   1 times, MxPair=       532
 NAB=   180 NAA=   105 NBB=    66.
 A-vector RMS=  2.0882552D-03 Max=  2.8288531D-02 conv= 1.00D-05.
 RLE energy=       -1.1161230351
 DE(Corr)=  -1.1002401     E(CORR)=     -1272.9108353     Delta=-7.11D-03
 NORM(A)=   0.10766390D+01
 Iteration Nr.   5
 **********************
 DD1Dir will call FoFMem   1 times, MxPair=       532
 NAB=   180 NAA=   105 NBB=    66.
 A-vector RMS=  7.0155321D-04 Max=  1.0274930D-02 conv= 1.00D-05.
 RLE energy=       -1.1230241186
 DE(Corr)=  -1.1229224     E(CORR)=     -1272.9335175     Delta=-2.27D-02
 NORM(A)=   0.10852731D+01
 Iteration Nr.   6
 **********************
 DD1Dir will call FoFMem   1 times, MxPair=       532
 NAB=   180 NAA=   105 NBB=    66.
 A-vector RMS=  5.8613671D-04 Max=  1.5665132D-02 conv= 1.00D-05.
 RLE energy=       -1.1224443746
 DE(Corr)=  -1.1204615     E(CORR)=     -1272.9310567     Delta= 2.46D-03
 NORM(A)=   0.11001476D+01
 Iteration Nr.   7
 **********************
 DD1Dir will call FoFMem   1 times, MxPair=       532
 NAB=   180 NAA=   105 NBB=    66.
 A-vector RMS=  4.1670585D-04 Max=  8.1053486D-03 conv= 1.00D-05.
 RLE energy=       -1.1227703716
 DE(Corr)=  -1.1224822     E(CORR)=     -1272.9330773     Delta=-2.02D-03
 NORM(A)=   0.11113306D+01
 Iteration Nr.   8
 **********************
 DD1Dir will call FoFMem   1 times, MxPair=       532
 NAB=   180 NAA=   105 NBB=    66.
 A-vector RMS=  3.6143290D-04 Max=  7.5199528D-03 conv= 1.00D-05.
 RLE energy=       -1.1231694373
 DE(Corr)=  -1.1232690     E(CORR)=     -1272.9338642     Delta=-7.87D-04
 NORM(A)=   0.11212931D+01
 Iteration Nr.   9
 **********************
 DD1Dir will call FoFMem   1 times, MxPair=       532
 NAB=   180 NAA=   105 NBB=    66.
 A-vector RMS=  2.0865807D-04 Max=  3.6435095D-03 conv= 1.00D-05.
 RLE energy=       -1.1237116936
 DE(Corr)=  -1.1231534     E(CORR)=     -1272.9337485     Delta= 1.16D-04
 NORM(A)=   0.11279736D+01
 Iteration Nr.  10
 **********************
 DD1Dir will call FoFMem   1 times, MxPair=       532
 NAB=   180 NAA=   105 NBB=    66.
 A-vector RMS=  1.0389636D-04 Max=  2.0766212D-03 conv= 1.00D-05.
 RLE energy=       -1.1231651374
 DE(Corr)=  -1.1233426     E(CORR)=     -1272.9339377     Delta=-1.89D-04
 NORM(A)=   0.11282271D+01
 Iteration Nr.  11
 **********************
 DD1Dir will call FoFMem   1 times, MxPair=       532
 NAB=   180 NAA=   105 NBB=    66.
 A-vector RMS=  7.5455928D-05 Max=  1.6292310D-03 conv= 1.00D-05.
 RLE energy=       -1.1235261261
 DE(Corr)=  -1.1234820     E(CORR)=     -1272.9340771     Delta=-1.39D-04
 NORM(A)=   0.11293156D+01
 Iteration Nr.  12
 **********************
 DD1Dir will call FoFMem   1 times, MxPair=       532
 NAB=   180 NAA=   105 NBB=    66.
 A-vector RMS=  6.7672728D-05 Max=  8.8941731D-04 conv= 1.00D-05.
 RLE energy=       -1.1233978728
 DE(Corr)=  -1.1233609     E(CORR)=     -1272.9339560     Delta= 1.21D-04
 NORM(A)=   0.11304180D+01
 Iteration Nr.  13
 **********************
 DD1Dir will call FoFMem   1 times, MxPair=       532
 NAB=   180 NAA=   105 NBB=    66.
 A-vector RMS=  5.7956596D-05 Max=  1.1456175D-03 conv= 1.00D-05.
 RLE energy=       -1.1235082087
 DE(Corr)=  -1.1235610     E(CORR)=     -1272.9341562     Delta=-2.00D-04
 NORM(A)=   0.11303766D+01
 Iteration Nr.  14
 **********************
 DD1Dir will call FoFMem   1 times, MxPair=       532
 NAB=   180 NAA=   105 NBB=    66.
 A-vector RMS=  4.2716315D-05 Max=  7.5968123D-04 conv= 1.00D-05.
 RLE energy=       -1.1235638684
 DE(Corr)=  -1.1235193     E(CORR)=     -1272.9341145     Delta= 4.17D-05
 NORM(A)=   0.11307916D+01
 Iteration Nr.  15
 **********************
 DD1Dir will call FoFMem   1 times, MxPair=       532
 NAB=   180 NAA=   105 NBB=    66.
 A-vector RMS=  2.4901004D-05 Max=  4.0459263D-04 conv= 1.00D-05.
 RLE energy=       -1.1235438490
 DE(Corr)=  -1.1235391     E(CORR)=     -1272.9341343     Delta=-1.98D-05
 NORM(A)=   0.11310476D+01
 Iteration Nr.  16
 **********************
 DD1Dir will call FoFMem   1 times, MxPair=       532
 NAB=   180 NAA=   105 NBB=    66.
 A-vector RMS=  1.6406950D-05 Max=  2.3756581D-04 conv= 1.00D-05.
 RLE energy=       -1.1235869038
 DE(Corr)=  -1.1235917     E(CORR)=     -1272.9341868     Delta=-5.25D-05
 NORM(A)=   0.11312100D+01
 Iteration Nr.  17
 **********************
 DD1Dir will call FoFMem   1 times, MxPair=       532
 NAB=   180 NAA=   105 NBB=    66.
 A-vector RMS=  1.3205658D-05 Max=  2.7126967D-04 conv= 1.00D-05.
 RLE energy=       -1.1236050546
 DE(Corr)=  -1.1235834     E(CORR)=     -1272.9341786     Delta= 8.24D-06
 NORM(A)=   0.11314379D+01
 Iteration Nr.  18
 **********************
 DD1Dir will call FoFMem   1 times, MxPair=       532
 NAB=   180 NAA=   105 NBB=    66.
 A-vector RMS=  9.1341393D-06 Max=  1.8130670D-04 conv= 1.00D-05.
 RLE energy=       -1.1235940735
 DE(Corr)=  -1.1235927     E(CORR)=     -1272.9341878     Delta=-9.27D-06
 NORM(A)=   0.11315778D+01
 Iteration Nr.  19
 **********************
 DD1Dir will call FoFMem   1 times, MxPair=       532
 NAB=   180 NAA=   105 NBB=    66.
 A-vector RMS=  5.7811182D-06 Max=  8.9002665D-05 conv= 1.00D-05.
 RLE energy=       -1.1236149404
 DE(Corr)=  -1.1236167     E(CORR)=     -1272.9342118     Delta=-2.40D-05
 NORM(A)=   0.11316833D+01
 Iteration Nr.  20
 **********************
 DD1Dir will call FoFMem   1 times, MxPair=       532
 NAB=   180 NAA=   105 NBB=    66.
 A-vector RMS=  5.5694803D-06 Max=  1.1996053D-04 conv= 1.00D-05.
 RLE energy=       -1.1236236985
 DE(Corr)=  -1.1236100     E(CORR)=     -1272.9342051     Delta= 6.67D-06
 NORM(A)=   0.11318773D+01
 Iteration Nr.  21
 **********************
 DD1Dir will call FoFMem   1 times, MxPair=       532
 NAB=   180 NAA=   105 NBB=    66.
 A-vector RMS=  3.7477167D-06 Max=  6.1129690D-05 conv= 1.00D-05.
 RLE energy=       -1.1236203607
 DE(Corr)=  -1.1236196     E(CORR)=     -1272.9342147     Delta=-9.56D-06
 NORM(A)=   0.11319850D+01
 Iteration Nr.  22
 **********************
 DD1Dir will call FoFMem   1 times, MxPair=       532
 NAB=   180 NAA=   105 NBB=    66.
 A-vector RMS=  2.3748038D-06 Max=  3.0681385D-05 conv= 1.00D-05.
 RLE energy=       -1.1236283812
 DE(Corr)=  -1.1236287     E(CORR)=     -1272.9342238     Delta=-9.15D-06
 NORM(A)=   0.11320292D+01
 Iteration Nr.  23
 **********************
 DD1Dir will call FoFMem   1 times, MxPair=       532
 NAB=   180 NAA=   105 NBB=    66.
 A-vector RMS=  1.6215430D-06 Max=  2.8776574D-05 conv= 1.00D-05.
 RLE energy=       -1.1236284063
 DE(Corr)=  -1.1236253     E(CORR)=     -1272.9342205     Delta= 3.37D-06
 NORM(A)=   0.11320718D+01
 Iteration Nr.  24
 **********************
 DD1Dir will call FoFMem   1 times, MxPair=       532
 NAB=   180 NAA=   105 NBB=    66.
 A-vector RMS=  8.3040488D-07 Max=  1.1702994D-05 conv= 1.00D-05.
 RLE energy=       -1.1236262827
 DE(Corr)=  -1.1236273     E(CORR)=     -1272.9342224     Delta=-1.96D-06
 NORM(A)=   0.11320828D+01
 Iteration Nr.  25
 **********************
 DD1Dir will call FoFMem   1 times, MxPair=       532
 NAB=   180 NAA=   105 NBB=    66.
 A-vector RMS=  6.9341878D-07 Max=  1.0360393D-05 conv= 1.00D-05.
 RLE energy=       -1.1236284185
 DE(Corr)=  -1.1236285     E(CORR)=     -1272.9342237     Delta=-1.25D-06
 NORM(A)=   0.11320865D+01
 Iteration Nr.  26
 **********************
 DD1Dir will call FoFMem   1 times, MxPair=       532
 NAB=   180 NAA=   105 NBB=    66.
 A-vector RMS=  4.7547051D-07 Max=  9.1914530D-06 conv= 1.00D-05.
 RLE energy=       -1.1236277287
 DE(Corr)=  -1.1236269     E(CORR)=     -1272.9342221     Delta= 1.61D-06
 NORM(A)=   0.11320893D+01
 Iteration Nr.  27
 **********************
 DD1Dir will call FoFMem   1 times, MxPair=       532
 NAB=   180 NAA=   105 NBB=    66.
 A-vector RMS=  2.4654708D-07 Max=  4.1479396D-06 conv= 1.00D-05.
 RLE energy=       -1.1236270815
 DE(Corr)=  -1.1236274     E(CORR)=     -1272.9342225     Delta=-4.52D-07
 NORM(A)=   0.11320870D+01
 Iteration Nr.  28
 **********************
 DD1Dir will call FoFMem   1 times, MxPair=       532
 NAB=   180 NAA=   105 NBB=    66.
 A-vector RMS=  2.3532525D-07 Max=  4.9179666D-06 conv= 1.00D-05.
 RLE energy=       -1.1236275056
 DE(Corr)=  -1.1236275     E(CORR)=     -1272.9342226     Delta=-9.27D-08
 NORM(A)=   0.11320855D+01
 CI/CC converged in   28 iterations to DelEn=-9.27D-08 Conv= 1.00D-07 ErrA1= 2.35D-07 Conv= 1.00D-05
 Wavefunction amplitudes converged. E(Corr)=     -1272.9342226    
 Dominant configurations:
 ***********************
 Spin Case        I    J    A    B          Value
    BB           12        13            0.206735D+00
    BB           12        17            0.210393D+00
    BB           12        26            0.116809D+00
 Largest amplitude= 2.10D-01
 Time for triples=    39532.39 seconds.
 T4(CCSD)= -0.36397105D-01
 T5(CCSD)=  0.58783544D-02
 CCSD(T)= -0.12729647414D+04
 Discarding MO integrals.
 Leave Link  913 at Wed Mar  7 11:37:38 2018, MaxMem= 10737418240 cpu:           57658.8 elap:            1820.2
 (Enter /home1/apps/gaussian/16rA.03/g16/l601.exe)
 Copying SCF densities to generalized density rwf, IOpCl= 0 IROHF=1.

 **********************************************************************

            Population analysis using the SCF density.

 **********************************************************************

 Orbital symmetries:
       Occupied  (SG) (SG) (SG) (PI) (PI) (SG) (SG) (PI) (PI) (SG)
                 (?A) (SG) (PI) (PI) (?A)
       Virtual   (SG) (PI) (PI) (SG) (SG) (PI) (PI) (SG) (DLTA)
                 (DLTA) (PI) (PI) (SG) (SG) (SG) (PI) (PI) (SG)
                 (PI) (PI) (?A) (?A) (SG) (PI) (PI) (SG) (SG) (SG)
                 (DLTA) (DLTA) (PI) (PI) (SG) (PI) (PI) (PHI) (PHI)
                 (SG) (?A) (?A) (PI) (PI) (PI) (PI) (SG) (?A) (?A)
                 (SG) (PI) (PI) (SG) (SG) (SG) (?B) (?B) (?B) (?B)
                 (DLTA) (DLTA) (?B) (?B) (SG) (SG) (PI) (PI) (DLTA)
                 (DLTA) (?C) (DLTA) (DLTA) (PHI) (PHI) (?C) (?C)
                 (PI) (PI) (SG) (DLTA) (DLTA) (PI) (PI) (PI) (PI)
                 (SG) (SG) (SG) (?D) (?D) (DLTA) (DLTA) (PI) (PI)
                 (DLTA) (SG) (DLTA) (?D) (?D) (PI) (PI) (SG) (SG)
                 (?D) (?D) (?E) (?E) (DLTA) (DLTA) (?D) (?D) (SG)
                 (SG) (SG) (DLTA) (DLTA) (PI) (PI) (SG) (PI) (PI)
                 (SG) (?D) (?D) (DLTA) (DLTA) (?D) (?D) (SG) (?D)
                 (?D) (?F) (?F) (DLTA) (DLTA) (?D) (?D) (?F) (SG)
                 (DLTA) (DLTA) (PI) (PI) (SG) (PI) (PI) (SG) (DLTA)
                 (DLTA) (PI) (PI) (SG) (SG) (SG) (PI) (PI) (SG)
                 (DLTA) (DLTA) (PI) (PI) (SG) (SG) (PI) (PI) (SG)
                 (SG) (PI) (PI) (SG) (DLTA) (DLTA) (PI) (PI) (SG)
                 (PI) (PI) (SG) (SG) (PI) (PI) (SG) (SG) (PI) (PI)
                 (SG) (SG) (SG) (PI) (PI) (SG) (SG) (PI) (PI) (SG)
                 (SG) (SG) (SG) (SG)
 Unable to determine electronic state:  an orbital has unidentified symmetry.
 Alpha  occ. eigenvalues -- -263.55387 -32.33437 -27.40290 -27.40082 -27.40082
 Alpha  occ. eigenvalues --   -4.23015  -2.78358  -2.76974  -2.76974  -0.52194
 Alpha  occ. eigenvalues --   -0.52194  -0.50650  -0.48611  -0.45718  -0.31287
 Alpha virt. eigenvalues --    0.00022   0.02470   0.02470   0.03035   0.04478
 Alpha virt. eigenvalues --    0.08396   0.08396   0.09605   0.10302   0.10339
 Alpha virt. eigenvalues --    0.10348   0.10348   0.10594   0.16942   0.24502
 Alpha virt. eigenvalues --    0.27471   0.27471   0.30103   0.35440   0.35440
 Alpha virt. eigenvalues --    0.37256   0.37692   0.38780   0.38983   0.38983
 Alpha virt. eigenvalues --    0.46906   0.64870   0.70031   0.87915   0.88061
 Alpha virt. eigenvalues --    0.91328   0.91328   0.97359   0.98380   0.98380
 Alpha virt. eigenvalues --    0.99776   0.99776   1.10362   1.14314   1.14442
 Alpha virt. eigenvalues --    1.14442   1.15080   1.17589   1.17589   1.19721
 Alpha virt. eigenvalues --    1.26193   1.27250   1.59949   1.82949   1.82949
 Alpha virt. eigenvalues --    1.93113   2.13744   2.71982   2.86307   2.86307
 Alpha virt. eigenvalues --    2.91228   2.92710   2.92833   2.92833   2.98187
 Alpha virt. eigenvalues --    2.98187   3.03034   3.23173   3.31692   3.31692
 Alpha virt. eigenvalues --    3.38060   3.40183   3.45663   3.49807   3.51045
 Alpha virt. eigenvalues --    3.51939   3.51939   3.53924   3.53933   3.89036
 Alpha virt. eigenvalues --    3.89036   4.16317   4.18885   4.19206   4.49846
 Alpha virt. eigenvalues --    4.49846   5.06248   5.06248   5.15738   5.69531
 Alpha virt. eigenvalues --    6.40942   7.71894   7.73302   7.73302   7.74752
 Alpha virt. eigenvalues --    7.80650   7.80650   7.81084   7.83551   7.84178
 Alpha virt. eigenvalues --    7.96856   7.96856   8.17834   8.17834   8.19004
 Alpha virt. eigenvalues --    8.98985   9.98483   9.98483  10.01770  10.01786
 Alpha virt. eigenvalues --   10.04231  10.06473  10.31086  10.31086  10.43216
 Alpha virt. eigenvalues --   11.01172  13.78887  15.58656  15.62109  15.65798
 Alpha virt. eigenvalues --   15.65798  15.80699  18.84532  18.84532  19.40606
 Alpha virt. eigenvalues --   20.59834  20.61842  20.61842  20.62689  20.71659
 Alpha virt. eigenvalues --   20.71659  21.12603  26.15766  26.15766  26.18366
 Alpha virt. eigenvalues --   26.19046  26.19100  26.21073  26.34781  26.34781
 Alpha virt. eigenvalues --   26.43450  28.56918  28.74393  28.78114  28.81245
 Alpha virt. eigenvalues --   28.81245  29.00707  38.62920  38.62920  39.37851
 Alpha virt. eigenvalues --   52.14693  52.18106  52.21202  52.21202  52.35373
 Alpha virt. eigenvalues --   58.70737  62.19047  75.85685  75.85685  76.82623
 Alpha virt. eigenvalues --  112.26596 112.28656 112.31898 112.31898 112.41499
 Alpha virt. eigenvalues --  130.57637 153.81278 153.81278 154.83243 318.44249
 Alpha virt. eigenvalues --  328.87950 328.87950 329.79811 346.24555 346.25146
 Alpha virt. eigenvalues --  346.28059 346.28059 346.36006 735.61437 735.61437
 Alpha virt. eigenvalues --  736.43332 794.621591710.676231710.676231711.36538
 Alpha virt. eigenvalues -- 1938.513414129.934584129.934584130.477034563.76212
 Alpha virt. eigenvalues -- **************************************************
 Alpha virt. eigenvalues -- **************************************************
 Alpha virt. eigenvalues -- ********************
     Molecular Orbital Coefficients:
                           8         9        10        11        12
                           O         O         O         O         O
     Eigenvalues --    -2.76974  -2.76974  -0.52194  -0.52194  -0.50650
   1 1   Fe 1S          0.00000   0.00000  -0.00000   0.00000  -0.00000
   2        2S          0.00000   0.00000  -0.00000   0.00000  -0.00001
   3        3S          0.00000   0.00000  -0.00001   0.00000  -0.00002
   4        4S          0.00000   0.00000  -0.00003   0.00000  -0.00006
   5        5S          0.00000   0.00000  -0.00008   0.00000  -0.00015
   6        6S          0.00000   0.00000  -0.00021   0.00000  -0.00041
   7        7S          0.00000   0.00000  -0.00055   0.00000  -0.00107
   8        8S          0.00000   0.00000  -0.00138   0.00000  -0.00267
   9        9S          0.00000   0.00000  -0.00304   0.00000  -0.00591
  10       10S          0.00000   0.00000  -0.00563   0.00000  -0.01090
  11       11S          0.00000   0.00000  -0.00632   0.00000  -0.01235
  12       12S          0.00000   0.00000   0.00203   0.00000   0.00414
  13       13S          0.00000   0.00000   0.02806   0.00000   0.05437
  14       14S          0.00000   0.00000   0.03880   0.00000   0.08044
  15       15S          0.00000   0.00000  -0.02667   0.00000  -0.03679
  16       16S          0.00000   0.00000  -0.04991   0.00000  -0.16918
  17       17S          0.00000   0.00000  -0.05521   0.00000  -0.17393
  18       18S          0.00000   0.00000   0.02125   0.00000   0.21526
  19       19S          0.00000   0.00000   0.01635   0.00000   0.30506
  20       20S          0.00000   0.00000   0.00086   0.00000   0.11589
  21       21S          0.00000   0.00000   0.00809   0.00000   0.00276
  22       22S          0.00000   0.00000  -0.04458   0.00000  -0.00190
  23       23S          0.00000   0.00000  -0.00845   0.00000  -0.01214
  24       24PX         0.00000  -0.00004   0.00000   0.00000   0.00000
  25       24PY        -0.00004   0.00000   0.00000   0.00000   0.00000
  26       24PZ         0.00000   0.00000  -0.00000   0.00000  -0.00000
  27       25PX         0.00000  -0.00020   0.00000   0.00000   0.00000
  28       25PY        -0.00020   0.00000   0.00000   0.00000   0.00000
  29       25PZ         0.00000   0.00000  -0.00002   0.00000  -0.00001
  30       26PX         0.00000  -0.00094   0.00000   0.00000   0.00000
  31       26PY        -0.00094   0.00000   0.00000   0.00000   0.00000
  32       26PZ         0.00000   0.00000  -0.00009   0.00000  -0.00006
  33       27PX         0.00000  -0.00374   0.00000   0.00000   0.00000
  34       27PY        -0.00374   0.00000   0.00000   0.00000   0.00000
  35       27PZ         0.00000   0.00000  -0.00038   0.00000  -0.00023
  36       28PX         0.00000  -0.01276   0.00000   0.00000   0.00000
  37       28PY        -0.01276   0.00000   0.00000   0.00000   0.00000
  38       28PZ         0.00000   0.00000  -0.00128   0.00000  -0.00079
  39       29PX         0.00000  -0.03656   0.00000   0.00000   0.00000
  40       29PY        -0.03656   0.00000   0.00000   0.00000   0.00000
  41       29PZ         0.00000   0.00000  -0.00372   0.00000  -0.00225
  42       30PX         0.00000  -0.08212   0.00000   0.00000   0.00000
  43       30PY        -0.08212   0.00000   0.00000   0.00000   0.00000
  44       30PZ         0.00000   0.00000  -0.00825   0.00000  -0.00514
  45       31PX         0.00000  -0.13754   0.00000   0.00000   0.00000
  46       31PY        -0.13754   0.00000   0.00000   0.00000   0.00000
  47       31PZ         0.00000   0.00000  -0.01423   0.00000  -0.00843
  48       32PX         0.00000  -0.13625   0.00000   0.00000   0.00000
  49       32PY        -0.13625   0.00000   0.00000   0.00000   0.00000
  50       32PZ         0.00000   0.00000  -0.01293   0.00000  -0.00910
  51       33PX         0.00000   0.07544   0.00000   0.00000   0.00000
  52       33PY         0.07544   0.00000   0.00000   0.00000   0.00000
  53       33PZ         0.00000   0.00000   0.02015   0.00000  -0.00038
  54       34PX         0.00000   0.31816   0.00000   0.00000   0.00000
  55       34PY         0.31816   0.00000   0.00000   0.00000   0.00000
  56       34PZ         0.00000   0.00000   0.03438   0.00000   0.02364
  57       35PX         0.00000   0.24678   0.00000   0.00000   0.00000
  58       35PY         0.24678   0.00000   0.00000   0.00000   0.00000
  59       35PZ         0.00000   0.00000   0.04026   0.00000   0.00550
  60       36PX         0.00000   0.29058   0.00000   0.00000   0.00000
  61       36PY         0.29058   0.00000   0.00000   0.00000   0.00000
  62       36PZ         0.00000   0.00000   0.02830   0.00000   0.02622
  63       37PX         0.00000   0.04607   0.00000   0.00000   0.00000
  64       37PY         0.04607   0.00000   0.00000   0.00000   0.00000
  65       37PZ         0.00000   0.00000  -0.01954   0.00000  -0.02752
  66       38PX         0.00000  -0.00222   0.00000   0.00000   0.00000
  67       38PY        -0.00222   0.00000   0.00000   0.00000   0.00000
  68       38PZ         0.00000   0.00000  -0.03424   0.00000  -0.01204
  69       39PX         0.00000   0.00161   0.00000   0.00000   0.00000
  70       39PY         0.00161   0.00000   0.00000   0.00000   0.00000
  71       39PZ         0.00000   0.00000  -0.00599   0.00000  -0.00030
  72       40PX         0.00000  -0.03879   0.00000   0.00000   0.00000
  73       40PY        -0.03879   0.00000   0.00000   0.00000   0.00000
  74       40PZ         0.00000   0.00000  -0.01425   0.00000   0.00318
  75       41PX         0.00000   0.21042   0.00000   0.00000   0.00000
  76       41PY         0.21042   0.00000   0.00000   0.00000   0.00000
  77       41PZ         0.00000   0.00000   0.02019   0.00000   0.02637
  78       42PX         0.00000  -0.00048   0.00000   0.00000   0.00000
  79       42PY        -0.00048   0.00000   0.00000   0.00000   0.00000
  80       42PZ         0.00000   0.00000   0.00392   0.00000   0.00218
  81       43D 0        0.00000   0.00000   0.00220   0.00000  -0.00209
  82       43D+1        0.00000   0.00001   0.00000   0.00000   0.00000
  83       43D-1        0.00001   0.00000   0.00000   0.00000   0.00000
  84       43D+2        0.00000   0.00000   0.00000   0.00000  -0.00000
  85       43D-2        0.00000   0.00000   0.00000   0.00347   0.00000
  86       44D 0        0.00000   0.00000   0.01591   0.00000  -0.01513
  87       44D+1        0.00000   0.00008   0.00000   0.00000   0.00000
  88       44D-1        0.00008   0.00000   0.00000   0.00000   0.00000
  89       44D+2        0.00000   0.00000   0.00000   0.00000  -0.00000
  90       44D-2        0.00000   0.00000   0.00000   0.02508   0.00000
  91       45D 0        0.00000   0.00000   0.06101   0.00000  -0.05829
  92       45D+1        0.00000   0.00029   0.00000   0.00000   0.00000
  93       45D-1        0.00029   0.00000   0.00000   0.00000   0.00000
  94       45D+2        0.00000   0.00000   0.00000   0.00000  -0.00000
  95       45D-2        0.00000   0.00000   0.00000   0.09668   0.00000
  96       46D 0        0.00000   0.00000   0.15340   0.00000  -0.14032
  97       46D+1        0.00000   0.00142   0.00000   0.00000   0.00000
  98       46D-1        0.00142   0.00000   0.00000   0.00000   0.00000
  99       46D+2        0.00000   0.00000   0.00000   0.00000  -0.00000
 100       46D-2        0.00000   0.00000   0.00000   0.23136   0.00000
 101       47D 0        0.00000   0.00000   0.13167   0.00000  -0.20472
 102       47D+1        0.00000  -0.00399   0.00000   0.00000   0.00000
 103       47D-1       -0.00399   0.00000   0.00000   0.00000   0.00000
 104       47D+2        0.00000   0.00000   0.00000   0.00000  -0.00000
 105       47D-2        0.00000   0.00000   0.00000   0.36070   0.00000
 106       48D 0        0.00000   0.00000   0.24323   0.00000  -0.22205
 107       48D+1        0.00000   0.00375   0.00000   0.00000   0.00000
 108       48D-1        0.00375   0.00000   0.00000   0.00000   0.00000
 109       48D+2        0.00000   0.00000   0.00000   0.00000  -0.00000
 110       48D-2        0.00000   0.00000   0.00000   0.35766   0.00000
 111       49D 0        0.00000   0.00000   0.16901   0.00000  -0.16202
 112       49D+1        0.00000   0.00154   0.00000   0.00000   0.00000
 113       49D-1        0.00154   0.00000   0.00000   0.00000   0.00000
 114       49D+2        0.00000   0.00000   0.00000   0.00000  -0.00000
 115       49D-2        0.00000   0.00000   0.00000   0.25523   0.00000
 116       50D 0        0.00000   0.00000   0.05045   0.00000  -0.07427
 117       50D+1        0.00000  -0.00006   0.00000   0.00000   0.00000
 118       50D-1       -0.00006   0.00000   0.00000   0.00000   0.00000
 119       50D+2        0.00000   0.00000   0.00000   0.00000  -0.00000
 120       50D-2        0.00000   0.00000   0.00000   0.07915   0.00000
 121       51D 0        0.00000   0.00000  -0.00741   0.00000  -0.00045
[...]
   1 1   Fe 1S          0.00000   0.00000   0.00000   0.00000
   2        2S          0.00001   0.00001   0.00001   0.00000
   3        3S          0.00011   0.00005   0.00005   0.00000
   4        4S          0.00066   0.00033   0.00033   0.00000
   5        5S          0.00348   0.00174   0.00174   0.00000
   6        6S          0.01638   0.00819   0.00819   0.00000
   7        7S          0.06657   0.03329   0.03329   0.00000
   8        8S          0.21678   0.10839   0.10839   0.00000
   9        9S          0.50701   0.25351   0.25351  -0.00000
  10       10S          0.70724   0.35362   0.35362   0.00000
  11       11S          0.38193   0.19096   0.19096  -0.00000
  12       12S          0.16633   0.08317   0.08317   0.00000
  13       13S          0.96624   0.48312   0.48312  -0.00000
  14       14S          0.86786   0.43393   0.43393   0.00000
  15       15S          0.34740   0.17370   0.17370   0.00000
  16       16S          1.06989   0.53495   0.53495   0.00000
  17       17S          0.63612   0.31806   0.31806  -0.00000
  18       18S          0.28659   0.14330   0.14330   0.00000
  19       19S          0.44697   0.22348   0.22348  -0.00000
  20       20S          0.15748   0.07874   0.07874   0.00000
  21       21S         -0.05511  -0.02755  -0.02755   0.00000
  22       22S          0.07153   0.03576   0.03576  -0.00000
  23       23S         -0.01575  -0.00787  -0.00787  -0.00000
  24       24PX         0.00000   0.00000   0.00000   0.00000
  25       24PY         0.00000   0.00000   0.00000   0.00000
  26       24PZ         0.00000   0.00000   0.00000   0.00000
  27       25PX         0.00003   0.00001   0.00001   0.00000
  28       25PY         0.00003   0.00001   0.00001   0.00000
  29       25PZ         0.00003   0.00001   0.00001  -0.00000
  30       26PX         0.00045   0.00022   0.00022   0.00000
  31       26PY         0.00045   0.00022   0.00022   0.00000
  32       26PZ         0.00045   0.00022   0.00022   0.00000
  33       27PX         0.00437   0.00219   0.00219   0.00000
  34       27PY         0.00437   0.00219   0.00219   0.00000
  35       27PZ         0.00438   0.00219   0.00219   0.00000
  36       28PX         0.02926   0.01463   0.01463   0.00000
  37       28PY         0.02926   0.01463   0.01463   0.00000
  38       28PZ         0.02930   0.01465   0.01465   0.00000
  39       29PX         0.13276   0.06638   0.06638   0.00000
  40       29PY         0.13276   0.06638   0.06638   0.00000
  41       29PZ         0.13295   0.06647   0.06647   0.00000
  42       30PX         0.38714   0.19357   0.19357   0.00000
  43       30PY         0.38714   0.19357   0.19357   0.00000
  44       30PZ         0.38766   0.19383   0.19383   0.00000
  45       31PX         0.67516   0.33758   0.33758   0.00000
  46       31PY         0.67516   0.33758   0.33758   0.00000
  47       31PZ         0.67555   0.33778   0.33778   0.00000
  48       32PX         0.58092   0.29046   0.29046  -0.00000
  49       32PY         0.58092   0.29046   0.29046  -0.00000
  50       32PZ         0.58097   0.29049   0.29049   0.00000
  51       33PX         0.26843   0.13422   0.13421   0.00001
  52       33PY         0.26843   0.13422   0.13421   0.00001
  53       33PZ         0.27427   0.13714   0.13714   0.00000
  54       34PX         0.51793   0.25899   0.25894   0.00005
  55       34PY         0.51793   0.25899   0.25894   0.00005
  56       34PZ         0.52370   0.26185   0.26185   0.00000
  57       35PX         0.49039   0.24520   0.24519   0.00001
  58       35PY         0.49039   0.24520   0.24519   0.00001
  59       35PZ         0.49476   0.24738   0.24738   0.00000
  60       36PX         0.49758   0.24879   0.24879  -0.00000
  61       36PY         0.49758   0.24879   0.24879  -0.00000
  62       36PZ         0.49022   0.24511   0.24511  -0.00000
  63       37PX         0.04879   0.02450   0.02429   0.00021
  64       37PY         0.04879   0.02450   0.02429   0.00021
  65       37PZ         0.06482   0.03241   0.03241   0.00000
  66       38PX        -0.00095  -0.00042  -0.00053   0.00011
  67       38PY        -0.00095  -0.00042  -0.00053   0.00011
  68       38PZ         0.02497   0.01248   0.01248   0.00000
  69       39PX         0.00026   0.00012   0.00013  -0.00001
  70       39PY         0.00026   0.00012   0.00013  -0.00001
  71       39PZ         0.00370   0.00185   0.00185   0.00000
  72       40PX        -0.00307  -0.00154  -0.00153  -0.00000
  73       40PY        -0.00307  -0.00154  -0.00153  -0.00000
  74       40PZ        -0.00826  -0.00413  -0.00413  -0.00000
  75       41PX         0.37077   0.18541   0.18536   0.00005
  76       41PY         0.37077   0.18541   0.18536   0.00005
  77       41PZ         0.37311   0.18655   0.18655   0.00000
  78       42PX        -0.00002  -0.00001  -0.00001   0.00000
  79       42PY        -0.00002  -0.00001  -0.00001   0.00000
  80       42PZ        -0.00133  -0.00066  -0.00066  -0.00000
  81       43D 0        0.00024   0.00012   0.00012   0.00000
  82       43D+1        0.00017   0.00017   0.00000   0.00017
  83       43D-1        0.00017   0.00017   0.00000   0.00017
  84       43D+2        0.00017   0.00017   0.00000   0.00017
  85       43D-2        0.00032   0.00016   0.00016   0.00000
  86       44D 0        0.00685   0.00342   0.00342   0.00000
  87       44D+1        0.00466   0.00466   0.00000   0.00466
  88       44D-1        0.00466   0.00466   0.00000   0.00466
  89       44D+2        0.00470   0.00470   0.00000   0.00470
  90       44D-2        0.00891   0.00446   0.00446   0.00000
  91       45D 0        0.06113   0.03056   0.03056   0.00000
  92       45D+1        0.04158   0.04158   0.00000   0.04158
  93       45D-1        0.04158   0.04158   0.00000   0.04158
  94       45D+2        0.04191   0.04191   0.00000   0.04191
  95       45D-2        0.07954   0.03977   0.03977   0.00000
  96       46D 0        0.25039   0.12520   0.12520   0.00000
  97       46D+1        0.16626   0.16626   0.00000   0.16626
  98       46D-1        0.16626   0.16626   0.00000   0.16626
  99       46D+2        0.16609   0.16609   0.00000   0.16609
 100       46D-2        0.31407   0.15704   0.15704   0.00000
 101       47D 0        0.36679   0.18340   0.18340   0.00000
 102       47D+1        0.29501   0.29503  -0.00002   0.29505
 103       47D-1        0.29501   0.29503  -0.00002   0.29505
 104       47D+2        0.31711   0.31711   0.00000   0.31711
 105       47D-2        0.62286   0.31143   0.31143   0.00000
 106       48D 0        0.53949   0.26974   0.26974   0.00000
 107       48D+1        0.31273   0.31271   0.00002   0.31269
 108       48D-1        0.31273   0.31271   0.00002   0.31269
 109       48D+2        0.31206   0.31206   0.00000   0.31206
 110       48D-2        0.61523   0.30761   0.30761   0.00000
 111       49D 0        0.31782   0.15891   0.15891   0.00000
 112       49D+1        0.14296   0.14296   0.00001   0.14295
 113       49D-1        0.14296   0.14296   0.00001   0.14295
 114       49D+2        0.14294   0.14294   0.00000   0.14294
 115       49D-2        0.32803   0.16402   0.16402   0.00000
 116       50D 0        0.05593   0.02797   0.02797   0.00000
 117       50D+1        0.01535   0.01535  -0.00000   0.01535
 118       50D-1        0.01535   0.01535  -0.00000   0.01535
 119       50D+2        0.01497   0.01497   0.00000   0.01497
 120       50D-2        0.04974   0.02487   0.02487   0.00000
 121       51D 0       -0.00638  -0.00319  -0.00319  -0.00000
 122       51D+1       -0.00054  -0.00054  -0.00000  -0.00054
 123       51D-1       -0.00054  -0.00054  -0.00000  -0.00054
 124       51D+2        0.00111   0.00111   0.00000   0.00111
 125       51D-2        0.00313   0.00156   0.00156   0.00000
 126       52D 0        0.11024   0.05512   0.05512   0.00000
 127       52D+1        0.01942   0.01939   0.00003   0.01937
 128       52D-1        0.01942   0.01939   0.00003   0.01937
 129       52D+2       -0.00115  -0.00115  -0.00000  -0.00115
 130       52D-2       -0.02190  -0.01095  -0.01095   0.00000
 131       53D 0       -0.00052  -0.00026  -0.00026   0.00000
 132       53D+1       -0.00018  -0.00018   0.00000  -0.00018
 133       53D-1       -0.00018  -0.00018   0.00000  -0.00018
 134       53D+2       -0.00021  -0.00021   0.00000  -0.00021
 135       53D-2       -0.00044  -0.00022  -0.00022   0.00000
 136       54F 0        0.00001   0.00000   0.00000   0.00000
 137       54F+1        0.00000   0.00000   0.00000   0.00000
 138       54F-1        0.00000   0.00000   0.00000   0.00000
 139       54F+2        0.00000   0.00000   0.00000   0.00000
 140       54F-2        0.00000   0.00000   0.00000   0.00000
 141       54F+3        0.00001   0.00000   0.00000   0.00000
 142       54F-3        0.00001   0.00000   0.00000   0.00000
 143       55F 0        0.00010   0.00005   0.00005   0.00000
 144       55F+1        0.00000   0.00000   0.00000   0.00000
 145       55F-1        0.00000   0.00000   0.00000   0.00000
 146       55F+2        0.00000   0.00000   0.00000   0.00000
 147       55F-2        0.00001   0.00000   0.00000   0.00000
 148       55F+3        0.00002   0.00001   0.00001   0.00000
 149       55F-3        0.00002   0.00001   0.00001   0.00000
 150       56F 0        0.00144   0.00072   0.00072  -0.00000
 151       56F+1        0.00002   0.00002   0.00000   0.00002
 152       56F-1        0.00002   0.00002   0.00000   0.00002
 153       56F+2        0.00003   0.00003   0.00000   0.00003
 154       56F-2        0.00007   0.00003   0.00003   0.00000
 155       56F+3        0.00003   0.00002   0.00002   0.00000
 156       56F-3        0.00003   0.00002   0.00002   0.00000
 157       57F 0        0.00115   0.00057   0.00057   0.00000
 158       57F+1        0.00003   0.00003   0.00000   0.00002
 159       57F-1        0.00003   0.00003   0.00000   0.00002
 160       57F+2        0.00007   0.00007   0.00000   0.00007
 161       57F-2        0.00018   0.00009   0.00009   0.00000
 162       57F+3        0.00001   0.00000   0.00000   0.00000
 163       57F-3        0.00001   0.00000   0.00000   0.00000
 164       58G 0        0.00000   0.00000   0.00000   0.00000
 165       58G+1        0.00000   0.00000   0.00000   0.00000
 166       58G-1        0.00000   0.00000   0.00000   0.00000
 167       58G+2        0.00000   0.00000   0.00000   0.00000
 168       58G-2       -0.00000  -0.00000  -0.00000   0.00000
 169       58G+3        0.00000   0.00000   0.00000   0.00000
 170       58G-3        0.00000   0.00000   0.00000   0.00000
 171       58G+4        0.00000   0.00000   0.00000   0.00000
 172       58G-4        0.00000   0.00000   0.00000   0.00000
 173       59G 0        0.00002   0.00001   0.00001   0.00000
 174       59G+1        0.00000   0.00000  -0.00000   0.00000
 175       59G-1        0.00000   0.00000  -0.00000   0.00000
 176       59G+2        0.00000   0.00000   0.00000   0.00000
 177       59G-2        0.00000   0.00000   0.00000   0.00000
 178       59G+3        0.00000   0.00000   0.00000   0.00000
 179       59G-3        0.00000   0.00000   0.00000   0.00000
 180       59G+4        0.00000   0.00000   0.00000   0.00000
 181       59G-4        0.00000   0.00000   0.00000   0.00000
 182       60G 0        0.00038   0.00019   0.00019   0.00000
 183       60G+1        0.00001   0.00001   0.00000   0.00001
 184       60G-1        0.00001   0.00001   0.00000   0.00001
 185       60G+2        0.00001   0.00001   0.00000   0.00001
 186       60G-2        0.00000   0.00000   0.00000   0.00000
 187       60G+3        0.00000   0.00000   0.00000   0.00000
 188       60G-3        0.00000   0.00000   0.00000   0.00000
 189       60G+4        0.00000   0.00000   0.00000   0.00000
 190       60G-4        0.00000   0.00000   0.00000   0.00000
 191 2   H  1S          0.00109   0.00054   0.00054   0.00000
 192        2S          0.02506   0.01253   0.01253   0.00000
 193        3S          0.20341   0.10170   0.10170   0.00000
 194        4S          0.59252   0.29626   0.29626  -0.00000
 195        5S          0.50806   0.25403   0.25403   0.00000
 196        6S          0.06068   0.03034   0.03034  -0.00000
 197        7PX         0.00039   0.00039   0.00001   0.00038
 198        7PY         0.00039   0.00039   0.00001   0.00038
 199        7PZ         0.00319   0.00160   0.00160   0.00000
 200        8PX         0.00219   0.00215   0.00004   0.00212
 201        8PY         0.00219   0.00215   0.00004   0.00212
 202        8PZ         0.00726   0.00363   0.00363  -0.00000
 203        9PX        -0.00048  -0.00049   0.00001  -0.00050
 204        9PY        -0.00048  -0.00049   0.00001  -0.00050
 205        9PZ        -0.00483  -0.00241  -0.00241   0.00000
 206       10D 0        0.00095   0.00047   0.00047   0.00000
 207       10D+1        0.00038   0.00036   0.00002   0.00034
 208       10D-1        0.00038   0.00036   0.00002   0.00034
 209       10D+2        0.00003   0.00003   0.00000   0.00003
 210       10D-2        0.00006   0.00003   0.00003   0.00000
 211       11D 0        0.00051   0.00026   0.00026   0.00000
 212       11D+1       -0.00025  -0.00022  -0.00003  -0.00019
 213       11D-1       -0.00025  -0.00022  -0.00003  -0.00019
 214       11D+2        0.00016   0.00016   0.00000   0.00016
 215       11D-2        0.00018   0.00009   0.00009   0.00000
          Condensed to atoms (all electrons):
               1          2
     1  Fe  25.250248   0.346945
     2  H    0.346945   1.055861
          Atomic-Atomic Spin Densities.
               1          2
     1  Fe   2.991257   0.004252
     2  H    0.004252   0.000239
 Mulliken charges and spin densities:
               1          2
     1  Fe   0.402806   2.995509
     2  H   -0.402806   0.004491
 Sum of Mulliken charges =  -0.00000   3.00000
 Mulliken charges and spin densities with hydrogens summed into heavy atoms:
               1          2
     1  Fe  -0.000000   3.000000
 Electronic spatial extent (au):  <R**2>=             43.5324
 Charge=             -0.0000 electrons
 Dipole moment (field-independent basis, Debye):
    X=              0.0000    Y=              0.0000    Z=              3.7381  Tot=              3.7381
 Quadrupole moment (field-independent basis, Debye-Ang):
   XX=            -16.4160   YY=            -16.4160   ZZ=            -16.6550
   XY=              0.0000   XZ=              0.0000   YZ=              0.0000
 Traceless Quadrupole moment (field-independent basis, Debye-Ang):
   XX=              0.0796   YY=              0.0796   ZZ=             -0.1593
   XY=              0.0000   XZ=              0.0000   YZ=              0.0000
 Octapole moment (field-independent basis, Debye-Ang**2):
  XXX=              0.0000  YYY=              0.0000  ZZZ=             12.8718  XYY=              0.0000
  XXY=              0.0000  XXZ=              3.1726  XZZ=              0.0000  YZZ=              0.0000
  YYZ=              3.1726  XYZ=              0.0000
 Hexadecapole moment (field-independent basis, Debye-Ang**3):
 XXXX=            -26.7963 YYYY=            -26.7963 ZZZZ=            -43.3906 XXXY=              0.0000
 XXXZ=              0.0000 YYYX=              0.0000 YYYZ=              0.0000 ZZZX=              0.0000
 ZZZY=              0.0000 XXYY=             -9.2478 XXZZ=            -11.2267 YYZZ=            -11.2267
 XXYZ=              0.0000 YYXZ=              0.0000 ZZXY=              0.0000
 N-N= 9.827576774229D+00 E-N=-3.105128467040D+03  KE= 1.325582764324D+03
 Symmetry A1   KE= 1.014543141135D+03
 Symmetry A2   KE= 1.325102516913D+01
 Symmetry B1   KE= 1.488942990268D+02
 Symmetry B2   KE= 1.488942989949D+02
 Symmetry A1   SP= 1.000000000000D+00
 Symmetry A2   SP= 0.000000000000D+00
 Symmetry B1   SP= 1.000000000000D+00
 Symmetry B2   SP= 1.000000000000D+00
 Orbital energies and kinetic energies (alpha):
                                 1                 2
   8         O                -2.769742         11.062471
   9         O                -2.769742         11.062471
  10         O                -0.521939          3.284789
  11         O                -0.521939          6.625513
  12         O                -0.506505          2.996826
  13         O                -0.486114          6.908203
  14         O                -0.457178          6.908203
  15         O                -0.312872          6.944463
  16         V                 0.000223          0.317446
  17         V                 0.024696          0.054826
  18         V                 0.024696          0.054826
  19         V                 0.030345          0.042532
  20         V                 0.044784          0.397105
 Total kinetic energy from orbitals= 1.346343633906D+03
 FoFCou: FMM=F IPFlag=           8 FMFlag=           0 FMFlg1=           0
         NFxFlg=           0 DoJE=F BraDBF=T KetDBF=F FulRan=T
         wScrn=  0.000000 ICntrl=   2000500 IOpCl=  0 I1Cent=           5 NGrid=           0
         NMat0=    1 NMatS0=      1 NMatT0=    0 NMatD0=    1 NMtDS0=    0 NMtDT0=    0
 Symmetry not used in FoFCou.
                          Isotropic Fermi Contact Couplings
        Atom                 a.u.       MegaHertz       Gauss      10(-4) cm-1
     1  Fe(57)             0.00000       0.00000       0.00000       0.00000
     2  H(1)               0.00000       0.00000       0.00000       0.00000
 --------------------------------------------------------
       Center         ----  Spin Dipole Couplings  ----
                      3XX-RR        3YY-RR        3ZZ-RR
 --------------------------------------------------------
     1   Atom        0.010080      0.010078     -0.020158
     2   Atom       -0.134994     -0.134994      0.269988
 --------------------------------------------------------
                        XY            XZ            YZ
 --------------------------------------------------------
     1   Atom        0.000000      0.000000      0.000000
     2   Atom        0.000000      0.000000      0.000000
 --------------------------------------------------------


 ---------------------------------------------------------------------------------
              Anisotropic Spin Dipole Couplings in Principal Axis System
 ---------------------------------------------------------------------------------

       Atom             a.u.   MegaHertz   Gauss  10(-4) cm-1        Axes

              Baa    -0.0202    -0.349    -0.125    -0.116  0.0000  0.0000  1.0000
     1 Fe(57) Bbb     0.0101     0.174     0.062     0.058 -0.0000  1.0000  0.0000
              Bcc     0.0101     0.175     0.062     0.058  1.0000  0.0000  0.0000
 
              Baa    -0.1350   -72.026   -25.701   -24.025 -0.0000  1.0000  0.0000
     2 H(1)   Bbb    -0.1350   -72.026   -25.701   -24.025  1.0000  0.0000  0.0000
              Bcc     0.2700   144.053    51.402    48.051  0.0000  0.0000  1.0000
 

 ---------------------------------------------------------------------------------

 No NMR shielding tensors so no spin-rotation constants.
 Leave Link  601 at Wed Mar  7 11:37:42 2018, MaxMem= 10737418240 cpu:              96.6 elap:               3.1
 (Enter /home1/apps/gaussian/16rA.03/g16/l9999.exe)

 Test job not archived.
 1\1\GINC-C415-002\SP\ROCCSD(T)-Full\Gen\Fe1H1(4)\GWANG18\07-Mar-2018\0
 \\#P ROCCSD(T)=(MaxCyc=150, Full)/Gen SCF=(maxcycle=400) Integral(DKHS
 O, NoXCTest) Pop=Regular MaxDisk=500GB Guess=Read IOp(5/15=2)\\FeH\\0,
 4\Fe,0,0.,0.,0.\H,0,0.,0.,1.4\\Version=ES64L-G16RevA.03\HF=-1271.81059
 51\MP2=-1272.9841506\MP3=-1272.9017976\PUHF=-1271.8105951\PMP2-0=-1272
 .9841506\MP4SDQ=-1272.9481643\CCSD=-1272.9342226\CCSD(T)=-1272.9647414
 \RMSD=6.787e-09\PG=C*V [C*(H1Fe1)]\\@


 LOGIC IS A SYSTEMATIC METHOD OF COMING TO THE
 WRONG CONCLUSION WITH CONFIDENCE.
 Job cpu time:       0 days 17 hours 26 minutes 54.4 seconds.
 Elapsed time:       0 days  0 hours 33 minutes  6.1 seconds.
 File lengths (MBytes):  RWF=   4248 Int=      0 D2E=      0 Chk=      6 Scr=      1
 Normal termination of Gaussian 16 at Wed Mar  7 11:37:42 2018.
