 Entering Gaussian System, Link 0=g16
 Initial command:
 /home1/apps/gaussian/16rA.03/g16/l1.exe "/tmp/Gau-133097.inp" -scrdir="/tmp/"
 Entering Link 1 = /home1/apps/gaussian/16rA.03/g16/l1.exe PID=    133098.
  
 Copyright (c) 1988,1990,1992,1993,1995,1998,2003,2009,2016,
            Gaussian, Inc.  All Rights Reserved.
  
 This is part of the Gaussian(R) 16 program.  It is based on
 the Gaussian(R) 09 system (copyright 2009, Gaussian, Inc.),
 the Gaussian(R) 03 system (copyright 2003, Gaussian, Inc.),
 the Gaussian(R) 98 system (copyright 1998, Gaussian, Inc.),
 the Gaussian(R) 94 system (copyright 1995, Gaussian, Inc.),
 the Gaussian 92(TM) system (copyright 1992, Gaussian, Inc.),
 the Gaussian 90(TM) system (copyright 1990, Gaussian, Inc.),
 the Gaussian 88(TM) system (copyright 1988, Gaussian, Inc.),
 the Gaussian 86(TM) system (copyright 1986, Carnegie Mellon
 University), and the Gaussian 82(TM) system (copyright 1983,
 Carnegie Mellon University). Gaussian is a federally registered
 trademark of Gaussian, Inc.
  
 This software contains proprietary and confidential information,
 including trade secrets, belonging to Gaussian, Inc.
  
 This software is provided under written license and may be
 used, copied, transmitted, or stored only in accord with that
 written license.
  
 The following legend is applicable only to US Government
 contracts under FAR:
  
                    RESTRICTED RIGHTS LEGEND
  
 Use, reproduction and disclosure by the US Government is
 subject to restrictions as set forth in subparagraphs (a)
 and (c) of the Commercial Computer Software - Restricted
 Rights clause in FAR 52.227-19.
  
 Gaussian, Inc.
 340 Quinnipiac St., Bldg. 40, Wallingford CT 06492
  
  
 ---------------------------------------------------------------
 Warning -- This program may not be used in any manner that
 competes with the business of Gaussian, Inc. or will provide
 assistance to any competitor of Gaussian, Inc.  The licensee
 of this program is prohibited from giving any competitor of
 Gaussian, Inc. access to this program.  By using this program,
 the user acknowledges that Gaussian, Inc. is engaged in the
 business of creating and licensing software in the field of
 computational chemistry and represents and warrants to the
 licensee that it is not a competitor of Gaussian, Inc. and that
 it will not use this program in any manner prohibited above.
 ---------------------------------------------------------------
  

 Cite this work as:
 Gaussian 16, Revision A.03,
 M. J. Frisch, G. W. Trucks, H. B. Schlegel, G. E. Scuseria, 
 M. A. Robb, J. R. Cheeseman, G. Scalmani, V. Barone, 
 G. A. Petersson, H. Nakatsuji, X. Li, M. Caricato, A. V. Marenich, 
 J. Bloino, B. G. Janesko, R. Gomperts, B. Mennucci, H. P. Hratchian, 
 J. V. Ortiz, A. F. Izmaylov, J. L. Sonnenberg, D. Williams-Young, 
 F. Ding, F. Lipparini, F. Egidi, J. Goings, B. Peng, A. Petrone, 
 T. Henderson, D. Ranasinghe, V. G. Zakrzewski, J. Gao, N. Rega, 
 G. Zheng, W. Liang, M. Hada, M. Ehara, K. Toyota, R. Fukuda, 
 J. Hasegawa, M. Ishida, T. Nakajima, Y. Honda, O. Kitao, H. Nakai, 
 T. Vreven, K. Throssell, J. A. Montgomery, Jr., J. E. Peralta, 
 F. Ogliaro, M. J. Bearpark, J. J. Heyd, E. N. Brothers, K. N. Kudin, 
 V. N. Staroverov, T. A. Keith, R. Kobayashi, J. Normand, 
 K. Raghavachari, A. P. Rendell, J. C. Burant, S. S. Iyengar, 
 J. Tomasi, M. Cossi, J. M. Millam, M. Klene, C. Adamo, R. Cammi, 
 J. W. Ochterski, R. L. Martin, K. Morokuma, O. Farkas, 
 J. B. Foresman, and D. J. Fox, Gaussian, Inc., Wallingford CT, 2016.
 
 ******************************************
 Gaussian 16:  ES64L-G16RevA.03 25-Dec-2016
                26-Feb-2018 
 ******************************************
 %MEM=64GB
 %CPU=0-15
 SetSPE:  set environment variable "MP_BIND" = "yes"
 SetSPE:  set environment variable "MP_BLIST" = "0,1,2,3,4,5,6,7,8,9,10,11,12,13,14,15"
 Will use up to   16 processors via shared memory.
 %RWF=/scratch/04843/aannabe/gaussian/
 %Int=/scratch/04843/aannabe/gaussian/
 %D2E=/scratch/04843/aannabe/gaussian/
 %NoSave
 %CHK=CrH
 ----------------------------------------------------------------------
 #P ROCCSD(T)=(maxcyc=150, Full, SaveAmplitudes, ReadAmplitudes)/Gen 5d
  7f SCF=(maxcycles=300) Integral(NoXCTest) MaxDisk=500GB Pop=Regular P
 seudo=Read Guess=Read
 ----------------------------------------------------------------------
 1/38=1,172=1/1;
 2/12=2,17=6,18=5,40=1/2;
 3/5=7,8=11,11=2,16=1,17=8,25=1,30=1,47=8,116=101/1,2,3;
 4/5=1/1;
 5/5=2,7=300,38=6/2;
 8/5=-1,6=4,9=120000,10=90,24=1/1,4;
 9/5=7,6=150,14=2,77=1/13;
 6//1;
 99/5=1,9=1/99;
 Leave Link    1 at Mon Feb 26 20:29:20 2018, MaxMem=  8589934592 cpu:               4.0 elap:               0.3
 (Enter /home1/apps/gaussian/16rA.03/g16/l101.exe)
 ---
 CrH
 ---
 Symbolic Z-matrix:
 Charge =  0 Multiplicity = 6
 Cr                    0.        0.        0. 
 H                     0.        0.        2.1 
 
 ITRead=  0  0
 MicOpt= -1 -1
 NAtoms=      2 NQM=        2 NQMF=       0 NMMI=      0 NMMIF=      0
                NMic=       0 NMicF=      0.
                    Isotopes and Nuclear Properties:
 (Nuclear quadrupole moments (NQMom) in fm**2, nuclear magnetic moments (NMagM)
  in nuclear magnetons)

  Atom         1           2
 IAtWgt=          52           1
 AtmWgt=  51.9405097   1.0078250
 NucSpn=           0           1
 AtZEff=  -0.0000000  -0.0000000
 NQMom=    0.0000000   0.0000000
 NMagM=    0.0000000   2.7928460
 AtZNuc=  24.0000000   1.0000000
 Leave Link  101 at Mon Feb 26 20:29:20 2018, MaxMem=  8589934592 cpu:               1.4 elap:               0.1
 (Enter /home1/apps/gaussian/16rA.03/g16/l202.exe)
                          Input orientation:                          
 ---------------------------------------------------------------------
 Center     Atomic      Atomic             Coordinates (Angstroms)
 Number     Number       Type             X           Y           Z
 ---------------------------------------------------------------------
      1         24           0        0.000000    0.000000    0.000000
      2          1           0        0.000000    0.000000    2.100000
 ---------------------------------------------------------------------
 Stoichiometry    CrH(6)
 Framework group  C*V[C*(HCr)]
 Deg. of freedom     1
 Full point group                 C*V     NOp   4
 Largest Abelian subgroup         C2V     NOp   4
 Largest concise Abelian subgroup C1      NOp   1
                         Standard orientation:                         
 ---------------------------------------------------------------------
 Center     Atomic      Atomic             Coordinates (Angstroms)
 Number     Number       Type             X           Y           Z
 ---------------------------------------------------------------------
      1         24           0        0.000000    0.000000    0.084000
      2          1           0        0.000000    0.000000   -2.016000
 ---------------------------------------------------------------------
 Rotational constants (GHZ):           0.0000000         115.9149803         115.9149803
 Leave Link  202 at Mon Feb 26 20:29:20 2018, MaxMem=  8589934592 cpu:               0.3 elap:               0.1
 (Enter /home1/apps/gaussian/16rA.03/g16/l301.exe)
 General basis read from cards:  (5D, 7F)
 Centers:       1
 S 1 1.00
     Exponent=  1.1016640000D+07 Coefficients=  1.0000000000D+00
 S 1 1.00
     Exponent=  1.6494230000D+06 Coefficients=  1.0000000000D+00
 S 1 1.00
     Exponent=  3.7535890000D+05 Coefficients=  1.0000000000D+00
 S 1 1.00
     Exponent=  1.0632360000D+05 Coefficients=  1.0000000000D+00
 S 1 1.00
     Exponent=  3.4689760000D+04 Coefficients=  1.0000000000D+00
 S 1 1.00
     Exponent=  1.2524830000D+04 Coefficients=  1.0000000000D+00
 S 1 1.00
     Exponent=  4.8857520000D+03 Coefficients=  1.0000000000D+00
 S 1 1.00
     Exponent=  2.0269180000D+03 Coefficients=  1.0000000000D+00
 S 1 1.00
     Exponent=  8.8436450000D+02 Coefficients=  1.0000000000D+00
 S 1 1.00
     Exponent=  4.0231700000D+02 Coefficients=  1.0000000000D+00
 S 1 1.00
     Exponent=  1.8952710000D+02 Coefficients=  1.0000000000D+00
 S 1 1.00
     Exponent=  9.1860950000D+01 Coefficients=  1.0000000000D+00
 S 1 1.00
     Exponent=  4.5124760000D+01 Coefficients=  1.0000000000D+00
 S 1 1.00
     Exponent=  2.0625120000D+01 Coefficients=  1.0000000000D+00
 S 1 1.00
     Exponent=  1.0319730000D+01 Coefficients=  1.0000000000D+00
 S 1 1.00
     Exponent=  5.1577230000D+00 Coefficients=  1.0000000000D+00
 S 1 1.00
     Exponent=  2.3126280000D+00 Coefficients=  1.0000000000D+00
 S 1 1.00
     Exponent=  1.1030790000D+00 Coefficients=  1.0000000000D+00
 S 1 1.00
     Exponent=  4.9804200000D-01 Coefficients=  1.0000000000D+00
 S 1 1.00
     Exponent=  1.1824700000D-01 Coefficients=  1.0000000000D+00
 S 1 1.00
     Exponent=  5.7356000000D-02 Coefficients=  1.0000000000D+00
 S 1 1.00
     Exponent=  2.5760000000D-02 Coefficients=  1.0000000000D+00
 S 1 1.00
     Exponent=  4.7991000000D+00 Coefficients=  1.0000000000D+00
 S 1 1.00
     Exponent=  1.4287000000D+00 Coefficients=  1.0000000000D+00
 S 1 1.00
     Exponent=  1.1570000000D-02 Coefficients=  1.0000000000D+00
 P 1 1.00
     Exponent=  3.1539890000D+04 Coefficients=  1.0000000000D+00
 P 1 1.00
     Exponent=  7.4602340000D+03 Coefficients=  1.0000000000D+00
 P 1 1.00
     Exponent=  2.4226220000D+03 Coefficients=  1.0000000000D+00
 P 1 1.00
     Exponent=  9.2775470000D+02 Coefficients=  1.0000000000D+00
 P 1 1.00
     Exponent=  3.9480410000D+02 Coefficients=  1.0000000000D+00
 P 1 1.00
     Exponent=  1.8080270000D+02 Coefficients=  1.0000000000D+00
 P 1 1.00
     Exponent=  8.7423930000D+01 Coefficients=  1.0000000000D+00
 P 1 1.00
     Exponent=  4.4034270000D+01 Coefficients=  1.0000000000D+00
 P 1 1.00
     Exponent=  2.2777040000D+01 Coefficients=  1.0000000000D+00
 P 1 1.00
     Exponent=  1.2015470000D+01 Coefficients=  1.0000000000D+00
 P 1 1.00
     Exponent=  6.4117510000D+00 Coefficients=  1.0000000000D+00
 P 1 1.00
     Exponent=  3.3811360000D+00 Coefficients=  1.0000000000D+00
 P 1 1.00
     Exponent=  1.7470540000D+00 Coefficients=  1.0000000000D+00
 P 1 1.00
     Exponent=  8.8500400000D-01 Coefficients=  1.0000000000D+00
 P 1 1.00
     Exponent=  4.3302800000D-01 Coefficients=  1.0000000000D+00
 P 1 1.00
     Exponent=  1.7396200000D-01 Coefficients=  1.0000000000D+00
 P 1 1.00
     Exponent=  7.2823000000D-02 Coefficients=  1.0000000000D+00
 P 1 1.00
     Exponent=  2.9952000000D-02 Coefficients=  1.0000000000D+00
 P 1 1.00
     Exponent=  6.4552000000D+00 Coefficients=  1.0000000000D+00
 P 1 1.00
     Exponent=  1.6531000000D+00 Coefficients=  1.0000000000D+00
 P 1 1.00
     Exponent=  1.2320000000D-02 Coefficients=  1.0000000000D+00
 D 1 1.00
     Exponent=  2.8131200000D+02 Coefficients=  1.0000000000D+00
 D 1 1.00
     Exponent=  8.3188500000D+01 Coefficients=  1.0000000000D+00
 D 1 1.00
     Exponent=  3.1839600000D+01 Coefficients=  1.0000000000D+00
 D 1 1.00
     Exponent=  1.3602600000D+01 Coefficients=  1.0000000000D+00
 D 1 1.00
     Exponent=  6.1829800000D+00 Coefficients=  1.0000000000D+00
 D 1 1.00
     Exponent=  2.9227000000D+00 Coefficients=  1.0000000000D+00
 D 1 1.00
     Exponent=  1.3821600000D+00 Coefficients=  1.0000000000D+00
 D 1 1.00
     Exponent=  6.3946000000D-01 Coefficients=  1.0000000000D+00
 D 1 1.00
     Exponent=  2.8489800000D-01 Coefficients=  1.0000000000D+00
 D 1 1.00
     Exponent=  1.2004500000D-01 Coefficients=  1.0000000000D+00
 D 1 1.00
     Exponent=  4.6229000000D-02 Coefficients=  1.0000000000D+00
 D 1 1.00
     Exponent=  4.0848000000D+00 Coefficients=  1.0000000000D+00
 D 1 1.00
     Exponent=  2.1405000000D+00 Coefficients=  1.0000000000D+00
 D 1 1.00
     Exponent=  1.7800000000D-02 Coefficients=  1.0000000000D+00
 F 1 1.00
     Exponent=  5.6633000000D+00 Coefficients=  1.0000000000D+00
 F 1 1.00
     Exponent=  2.3365000000D+00 Coefficients=  1.0000000000D+00
 F 1 1.00
     Exponent=  9.6390000000D-01 Coefficients=  1.0000000000D+00
 F 1 1.00
     Exponent=  3.1420000000D-01 Coefficients=  1.0000000000D+00
 F 1 1.00
     Exponent=  1.0242000000D-01 Coefficients=  1.0000000000D+00
 G 1 1.00
     Exponent=  4.6690000000D+00 Coefficients=  1.0000000000D+00
 G 1 1.00
     Exponent=  1.9538000000D+00 Coefficients=  1.0000000000D+00
 G 1 1.00
     Exponent=  6.8480000000D-01 Coefficients=  1.0000000000D+00
 G 1 1.00
     Exponent=  2.4002000000D-01 Coefficients=  1.0000000000D+00
 H 1 1.00
     Exponent=  4.4133000000D+00 Coefficients=  1.0000000000D+00
 H 1 1.00
     Exponent=  1.6472000000D+00 Coefficients=  1.0000000000D+00
 H 1 1.00
     Exponent=  6.1479000000D-01 Coefficients=  1.0000000000D+00
 ****
 Centers:       2
 S 1 1.00
     Exponent=  8.2640000000D+01 Coefficients=  1.0000000000D+00
 S 1 1.00
     Exponent=  1.2410000000D+01 Coefficients=  1.0000000000D+00
 S 1 1.00
     Exponent=  2.8240000000D+00 Coefficients=  1.0000000000D+00
 S 1 1.00
     Exponent=  7.9770000000D-01 Coefficients=  1.0000000000D+00
 S 1 1.00
     Exponent=  2.5810000000D-01 Coefficients=  1.0000000000D+00
 S 1 1.00
     Exponent=  8.9890000000D-02 Coefficients=  1.0000000000D+00
 S 1 1.00
     Exponent=  2.3630000000D-02 Coefficients=  1.0000000000D+00
 P 1 1.00
     Exponent=  2.2920000000D+00 Coefficients=  1.0000000000D+00
 P 1 1.00
     Exponent=  8.3800000000D-01 Coefficients=  1.0000000000D+00
 P 1 1.00
     Exponent=  2.9200000000D-01 Coefficients=  1.0000000000D+00
 P 1 1.00
     Exponent=  8.4800000000D-02 Coefficients=  1.0000000000D+00
 D 1 1.00
     Exponent=  2.0620000000D+00 Coefficients=  1.0000000000D+00
 D 1 1.00
     Exponent=  6.6200000000D-01 Coefficients=  1.0000000000D+00
 D 1 1.00
     Exponent=  1.9000000000D-01 Coefficients=  1.0000000000D+00
 F 1 1.00
     Exponent=  1.3970000000D+00 Coefficients=  1.0000000000D+00
 F 1 1.00
     Exponent=  3.6000000000D-01 Coefficients=  1.0000000000D+00
 ****
 ======================================================================================================
                                       Pseudopotential Parameters
 ======================================================================================================
  Center     Atomic      Valence      Angular      Power
  Number     Number     Electrons     Momentum     of R      Exponent        Coefficient   SO-Coeffient
 ======================================================================================================
    1         24           14
                                      D and up 
                                                     1       13.0767520       14.00000000    0.00000000
                                                     2       15.1580758     1258.15550380    0.00000000
                                                     2        4.6278569      -98.60998187    0.00000000
                                                     2       15.4113660    -6552.46055066    0.00000000
                                                     2       15.3869064     5353.09061557    0.00000000
                                                     3        5.2489731      183.07452839    0.00000000
                                      S - D
                                                     2        9.7768084    **************    0.00000000
                                                     2        9.9598011    96320.14803227    0.00000000
                                                     2        8.6227521     3928.31359170    0.00000000
                                                     2       12.2928814    **************    0.00000000
                                                     2       18.4131659    -1741.60409682    0.00000000
                                                     2       16.3854196     4413.26493033    0.00000000
                                      P - D
                                                     2       12.0010000    **************    0.00000000
                                                     2       11.4652444    21551.07876111    0.00000000
                                                     2       16.2385223     3703.78784703    0.00000000
                                                     2       18.4386111    -1424.18632323    0.00000000
                                                     2        8.8887794    -1964.93568469    0.00000000
                                                     2        7.5264478      317.50498882    0.00000000
    2          1
                                   No pseudopotential on this center.
 ======================================================================================================
 Ernie: Thresh=  0.10000D-02 Tol=  0.10000D-05 Strict=F.
 There are   171 symmetry adapted cartesian basis functions of A1  symmetry.
 There are    45 symmetry adapted cartesian basis functions of A2  symmetry.
 There are    93 symmetry adapted cartesian basis functions of B1  symmetry.
 There are    93 symmetry adapted cartesian basis functions of B2  symmetry.
 There are   126 symmetry adapted basis functions of A1  symmetry.
 There are    38 symmetry adapted basis functions of A2  symmetry.
 There are    73 symmetry adapted basis functions of B1  symmetry.
 There are    73 symmetry adapted basis functions of B2  symmetry.
   310 basis functions,   402 primitive gaussians,   402 cartesian basis functions
    10 alpha electrons        5 beta electrons
       nuclear repulsion energy         3.5278480728 Hartrees.
 IExCor=    0 DFT=F Ex=HF Corr=None ExCW=0 ScaHFX=  1.000000
 ScaDFX=  1.000000  1.000000  1.000000  1.000000 ScalE2=  1.000000  1.000000
 IRadAn=      5 IRanWt=     -1 IRanGd=            0 ICorTp=0 IEmpDi=  4
 NAtoms=    2 NActive=    2 NUniq=    2 SFac= 1.00D+00 NAtFMM=   60 NAOKFM=F Big=F
 Integral buffers will be    131072 words long.
 Raffenetti 2 integral format.
 Two-electron integral symmetry is turned on.
 Leave Link  301 at Mon Feb 26 20:29:20 2018, MaxMem=  8589934592 cpu:               4.0 elap:               0.3
 (Enter /home1/apps/gaussian/16rA.03/g16/l302.exe)
 NPDir=0 NMtPBC=     1 NCelOv=     1 NCel=       1 NClECP=     1 NCelD=      1
         NCelK=      1 NCelE2=     1 NClLst=     1 CellRange=     0.0.
 One-electron integrals computed using PRISM.
 One-electron integral symmetry used in STVInt
   4 Symmetry operations used in ECPInt.
 ECPInt:  NShTT=    3916 NPrTT=    3916 LenC2=    3854 LenP2D=    3853.
 LDataN:  DoStor=T MaxTD1=10 Len=  848
 NBasis=   310 RedAO= T EigKep=  1.54D-06  NBF=   126    38    73    73
 NBsUse=   306 1.00D-06 EigRej=  3.80D-07 NBFU=   124    38    72    72
 Leave Link  302 at Mon Feb 26 20:29:22 2018, MaxMem=  8589934592 cpu:              29.6 elap:               1.9
 (Enter /home1/apps/gaussian/16rA.03/g16/l303.exe)
 DipDrv:  MaxL=1.
 Leave Link  303 at Mon Feb 26 20:29:22 2018, MaxMem=  8589934592 cpu:               1.4 elap:               0.2
 (Enter /home1/apps/gaussian/16rA.03/g16/l401.exe)
 Initial guess from the checkpoint file:  "CrH.chk"
 Basis set data is not on the checkpoint file.
 Error termination via Lnk1e in /home1/apps/gaussian/16rA.03/g16/l401.exe at Mon Feb 26 20:29:22 2018.
 Job cpu time:       0 days  0 hours  0 minutes 42.3 seconds.
 Elapsed time:       0 days  0 hours  0 minutes  2.9 seconds.
 File lengths (MBytes):  RWF=     10 Int=      0 D2E=      0 Chk=      1 Scr=      1
