 Entering Gaussian System, Link 0=g16
 Initial command:
 /home1/apps/gaussian/16rA.03/g16/l1.exe "/tmp/Gau-96174.inp" -scrdir="/tmp/"
 Entering Link 1 = /home1/apps/gaussian/16rA.03/g16/l1.exe PID=     96175.
  
 Copyright (c) 1988,1990,1992,1993,1995,1998,2003,2009,2016,
            Gaussian, Inc.  All Rights Reserved.
  
 This is part of the Gaussian(R) 16 program.  It is based on
 the Gaussian(R) 09 system (copyright 2009, Gaussian, Inc.),
 the Gaussian(R) 03 system (copyright 2003, Gaussian, Inc.),
 the Gaussian(R) 98 system (copyright 1998, Gaussian, Inc.),
 the Gaussian(R) 94 system (copyright 1995, Gaussian, Inc.),
 the Gaussian 92(TM) system (copyright 1992, Gaussian, Inc.),
 the Gaussian 90(TM) system (copyright 1990, Gaussian, Inc.),
 the Gaussian 88(TM) system (copyright 1988, Gaussian, Inc.),
 the Gaussian 86(TM) system (copyright 1986, Carnegie Mellon
 University), and the Gaussian 82(TM) system (copyright 1983,
 Carnegie Mellon University). Gaussian is a federally registered
 trademark of Gaussian, Inc.
  
 This software contains proprietary and confidential information,
 including trade secrets, belonging to Gaussian, Inc.
  
 This software is provided under written license and may be
 used, copied, transmitted, or stored only in accord with that
 written license.
  
 The following legend is applicable only to US Government
 contracts under FAR:
  
                    RESTRICTED RIGHTS LEGEND
  
 Use, reproduction and disclosure by the US Government is
 subject to restrictions as set forth in subparagraphs (a)
 and (c) of the Commercial Computer Software - Restricted
 Rights clause in FAR 52.227-19.
  
 Gaussian, Inc.
 340 Quinnipiac St., Bldg. 40, Wallingford CT 06492
  
  
 ---------------------------------------------------------------
 Warning -- This program may not be used in any manner that
 competes with the business of Gaussian, Inc. or will provide
 assistance to any competitor of Gaussian, Inc.  The licensee
 of this program is prohibited from giving any competitor of
 Gaussian, Inc. access to this program.  By using this program,
 the user acknowledges that Gaussian, Inc. is engaged in the
 business of creating and licensing software in the field of
 computational chemistry and represents and warrants to the
 licensee that it is not a competitor of Gaussian, Inc. and that
 it will not use this program in any manner prohibited above.
 ---------------------------------------------------------------
  

 Cite this work as:
 Gaussian 16, Revision A.03,
 M. J. Frisch, G. W. Trucks, H. B. Schlegel, G. E. Scuseria, 
 M. A. Robb, J. R. Cheeseman, G. Scalmani, V. Barone, 
 G. A. Petersson, H. Nakatsuji, X. Li, M. Caricato, A. V. Marenich, 
 J. Bloino, B. G. Janesko, R. Gomperts, B. Mennucci, H. P. Hratchian, 
 J. V. Ortiz, A. F. Izmaylov, J. L. Sonnenberg, D. Williams-Young, 
 F. Ding, F. Lipparini, F. Egidi, J. Goings, B. Peng, A. Petrone, 
 T. Henderson, D. Ranasinghe, V. G. Zakrzewski, J. Gao, N. Rega, 
 G. Zheng, W. Liang, M. Hada, M. Ehara, K. Toyota, R. Fukuda, 
 J. Hasegawa, M. Ishida, T. Nakajima, Y. Honda, O. Kitao, H. Nakai, 
 T. Vreven, K. Throssell, J. A. Montgomery, Jr., J. E. Peralta, 
 F. Ogliaro, M. J. Bearpark, J. J. Heyd, E. N. Brothers, K. N. Kudin, 
 V. N. Staroverov, T. A. Keith, R. Kobayashi, J. Normand, 
 K. Raghavachari, A. P. Rendell, J. C. Burant, S. S. Iyengar, 
 J. Tomasi, M. Cossi, J. M. Millam, M. Klene, C. Adamo, R. Cammi, 
 J. W. Ochterski, R. L. Martin, K. Morokuma, O. Farkas, 
 J. B. Foresman, and D. J. Fox, Gaussian, Inc., Wallingford CT, 2016.
 
 ******************************************
 Gaussian 16:  ES64L-G16RevA.03 25-Dec-2016
                26-Mar-2018 
 ******************************************
 %mem=80GB
 %chk=qz.chk
 %cpu=0-31
 SetSPE:  set environment variable "MP_BIND" = "yes"
 SetSPE:  set environment variable "MP_BLIST" = "0,1,2,3,4,5,6,7,8,9,10,11,12,13,14,15,16,17,18,19,20,21,22,23,24,25,26,27,28,29,30,31"
 Will use up to   32 processors via shared memory.
 ----------------------------------------------------------------------
 #P ROCCSD(T)=(MaxCyc=150, Full)/Gen SCF=(maxcycle=400) Pseudo=Read Int
 egral(NoXCTest) Pop=Regular MaxDisk=500GB Guess=Read IOp(5/15=2)
 ----------------------------------------------------------------------
 1/38=1,172=1/1;
 2/12=2,17=6,18=5,40=1/2;
 3/5=7,11=2,16=1,17=8,25=1,30=1,47=8,116=101/1,2,3;
 4/5=1/1;
 5/5=2,7=400,15=2,38=6/2;
 8/5=-1,6=4,9=120000,10=90/1,4;
 9/5=7,6=150,14=2/13;
 6//1;
 99/5=1,9=1/99;
 Leave Link    1 at Mon Mar 26 23:03:59 2018, MaxMem= 10737418240 cpu:               6.5 elap:               0.2
 (Enter /home1/apps/gaussian/16rA.03/g16/l101.exe)
 --
 Cu
 --
 Symbolic Z-matrix:
 Charge =  0 Multiplicity = 2
 Cu                    0.        0.        0. 
 
 ITRead=  0
 MicOpt= -1
 NAtoms=      1 NQM=        1 NQMF=       0 NMMI=      0 NMMIF=      0
                NMic=       0 NMicF=      0.
                    Isotopes and Nuclear Properties:
 (Nuclear quadrupole moments (NQMom) in fm**2, nuclear magnetic moments (NMagM)
  in nuclear magnetons)

  Atom         1
 IAtWgt=          63
 AtmWgt=  62.9295992
 NucSpn=           3
 AtZEff=  -0.0000000
 NQMom=  -22.0000000
 NMagM=    2.2233000
 AtZNuc=  29.0000000
 Leave Link  101 at Mon Mar 26 23:03:59 2018, MaxMem= 10737418240 cpu:               2.9 elap:               0.1
 (Enter /home1/apps/gaussian/16rA.03/g16/l202.exe)
                          Input orientation:                          
 ---------------------------------------------------------------------
 Center     Atomic      Atomic             Coordinates (Angstroms)
 Number     Number       Type             X           Y           Z
 ---------------------------------------------------------------------
      1         29           0        0.000000    0.000000    0.000000
 ---------------------------------------------------------------------
 Stoichiometry    Cu(2)
 Framework group  OH[O(Cu)]
 Deg. of freedom     0
 Full point group                 OH      NOp  48
 Largest Abelian subgroup         D2H     NOp   8
 Largest concise Abelian subgroup C1      NOp   1
                         Standard orientation:                         
 ---------------------------------------------------------------------
 Center     Atomic      Atomic             Coordinates (Angstroms)
 Number     Number       Type             X           Y           Z
 ---------------------------------------------------------------------
      1         29           0        0.000000    0.000000    0.000000
 ---------------------------------------------------------------------
 Leave Link  202 at Mon Mar 26 23:04:00 2018, MaxMem= 10737418240 cpu:               1.2 elap:               0.1
 (Enter /home1/apps/gaussian/16rA.03/g16/l301.exe)
 General basis read from cards:  (5D, 7F)
 Centers:       1
 S 1 1.00
     Exponent=  1.6665490000D+07 Coefficients=  1.0000000000D+00
 S 1 1.00
     Exponent=  2.4952130000D+06 Coefficients=  1.0000000000D+00
 S 1 1.00
     Exponent=  5.6785070000D+05 Coefficients=  1.0000000000D+00
 S 1 1.00
     Exponent=  1.6085310000D+05 Coefficients=  1.0000000000D+00
 S 1 1.00
     Exponent=  5.2481860000D+04 Coefficients=  1.0000000000D+00
 S 1 1.00
     Exponent=  1.8948850000D+04 Coefficients=  1.0000000000D+00
 S 1 1.00
     Exponent=  7.3916550000D+03 Coefficients=  1.0000000000D+00
 S 1 1.00
     Exponent=  3.0665170000D+03 Coefficients=  1.0000000000D+00
 S 1 1.00
     Exponent=  1.3379940000D+03 Coefficients=  1.0000000000D+00
 S 1 1.00
     Exponent=  6.0878300000D+02 Coefficients=  1.0000000000D+00
 S 1 1.00
     Exponent=  2.8689800000D+02 Coefficients=  1.0000000000D+00
 S 1 1.00
     Exponent=  1.3915300000D+02 Coefficients=  1.0000000000D+00
 S 1 1.00
     Exponent=  6.8494550000D+01 Coefficients=  1.0000000000D+00
 S 1 1.00
     Exponent=  3.1601080000D+01 Coefficients=  1.0000000000D+00
 S 1 1.00
     Exponent=  1.5991580000D+01 Coefficients=  1.0000000000D+00
 S 1 1.00
     Exponent=  8.0565100000D+00 Coefficients=  1.0000000000D+00
 S 1 1.00
     Exponent=  3.6903290000D+00 Coefficients=  1.0000000000D+00
 S 1 1.00
     Exponent=  1.7629020000D+00 Coefficients=  1.0000000000D+00
 S 1 1.00
     Exponent=  8.0126900000D-01 Coefficients=  1.0000000000D+00
 S 1 1.00
     Exponent=  1.8424300000D-01 Coefficients=  1.0000000000D+00
 S 1 1.00
     Exponent=  8.1793000000D-02 Coefficients=  1.0000000000D+00
 S 1 1.00
     Exponent=  3.5303000000D-02 Coefficients=  1.0000000000D+00
 S 1 1.00
     Exponent=  7.2310000000D+00 Coefficients=  1.0000000000D+00
 S 1 1.00
     Exponent=  1.9080000000D+00 Coefficients=  1.0000000000D+00
 S 1 1.00
     Exponent=  1.5240000000D-02 Coefficients=  1.0000000000D+00
 P 1 1.00
     Exponent=  4.8218410000D+04 Coefficients=  1.0000000000D+00
 P 1 1.00
     Exponent=  1.1420550000D+04 Coefficients=  1.0000000000D+00
 P 1 1.00
     Exponent=  3.7135690000D+03 Coefficients=  1.0000000000D+00
 P 1 1.00
     Exponent=  1.4237620000D+03 Coefficients=  1.0000000000D+00
 P 1 1.00
     Exponent=  6.0660410000D+02 Coefficients=  1.0000000000D+00
 P 1 1.00
     Exponent=  2.7825640000D+02 Coefficients=  1.0000000000D+00
 P 1 1.00
     Exponent=  1.3484490000D+02 Coefficients=  1.0000000000D+00
 P 1 1.00
     Exponent=  6.8122540000D+01 Coefficients=  1.0000000000D+00
 P 1 1.00
     Exponent=  3.5400880000D+01 Coefficients=  1.0000000000D+00
 P 1 1.00
     Exponent=  1.8790290000D+01 Coefficients=  1.0000000000D+00
 P 1 1.00
     Exponent=  1.0083560000D+01 Coefficients=  1.0000000000D+00
 P 1 1.00
     Exponent=  5.3461200000D+00 Coefficients=  1.0000000000D+00
 P 1 1.00
     Exponent=  2.7752280000D+00 Coefficients=  1.0000000000D+00
 P 1 1.00
     Exponent=  1.4075640000D+00 Coefficients=  1.0000000000D+00
 P 1 1.00
     Exponent=  6.8721300000D-01 Coefficients=  1.0000000000D+00
 P 1 1.00
     Exponent=  2.4682200000D-01 Coefficients=  1.0000000000D+00
 P 1 1.00
     Exponent=  9.6220000000D-02 Coefficients=  1.0000000000D+00
 P 1 1.00
     Exponent=  3.7037000000D-02 Coefficients=  1.0000000000D+00
 P 1 1.00
     Exponent=  1.1921800000D+01 Coefficients=  1.0000000000D+00
 P 1 1.00
     Exponent=  3.2325000000D+00 Coefficients=  1.0000000000D+00
 P 1 1.00
     Exponent=  1.4260000000D-02 Coefficients=  1.0000000000D+00
 D 1 1.00
     Exponent=  5.2788600000D+02 Coefficients=  1.0000000000D+00
 D 1 1.00
     Exponent=  1.5873300000D+02 Coefficients=  1.0000000000D+00
 D 1 1.00
     Exponent=  6.1555600000D+01 Coefficients=  1.0000000000D+00
 D 1 1.00
     Exponent=  2.6883400000D+01 Coefficients=  1.0000000000D+00
 D 1 1.00
     Exponent=  1.2517500000D+01 Coefficients=  1.0000000000D+00
 D 1 1.00
     Exponent=  6.0697700000D+00 Coefficients=  1.0000000000D+00
 D 1 1.00
     Exponent=  2.9583190000D+00 Coefficients=  1.0000000000D+00
 D 1 1.00
     Exponent=  1.4141220000D+00 Coefficients=  1.0000000000D+00
 D 1 1.00
     Exponent=  6.5332900000D-01 Coefficients=  1.0000000000D+00
 D 1 1.00
     Exponent=  2.8669200000D-01 Coefficients=  1.0000000000D+00
 D 1 1.00
     Exponent=  1.1501400000D-01 Coefficients=  1.0000000000D+00
 D 1 1.00
     Exponent=  8.4804000000D+00 Coefficients=  1.0000000000D+00
 D 1 1.00
     Exponent=  4.4553000000D+00 Coefficients=  1.0000000000D+00
 D 1 1.00
     Exponent=  4.6140000000D-02 Coefficients=  1.0000000000D+00
 F 1 1.00
     Exponent=  1.1946300000D+01 Coefficients=  1.0000000000D+00
 F 1 1.00
     Exponent=  5.0345000000D+00 Coefficients=  1.0000000000D+00
 F 1 1.00
     Exponent=  2.1217000000D+00 Coefficients=  1.0000000000D+00
 F 1 1.00
     Exponent=  7.3910000000D-01 Coefficients=  1.0000000000D+00
 F 1 1.00
     Exponent=  2.5747000000D-01 Coefficients=  1.0000000000D+00
 G 1 1.00
     Exponent=  9.5934000000D+00 Coefficients=  1.0000000000D+00
 G 1 1.00
     Exponent=  4.3083000000D+00 Coefficients=  1.0000000000D+00
 G 1 1.00
     Exponent=  1.7760000000D+00 Coefficients=  1.0000000000D+00
 G 1 1.00
     Exponent=  7.3212000000D-01 Coefficients=  1.0000000000D+00
 H 1 1.00
     Exponent=  8.5704000000D+00 Coefficients=  1.0000000000D+00
 H 1 1.00
     Exponent=  3.7909000000D+00 Coefficients=  1.0000000000D+00
 H 1 1.00
     Exponent=  1.6768100000D+00 Coefficients=  1.0000000000D+00
 ****
 ======================================================================================================
                                       Pseudopotential Parameters
 ======================================================================================================
  Center     Atomic      Valence      Angular      Power
  Number     Number     Electrons     Momentum     of R      Exponent        Coefficient   SO-Coeffient
 ======================================================================================================
    1         29           19
                                      G and up 
                                                     2        1.0000000        0.00000000    0.00000000
                                      S - G
                                                     2       30.1105430      355.75051200    0.00000000
                                                     2       13.0763100       70.93090600    0.00000000
                                      P - G
                                                     2       32.6926140       77.96993100    0.00000000
                                                     2       32.7703390      155.92744800    0.00000000
                                                     2       13.7510670       18.02113200    0.00000000
                                                     2       13.3221660       36.09437200    0.00000000
                                      D - G
                                                     2       38.9965110      -12.34341000    0.00000000
                                                     2       39.5397880      -18.27336200    0.00000000
                                                     2       12.2875110       -0.98470500    0.00000000
                                                     2       11.4593000       -1.31874700    0.00000000
                                      F - G
                                                     2        6.1901020       -0.22726400    0.00000000
                                                     2        8.1187800       -0.46877300    0.00000000
 ======================================================================================================
 Ernie: Thresh=  0.10000D-02 Tol=  0.10000D-05 Strict=F.
 There are    91 symmetry adapted cartesian basis functions of AG  symmetry.
 There are    26 symmetry adapted cartesian basis functions of B1G symmetry.
 There are    26 symmetry adapted cartesian basis functions of B2G symmetry.
 There are    26 symmetry adapted cartesian basis functions of B3G symmetry.
 There are    14 symmetry adapted cartesian basis functions of AU  symmetry.
 There are    54 symmetry adapted cartesian basis functions of B1U symmetry.
 There are    54 symmetry adapted cartesian basis functions of B2U symmetry.
 There are    54 symmetry adapted cartesian basis functions of B3U symmetry.
 There are    65 symmetry adapted basis functions of AG  symmetry.
 There are    22 symmetry adapted basis functions of B1G symmetry.
 There are    22 symmetry adapted basis functions of B2G symmetry.
 There are    22 symmetry adapted basis functions of B3G symmetry.
 There are    11 symmetry adapted basis functions of AU  symmetry.
 There are    40 symmetry adapted basis functions of B1U symmetry.
 There are    40 symmetry adapted basis functions of B2U symmetry.
 There are    40 symmetry adapted basis functions of B3U symmetry.
   262 basis functions,   345 primitive gaussians,   345 cartesian basis functions
    10 alpha electrons        9 beta electrons
       nuclear repulsion energy         0.0000000000 Hartrees.
 IExCor=    0 DFT=F Ex=HF Corr=None ExCW=0 ScaHFX=  1.000000
 ScaDFX=  1.000000  1.000000  1.000000  1.000000 ScalE2=  1.000000  1.000000
 IRadAn=      5 IRanWt=     -1 IRanGd=            0 ICorTp=0 IEmpDi=  4
 NAtoms=    1 NActive=    1 NUniq=    1 SFac= 1.00D+00 NAtFMM=   60 NAOKFM=F Big=F
 Integral buffers will be    131072 words long.
 Raffenetti 2 integral format.
 Two-electron integral symmetry is turned on.
 Leave Link  301 at Mon Mar 26 23:04:00 2018, MaxMem= 10737418240 cpu:               7.5 elap:               0.3
 (Enter /home1/apps/gaussian/16rA.03/g16/l302.exe)
 NPDir=0 NMtPBC=     1 NCelOv=     1 NCel=       1 NClECP=     1 NCelD=      1
         NCelK=      1 NCelE2=     1 NClLst=     1 CellRange=     0.0.
 One-electron integrals computed using PRISM.
 One-electron integral symmetry used in STVInt
  48 Symmetry operations used in ECPInt.
 ECPInt:  NShTT=    2628 NPrTT=    2628 LenC2=    2629 LenP2D=    2628.
 LDataN:  DoStor=T MaxTD1=10 Len=  848
 NBasis=   262 RedAO= T EigKep=  1.59D-06  NBF=    65    22    22    22    11    40    40    40
 NBsUse=   261 1.00D-06 EigRej=  5.88D-07 NBFU=    64    22    22    22    11    40    40    40
 Leave Link  302 at Mon Mar 26 23:04:06 2018, MaxMem= 10737418240 cpu:             204.5 elap:               6.4
 (Enter /home1/apps/gaussian/16rA.03/g16/l303.exe)
 DipDrv:  MaxL=1.
 Leave Link  303 at Mon Mar 26 23:04:07 2018, MaxMem= 10737418240 cpu:               2.9 elap:               0.1
 (Enter /home1/apps/gaussian/16rA.03/g16/l401.exe)
 Initial guess from the checkpoint file:  "qz.chk"
 B after Tr=     0.000000    0.000000    0.000000
         Rot=    1.000000    0.000000    0.000000    0.000000 Ang=   0.00 deg.
 Guess basis will be translated and rotated to current coordinates.
 JPrj=2 DoOrth=T DoCkMO=T.
 Initial guess orbital symmetries:
       Occupied  (A1G) (T1U) (T1U) (T1U) (EG) (EG) (T2G) (T2G)
                 (T2G) (A1G)
       Virtual   (T1U) (T1U) (T1U) (A1G) (T1U) (T1U) (T1U) (A1G)
                 (EG) (EG) (T2G) (T2G) (T2G) (T1U) (T1U) (T1U)
                 (A1G) (EG) (EG) (T2G) (T2G) (T2G) (T1U) (T1U)
                 (T1U) (A2U) (?A) (?A) (?A) (?A) (?A) (?A) (EG)
                 (EG) (T2G) (T2G) (T2G) (A1G) (T1U) (T1U) (T1U)
                 (?A) (?A) (?A) (?A) (?A) (?A) (A2U) (EG) (EG)
                 (T2G) (T2G) (T2G) (?B) (?B) (?B) (?B) (T2G) (?B)
                 (?B) (T2G) (T2G) (A1G) (T1U) (T1U) (T1U) (?A)
                 (?A) (?A) (?A) (?A) (?A) (A2U) (EG) (EG) (T2G)
                 (T2G) (T2G) (?B) (?B) (?B) (T2G) (?B) (T2G) (?B)
                 (?B) (T2G) (A1G) (T1U) (T1U) (T1U) (?A) (?A) (?A)
                 (?A) (?A) (A2U) (?A) (T1U) (T1U) (T1U) (EG) (EG)
                 (T2G) (T2G) (T2G) (A1G) (?B) (?B) (?B) (T2G) (?B)
                 (?B) (T2G) (?B) (T2G) (T1U) (T1U) (T1U) (EG) (EG)
                 (T2G) (T2G) (T2G) (A1G) (T1U) (T1U) (T1U) (A1G)
                 (EG) (EG) (T2G) (T2G) (T2G) (T1U) (T1U) (T1U)
                 (A1G) (T1U) (T1U) (T1U) (A1G) (EG) (EG) (T2G)
                 (T2G) (T2G) (T1U) (T1U) (T1U) (A1G) (T1U) (T1U)
                 (T1U) (A1G) (T1U) (T1U) (T1U) (A1G) (T1U) (T1U)
                 (T1U) (A1G) (A1G) (T1U) (T1U) (T1U) (A1G) (T1U)
                 (T1U) (T1U) (A1G) (A1G) (A1G) (A1G) (EG) (EG)
                 (EG) (EG) (T2G) (T2G) (T2G) (A1G) (EG) (EG) (EG)
                 (EG) (T2G) (T2G) (?B) (?B) (T2G) (T2G) (T2G) (T2G)
                 (?B) (?B) (T2G) (T2G) (T2G) (T2G) (?B) (?B) (T2G)
                 (T2G) (A2U) (EU) (EU) (EU) (EU) (EU) (EU) (T1U)
                 (?A) (?A) (?C) (?C) (?C) (?D) (?D) (?D) (?E) (?E)
                 (?E) (T1U) (T1U) (?A) (?A) (?C) (?C) (?C) (?D)
                 (?D) (?D) (?E) (?E) (?E) (T1U) (T1U) (?A) (?A)
                 (?C) (?C) (?C) (?D) (?D) (?D) (?E) (?E) (?E) (T1U)
 The electronic state of the initial guess is 2-A1G.
 Leave Link  401 at Mon Mar 26 23:04:07 2018, MaxMem= 10737418240 cpu:              14.6 elap:               0.6
 (Enter /home1/apps/gaussian/16rA.03/g16/l502.exe)
 Keep R1 and R2 ints in memory in symmetry-blocked form, NReq=725388726.
 FoFCou: FMM=F IPFlag=           8 FMFlag=           0 FMFlg1=           0
         NFxFlg=           0 DoJE=F BraDBF=F KetDBF=F FulRan=T
         wScrn=  0.000000 ICntrl=       600 IOpCl=  0 I1Cent=           0 NGrid=           0
         NMat0=    1 NMatS0=  34453 NMatT0=    0 NMatD0=    1 NMtDS0=    0 NMtDT0=    0
 Petite list used in FoFCou.
 Restricted open shell SCF:
 Using DIIS extrapolation, IDIIS=  1040.
 NGot= 10737418240 LenX= 10585850058 LenY= 10585730592
 Requested convergence on RMS density matrix=1.00D-08 within 400 cycles.
 Requested convergence on MAX density matrix=1.00D-06.
 Requested convergence on             energy=1.00D-06.
 No special actions if energy rises.

 Cycle   1  Pass 1  IDiag  1:
 E= -196.176261009380    
 DIIS: error= 5.18D-01 at cycle   1 NSaved=   1.
 NSaved= 1 IEnMin= 1 EnMin= -196.176261009380     IErMin= 1 ErrMin= 5.18D-01
 ErrMax= 5.18D-01  0.00D+00 EMaxC= 1.00D-01 BMatC= 2.57D+01 BMatP= 2.57D+01
 IDIUse=3 WtCom= 0.00D+00 WtEn= 1.00D+00
 Coeff-Com:  0.100D+01
 Coeff-En:   0.100D+01
 Coeff:      0.100D+01
 Gap=     0.103 Goal=   None    Shift=    0.000
 GapD=    0.103 DampG=1.000 DampE=0.125 DampFc=0.1250 IDamp=-1.
 Damping current iteration by 1.25D-01
 RMSDP=1.19D-03 MaxDP=7.02D-02              OVMax= 1.52D-03

 Cycle   2  Pass 1  IDiag  1:
 E= -196.176277188545     Delta-E=       -0.000016179165 Rises=F Damp=T
 DIIS: error= 4.53D-01 at cycle   2 NSaved=   2.
 NSaved= 2 IEnMin= 2 EnMin= -196.176277188545     IErMin= 2 ErrMin= 4.53D-01
 ErrMax= 4.53D-01  0.00D+00 EMaxC= 1.00D-01 BMatC= 1.97D+01 BMatP= 2.57D+01
 IDIUse=3 WtCom= 0.00D+00 WtEn= 1.00D+00
 Coeff-Com: -0.700D+01 0.800D+01
 Coeff-En:   0.000D+00 0.100D+01
 Coeff:      0.000D+00 0.100D+01
 Gap=     0.096 Goal=   None    Shift=    0.000
 RMSDP=1.04D-03 MaxDP=6.16D-02 DE=-1.62D-05 OVMax= 2.10D-04

 Cycle   3  Pass 1  IDiag  1:
 E= -196.176394695796     Delta-E=       -0.000117507252 Rises=F Damp=F
 DIIS: error= 7.67D-05 at cycle   3 NSaved=   3.
 NSaved= 3 IEnMin= 3 EnMin= -196.176394695796     IErMin= 3 ErrMin= 7.67D-05
 ErrMax= 7.67D-05  0.00D+00 EMaxC= 1.00D-01 BMatC= 4.76D-07 BMatP= 1.97D+01
 IDIUse=1 WtCom= 1.00D+00 WtEn= 0.00D+00
 Coeff-Com: -0.390D+00 0.446D+00 0.944D+00
 Coeff:     -0.390D+00 0.446D+00 0.944D+00
 Gap=     0.096 Goal=   None    Shift=    0.000
 RMSDP=2.39D-05 MaxDP=1.53D-03 DE=-1.18D-04 OVMax= 2.69D-04

 Cycle   4  Pass 1  IDiag  1:
 E= -196.176395318010     Delta-E=       -0.000000622213 Rises=F Damp=F
 DIIS: error= 1.16D-05 at cycle   4 NSaved=   4.
 NSaved= 4 IEnMin= 4 EnMin= -196.176395318010     IErMin= 4 ErrMin= 1.16D-05
 ErrMax= 1.16D-05  0.00D+00 EMaxC= 1.00D-01 BMatC= 1.00D-08 BMatP= 4.76D-07
 IDIUse=1 WtCom= 1.00D+00 WtEn= 0.00D+00
 Coeff-Com: -0.229D+00 0.262D+00-0.153D+00 0.112D+01
 Coeff:     -0.229D+00 0.262D+00-0.153D+00 0.112D+01
 Gap=     0.096 Goal=   None    Shift=    0.000
 RMSDP=1.95D-06 MaxDP=2.64D-04 DE=-6.22D-07 OVMax= 9.81D-05

 Cycle   5  Pass 1  IDiag  1:
 E= -196.176395337744     Delta-E=       -0.000000019734 Rises=F Damp=F
 DIIS: error= 4.04D-06 at cycle   5 NSaved=   5.
 NSaved= 5 IEnMin= 5 EnMin= -196.176395337744     IErMin= 5 ErrMin= 4.04D-06
 ErrMax= 4.04D-06  0.00D+00 EMaxC= 1.00D-01 BMatC= 7.73D-10 BMatP= 1.00D-08
 IDIUse=1 WtCom= 1.00D+00 WtEn= 0.00D+00
 Coeff-Com: -0.262D+00 0.299D+00-0.427D-01-0.518D-01 0.106D+01
 Coeff:     -0.262D+00 0.299D+00-0.427D-01-0.518D-01 0.106D+01
 Gap=     0.096 Goal=   None    Shift=    0.000
 RMSDP=9.58D-07 MaxDP=1.62D-04 DE=-1.97D-08 OVMax= 8.40D-05

 Cycle   6  Pass 1  IDiag  1:
 E= -196.176395339396     Delta-E=       -0.000000001652 Rises=F Damp=F
 DIIS: error= 3.37D-06 at cycle   6 NSaved=   6.
 NSaved= 6 IEnMin= 6 EnMin= -196.176395339396     IErMin= 6 ErrMin= 3.37D-06
 ErrMax= 3.37D-06  0.00D+00 EMaxC= 1.00D-01 BMatC= 4.63D-10 BMatP= 7.73D-10
 IDIUse=1 WtCom= 1.00D+00 WtEn= 0.00D+00
 Coeff-Com: -0.227D+00 0.260D+00-0.327D-01-0.656D-01 0.520D+00 0.545D+00
 Coeff:     -0.227D+00 0.260D+00-0.327D-01-0.656D-01 0.520D+00 0.545D+00
 Gap=     0.096 Goal=   None    Shift=    0.000
 RMSDP=2.36D-07 MaxDP=3.55D-05 DE=-1.65D-09 OVMax= 1.90D-05

 Cycle   7  Pass 1  IDiag  1:
 E= -196.176395339386     Delta-E=        0.000000000009 Rises=F Damp=F
 DIIS: error= 2.97D-06 at cycle   7 NSaved=   7.
 NSaved= 7 IEnMin= 6 EnMin= -196.176395339396     IErMin= 7 ErrMin= 2.97D-06
 ErrMax= 2.97D-06  0.00D+00 EMaxC= 1.00D-01 BMatC= 2.86D-10 BMatP= 4.63D-10
 IDIUse=1 WtCom= 1.00D+00 WtEn= 0.00D+00
 Coeff-Com: -0.202D+00 0.231D+00-0.299D-01-0.352D-01 0.165D+00 0.293D+00
 Coeff-Com:  0.579D+00
 Coeff:     -0.202D+00 0.231D+00-0.299D-01-0.352D-01 0.165D+00 0.293D+00
 Coeff:      0.579D+00
 Gap=     0.096 Goal=   None    Shift=    0.000
 RMSDP=1.20D-07 MaxDP=1.30D-05 DE= 9.07D-12 OVMax= 5.54D-06

 Cycle   8  Pass 1  IDiag  1:
 E= -196.176395339368     Delta-E=        0.000000000018 Rises=F Damp=F
 DIIS: error= 2.66D-06 at cycle   8 NSaved=   8.
 NSaved= 8 IEnMin= 6 EnMin= -196.176395339396     IErMin= 8 ErrMin= 2.66D-06
 ErrMax= 2.66D-06  0.00D+00 EMaxC= 1.00D-01 BMatC= 2.31D-10 BMatP= 2.86D-10
 IDIUse=1 WtCom= 1.00D+00 WtEn= 0.00D+00
 Coeff-Com: -0.170D+00 0.195D+00-0.281D-01 0.109D-01-0.524D-01-0.453D-01
 Coeff-Com: -0.245D+00 0.134D+01
 Coeff:     -0.170D+00 0.195D+00-0.281D-01 0.109D-01-0.524D-01-0.453D-01
 Coeff:     -0.245D+00 0.134D+01
 Gap=     0.096 Goal=   None    Shift=    0.000
 RMSDP=2.31D-07 MaxDP=3.02D-05 DE= 1.82D-11 OVMax= 7.25D-06

 Cycle   9  Pass 1  IDiag  1:
 E= -196.176395339473     Delta-E=       -0.000000000105 Rises=F Damp=F
 DIIS: error= 2.24D-06 at cycle   9 NSaved=   9.
 NSaved= 9 IEnMin= 9 EnMin= -196.176395339473     IErMin= 9 ErrMin= 2.24D-06
 ErrMax= 2.24D-06  0.00D+00 EMaxC= 1.00D-01 BMatC= 1.58D-10 BMatP= 2.31D-10
 IDIUse=1 WtCom= 1.00D+00 WtEn= 0.00D+00
 Coeff-Com: -0.141D+00 0.161D+00-0.230D-01 0.152D-02 0.167D-01-0.290D-01
 Coeff-Com: -0.979D-01-0.812D-01 0.119D+01
 Coeff:     -0.141D+00 0.161D+00-0.230D-01 0.152D-02 0.167D-01-0.290D-01
 Coeff:     -0.979D-01-0.812D-01 0.119D+01
 Gap=     0.096 Goal=   None    Shift=    0.000
 RMSDP=1.90D-07 MaxDP=2.32D-05 DE=-1.05D-10 OVMax= 4.25D-06

 Cycle  10  Pass 1  IDiag  1:
 E= -196.176395339530     Delta-E=       -0.000000000056 Rises=F Damp=F
 DIIS: error= 1.86D-06 at cycle  10 NSaved=  10.
 NSaved=10 IEnMin=10 EnMin= -196.176395339530     IErMin=10 ErrMin= 1.86D-06
 ErrMax= 1.86D-06  0.00D+00 EMaxC= 1.00D-01 BMatC= 1.09D-10 BMatP= 1.58D-10
 IDIUse=1 WtCom= 1.00D+00 WtEn= 0.00D+00
 Large coefficients: NSaved= 10 BigCof=    0.00 CofMax=   10.00 Det=-1.91D-16
 Inversion failed.  Reducing to  9 matrices.
 Coeff-Com: -0.394D-09-0.160D-03 0.481D-02-0.433D-01-0.689D-02-0.613D-03
 Coeff-Com:  0.880D+00-0.656D+01 0.672D+01
 Coeff:     -0.394D-09-0.160D-03 0.481D-02-0.433D-01-0.689D-02-0.613D-03
 Coeff:      0.880D+00-0.656D+01 0.672D+01
 Gap=     0.096 Goal=   None    Shift=    0.000
 RMSDP=9.22D-07 MaxDP=1.13D-04 DE=-5.64D-11 OVMax= 2.07D-05

 Cycle  11  Pass 1  IDiag  1:
 E= -196.176395339654     Delta-E=       -0.000000000124 Rises=F Damp=F
 DIIS: error= 3.92D-09 at cycle  11 NSaved=  10.
 NSaved=10 IEnMin=10 EnMin= -196.176395339654     IErMin=10 ErrMin= 3.92D-09
 ErrMax= 3.92D-09  0.00D+00 EMaxC= 1.00D-01 BMatC= 1.49D-15 BMatP= 1.09D-10
 IDIUse=1 WtCom= 1.00D+00 WtEn= 0.00D+00
 Coeff-Com:  0.275D-09 0.822D-05-0.335D-03 0.346D-02-0.521D-03 0.180D-02
 Coeff-Com: -0.731D-01 0.797D+00-0.864D+00 0.114D+01
 Coeff:      0.275D-09 0.822D-05-0.335D-03 0.346D-02-0.521D-03 0.180D-02
 Coeff:     -0.731D-01 0.797D+00-0.864D+00 0.114D+01
 Gap=     0.096 Goal=   None    Shift=    0.000
 RMSDP=2.05D-10 MaxDP=3.36D-08 DE=-1.24D-10 OVMax= 1.31D-08

 SCF Done:  E(ROHF) =  -196.176395340     A.U. after   11 cycles
            NFock= 11  Conv=0.20D-09     -V/T= 2.5013
 <Sx>= 0.0000 <Sy>= 0.0000 <Sz>= 0.5000 <S**2>= 0.7500 S= 0.5000
 <L.S>=  0.00000000000    
 KE= 1.306699535765D+02 PE=-4.870107919973D+02 EE= 1.601644430812D+02
 Annihilation of the first spin contaminant:
 S**2 before annihilation     0.7500,   after     0.7500
 Leave Link  502 at Mon Mar 26 23:05:07 2018, MaxMem= 10737418240 cpu:            1884.9 elap:              59.5
 (Enter /home1/apps/gaussian/16rA.03/g16/l801.exe)
 Windowed orbitals will be sorted by symmetry type.
 GenMOA:  NOpAll= 48 NOp2=8 NOpUse= 48 JSym2X=1
 FoFJK:  IHMeth= 1 ICntrl=       0 DoSepK=F KAlg= 0 I1Cent=           0 FoldK=F
 IRaf=         0 NMat=       1 IRICut=       1 DoRegI=T DoRafI=F ISym2E= 1 IDoP0=0 IntGTp=1.
 FoFCou: FMM=F IPFlag=           8 FMFlag=      100000 FMFlg1=           0
         NFxFlg=           0 DoJE=F BraDBF=F KetDBF=F FulRan=T
         wScrn=  0.000000 ICntrl=         0 IOpCl=  1 I1Cent=           0 NGrid=           0
         NMat0=    1 NMatS0=      1 NMatT0=    0 NMatD0=    1 NMtDS0=    0 NMtDT0=    0
 Petite list used in FoFCou.
 <Sx>= 0.0000 <Sy>= 0.0000 <Sz>= 0.5000 <S**2>= 0.7500 S= 0.5000
 Range of M.O.s used for correlation:     1   261
 NBasis=   262 NAE=    10 NBE=     9 NFC=     0 NFV=     0
 NROrb=    261 NOA=    10 NOB=     9 NVA=   251 NVB=   252

 **** Warning!!: The largest alpha MO coefficient is  0.23774119D+03


 **** Warning!!: The largest beta MO coefficient is  0.23774121D+03

 Singles contribution to E2=   -0.2463162731D-03
 Leave Link  801 at Mon Mar 26 23:05:22 2018, MaxMem= 10737418240 cpu:             478.8 elap:              15.0
 (Enter /home1/apps/gaussian/16rA.03/g16/l804.exe)
 Open-shell transformation, MDV= 10737418240 ITran=4 ISComp=2.
 Unit  1 TFree=       2081854 TCopy=       1677790.
 Semi-Direct transformation.
 ModeAB=           2 MOrb=            10 LenV=   10735211826
 LASXX=     11064730 LTotXX=    11064730 LenRXX=    11064730
 LTotAB=    11244062 MaxLAS=   155777850 LenRXY=   155777850
 NonZer=   159818130 LenScr=   240667648 LnRSAI=           0
 LnScr1=           0 LExtra=     9931378 Total=    417441606
 MaxDsk= 67108864000 SrtSym=           F ITran=            4
 DoSDTr:  NPSUse= 32
 JobTyp=1 Pass  1:  I=   1 to  10.
 (rs|ai) integrals will be sorted in core.
 Complete sort for first half transformation.
 First half transformation complete.
 Begin second half transformation for I=  10.
 Begin second half transformation for I=  10.
 Complete sort for second half transformation.
 Second half transformation complete.
 ModeAB=           2 MOrb=             9 LenV=   10735211826
 LASXX=      9944478 LTotXX=     9944478 LenRXX=   140200065
 LTotAB=     9334305 MaxLAS=   140200065 LenRXY=     9334305
 NonZer=   143836317 LenScr=   216600576 LnRSAI=           0
 LnScr1=           0 LExtra=   176773958 Total=    542908904
 MaxDsk= 67108864000 SrtSym=           F ITran=            4
 DoSDTr:  NPSUse= 32
 JobTyp=2 Pass  1:  I=   1 to   9.
 (rs|ai) integrals will be sorted in core.
 Complete sort for first half transformation.
 First half transformation complete.
 Complete sort for second half transformation.
 Second half transformation complete.
 Spin components of T(2) and E(2):
     alpha-alpha T2 =       0.2443364740D-01 E2=     -0.1752227825D+00
     alpha-beta  T2 =       0.8545656712D-01 E2=     -0.7494284541D+00
     beta-beta   T2 =       0.2026158237D-01 E2=     -0.1625773702D+00
 ANorm=    0.1063183330D+01
 E2 =    -0.1087474923D+01 EUMP2 =    -0.19726387026278D+03
 (S**2,0)=  0.75000D+00           (S**2,1)=  0.75000D+00
 E(PUHF)=      -0.19617639534D+03        E(PMP2)=      -0.19726387026D+03
 Leave Link  804 at Mon Mar 26 23:10:54 2018, MaxMem= 10737418240 cpu:           10615.3 elap:             331.7
 (Enter /home1/apps/gaussian/16rA.03/g16/l913.exe)
 CIDS:  MDV= 10737418240.
 IFCWin=0 IBDFC=1 NFBD=     0     0 NFCmp=     0     0 NFFFC=     0     0
 Using original routines for 1st iteration.
 Using DD4UQ or CC4UQ for 2nd and later iterations.
 Keep R2 and R3 ints in memory in symmetry-blocked form, NReq=725405373.
 FoFCou: FMM=F IPFlag=           8 FMFlag=           0 FMFlg1=           0
         NFxFlg=           0 DoJE=F BraDBF=F KetDBF=F FulRan=T
         wScrn=  0.000000 ICntrl=       600 IOpCl=  0 I1Cent=           0 NGrid=           0
         NMat0=    1 NMatS0=  34453 NMatT0=    0 NMatD0=    1 NMtDS0=    0 NMtDT0=    0
 Petite list used in FoFCou.
 CIDS: In Core Option IDoMem=           1.
 CCSD(T)
 =======
 Iterations= 150 Convergence= 0.100D-06
 Produce multiple copies of IABC intergrals
 Iteration Nr.   1
 **********************
 DD1Dir will call FoFMem   1 times, MxPair=       262
 NAB=    90 NAA=    45 NBB=    36.
 DD1Dir will call FoFMem   1 times, MxPair=       262
 NAB=    90 NAA=    45 NBB=    36.
 MP4(R+Q)= -0.20437249D+00
 Maximum subspace dimension=  5
 A-vector RMS=  1.0405423D-04 Max=  1.4091249D-03 conv= 1.00D-05.
 RLE energy=       -1.1016888256
 E3=        0.19031129D+00        EROMP3=      -0.19707355898D+03
 E4(SDQ)=  -0.13767475D+00        ROMP4(SDQ)=  -0.19721123373D+03
 VARIATIONAL ENERGIES WITH THE FIRST-ORDER WAVEFUNCTION:
 DE(Corr)=  -1.1015057     E(Corr)=     -197.27790101    
 NORM(A)=   0.10657516D+01
 Iteration Nr.   2
 **********************
 DD1Dir will call FoFMem   1 times, MxPair=       262
 NAB=    90 NAA=    45 NBB=    36.
 A-vector RMS=  4.6213710D-03 Max=  3.6455855D-02 conv= 1.00D-05.
 RLE energy=       -1.0691942408
 DE(Corr)= -0.89930626     E(CORR)=     -197.07570160     Delta= 2.02D-01
 NORM(A)=   0.10597739D+01
 Iteration Nr.   3
 **********************
 DD1Dir will call FoFMem   1 times, MxPair=       262
 NAB=    90 NAA=    45 NBB=    36.
 A-vector RMS=  3.3997393D-03 Max=  2.6480170D-02 conv= 1.00D-05.
 RLE energy=       -1.0202201945
 DE(Corr)= -0.91472542     E(CORR)=     -197.09112076     Delta=-1.54D-02
 NORM(A)=   0.10540287D+01
 Iteration Nr.   4
 **********************
 DD1Dir will call FoFMem   1 times, MxPair=       262
 NAB=    90 NAA=    45 NBB=    36.
 A-vector RMS=  2.3121857D-03 Max=  1.8031833D-02 conv= 1.00D-05.
 RLE energy=       -0.9198792735
 DE(Corr)= -0.93932711     E(CORR)=     -197.11572245     Delta=-2.46D-02
 NORM(A)=   0.10548814D+01
 Iteration Nr.   5
 **********************
 DD1Dir will call FoFMem   1 times, MxPair=       262
 NAB=    90 NAA=    45 NBB=    36.
 A-vector RMS=  1.8159101D-03 Max=  1.3705232D-02 conv= 1.00D-05.
 RLE energy=       -0.9489494061
 DE(Corr)=  -1.0010171     E(CORR)=     -197.17741241     Delta=-6.17D-02
 NORM(A)=   0.10573951D+01
 Iteration Nr.   6
 **********************
 DD1Dir will call FoFMem   1 times, MxPair=       262
 NAB=    90 NAA=    45 NBB=    36.
 A-vector RMS=  7.0713849D-04 Max=  5.8419145D-03 conv= 1.00D-05.
 RLE energy=       -0.9729319024
 DE(Corr)= -0.98471650     E(CORR)=     -197.16111184     Delta= 1.63D-02
 NORM(A)=   0.10561858D+01
 Iteration Nr.   7
 **********************
 DD1Dir will call FoFMem   1 times, MxPair=       262
 NAB=    90 NAA=    45 NBB=    36.
 A-vector RMS=  8.1383611D-05 Max=  7.5252723D-04 conv= 1.00D-05.
 RLE energy=       -0.9712054879
 DE(Corr)= -0.97015539     E(CORR)=     -197.14655073     Delta= 1.46D-02
 NORM(A)=   0.10559003D+01
 Iteration Nr.   8
 **********************
 DD1Dir will call FoFMem   1 times, MxPair=       262
 NAB=    90 NAA=    45 NBB=    36.
 A-vector RMS=  4.4705279D-05 Max=  4.2382366D-04 conv= 1.00D-05.
 RLE energy=       -0.9710208809
 DE(Corr)= -0.97100169     E(CORR)=     -197.14739703     Delta=-8.46D-04
 NORM(A)=   0.10559338D+01
 Iteration Nr.   9
 **********************
 DD1Dir will call FoFMem   1 times, MxPair=       262
 NAB=    90 NAA=    45 NBB=    36.
 A-vector RMS=  7.0104697D-06 Max=  9.7926464D-05 conv= 1.00D-05.
 RLE energy=       -0.9710401639
 DE(Corr)= -0.97104267     E(CORR)=     -197.14743801     Delta=-4.10D-05
 NORM(A)=   0.10559596D+01
 Iteration Nr.  10
 **********************
 DD1Dir will call FoFMem   1 times, MxPair=       262
 NAB=    90 NAA=    45 NBB=    36.
 A-vector RMS=  3.4906213D-06 Max=  4.0575209D-05 conv= 1.00D-05.
 RLE energy=       -0.9710492540
 DE(Corr)= -0.97104963     E(CORR)=     -197.14744497     Delta=-6.95D-06
 NORM(A)=   0.10559643D+01
 Iteration Nr.  11
 **********************
 DD1Dir will call FoFMem   1 times, MxPair=       262
 NAB=    90 NAA=    45 NBB=    36.
 A-vector RMS=  3.6125678D-06 Max=  4.1545453D-05 conv= 1.00D-05.
 RLE energy=       -0.9710432330
 DE(Corr)= -0.97103939     E(CORR)=     -197.14743473     Delta= 1.02D-05
 NORM(A)=   0.10559738D+01
 Iteration Nr.  12
 **********************
 DD1Dir will call FoFMem   1 times, MxPair=       262
 NAB=    90 NAA=    45 NBB=    36.
 A-vector RMS=  2.2916624D-07 Max=  4.1099027D-06 conv= 1.00D-05.
 RLE energy=       -0.9710462250
 DE(Corr)= -0.97104719     E(CORR)=     -197.14744253     Delta=-7.80D-06
 NORM(A)=   0.10559754D+01
 Iteration Nr.  13
 **********************
 DD1Dir will call FoFMem   1 times, MxPair=       262
 NAB=    90 NAA=    45 NBB=    36.
 A-vector RMS=  1.7580938D-07 Max=  3.3396039D-06 conv= 1.00D-05.
 RLE energy=       -0.9710464292
 DE(Corr)= -0.97104614     E(CORR)=     -197.14744148     Delta= 1.05D-06
 NORM(A)=   0.10559757D+01
 Iteration Nr.  14
 **********************
 DD1Dir will call FoFMem   1 times, MxPair=       262
 NAB=    90 NAA=    45 NBB=    36.
 A-vector RMS=  1.6592943D-07 Max=  1.6389342D-06 conv= 1.00D-05.
 RLE energy=       -0.9710462036
 DE(Corr)= -0.97104617     E(CORR)=     -197.14744151     Delta=-2.79D-08
 NORM(A)=   0.10559760D+01
 CI/CC converged in   14 iterations to DelEn=-2.79D-08 Conv= 1.00D-07 ErrA1= 1.66D-07 Conv= 1.00D-05
 Wavefunction amplitudes converged. E(Corr)=     -197.14744151    
 Largest amplitude= 6.06D-02
 Time for triples=    32967.08 seconds.
 T4(CCSD)= -0.40515682D-01
 T5(CCSD)=  0.55016272D-02
 CCSD(T)= -0.19718245556D+03
 Discarding MO integrals.
 Leave Link  913 at Mon Mar 26 23:30:39 2018, MaxMem= 10737418240 cpu:           37920.5 elap:            1185.0
 (Enter /home1/apps/gaussian/16rA.03/g16/l601.exe)
 Copying SCF densities to generalized density rwf, IOpCl= 0 IROHF=1.

 **********************************************************************

            Population analysis using the SCF density.

 **********************************************************************

 Orbital symmetries:
       Occupied  (A1G) (T1U) (T1U) (T1U) (T2G) (T2G) (T2G) (EG)
                 (EG) (A1G)
       Virtual   (T1U) (T1U) (T1U) (A1G) (T1U) (T1U) (T1U) (T2G)
                 (T2G) (T2G) (EG) (EG) (A1G) (T1U) (T1U) (T1U)
                 (T2G) (T2G) (T2G) (EG) (EG) (A1G) (T1U) (T1U)
                 (T1U) (A2U) (?A) (?A) (?A) (?A) (?A) (?A) (T2G)
                 (T2G) (T2G) (EG) (EG) (T1U) (T1U) (T1U) (A1G)
                 (?A) (?A) (?A) (?A) (?A) (A2U) (?A) (T2G) (T2G)
                 (T2G) (EG) (EG) (?B) (?B) (?B) (?B) (?B) (T2G)
                 (?B) (T2G) (T2G) (T1U) (T1U) (T1U) (T2G) (T2G)
                 (T2G) (EG) (EG) (A2U) (?A) (?A) (?A) (?A) (?A)
                 (?A) (A1G) (?B) (?B) (?B) (?B) (?B) (?B) (T2G)
                 (T2G) (T2G) (?C) (?C) (EU) (?C) (EU) (?C) (?C)
                 (?C) (?C) (?C) (?C) (T2G) (EG) (EG) (T2G) (T2G)
                 (T1U) (T1U) (T1U) (A2U) (?A) (?A) (?A) (?A) (?A)
                 (?A) (?B) (?B) (?B) (T2G) (?B) (?B) (T2G) (?B)
                 (T2G) (A1G) (?D) (?D) (EU) (?D) (?D) (EU) (?D)
                 (?D) (?D) (?D) (?D) (EG) (EG) (T2G) (T2G) (T2G)
                 (T1U) (T1U) (T1U) (EG) (EG) (T2G) (T2G) (T2G)
                 (?A) (?A) (?A) (?A) (A2U) (?A) (?A) (T1U) (T1U)
                 (T1U) (A1G) (?B) (T2G) (?B) (T2G) (?B) (T2G) (?B)
                 (?B) (?B) (?E) (?E) (?E) (?E) (EU) (?E) (?E) (?E)
                 (EU) (?E) (?E) (EG) (EG) (T2G) (T2G) (T2G) (T1U)
                 (T1U) (T1U) (A1G) (EG) (EG) (T2G) (T2G) (T2G)
                 (T1U) (T1U) (T1U) (A1G) (T1U) (T1U) (T1U) (EG)
                 (EG) (T2G) (T2G) (T2G) (A1G) (T1U) (T1U) (T1U)
                 (A1G) (EG) (EG) (T2G) (T2G) (T2G) (T1U) (T1U)
                 (T1U) (A1G) (T1U) (T1U) (T1U) (EG) (EG) (T2G)
                 (T2G) (T2G) (A1G) (T1U) (T1U) (T1U) (A1G) (T1U)
                 (T1U) (T1U) (A1G) (T1U) (T1U) (T1U) (A1G) (T1U)
                 (T1U) (T1U) (A1G) (T1U) (T1U) (T1U) (A1G) (A1G)
                 (A1G) (A1G) (A1G)
 The electronic state is 2-A1G.
 Alpha  occ. eigenvalues --   -5.22316  -3.42417  -3.42417  -3.42417  -0.48321
 Alpha  occ. eigenvalues --   -0.48321  -0.48321  -0.48321  -0.48321  -0.24478
 Alpha virt. eigenvalues --    0.02298   0.02298   0.02298   0.03409   0.07805
 Alpha virt. eigenvalues --    0.07805   0.07805   0.13691   0.13691   0.13691
 Alpha virt. eigenvalues --    0.13691   0.13691   0.18279   0.25961   0.25961
 Alpha virt. eigenvalues --    0.25961   0.44236   0.44236   0.44236   0.44236
 Alpha virt. eigenvalues --    0.44236   0.66485   0.80837   0.80837   0.80837
 Alpha virt. eigenvalues --    0.98492   0.98492   0.98492   0.98492   0.98492
 Alpha virt. eigenvalues --    0.98492   0.98492   1.21098   1.21098   1.21098
 Alpha virt. eigenvalues --    1.21098   1.21098   2.44641   2.44641   2.44641
 Alpha virt. eigenvalues --    2.71923   2.96650   2.96650   2.96650   2.96650
 Alpha virt. eigenvalues --    2.96650   2.96650   2.96650   2.99608   2.99608
 Alpha virt. eigenvalues --    2.99608   2.99608   2.99608   3.42626   3.42626
 Alpha virt. eigenvalues --    3.42626   3.42626   3.42626   3.42626   3.42626
 Alpha virt. eigenvalues --    3.42626   3.42626   6.40527   6.40527   6.40527
 Alpha virt. eigenvalues --    6.76004   6.76004   6.76004   6.76004   6.76004
 Alpha virt. eigenvalues --    7.57180   7.57180   7.57180   7.57180   7.57180
 Alpha virt. eigenvalues --    7.57180   7.57180   8.92814   9.17768   9.17768
 Alpha virt. eigenvalues --    9.17768   9.17768   9.17768   9.17768   9.17768
 Alpha virt. eigenvalues --    9.17768   9.17768   9.35960   9.35960   9.35960
 Alpha virt. eigenvalues --    9.35960   9.35960   9.35960   9.35960   9.35960
 Alpha virt. eigenvalues --    9.35960   9.35960   9.35960  13.89208  13.89208
 Alpha virt. eigenvalues --   13.89208  13.89208  13.89208  14.08718  14.08718
 Alpha virt. eigenvalues --   14.08718  18.45941  18.45941  18.45941  18.45941
 Alpha virt. eigenvalues --   18.45941  18.45941  18.45941  21.70106  21.70106
 Alpha virt. eigenvalues --   21.70106  21.70106  21.70106  21.70106  21.70106
 Alpha virt. eigenvalues --   21.70106  21.70106  22.15579  23.53854  23.53854
 Alpha virt. eigenvalues --   23.53854  23.53854  23.53854  23.53854  23.53854
 Alpha virt. eigenvalues --   23.53854  23.53854  23.53854  23.53854  26.05384
 Alpha virt. eigenvalues --   26.05384  26.05384  26.05384  26.05384  27.33625
 Alpha virt. eigenvalues --   27.33625  27.33625  45.66453  45.66453  45.66453
 Alpha virt. eigenvalues --   45.66453  45.66453  45.75772  45.75772  45.75772
 Alpha virt. eigenvalues --   45.75772  45.75772  45.75772  45.75772  49.50810
 Alpha virt. eigenvalues --   49.50810  49.50810  49.52988  49.95216  49.95216
 Alpha virt. eigenvalues --   49.95216  49.95216  49.95216  49.95216  49.95216
 Alpha virt. eigenvalues --   49.95216  49.95216  54.43965  54.43965  54.43965
 Alpha virt. eigenvalues --   54.43965  54.43965  54.43965  54.43965  54.43965
 Alpha virt. eigenvalues --   54.43965  54.43965  54.43965  76.95765  76.95765
 Alpha virt. eigenvalues --   76.95765  76.95765  76.95765  85.67720  85.67720
 Alpha virt. eigenvalues --   85.67720 109.95982 132.33260 132.33260 132.33260
 Alpha virt. eigenvalues --  132.33260 132.33260 143.58337 143.58337 143.58337
 Alpha virt. eigenvalues --  190.10817 238.36543 238.36543 238.36543 259.13977
 Alpha virt. eigenvalues --  259.13977 259.13977 259.13977 259.13977 303.98679
 Alpha virt. eigenvalues --  403.51027 403.51027 403.51027 569.67590 627.40268
 Alpha virt. eigenvalues --  627.40268 627.40268 627.40268 627.40268 715.07585
 Alpha virt. eigenvalues --  715.07585 715.075851100.220781340.936351340.93635
 Alpha virt. eigenvalues -- 1340.936351996.529191996.529191996.529191996.52919
 Alpha virt. eigenvalues -- 1996.529192209.935032698.088542698.088542698.08854
 Alpha virt. eigenvalues -- 4665.560445922.058975922.058975922.05897**********
 Alpha virt. eigenvalues -- **************************************************
 Alpha virt. eigenvalues -- **************************************************
 Alpha virt. eigenvalues -- **************************************************
 Alpha virt. eigenvalues -- **********
     Molecular Orbital Coefficients:
                           5         6         7         8         9
                       (T2G)--O  (T2G)--O  (T2G)--O   (EG)--O   (EG)--O
     Eigenvalues --    -0.48321  -0.48321  -0.48321  -0.48321  -0.48321
   1 1   Cu 1S          0.00000   0.00000   0.00000   0.00000   0.00000
   2        2S          0.00000   0.00000   0.00000   0.00000   0.00000
   3        3S          0.00000   0.00000   0.00000   0.00000  -0.00000
   4        4S          0.00000   0.00000   0.00000  -0.00000  -0.00000
   5        5S          0.00000   0.00000   0.00000   0.00000   0.00000
   6        6S          0.00000   0.00000   0.00000   0.00000  -0.00000
   7        7S          0.00000   0.00000   0.00000  -0.00000   0.00000
   8        8S          0.00000   0.00000   0.00000   0.00000  -0.00000
   9        9S          0.00000   0.00000   0.00000  -0.00000   0.00000
  10       10S          0.00000   0.00000   0.00000   0.00000  -0.00000
  11       11S          0.00000   0.00000   0.00000  -0.00000  -0.00000
  12       12S          0.00000   0.00000   0.00000   0.00000   0.00000
  13       13S          0.00000   0.00000   0.00000  -0.00000  -0.00000
  14       14S          0.00000   0.00000   0.00000   0.00000   0.00000
  15       15S          0.00000   0.00000   0.00000  -0.00000  -0.00000
  16       16S          0.00000   0.00000   0.00000   0.00000   0.00000
  17       17S          0.00000   0.00000   0.00000  -0.00000   0.00000
  18       18S          0.00000   0.00000   0.00000  -0.00000  -0.00000
  19       19S          0.00000   0.00000   0.00000  -0.00000   0.00000
  20       20S          0.00000   0.00000   0.00000   0.00000  -0.00000
  21       21S          0.00000   0.00000   0.00000   0.00000  -0.00000
  22       22S          0.00000   0.00000   0.00000   0.00000  -0.00000
  23       23S          0.00000   0.00000   0.00000  -0.00000  -0.00000
  24       24S          0.00000   0.00000   0.00000   0.00000   0.00000
  25       25S          0.00000   0.00000   0.00000   0.00000   0.00000
  26       26PX         0.00000   0.00000   0.00000   0.00000   0.00000
  27       26PY         0.00000   0.00000   0.00000   0.00000   0.00000
  28       26PZ         0.00000   0.00000   0.00000   0.00000   0.00000
  29       27PX         0.00000   0.00000   0.00000   0.00000   0.00000
  30       27PY         0.00000   0.00000   0.00000   0.00000   0.00000
  31       27PZ         0.00000   0.00000   0.00000   0.00000   0.00000
  32       28PX         0.00000   0.00000   0.00000   0.00000   0.00000
  33       28PY         0.00000   0.00000   0.00000   0.00000   0.00000
  34       28PZ         0.00000   0.00000   0.00000   0.00000   0.00000
  35       29PX         0.00000   0.00000   0.00000   0.00000   0.00000
  36       29PY         0.00000   0.00000   0.00000   0.00000   0.00000
  37       29PZ         0.00000   0.00000   0.00000   0.00000   0.00000
  38       30PX         0.00000   0.00000   0.00000   0.00000   0.00000
  39       30PY         0.00000   0.00000   0.00000   0.00000   0.00000
  40       30PZ         0.00000   0.00000   0.00000   0.00000   0.00000
  41       31PX         0.00000   0.00000   0.00000   0.00000   0.00000
  42       31PY         0.00000   0.00000   0.00000   0.00000   0.00000
  43       31PZ         0.00000   0.00000   0.00000   0.00000   0.00000
  44       32PX         0.00000   0.00000   0.00000   0.00000   0.00000
  45       32PY         0.00000   0.00000   0.00000   0.00000   0.00000
  46       32PZ         0.00000   0.00000   0.00000   0.00000   0.00000
  47       33PX         0.00000   0.00000   0.00000   0.00000   0.00000
  48       33PY         0.00000   0.00000   0.00000   0.00000   0.00000
  49       33PZ         0.00000   0.00000   0.00000   0.00000   0.00000
  50       34PX         0.00000   0.00000   0.00000   0.00000   0.00000
  51       34PY         0.00000   0.00000   0.00000   0.00000   0.00000
  52       34PZ         0.00000   0.00000   0.00000   0.00000   0.00000
  53       35PX         0.00000   0.00000   0.00000   0.00000   0.00000
  54       35PY         0.00000   0.00000   0.00000   0.00000   0.00000
  55       35PZ         0.00000   0.00000   0.00000   0.00000   0.00000
  56       36PX         0.00000   0.00000   0.00000   0.00000   0.00000
  57       36PY         0.00000   0.00000   0.00000   0.00000   0.00000
  58       36PZ         0.00000   0.00000   0.00000   0.00000   0.00000
  59       37PX         0.00000   0.00000   0.00000   0.00000   0.00000
  60       37PY         0.00000   0.00000   0.00000   0.00000   0.00000
  61       37PZ         0.00000   0.00000   0.00000   0.00000   0.00000
  62       38PX         0.00000   0.00000   0.00000   0.00000   0.00000
  63       38PY         0.00000   0.00000   0.00000   0.00000   0.00000
  64       38PZ         0.00000   0.00000   0.00000   0.00000   0.00000
  65       39PX         0.00000   0.00000   0.00000   0.00000   0.00000
  66       39PY         0.00000   0.00000   0.00000   0.00000   0.00000
  67       39PZ         0.00000   0.00000   0.00000   0.00000   0.00000
  68       40PX         0.00000   0.00000   0.00000   0.00000   0.00000
  69       40PY         0.00000   0.00000   0.00000   0.00000   0.00000
  70       40PZ         0.00000   0.00000   0.00000   0.00000   0.00000
  71       41PX         0.00000   0.00000   0.00000   0.00000   0.00000
  72       41PY         0.00000   0.00000   0.00000   0.00000   0.00000
  73       41PZ         0.00000   0.00000   0.00000   0.00000   0.00000
  74       42PX         0.00000   0.00000   0.00000   0.00000   0.00000
  75       42PY         0.00000   0.00000   0.00000   0.00000   0.00000
  76       42PZ         0.00000   0.00000   0.00000   0.00000   0.00000
  77       43PX         0.00000   0.00000   0.00000   0.00000   0.00000
  78       43PY         0.00000   0.00000   0.00000   0.00000   0.00000
  79       43PZ         0.00000   0.00000   0.00000   0.00000   0.00000
  80       44PX         0.00000   0.00000   0.00000   0.00000   0.00000
  81       44PY         0.00000   0.00000   0.00000   0.00000   0.00000
  82       44PZ         0.00000   0.00000   0.00000   0.00000   0.00000
  83       45PX         0.00000   0.00000   0.00000   0.00000   0.00000
  84       45PY         0.00000   0.00000   0.00000   0.00000   0.00000
  85       45PZ         0.00000   0.00000   0.00000   0.00000   0.00000
  86       46PX         0.00000   0.00000   0.00000   0.00000   0.00000
  87       46PY         0.00000   0.00000   0.00000   0.00000   0.00000
  88       46PZ         0.00000   0.00000   0.00000   0.00000   0.00000
  89       47D 0        0.00000   0.00000   0.00000   0.00014   0.00003
  90       47D+1        0.00014   0.00000   0.00000   0.00000   0.00000
  91       47D-1        0.00000   0.00014   0.00000   0.00000   0.00000
  92       47D+2        0.00000   0.00000   0.00000  -0.00003   0.00014
  93       47D-2        0.00000   0.00000   0.00014   0.00000   0.00000
  94       48D 0        0.00000   0.00000   0.00000   0.00137   0.00028
  95       48D+1        0.00140   0.00000   0.00000   0.00000   0.00000
  96       48D-1        0.00000   0.00140   0.00000   0.00000   0.00000
  97       48D+2        0.00000   0.00000   0.00000  -0.00028   0.00137
  98       48D-2        0.00000   0.00000   0.00140   0.00000   0.00000
  99       49D 0        0.00000   0.00000   0.00000   0.01083   0.00223
 100       49D+1        0.01106   0.00000   0.00000   0.00000   0.00000
 101       49D-1        0.00000   0.01106   0.00000   0.00000   0.00000
 102       49D+2        0.00000   0.00000   0.00000  -0.00223   0.01083
 103       49D-2        0.00000   0.00000   0.01106   0.00000   0.00000
 104       50D 0        0.00000   0.00000   0.00000   0.04405   0.00907
 105       50D+1        0.04497   0.00000   0.00000   0.00000   0.00000
 106       50D-1        0.00000   0.04497   0.00000   0.00000   0.00000
 107       50D+2        0.00000   0.00000   0.00000  -0.00907   0.04405
 108       50D-2        0.00000   0.00000   0.04497   0.00000   0.00000
 109       51D 0        0.00000   0.00000   0.00000   0.10855   0.02236
 110       51D+1        0.11083   0.00000   0.00000   0.00000   0.00000
 111       51D-1        0.00000   0.11083   0.00000   0.00000   0.00000
 112       51D+2        0.00000   0.00000   0.00000  -0.02236   0.10855
 113       51D-2        0.00000   0.00000   0.11083   0.00000   0.00000
 114       52D 0        0.00000   0.00000   0.00000   0.19564   0.04030
 115       52D+1        0.19975   0.00000   0.00000   0.00000   0.00000
 116       52D-1        0.00000   0.19975   0.00000   0.00000   0.00000
 117       52D+2        0.00000   0.00000   0.00000  -0.04030   0.19564
 118       52D-2        0.00000   0.00000   0.19975   0.00000   0.00000
 119       53D 0        0.00000   0.00000   0.00000   0.27460   0.05656
 120       53D+1        0.28037   0.00000   0.00000   0.00000   0.00000
 121       53D-1        0.00000   0.28037   0.00000   0.00000   0.00000
 122       53D+2        0.00000   0.00000   0.00000  -0.05656   0.27460
 123       53D-2        0.00000   0.00000   0.28037   0.00000   0.00000
 124       54D 0        0.00000   0.00000   0.00000   0.28635   0.05898
 125       54D+1        0.29237   0.00000   0.00000   0.00000   0.00000
 126       54D-1        0.00000   0.29237   0.00000   0.00000   0.00000
 127       54D+2        0.00000   0.00000   0.00000  -0.05898   0.28635
 128       54D-2        0.00000   0.00000   0.29237   0.00000   0.00000
 129       55D 0        0.00000   0.00000   0.00000   0.23502   0.04841
 130       55D+1        0.23995   0.00000   0.00000   0.00000   0.00000
 131       55D-1        0.00000   0.23995   0.00000   0.00000   0.00000
 132       55D+2        0.00000   0.00000   0.00000  -0.04841   0.23502
 133       55D-2        0.00000   0.00000   0.23995   0.00000   0.00000
 134       56D 0        0.00000   0.00000   0.00000   0.14867   0.03062
 135       56D+1        0.15179   0.00000   0.00000   0.00000   0.00000
 136       56D-1        0.00000   0.15179   0.00000   0.00000   0.00000
 137       56D+2        0.00000   0.00000   0.00000  -0.03062   0.14867
 138       56D-2        0.00000   0.00000   0.15179   0.00000   0.00000
 139       57D 0        0.00000   0.00000   0.00000   0.04767   0.00982
 140       57D+1        0.04867   0.00000   0.00000   0.00000   0.00000
 141       57D-1        0.00000   0.04867   0.00000   0.00000   0.00000
 142       57D+2        0.00000   0.00000   0.00000  -0.00982   0.04767
 143       57D-2        0.00000   0.00000   0.04867   0.00000   0.00000
 144       58D 0        0.00000   0.00000   0.00000   0.00963   0.00198
 145       58D+1        0.00983   0.00000   0.00000   0.00000   0.00000
 146       58D-1        0.00000   0.00983   0.00000   0.00000   0.00000
 147       58D+2        0.00000   0.00000   0.00000  -0.00198   0.00963
 148       58D-2        0.00000   0.00000   0.00983   0.00000   0.00000
 149       59D 0        0.00000   0.00000   0.00000   0.00954   0.00196
 150       59D+1        0.00974   0.00000   0.00000   0.00000   0.00000
 151       59D-1        0.00000   0.00974   0.00000   0.00000   0.00000
 152       59D+2        0.00000   0.00000   0.00000  -0.00196   0.00954
 153       59D-2        0.00000   0.00000   0.00974   0.00000   0.00000
 154       60D 0        0.00000   0.00000   0.00000   0.00156   0.00032
 155       60D+1        0.00159   0.00000   0.00000   0.00000   0.00000
 156       60D-1        0.00000   0.00159   0.00000   0.00000   0.00000
 157       60D+2        0.00000   0.00000   0.00000  -0.00032   0.00156
 158       60D-2        0.00000   0.00000   0.00159   0.00000   0.00000
 159       61F 0        0.00000   0.00000   0.00000   0.00000   0.00000
 160       61F+1        0.00000   0.00000   0.00000   0.00000   0.00000
 161       61F-1        0.00000   0.00000   0.00000   0.00000   0.00000
 162       61F+2        0.00000   0.00000   0.00000   0.00000   0.00000
 163       61F-2        0.00000   0.00000   0.00000   0.00000   0.00000
 164       61F+3        0.00000   0.00000   0.00000   0.00000   0.00000
 165       61F-3        0.00000   0.00000   0.00000   0.00000   0.00000
 166       62F 0        0.00000   0.00000   0.00000   0.00000   0.00000
 167       62F+1        0.00000   0.00000   0.00000   0.00000   0.00000
 168       62F-1        0.00000   0.00000   0.00000   0.00000   0.00000
 169       62F+2        0.00000   0.00000   0.00000   0.00000   0.00000
 170       62F-2        0.00000   0.00000   0.00000   0.00000   0.00000
 171       62F+3        0.00000   0.00000   0.00000   0.00000   0.00000
 172       62F-3        0.00000   0.00000   0.00000   0.00000   0.00000
 173       63F 0        0.00000   0.00000   0.00000   0.00000   0.00000
 174       63F+1        0.00000   0.00000   0.00000   0.00000   0.00000
 175       63F-1        0.00000   0.00000   0.00000   0.00000   0.00000
 176       63F+2        0.00000   0.00000   0.00000   0.00000   0.00000
 177       63F-2        0.00000   0.00000   0.00000   0.00000   0.00000
 178       63F+3        0.00000   0.00000   0.00000   0.00000   0.00000
 179       63F-3        0.00000   0.00000   0.00000   0.00000   0.00000
 180       64F 0        0.00000   0.00000   0.00000   0.00000   0.00000
 181       64F+1        0.00000   0.00000   0.00000   0.00000   0.00000
 182       64F-1        0.00000   0.00000   0.00000   0.00000   0.00000
 183       64F+2        0.00000   0.00000   0.00000   0.00000   0.00000
 184       64F-2        0.00000   0.00000   0.00000   0.00000   0.00000
 185       64F+3        0.00000   0.00000   0.00000   0.00000   0.00000
 186       64F-3        0.00000   0.00000   0.00000   0.00000   0.00000
 187       65F 0        0.00000   0.00000   0.00000   0.00000   0.00000
 188       65F+1        0.00000   0.00000   0.00000   0.00000   0.00000
 189       65F-1        0.00000   0.00000   0.00000   0.00000   0.00000
 190       65F+2        0.00000   0.00000   0.00000   0.00000   0.00000
 191       65F-2        0.00000   0.00000   0.00000   0.00000   0.00000
 192       65F+3        0.00000   0.00000   0.00000   0.00000   0.00000
 193       65F-3        0.00000   0.00000   0.00000   0.00000   0.00000
 194       66G 0        0.00000   0.00000   0.00000   0.00000  -0.00000
 195       66G+1       -0.00000   0.00000   0.00000   0.00000   0.00000
 196       66G-1        0.00000  -0.00000   0.00000   0.00000   0.00000
 197       66G+2        0.00000   0.00000   0.00000   0.00000   0.00000
 198       66G-2        0.00000   0.00000   0.00000   0.00000   0.00000
 199       66G+3       -0.00000   0.00000   0.00000   0.00000   0.00000
 200       66G-3        0.00000   0.00000   0.00000   0.00000   0.00000
 201       66G+4        0.00000   0.00000   0.00000  -0.00000  -0.00000
 202       66G-4        0.00000   0.00000  -0.00000   0.00000   0.00000
 203       67G 0        0.00000   0.00000   0.00000  -0.00000   0.00000
 204       67G+1       -0.00000   0.00000   0.00000   0.00000   0.00000
 205       67G-1        0.00000  -0.00000   0.00000   0.00000   0.00000
 206       67G+2        0.00000   0.00000   0.00000  -0.00000  -0.00000
 207       67G-2        0.00000   0.00000   0.00000   0.00000   0.00000
 208       67G+3       -0.00000   0.00000   0.00000   0.00000   0.00000
 209       67G-3        0.00000   0.00000   0.00000   0.00000   0.00000
 210       67G+4        0.00000   0.00000   0.00000   0.00000   0.00000
 211       67G-4        0.00000   0.00000   0.00000   0.00000   0.00000
 212       68G 0        0.00000   0.00000   0.00000   0.00000  -0.00000
 213       68G+1       -0.00000   0.00000   0.00000   0.00000   0.00000
 214       68G-1        0.00000  -0.00000   0.00000   0.00000   0.00000
 215       68G+2        0.00000   0.00000   0.00000   0.00000   0.00000
 216       68G-2        0.00000   0.00000   0.00000   0.00000   0.00000
 217       68G+3       -0.00000   0.00000   0.00000   0.00000   0.00000
 218       68G-3        0.00000   0.00000   0.00000   0.00000   0.00000
 219       68G+4        0.00000   0.00000   0.00000  -0.00000  -0.00000
 220       68G-4        0.00000   0.00000  -0.00000   0.00000   0.00000
 221       69G 0        0.00000   0.00000   0.00000  -0.00000   0.00000
 222       69G+1        0.00000   0.00000   0.00000   0.00000   0.00000
 223       69G-1        0.00000   0.00000   0.00000   0.00000   0.00000
 224       69G+2        0.00000   0.00000   0.00000  -0.00000  -0.00000
 225       69G-2        0.00000   0.00000  -0.00000   0.00000   0.00000
 226       69G+3        0.00000   0.00000   0.00000   0.00000   0.00000
 227       69G-3        0.00000  -0.00000   0.00000   0.00000   0.00000
 228       69G+4        0.00000   0.00000   0.00000   0.00000   0.00000
 229       69G-4        0.00000   0.00000   0.00000   0.00000   0.00000
 230       70H 0        0.00000   0.00000   0.00000   0.00000   0.00000
 231       70H+1        0.00000   0.00000   0.00000   0.00000   0.00000
 232       70H-1        0.00000   0.00000   0.00000   0.00000   0.00000
 233       70H+2        0.00000   0.00000   0.00000   0.00000   0.00000
 234       70H-2        0.00000   0.00000   0.00000   0.00000   0.00000
 235       70H+3        0.00000   0.00000   0.00000   0.00000   0.00000
 236       70H-3        0.00000   0.00000   0.00000   0.00000   0.00000
 237       70H+4        0.00000   0.00000   0.00000   0.00000   0.00000
 238       70H-4        0.00000   0.00000   0.00000   0.00000   0.00000
 239       70H+5        0.00000   0.00000   0.00000   0.00000   0.00000
 240       70H-5        0.00000   0.00000   0.00000   0.00000   0.00000
 241       71H 0        0.00000   0.00000   0.00000   0.00000   0.00000
 242       71H+1        0.00000   0.00000   0.00000   0.00000   0.00000
 243       71H-1        0.00000   0.00000   0.00000   0.00000   0.00000
 244       71H+2        0.00000   0.00000   0.00000   0.00000   0.00000
 245       71H-2        0.00000   0.00000   0.00000   0.00000   0.00000
 246       71H+3        0.00000   0.00000   0.00000   0.00000   0.00000
 247       71H-3        0.00000   0.00000   0.00000   0.00000   0.00000
 248       71H+4        0.00000   0.00000   0.00000   0.00000   0.00000
 249       71H-4        0.00000   0.00000   0.00000   0.00000   0.00000
 250       71H+5        0.00000   0.00000   0.00000   0.00000   0.00000
 251       71H-5        0.00000   0.00000   0.00000   0.00000   0.00000
 252       72H 0        0.00000   0.00000   0.00000   0.00000   0.00000
 253       72H+1        0.00000   0.00000   0.00000   0.00000   0.00000
 254       72H-1        0.00000   0.00000   0.00000   0.00000   0.00000
 255       72H+2        0.00000   0.00000   0.00000   0.00000   0.00000
 256       72H-2        0.00000   0.00000   0.00000   0.00000   0.00000
 257       72H+3        0.00000   0.00000   0.00000   0.00000   0.00000
 258       72H-3        0.00000   0.00000   0.00000   0.00000   0.00000
 259       72H+4        0.00000   0.00000   0.00000   0.00000   0.00000
 260       72H-4        0.00000   0.00000   0.00000   0.00000   0.00000
 261       72H+5        0.00000   0.00000   0.00000   0.00000   0.00000
 262       72H-5        0.00000   0.00000   0.00000   0.00000   0.00000
                          10        11        12        13        14
                       (A1G)--O  (T1U)--V  (T1U)--V  (T1U)--V  (A1G)--V
     Eigenvalues --    -0.24478   0.02298   0.02298   0.02298   0.03409
   1 1   Cu 1S         -0.00000   0.00000   0.00000   0.00000   0.00000
   2        2S         -0.00000   0.00000   0.00000   0.00000  -0.00000
   3        3S         -0.00000   0.00000   0.00000   0.00000   0.00000
   4        4S         -0.00000   0.00000   0.00000   0.00000  -0.00000
   5        5S         -0.00000   0.00000   0.00000   0.00000   0.00000
   6        6S         -0.00000   0.00000   0.00000   0.00000  -0.00000
   7        7S         -0.00000   0.00000   0.00000   0.00000   0.00001
   8        8S         -0.00001   0.00000   0.00000   0.00000  -0.00003
   9        9S         -0.00000   0.00000   0.00000   0.00000   0.00007
  10       10S         -0.00010   0.00000   0.00000   0.00000  -0.00023
  11       11S          0.00008   0.00000   0.00000   0.00000   0.00055
  12       12S         -0.00056   0.00000   0.00000   0.00000  -0.00142
  13       13S          0.00218   0.00000   0.00000   0.00000   0.00343
  14       14S         -0.01991   0.00000   0.00000   0.00000  -0.01318
  15       15S          0.04077   0.00000   0.00000   0.00000   0.03627
  16       16S          0.07377   0.00000   0.00000   0.00000  -0.24278
  17       17S         -0.07749   0.00000   0.00000   0.00000  -0.06538
  18       18S         -0.12266   0.00000   0.00000   0.00000   0.33414
  19       19S         -0.18020   0.00000   0.00000   0.00000  -0.14011
  20       20S          0.16631   0.00000   0.00000   0.00000   0.32148
  21       21S          0.58773   0.00000   0.00000   0.00000  -0.78064
  22       22S          0.35627   0.00000   0.00000   0.00000   2.41426
  23       23S         -0.00165   0.00000   0.00000   0.00000   0.27651
  24       24S         -0.04913   0.00000   0.00000   0.00000  -0.31292
  25       25S          0.02047   0.00000   0.00000   0.00000  -2.37207
  26       26PX         0.00000   0.00000   0.00000   0.00000   0.00000
  27       26PY         0.00000   0.00000   0.00000   0.00000   0.00000
  28       26PZ         0.00000   0.00000   0.00000   0.00000   0.00000
  29       27PX         0.00000   0.00000  -0.00000   0.00000   0.00000
  30       27PY         0.00000  -0.00000   0.00000   0.00000   0.00000
  31       27PZ         0.00000   0.00000   0.00000  -0.00000   0.00000
  32       28PX         0.00000   0.00000   0.00000   0.00000   0.00000
  33       28PY         0.00000   0.00000   0.00000   0.00000   0.00000
  34       28PZ         0.00000   0.00000   0.00000   0.00000   0.00000
  35       29PX         0.00000   0.00000  -0.00001   0.00000   0.00000
  36       29PY         0.00000  -0.00001   0.00000   0.00000   0.00000
  37       29PZ         0.00000   0.00000   0.00000  -0.00001   0.00000
  38       30PX         0.00000   0.00000   0.00002   0.00000   0.00000
  39       30PY         0.00000   0.00002   0.00000   0.00000   0.00000
  40       30PZ         0.00000   0.00000   0.00000   0.00002   0.00000
  41       31PX         0.00000   0.00000  -0.00006   0.00000   0.00000
  42       31PY         0.00000  -0.00006   0.00000   0.00000   0.00000
  43       31PZ         0.00000   0.00000   0.00000  -0.00006   0.00000
  44       32PX         0.00000   0.00000   0.00018   0.00000   0.00000
  45       32PY         0.00000   0.00018   0.00000   0.00000   0.00000
  46       32PZ         0.00000   0.00000   0.00000   0.00018   0.00000
  47       33PX         0.00000   0.00000  -0.00066   0.00000   0.00000
  48       33PY         0.00000  -0.00066   0.00000   0.00000   0.00000
  49       33PZ         0.00000   0.00000   0.00000  -0.00066   0.00000
  50       34PX         0.00000   0.00000   0.00186   0.00000   0.00000
  51       34PY         0.00000   0.00186   0.00000   0.00000   0.00000
  52       34PZ         0.00000   0.00000   0.00000   0.00186   0.00000
  53       35PX         0.00000   0.00000  -0.00790   0.00000   0.00000
  54       35PY         0.00000  -0.00790   0.00000   0.00000   0.00000
  55       35PZ         0.00000   0.00000   0.00000  -0.00790   0.00000
  56       36PX         0.00000   0.00000  -0.06841   0.00000   0.00000
  57       36PY         0.00000  -0.06841   0.00000   0.00000   0.00000
  58       36PZ         0.00000   0.00000   0.00000  -0.06841   0.00000
  59       37PX         0.00000   0.00000   0.04845   0.00000   0.00000
  60       37PY         0.00000   0.04845   0.00000   0.00000   0.00000
  61       37PZ         0.00000   0.00000   0.00000   0.04845   0.00000
  62       38PX         0.00000   0.00000   0.17542   0.00000   0.00000
  63       38PY         0.00000   0.17542   0.00000   0.00000   0.00000
  64       38PZ         0.00000   0.00000   0.00000   0.17542   0.00000
  65       39PX         0.00000   0.00000  -0.06078   0.00000   0.00000
  66       39PY         0.00000  -0.06078   0.00000   0.00000   0.00000
  67       39PZ         0.00000   0.00000   0.00000  -0.06078   0.00000
  68       40PX         0.00000   0.00000   0.03216   0.00000   0.00000
  69       40PY         0.00000   0.03216   0.00000   0.00000   0.00000
  70       40PZ         0.00000   0.00000   0.00000   0.03216   0.00000
  71       41PX         0.00000   0.00000  -0.03882   0.00000   0.00000
  72       41PY         0.00000  -0.03882   0.00000   0.00000   0.00000
  73       41PZ         0.00000   0.00000   0.00000  -0.03882   0.00000
  74       42PX         0.00000   0.00000   0.21236   0.00000   0.00000
  75       42PY         0.00000   0.21236   0.00000   0.00000   0.00000
  76       42PZ         0.00000   0.00000   0.00000   0.21236   0.00000
  77       43PX         0.00000   0.00000  -0.31620   0.00000   0.00000
  78       43PY         0.00000  -0.31620   0.00000   0.00000   0.00000
  79       43PZ         0.00000   0.00000   0.00000  -0.31620   0.00000
  80       44PX         0.00000   0.00000   0.05994   0.00000   0.00000
  81       44PY         0.00000   0.05994   0.00000   0.00000   0.00000
  82       44PZ         0.00000   0.00000   0.00000   0.05994   0.00000
  83       45PX         0.00000   0.00000  -0.19866   0.00000   0.00000
  84       45PY         0.00000  -0.19866   0.00000   0.00000   0.00000
  85       45PZ         0.00000   0.00000   0.00000  -0.19866   0.00000
  86       46PX         0.00000   0.00000   1.15991   0.00000   0.00000
  87       46PY         0.00000   1.15991   0.00000   0.00000   0.00000
  88       46PZ         0.00000   0.00000   0.00000   1.15991   0.00000
  89       47D 0       -0.00000   0.00000   0.00000   0.00000  -0.00000
  90       47D+1        0.00000   0.00000   0.00000   0.00000   0.00000
  91       47D-1        0.00000   0.00000   0.00000   0.00000   0.00000
  92       47D+2        0.00000   0.00000   0.00000   0.00000   0.00000
  93       47D-2        0.00000   0.00000   0.00000   0.00000   0.00000
  94       48D 0        0.00000   0.00000   0.00000   0.00000  -0.00000
  95       48D+1        0.00000   0.00000   0.00000   0.00000   0.00000
  96       48D-1        0.00000   0.00000   0.00000   0.00000   0.00000
  97       48D+2       -0.00000   0.00000   0.00000   0.00000   0.00000
  98       48D-2        0.00000   0.00000   0.00000   0.00000   0.00000
  99       49D 0       -0.00000   0.00000   0.00000   0.00000  -0.00000
 100       49D+1        0.00000   0.00000   0.00000   0.00000   0.00000
 101       49D-1        0.00000   0.00000   0.00000   0.00000   0.00000
 102       49D+2        0.00000   0.00000   0.00000   0.00000   0.00000
 103       49D-2        0.00000   0.00000   0.00000   0.00000   0.00000
 104       50D 0       -0.00000   0.00000   0.00000   0.00000  -0.00000
 105       50D+1        0.00000   0.00000   0.00000   0.00000   0.00000
 106       50D-1        0.00000   0.00000   0.00000   0.00000   0.00000
 107       50D+2        0.00000   0.00000   0.00000   0.00000   0.00000
 108       50D-2        0.00000   0.00000   0.00000   0.00000   0.00000
 109       51D 0       -0.00000   0.00000   0.00000   0.00000  -0.00000
 110       51D+1        0.00000   0.00000   0.00000   0.00000   0.00000
 111       51D-1        0.00000   0.00000   0.00000   0.00000   0.00000
 112       51D+2        0.00000   0.00000   0.00000   0.00000   0.00000
 113       51D-2        0.00000   0.00000   0.00000   0.00000   0.00000
 114       52D 0       -0.00000   0.00000   0.00000   0.00000  -0.00000
 115       52D+1        0.00000   0.00000   0.00000   0.00000   0.00000
 116       52D-1        0.00000   0.00000   0.00000   0.00000   0.00000
 117       52D+2        0.00000   0.00000   0.00000   0.00000   0.00000
 118       52D-2        0.00000   0.00000   0.00000   0.00000   0.00000
 119       53D 0       -0.00000   0.00000   0.00000   0.00000  -0.00000
 120       53D+1        0.00000   0.00000   0.00000   0.00000   0.00000
 121       53D-1        0.00000   0.00000   0.00000   0.00000   0.00000
 122       53D+2        0.00000   0.00000   0.00000   0.00000   0.00000
 123       53D-2        0.00000   0.00000   0.00000   0.00000   0.00000
 124       54D 0        0.00000   0.00000   0.00000   0.00000   0.00000
 125       54D+1        0.00000   0.00000   0.00000   0.00000   0.00000
 126       54D-1        0.00000   0.00000   0.00000   0.00000   0.00000
 127       54D+2       -0.00000   0.00000   0.00000   0.00000  -0.00000
 128       54D-2        0.00000   0.00000   0.00000   0.00000   0.00000
 129       55D 0       -0.00000   0.00000   0.00000   0.00000  -0.00000
 130       55D+1        0.00000   0.00000   0.00000   0.00000   0.00000
 131       55D-1        0.00000   0.00000   0.00000   0.00000   0.00000
 132       55D+2        0.00000   0.00000   0.00000   0.00000   0.00000
 133       55D-2        0.00000   0.00000   0.00000   0.00000   0.00000
 134       56D 0        0.00000   0.00000   0.00000   0.00000   0.00000
 135       56D+1        0.00000   0.00000   0.00000   0.00000   0.00000
 136       56D-1        0.00000   0.00000   0.00000   0.00000   0.00000
 137       56D+2       -0.00000   0.00000   0.00000   0.00000  -0.00000
 138       56D-2        0.00000   0.00000   0.00000   0.00000   0.00000
 139       57D 0       -0.00000   0.00000   0.00000   0.00000  -0.00000
 140       57D+1        0.00000   0.00000   0.00000   0.00000   0.00000
 141       57D-1        0.00000   0.00000   0.00000   0.00000   0.00000
 142       57D+2        0.00000   0.00000   0.00000   0.00000   0.00000
 143       57D-2        0.00000   0.00000   0.00000   0.00000   0.00000
 144       58D 0        0.00000   0.00000   0.00000   0.00000   0.00000
 145       58D+1        0.00000   0.00000   0.00000   0.00000   0.00000
 146       58D-1        0.00000   0.00000   0.00000   0.00000   0.00000
 147       58D+2       -0.00000   0.00000   0.00000   0.00000  -0.00000
 148       58D-2        0.00000   0.00000   0.00000   0.00000   0.00000
 149       59D 0        0.00000   0.00000   0.00000   0.00000   0.00000
 150       59D+1        0.00000   0.00000   0.00000   0.00000   0.00000
 151       59D-1        0.00000   0.00000   0.00000   0.00000   0.00000
 152       59D+2       -0.00000   0.00000   0.00000   0.00000  -0.00000
 153       59D-2        0.00000   0.00000   0.00000   0.00000   0.00000
 154       60D 0        0.00000   0.00000   0.00000   0.00000   0.00000
 155       60D+1        0.00000   0.00000   0.00000   0.00000   0.00000
 156       60D-1        0.00000   0.00000   0.00000   0.00000   0.00000
 157       60D+2       -0.00000   0.00000   0.00000   0.00000  -0.00000
 158       60D-2        0.00000   0.00000   0.00000   0.00000   0.00000
 159       61F 0        0.00000   0.00000   0.00000  -0.00000   0.00000
 160       61F+1        0.00000   0.00000  -0.00000   0.00000   0.00000
 161       61F-1        0.00000  -0.00000   0.00000   0.00000   0.00000
 162       61F+2        0.00000   0.00000   0.00000   0.00000   0.00000
 163       61F-2        0.00000   0.00000   0.00000   0.00000   0.00000
 164       61F+3        0.00000   0.00000  -0.00000   0.00000   0.00000
 165       61F-3        0.00000  -0.00000   0.00000   0.00000   0.00000
 166       62F 0        0.00000   0.00000   0.00000   0.00000   0.00000
 167       62F+1        0.00000   0.00000   0.00000   0.00000   0.00000
 168       62F-1        0.00000  -0.00000   0.00000   0.00000   0.00000
 169       62F+2        0.00000   0.00000   0.00000   0.00000   0.00000
 170       62F-2        0.00000   0.00000   0.00000   0.00000   0.00000
 171       62F+3        0.00000   0.00000   0.00000   0.00000   0.00000
 172       62F-3        0.00000  -0.00000   0.00000   0.00000   0.00000
 173       63F 0        0.00000   0.00000   0.00000  -0.00000   0.00000
 174       63F+1        0.00000   0.00000  -0.00000   0.00000   0.00000
 175       63F-1        0.00000   0.00000   0.00000   0.00000   0.00000
 176       63F+2        0.00000   0.00000   0.00000  -0.00000   0.00000
 177       63F-2        0.00000   0.00000   0.00000   0.00000   0.00000
 178       63F+3        0.00000   0.00000  -0.00000   0.00000   0.00000
 179       63F-3        0.00000   0.00000   0.00000   0.00000   0.00000
 180       64F 0        0.00000   0.00000   0.00000   0.00000   0.00000
 181       64F+1        0.00000   0.00000   0.00000   0.00000   0.00000
 182       64F-1        0.00000  -0.00000   0.00000   0.00000   0.00000
 183       64F+2        0.00000   0.00000   0.00000   0.00000   0.00000
 184       64F-2        0.00000   0.00000   0.00000   0.00000   0.00000
 185       64F+3        0.00000   0.00000   0.00000   0.00000   0.00000
 186       64F-3        0.00000  -0.00000   0.00000   0.00000   0.00000
 187       65F 0        0.00000   0.00000   0.00000  -0.00000   0.00000
 188       65F+1        0.00000   0.00000   0.00000   0.00000   0.00000
 189       65F-1        0.00000   0.00000   0.00000   0.00000   0.00000
 190       65F+2        0.00000   0.00000   0.00000  -0.00000   0.00000
 191       65F-2        0.00000   0.00000   0.00000   0.00000   0.00000
 192       65F+3        0.00000   0.00000  -0.00000   0.00000   0.00000
 193       65F-3        0.00000   0.00000   0.00000   0.00000   0.00000
 194       66G 0       -0.00000   0.00000   0.00000   0.00000   0.00000
 195       66G+1        0.00000   0.00000   0.00000   0.00000   0.00000
 196       66G-1        0.00000   0.00000   0.00000   0.00000   0.00000
 197       66G+2       -0.00000   0.00000   0.00000   0.00000   0.00000
 198       66G-2        0.00000   0.00000   0.00000   0.00000   0.00000
 199       66G+3        0.00000   0.00000   0.00000   0.00000   0.00000
 200       66G-3        0.00000   0.00000   0.00000   0.00000   0.00000
 201       66G+4        0.00000   0.00000   0.00000   0.00000  -0.00000
 202       66G-4        0.00000   0.00000   0.00000   0.00000   0.00000
 203       67G 0        0.00000   0.00000   0.00000   0.00000  -0.00000
 204       67G+1        0.00000   0.00000   0.00000   0.00000   0.00000
 205       67G-1        0.00000   0.00000   0.00000   0.00000   0.00000
 206       67G+2        0.00000   0.00000   0.00000   0.00000  -0.00000
 207       67G-2        0.00000   0.00000   0.00000   0.00000   0.00000
 208       67G+3        0.00000   0.00000   0.00000   0.00000   0.00000
 209       67G-3        0.00000   0.00000   0.00000   0.00000   0.00000
 210       67G+4       -0.00000   0.00000   0.00000   0.00000   0.00000
 211       67G-4        0.00000   0.00000   0.00000   0.00000   0.00000
 212       68G 0        0.00000   0.00000   0.00000   0.00000  -0.00000
 213       68G+1        0.00000   0.00000   0.00000   0.00000   0.00000
 214       68G-1        0.00000   0.00000   0.00000   0.00000   0.00000
 215       68G+2        0.00000   0.00000   0.00000   0.00000   0.00000
 216       68G-2        0.00000   0.00000   0.00000   0.00000   0.00000
 217       68G+3        0.00000   0.00000   0.00000   0.00000   0.00000
 218       68G-3        0.00000   0.00000   0.00000   0.00000   0.00000
 219       68G+4        0.00000   0.00000   0.00000   0.00000   0.00000
 220       68G-4        0.00000   0.00000   0.00000   0.00000   0.00000
 221       69G 0       -0.00000   0.00000   0.00000   0.00000   0.00000
 222       69G+1        0.00000   0.00000   0.00000   0.00000   0.00000
 223       69G-1        0.00000   0.00000   0.00000   0.00000   0.00000
 224       69G+2       -0.00000   0.00000   0.00000   0.00000  -0.00000
 225       69G-2        0.00000   0.00000   0.00000   0.00000   0.00000
 226       69G+3        0.00000   0.00000   0.00000   0.00000   0.00000
 227       69G-3        0.00000   0.00000   0.00000   0.00000   0.00000
 228       69G+4       -0.00000   0.00000   0.00000   0.00000  -0.00000
[...]
  36       29PY         0.00000   0.00000   0.00000   0.00000
  37       29PZ         0.00000   0.00000   0.00000  -0.00000
  38       30PX        -0.00000  -0.00000  -0.00000  -0.00000
  39       30PY        -0.00000  -0.00000  -0.00000   0.00000
  40       30PZ        -0.00000  -0.00000  -0.00000  -0.00000
  41       31PX         0.00000   0.00000   0.00000   0.00000
  42       31PY         0.00000   0.00000   0.00000   0.00000
  43       31PZ         0.00000   0.00000   0.00000   0.00000
  44       32PX        -0.00001  -0.00001  -0.00001  -0.00000
  45       32PY        -0.00001  -0.00001  -0.00001   0.00000
  46       32PZ        -0.00001  -0.00001  -0.00001  -0.00000
  47       33PX         0.00036   0.00018   0.00018   0.00000
  48       33PY         0.00036   0.00018   0.00018   0.00000
  49       33PZ         0.00036   0.00018   0.00018   0.00000
  50       34PX         0.00041   0.00020   0.00020   0.00000
  51       34PY         0.00041   0.00020   0.00020   0.00000
  52       34PZ         0.00041   0.00020   0.00020   0.00000
  53       35PX        -0.04037  -0.02019  -0.02019   0.00000
  54       35PY        -0.04037  -0.02019  -0.02019   0.00000
  55       35PZ        -0.04037  -0.02019  -0.02019   0.00000
  56       36PX        -0.06056  -0.03028  -0.03028   0.00000
  57       36PY        -0.06056  -0.03028  -0.03028   0.00000
  58       36PZ        -0.06056  -0.03028  -0.03028   0.00000
  59       37PX         0.36085   0.18043   0.18043   0.00000
  60       37PY         0.36085   0.18043   0.18043   0.00000
  61       37PZ         0.36085   0.18043   0.18043   0.00000
  62       38PX         0.85364   0.42682   0.42682   0.00000
  63       38PY         0.85364   0.42682   0.42682   0.00000
  64       38PZ         0.85364   0.42682   0.42682   0.00000
  65       39PX         0.68664   0.34332   0.34332   0.00000
  66       39PY         0.68664   0.34332   0.34332   0.00000
  67       39PZ         0.68664   0.34332   0.34332   0.00000
  68       40PX         0.24292   0.12146   0.12146   0.00000
  69       40PY         0.24292   0.12146   0.12146   0.00000
  70       40PZ         0.24292   0.12146   0.12146   0.00000
  71       41PX         0.01274   0.00637   0.00637   0.00000
  72       41PY         0.01274   0.00637   0.00637   0.00000
  73       41PZ         0.01274   0.00637   0.00637   0.00000
  74       42PX        -0.00059  -0.00029  -0.00029  -0.00000
  75       42PY        -0.00059  -0.00029  -0.00029   0.00000
  76       42PZ        -0.00059  -0.00029  -0.00029   0.00000
  77       43PX         0.00011   0.00006   0.00006   0.00000
  78       43PY         0.00011   0.00006   0.00006   0.00000
  79       43PZ         0.00011   0.00006   0.00006   0.00000
  80       44PX         0.01947   0.00974   0.00974   0.00000
  81       44PY         0.01947   0.00974   0.00974   0.00000
  82       44PZ         0.01947   0.00974   0.00974   0.00000
  83       45PX        -0.07561  -0.03780  -0.03780  -0.00000
  84       45PY        -0.07561  -0.03780  -0.03780   0.00000
  85       45PZ        -0.07561  -0.03780  -0.03780  -0.00000
  86       46PX        -0.00001  -0.00001  -0.00001  -0.00000
  87       46PY        -0.00001  -0.00001  -0.00001   0.00000
  88       46PZ        -0.00001  -0.00001  -0.00001   0.00000
  89       47D 0        0.00000   0.00000   0.00000   0.00000
  90       47D+1        0.00000   0.00000   0.00000   0.00000
  91       47D-1        0.00000   0.00000   0.00000   0.00000
  92       47D+2        0.00000   0.00000   0.00000   0.00000
  93       47D-2        0.00000   0.00000   0.00000   0.00000
  94       48D 0        0.00012   0.00006   0.00006   0.00000
  95       48D+1        0.00012   0.00006   0.00006   0.00000
  96       48D-1        0.00012   0.00006   0.00006   0.00000
  97       48D+2        0.00012   0.00006   0.00006   0.00000
  98       48D-2        0.00012   0.00006   0.00006   0.00000
  99       49D 0        0.00300   0.00150   0.00150   0.00000
 100       49D+1        0.00300   0.00150   0.00150   0.00000
 101       49D-1        0.00300   0.00150   0.00150   0.00000
 102       49D+2        0.00300   0.00150   0.00150   0.00000
 103       49D-2        0.00300   0.00150   0.00150   0.00000
 104       50D 0        0.02671   0.01336   0.01336   0.00000
 105       50D+1        0.02671   0.01336   0.01336   0.00000
 106       50D-1        0.02671   0.01336   0.01336   0.00000
 107       50D+2        0.02671   0.01336   0.01336   0.00000
 108       50D-2        0.02671   0.01336   0.01336   0.00000
 109       51D 0        0.11333   0.05666   0.05666   0.00000
 110       51D+1        0.11333   0.05666   0.05666   0.00000
 111       51D-1        0.11333   0.05666   0.05666   0.00000
 112       51D+2        0.11333   0.05666   0.05666   0.00000
 113       51D-2        0.11333   0.05666   0.05666   0.00000
 114       52D 0        0.28836   0.14418   0.14418   0.00000
 115       52D+1        0.28836   0.14418   0.14418   0.00000
 116       52D-1        0.28836   0.14418   0.14418   0.00000
 117       52D+2        0.28836   0.14418   0.14418   0.00000
 118       52D-2        0.28836   0.14418   0.14418   0.00000
 119       53D 0        0.48315   0.24158   0.24158   0.00000
 120       53D+1        0.48315   0.24158   0.24158   0.00000
 121       53D-1        0.48315   0.24158   0.24158   0.00000
 122       53D+2        0.48315   0.24158   0.24158   0.00000
 123       53D-2        0.48315   0.24158   0.24158   0.00000
 124       54D 0        0.51203   0.25602   0.25602   0.00000
 125       54D+1        0.51203   0.25602   0.25602   0.00000
 126       54D-1        0.51203   0.25602   0.25602   0.00000
 127       54D+2        0.51203   0.25602   0.25602   0.00000
 128       54D-2        0.51203   0.25602   0.25602   0.00000
 129       55D 0        0.35976   0.17988   0.17988   0.00000
 130       55D+1        0.35976   0.17988   0.17988   0.00000
 131       55D-1        0.35976   0.17988   0.17988   0.00000
 132       55D+2        0.35976   0.17988   0.17988   0.00000
 133       55D-2        0.35976   0.17988   0.17988   0.00000
 134       56D 0        0.15875   0.07937   0.07937   0.00000
 135       56D+1        0.15875   0.07937   0.07937   0.00000
 136       56D-1        0.15875   0.07937   0.07937   0.00000
 137       56D+2        0.15875   0.07937   0.07937   0.00000
 138       56D-2        0.15875   0.07937   0.07937   0.00000
 139       57D 0        0.02660   0.01330   0.01330  -0.00000
 140       57D+1        0.02660   0.01330   0.01330   0.00000
 141       57D-1        0.02660   0.01330   0.01330   0.00000
 142       57D+2        0.02660   0.01330   0.01330  -0.00000
 143       57D-2        0.02660   0.01330   0.01330   0.00000
 144       58D 0        0.01235   0.00618   0.00618   0.00000
 145       58D+1        0.01235   0.00618   0.00618   0.00000
 146       58D-1        0.01235   0.00618   0.00618   0.00000
 147       58D+2        0.01235   0.00618   0.00618   0.00000
 148       58D-2        0.01235   0.00618   0.00618   0.00000
 149       59D 0        0.01547   0.00774   0.00774   0.00000
 150       59D+1        0.01547   0.00774   0.00774   0.00000
 151       59D-1        0.01547   0.00774   0.00774   0.00000
 152       59D+2        0.01547   0.00774   0.00774   0.00000
 153       59D-2        0.01547   0.00774   0.00774   0.00000
 154       60D 0        0.00035   0.00017   0.00017   0.00000
 155       60D+1        0.00035   0.00017   0.00017   0.00000
 156       60D-1        0.00035   0.00017   0.00017   0.00000
 157       60D+2        0.00035   0.00017   0.00017   0.00000
 158       60D-2        0.00035   0.00017   0.00017   0.00000
 159       61F 0        0.00000   0.00000   0.00000   0.00000
 160       61F+1        0.00000   0.00000   0.00000   0.00000
 161       61F-1        0.00000   0.00000   0.00000   0.00000
 162       61F+2       -0.00000  -0.00000  -0.00000   0.00000
 163       61F-2        0.00000   0.00000   0.00000   0.00000
 164       61F+3        0.00000   0.00000   0.00000   0.00000
 165       61F-3        0.00000   0.00000   0.00000   0.00000
 166       62F 0        0.00000   0.00000   0.00000  -0.00000
 167       62F+1        0.00000   0.00000   0.00000   0.00000
 168       62F-1        0.00000   0.00000   0.00000   0.00000
 169       62F+2        0.00000   0.00000   0.00000  -0.00000
 170       62F-2        0.00000   0.00000   0.00000   0.00000
 171       62F+3        0.00000   0.00000   0.00000   0.00000
 172       62F-3        0.00000   0.00000   0.00000   0.00000
 173       63F 0       -0.00000  -0.00000  -0.00000   0.00000
 174       63F+1       -0.00000  -0.00000  -0.00000  -0.00000
 175       63F-1       -0.00000  -0.00000  -0.00000  -0.00000
 176       63F+2        0.00000   0.00000   0.00000  -0.00000
 177       63F-2       -0.00000  -0.00000  -0.00000   0.00000
 178       63F+3       -0.00000  -0.00000  -0.00000   0.00000
 179       63F-3       -0.00000  -0.00000  -0.00000   0.00000
 180       64F 0        0.00000   0.00000   0.00000   0.00000
 181       64F+1        0.00000   0.00000   0.00000   0.00000
 182       64F-1        0.00000   0.00000   0.00000   0.00000
 183       64F+2        0.00000   0.00000   0.00000  -0.00000
 184       64F-2        0.00000   0.00000   0.00000   0.00000
 185       64F+3        0.00000   0.00000   0.00000   0.00000
 186       64F-3        0.00000   0.00000   0.00000   0.00000
 187       65F 0        0.00000   0.00000   0.00000   0.00000
 188       65F+1        0.00000   0.00000   0.00000   0.00000
 189       65F-1        0.00000   0.00000   0.00000   0.00000
 190       65F+2        0.00000   0.00000   0.00000  -0.00000
 191       65F-2        0.00000   0.00000   0.00000   0.00000
 192       65F+3        0.00000   0.00000   0.00000   0.00000
 193       65F-3        0.00000   0.00000   0.00000  -0.00000
 194       66G 0       -0.00000  -0.00000  -0.00000   0.00000
 195       66G+1        0.00000   0.00000   0.00000  -0.00000
 196       66G-1        0.00000   0.00000   0.00000   0.00000
 197       66G+2        0.00000   0.00000   0.00000   0.00000
 198       66G-2        0.00000   0.00000   0.00000   0.00000
 199       66G+3        0.00000   0.00000   0.00000   0.00000
 200       66G-3        0.00000   0.00000   0.00000   0.00000
 201       66G+4       -0.00000  -0.00000  -0.00000   0.00000
 202       66G-4        0.00000   0.00000   0.00000   0.00000
 203       67G 0        0.00000   0.00000   0.00000   0.00000
 204       67G+1        0.00000   0.00000   0.00000   0.00000
 205       67G-1        0.00000   0.00000   0.00000   0.00000
 206       67G+2        0.00000   0.00000   0.00000   0.00000
 207       67G-2        0.00000   0.00000   0.00000   0.00000
 208       67G+3        0.00000   0.00000   0.00000   0.00000
 209       67G-3        0.00000   0.00000   0.00000   0.00000
 210       67G+4        0.00000   0.00000   0.00000   0.00000
 211       67G-4        0.00000   0.00000   0.00000   0.00000
 212       68G 0       -0.00000  -0.00000  -0.00000   0.00000
 213       68G+1        0.00000   0.00000   0.00000   0.00000
 214       68G-1        0.00000   0.00000   0.00000   0.00000
 215       68G+2       -0.00000  -0.00000  -0.00000  -0.00000
 216       68G-2        0.00000   0.00000   0.00000   0.00000
 217       68G+3        0.00000   0.00000   0.00000   0.00000
 218       68G-3        0.00000   0.00000   0.00000   0.00000
 219       68G+4       -0.00000  -0.00000  -0.00000   0.00000
 220       68G-4       -0.00000  -0.00000  -0.00000  -0.00000
 221       69G 0       -0.00000  -0.00000  -0.00000   0.00000
 222       69G+1       -0.00000  -0.00000  -0.00000  -0.00000
 223       69G-1       -0.00000  -0.00000  -0.00000  -0.00000
 224       69G+2        0.00000   0.00000   0.00000  -0.00000
 225       69G-2       -0.00000  -0.00000  -0.00000   0.00000
 226       69G+3       -0.00000  -0.00000  -0.00000   0.00000
 227       69G-3       -0.00000  -0.00000  -0.00000   0.00000
 228       69G+4       -0.00000  -0.00000  -0.00000   0.00000
 229       69G-4        0.00000   0.00000   0.00000   0.00000
 230       70H 0       -0.00000  -0.00000  -0.00000   0.00000
 231       70H+1       -0.00000  -0.00000  -0.00000   0.00000
 232       70H-1       -0.00000  -0.00000  -0.00000   0.00000
 233       70H+2        0.00000   0.00000   0.00000   0.00000
 234       70H-2       -0.00000  -0.00000  -0.00000  -0.00000
 235       70H+3       -0.00000  -0.00000  -0.00000   0.00000
 236       70H-3       -0.00000  -0.00000  -0.00000  -0.00000
 237       70H+4       -0.00000  -0.00000  -0.00000  -0.00000
 238       70H-4       -0.00000  -0.00000  -0.00000  -0.00000
 239       70H+5        0.00000   0.00000   0.00000   0.00000
 240       70H-5        0.00000   0.00000   0.00000   0.00000
 241       71H 0        0.00000   0.00000   0.00000   0.00000
 242       71H+1        0.00000   0.00000   0.00000   0.00000
 243       71H-1        0.00000   0.00000   0.00000   0.00000
 244       71H+2        0.00000   0.00000   0.00000   0.00000
 245       71H-2        0.00000   0.00000   0.00000   0.00000
 246       71H+3        0.00000   0.00000   0.00000   0.00000
 247       71H-3        0.00000   0.00000   0.00000   0.00000
 248       71H+4        0.00000   0.00000   0.00000   0.00000
 249       71H-4        0.00000   0.00000   0.00000   0.00000
 250       71H+5       -0.00000  -0.00000  -0.00000   0.00000
 251       71H-5       -0.00000  -0.00000  -0.00000  -0.00000
 252       72H 0        0.00000   0.00000   0.00000   0.00000
 253       72H+1        0.00000   0.00000   0.00000   0.00000
 254       72H-1        0.00000   0.00000   0.00000   0.00000
 255       72H+2       -0.00000  -0.00000  -0.00000   0.00000
 256       72H-2        0.00000   0.00000   0.00000   0.00000
 257       72H+3        0.00000   0.00000   0.00000   0.00000
 258       72H-3        0.00000   0.00000   0.00000   0.00000
 259       72H+4        0.00000   0.00000   0.00000   0.00000
 260       72H-4        0.00000   0.00000   0.00000   0.00000
 261       72H+5        0.00000   0.00000   0.00000   0.00000
 262       72H-5        0.00000   0.00000   0.00000   0.00000
          Condensed to atoms (all electrons):
               1
     1  Cu  19.000000
          Atomic-Atomic Spin Densities.
               1
     1  Cu   1.000000
 Mulliken charges and spin densities:
               1          2
     1  Cu  -0.000000   1.000000
 Sum of Mulliken charges =  -0.00000   1.00000
 Mulliken charges and spin densities with hydrogens summed into heavy atoms:
               1          2
     1  Cu  -0.000000   1.000000
 Electronic spatial extent (au):  <R**2>=             31.2523
 Charge=             -0.0000 electrons
 Dipole moment (field-independent basis, Debye):
    X=              0.0000    Y=              0.0000    Z=              0.0000  Tot=              0.0000
 Quadrupole moment (field-independent basis, Debye-Ang):
   XX=            -14.0118   YY=            -14.0118   ZZ=            -14.0118
   XY=             -0.0000   XZ=             -0.0000   YZ=              0.0000
 Traceless Quadrupole moment (field-independent basis, Debye-Ang):
   XX=              0.0000   YY=             -0.0000   ZZ=             -0.0000
   XY=             -0.0000   XZ=             -0.0000   YZ=              0.0000
 Octapole moment (field-independent basis, Debye-Ang**2):
  XXX=              0.0000  YYY=              0.0000  ZZZ=              0.0000  XYY=              0.0000
  XXY=              0.0000  XXZ=              0.0000  XZZ=              0.0000  YZZ=              0.0000
  YYZ=              0.0000  XYZ=              0.0000
 Hexadecapole moment (field-independent basis, Debye-Ang**3):
 XXXX=            -26.2613 YYYY=            -26.2613 ZZZZ=            -26.2613 XXXY=             -0.0000
 XXXZ=             -0.0000 YYYX=             -0.0000 YYYZ=              0.0000 ZZZX=             -0.0000
 ZZZY=              0.0000 XXYY=             -8.7538 XXZZ=             -8.7538 YYZZ=             -8.7538
 XXYZ=              0.0000 YYXZ=             -0.0000 ZZXY=             -0.0000
 N-N= 0.000000000000D+00 E-N=-4.870107922348D+02  KE= 1.306699535765D+02
 Symmetry AG   KE= 4.370091431896D+01
 Symmetry B1G  KE= 1.870395157011D+01
 Symmetry B2G  KE= 1.870395156982D+01
 Symmetry B3G  KE= 1.870395156990D+01
 Symmetry AU   KE= 6.433042438277D-57
 Symmetry B1U  KE= 1.028572818349D+01
 Symmetry B2U  KE= 1.028572818229D+01
 Symmetry B3U  KE= 1.028572818323D+01
 Symmetry AG   SP= 1.000000000000D+00
 Symmetry B1G  SP= 6.175480897702D-17
 Symmetry B2G  SP= 1.173387716829D-16
 Symmetry B3G  SP= 1.329865940772D-16
 Symmetry AU   SP= 3.885793122138D-75
 Symmetry B1U  SP= 2.822144554059D-16
 Symmetry B2U  SP= 9.382860070240D-17
 Symmetry B3U  SP= 2.064413621103D-16
 Orbital energies and kinetic energies (alpha):
                                 1                 2
   5         (T2G)--O         -0.483208          9.351976
   6         (T2G)--O         -0.483208          9.351976
   7         (T2G)--O         -0.483208          9.351976
   8         (EG)--O          -0.483208          9.351976
   9         (EG)--O          -0.483208          9.351976
  10         (A1G)--O         -0.244784          0.312529
  11         (T1U)--V          0.022977          0.039905
  12         (T1U)--V          0.022977          0.039905
  13         (T1U)--V          0.022977          0.039905
  14         (A1G)--V          0.034086          0.055372
  15         (T1U)--V          0.078054          0.160909
 Total kinetic energy from orbitals= 1.309824829036D+02
                          Isotropic Fermi Contact Couplings
        Atom                 a.u.       MegaHertz       Gauss      10(-4) cm-1
     1  Cu(63)             0.00091       1.07688       0.38426       0.35921
 --------------------------------------------------------
       Center         ----  Spin Dipole Couplings  ----
                      3XX-RR        3YY-RR        3ZZ-RR
 --------------------------------------------------------
     1   Atom        0.000000      0.000000      0.000000
 --------------------------------------------------------
                        XY            XZ            YZ
 --------------------------------------------------------
     1   Atom        0.000000      0.000000      0.000000
 --------------------------------------------------------


 ---------------------------------------------------------------------------------
              Anisotropic Spin Dipole Couplings in Principal Axis System
 ---------------------------------------------------------------------------------

       Atom             a.u.   MegaHertz   Gauss  10(-4) cm-1        Axes

              Baa     0.0000     0.000     0.000     0.000  1.0000  0.0000  0.0000
     1 Cu(63) Bbb     0.0000     0.000     0.000     0.000 -0.0000  1.0000  0.0000
              Bcc     0.0000     0.000     0.000     0.000  0.0000  0.0000  1.0000
 

 ---------------------------------------------------------------------------------

 No NMR shielding tensors so no spin-rotation constants.
 Leave Link  601 at Mon Mar 26 23:30:45 2018, MaxMem= 10737418240 cpu:             179.7 elap:               5.8
 (Enter /home1/apps/gaussian/16rA.03/g16/l9999.exe)

 Test job not archived.
 1\1\GINC-C473-132\SP\ROCCSD(T)-Full\Gen\Cu1(2)\GWANG18\26-Mar-2018\0\\
 #P ROCCSD(T)=(MaxCyc=150, Full)/Gen SCF=(maxcycle=400) Pseudo=Read Int
 egral(NoXCTest) Pop=Regular MaxDisk=500GB Guess=Read IOp(5/15=2)\\Cu\\
 0,2\Cu,0,0.,0.,0.\\Version=ES64L-G16RevA.03\State=2-A1G\HF=-196.176395
 3\MP2=-197.2638703\MP3=-197.073559\PUHF=-196.1763953\PMP2-0=-197.26387
 03\MP4SDQ=-197.2112337\CCSD=-197.1474415\CCSD(T)=-197.1824556\RMSD=2.0
 47e-10\PG=OH [O(Cu1)]\\@


 TIME GOES, YOU SAY?  AH NO!
 ALAS, TIME STAYS, WE GO.
    -- A. DOBSON (1840-1921)
 Job cpu time:       0 days 14 hours 15 minutes 23.0 seconds.
 Elapsed time:       0 days  0 hours 26 minutes 45.1 seconds.
 File lengths (MBytes):  RWF=   4185 Int=      0 D2E=      0 Chk=      8 Scr=      1
 Normal termination of Gaussian 16 at Mon Mar 26 23:30:47 2018.
