 Entering Gaussian System, Link 0=g16
 Initial command:
 /home1/apps/gaussian/16rA.03/g16/l1.exe "/tmp/Gau-171060.inp" -scrdir="/tmp/"
 Entering Link 1 = /home1/apps/gaussian/16rA.03/g16/l1.exe PID=    171061.
  
 Copyright (c) 1988,1990,1992,1993,1995,1998,2003,2009,2016,
            Gaussian, Inc.  All Rights Reserved.
  
 This is part of the Gaussian(R) 16 program.  It is based on
 the Gaussian(R) 09 system (copyright 2009, Gaussian, Inc.),
 the Gaussian(R) 03 system (copyright 2003, Gaussian, Inc.),
 the Gaussian(R) 98 system (copyright 1998, Gaussian, Inc.),
 the Gaussian(R) 94 system (copyright 1995, Gaussian, Inc.),
 the Gaussian 92(TM) system (copyright 1992, Gaussian, Inc.),
 the Gaussian 90(TM) system (copyright 1990, Gaussian, Inc.),
 the Gaussian 88(TM) system (copyright 1988, Gaussian, Inc.),
 the Gaussian 86(TM) system (copyright 1986, Carnegie Mellon
 University), and the Gaussian 82(TM) system (copyright 1983,
 Carnegie Mellon University). Gaussian is a federally registered
 trademark of Gaussian, Inc.
  
 This software contains proprietary and confidential information,
 including trade secrets, belonging to Gaussian, Inc.
  
 This software is provided under written license and may be
 used, copied, transmitted, or stored only in accord with that
 written license.
  
 The following legend is applicable only to US Government
 contracts under FAR:
  
                    RESTRICTED RIGHTS LEGEND
  
 Use, reproduction and disclosure by the US Government is
 subject to restrictions as set forth in subparagraphs (a)
 and (c) of the Commercial Computer Software - Restricted
 Rights clause in FAR 52.227-19.
  
 Gaussian, Inc.
 340 Quinnipiac St., Bldg. 40, Wallingford CT 06492
  
  
 ---------------------------------------------------------------
 Warning -- This program may not be used in any manner that
 competes with the business of Gaussian, Inc. or will provide
 assistance to any competitor of Gaussian, Inc.  The licensee
 of this program is prohibited from giving any competitor of
 Gaussian, Inc. access to this program.  By using this program,
 the user acknowledges that Gaussian, Inc. is engaged in the
 business of creating and licensing software in the field of
 computational chemistry and represents and warrants to the
 licensee that it is not a competitor of Gaussian, Inc. and that
 it will not use this program in any manner prohibited above.
 ---------------------------------------------------------------
  

 Cite this work as:
 Gaussian 16, Revision A.03,
 M. J. Frisch, G. W. Trucks, H. B. Schlegel, G. E. Scuseria, 
 M. A. Robb, J. R. Cheeseman, G. Scalmani, V. Barone, 
 G. A. Petersson, H. Nakatsuji, X. Li, M. Caricato, A. V. Marenich, 
 J. Bloino, B. G. Janesko, R. Gomperts, B. Mennucci, H. P. Hratchian, 
 J. V. Ortiz, A. F. Izmaylov, J. L. Sonnenberg, D. Williams-Young, 
 F. Ding, F. Lipparini, F. Egidi, J. Goings, B. Peng, A. Petrone, 
 T. Henderson, D. Ranasinghe, V. G. Zakrzewski, J. Gao, N. Rega, 
 G. Zheng, W. Liang, M. Hada, M. Ehara, K. Toyota, R. Fukuda, 
 J. Hasegawa, M. Ishida, T. Nakajima, Y. Honda, O. Kitao, H. Nakai, 
 T. Vreven, K. Throssell, J. A. Montgomery, Jr., J. E. Peralta, 
 F. Ogliaro, M. J. Bearpark, J. J. Heyd, E. N. Brothers, K. N. Kudin, 
 V. N. Staroverov, T. A. Keith, R. Kobayashi, J. Normand, 
 K. Raghavachari, A. P. Rendell, J. C. Burant, S. S. Iyengar, 
 J. Tomasi, M. Cossi, J. M. Millam, M. Klene, C. Adamo, R. Cammi, 
 J. W. Ochterski, R. L. Martin, K. Morokuma, O. Farkas, 
 J. B. Foresman, and D. J. Fox, Gaussian, Inc., Wallingford CT, 2016.
 
 ******************************************
 Gaussian 16:  ES64L-G16RevA.03 25-Dec-2016
                26-Feb-2018 
 ******************************************
 %MEM=64GB
 %CPU=0-15
 SetSPE:  set environment variable "MP_BIND" = "yes"
 SetSPE:  set environment variable "MP_BLIST" = "0,1,2,3,4,5,6,7,8,9,10,11,12,13,14,15"
 Will use up to   16 processors via shared memory.
 %RWF=/scratch/04843/aannabe/gaussian/
 %Int=/scratch/04843/aannabe/gaussian/
 %D2E=/scratch/04843/aannabe/gaussian/
 %NoSave
 %CHK=CrH
 ----------------------------------------------------------------------
 #P ROCCSD(T)=(maxcyc=150, Full, SaveAmplitudes, ReadAmplitudes)/Gen 5d
  7f SCF=(maxcycles=300) Integral(NoXCTest) MaxDisk=500GB Pop=Regular P
 seudo=Read Guess=Read
 ----------------------------------------------------------------------
 1/38=1,172=1/1;
 2/12=2,17=6,18=5,40=1/2;
 3/5=7,8=11,11=2,16=1,17=8,25=1,30=1,47=8,116=101/1,2,3;
 4/5=1/1;
 5/5=2,7=300,38=6/2;
 8/5=-1,6=4,9=120000,10=90,24=1/1,4;
 9/5=7,6=150,14=2,77=1/13;
 6//1;
 99/5=1,9=1/99;
 Leave Link    1 at Mon Feb 26 15:35:58 2018, MaxMem=  8589934592 cpu:               4.0 elap:               0.3
 (Enter /home1/apps/gaussian/16rA.03/g16/l101.exe)
 ---
 CrH
 ---
 Symbolic Z-matrix:
 Charge =  0 Multiplicity = 6
 Cr                    0.        0.        0. 
 H                     0.        0.        1.9 
 
 ITRead=  0  0
 MicOpt= -1 -1
 NAtoms=      2 NQM=        2 NQMF=       0 NMMI=      0 NMMIF=      0
                NMic=       0 NMicF=      0.
                    Isotopes and Nuclear Properties:
 (Nuclear quadrupole moments (NQMom) in fm**2, nuclear magnetic moments (NMagM)
  in nuclear magnetons)

  Atom         1           2
 IAtWgt=          52           1
 AtmWgt=  51.9405097   1.0078250
 NucSpn=           0           1
 AtZEff=  -0.0000000  -0.0000000
 NQMom=    0.0000000   0.0000000
 NMagM=    0.0000000   2.7928460
 AtZNuc=  24.0000000   1.0000000
 Leave Link  101 at Mon Feb 26 15:35:58 2018, MaxMem=  8589934592 cpu:               1.4 elap:               0.1
 (Enter /home1/apps/gaussian/16rA.03/g16/l202.exe)
                          Input orientation:                          
 ---------------------------------------------------------------------
 Center     Atomic      Atomic             Coordinates (Angstroms)
 Number     Number       Type             X           Y           Z
 ---------------------------------------------------------------------
      1         24           0        0.000000    0.000000    0.000000
      2          1           0        0.000000    0.000000    1.900000
 ---------------------------------------------------------------------
 Stoichiometry    CrH(6)
 Framework group  C*V[C*(HCr)]
 Deg. of freedom     1
 Full point group                 C*V     NOp   4
 Largest Abelian subgroup         C2V     NOp   4
 Largest concise Abelian subgroup C1      NOp   1
                         Standard orientation:                         
 ---------------------------------------------------------------------
 Center     Atomic      Atomic             Coordinates (Angstroms)
 Number     Number       Type             X           Y           Z
 ---------------------------------------------------------------------
      1         24           0        0.000000    0.000000    0.076000
      2          1           0        0.000000    0.000000   -1.824000
 ---------------------------------------------------------------------
 Rotational constants (GHZ):           0.0000000         141.6025105         141.6025105
 Leave Link  202 at Mon Feb 26 15:35:58 2018, MaxMem=  8589934592 cpu:               0.4 elap:               0.1
 (Enter /home1/apps/gaussian/16rA.03/g16/l301.exe)
 General basis read from cards:  (5D, 7F)
 Centers:       1
 S 1 1.00
     Exponent=  1.1016640000D+07 Coefficients=  1.0000000000D+00
 S 1 1.00
     Exponent=  1.6494230000D+06 Coefficients=  1.0000000000D+00
 S 1 1.00
     Exponent=  3.7535890000D+05 Coefficients=  1.0000000000D+00
 S 1 1.00
     Exponent=  1.0632360000D+05 Coefficients=  1.0000000000D+00
 S 1 1.00
     Exponent=  3.4689760000D+04 Coefficients=  1.0000000000D+00
 S 1 1.00
     Exponent=  1.2524830000D+04 Coefficients=  1.0000000000D+00
 S 1 1.00
     Exponent=  4.8857520000D+03 Coefficients=  1.0000000000D+00
 S 1 1.00
     Exponent=  2.0269180000D+03 Coefficients=  1.0000000000D+00
 S 1 1.00
     Exponent=  8.8436450000D+02 Coefficients=  1.0000000000D+00
 S 1 1.00
     Exponent=  4.0231700000D+02 Coefficients=  1.0000000000D+00
 S 1 1.00
     Exponent=  1.8952710000D+02 Coefficients=  1.0000000000D+00
 S 1 1.00
     Exponent=  9.1860950000D+01 Coefficients=  1.0000000000D+00
 S 1 1.00
     Exponent=  4.5124760000D+01 Coefficients=  1.0000000000D+00
 S 1 1.00
     Exponent=  2.0625120000D+01 Coefficients=  1.0000000000D+00
 S 1 1.00
     Exponent=  1.0319730000D+01 Coefficients=  1.0000000000D+00
 S 1 1.00
     Exponent=  5.1577230000D+00 Coefficients=  1.0000000000D+00
 S 1 1.00
     Exponent=  2.3126280000D+00 Coefficients=  1.0000000000D+00
 S 1 1.00
     Exponent=  1.1030790000D+00 Coefficients=  1.0000000000D+00
 S 1 1.00
     Exponent=  4.9804200000D-01 Coefficients=  1.0000000000D+00
 S 1 1.00
     Exponent=  1.1824700000D-01 Coefficients=  1.0000000000D+00
 S 1 1.00
     Exponent=  5.7356000000D-02 Coefficients=  1.0000000000D+00
 S 1 1.00
     Exponent=  2.5760000000D-02 Coefficients=  1.0000000000D+00
 S 1 1.00
     Exponent=  4.7991000000D+00 Coefficients=  1.0000000000D+00
 S 1 1.00
     Exponent=  1.4287000000D+00 Coefficients=  1.0000000000D+00
 S 1 1.00
     Exponent=  1.1570000000D-02 Coefficients=  1.0000000000D+00
 P 1 1.00
     Exponent=  3.1539890000D+04 Coefficients=  1.0000000000D+00
 P 1 1.00
     Exponent=  7.4602340000D+03 Coefficients=  1.0000000000D+00
 P 1 1.00
     Exponent=  2.4226220000D+03 Coefficients=  1.0000000000D+00
 P 1 1.00
     Exponent=  9.2775470000D+02 Coefficients=  1.0000000000D+00
 P 1 1.00
     Exponent=  3.9480410000D+02 Coefficients=  1.0000000000D+00
 P 1 1.00
     Exponent=  1.8080270000D+02 Coefficients=  1.0000000000D+00
 P 1 1.00
     Exponent=  8.7423930000D+01 Coefficients=  1.0000000000D+00
 P 1 1.00
     Exponent=  4.4034270000D+01 Coefficients=  1.0000000000D+00
 P 1 1.00
     Exponent=  2.2777040000D+01 Coefficients=  1.0000000000D+00
 P 1 1.00
     Exponent=  1.2015470000D+01 Coefficients=  1.0000000000D+00
 P 1 1.00
     Exponent=  6.4117510000D+00 Coefficients=  1.0000000000D+00
 P 1 1.00
     Exponent=  3.3811360000D+00 Coefficients=  1.0000000000D+00
 P 1 1.00
     Exponent=  1.7470540000D+00 Coefficients=  1.0000000000D+00
 P 1 1.00
     Exponent=  8.8500400000D-01 Coefficients=  1.0000000000D+00
 P 1 1.00
     Exponent=  4.3302800000D-01 Coefficients=  1.0000000000D+00
 P 1 1.00
     Exponent=  1.7396200000D-01 Coefficients=  1.0000000000D+00
 P 1 1.00
     Exponent=  7.2823000000D-02 Coefficients=  1.0000000000D+00
 P 1 1.00
     Exponent=  2.9952000000D-02 Coefficients=  1.0000000000D+00
 P 1 1.00
     Exponent=  6.4552000000D+00 Coefficients=  1.0000000000D+00
 P 1 1.00
     Exponent=  1.6531000000D+00 Coefficients=  1.0000000000D+00
 P 1 1.00
     Exponent=  1.2320000000D-02 Coefficients=  1.0000000000D+00
 D 1 1.00
     Exponent=  2.8131200000D+02 Coefficients=  1.0000000000D+00
 D 1 1.00
     Exponent=  8.3188500000D+01 Coefficients=  1.0000000000D+00
 D 1 1.00
     Exponent=  3.1839600000D+01 Coefficients=  1.0000000000D+00
 D 1 1.00
     Exponent=  1.3602600000D+01 Coefficients=  1.0000000000D+00
 D 1 1.00
     Exponent=  6.1829800000D+00 Coefficients=  1.0000000000D+00
 D 1 1.00
     Exponent=  2.9227000000D+00 Coefficients=  1.0000000000D+00
 D 1 1.00
     Exponent=  1.3821600000D+00 Coefficients=  1.0000000000D+00
 D 1 1.00
     Exponent=  6.3946000000D-01 Coefficients=  1.0000000000D+00
 D 1 1.00
     Exponent=  2.8489800000D-01 Coefficients=  1.0000000000D+00
 D 1 1.00
     Exponent=  1.2004500000D-01 Coefficients=  1.0000000000D+00
 D 1 1.00
     Exponent=  4.6229000000D-02 Coefficients=  1.0000000000D+00
 D 1 1.00
     Exponent=  4.0848000000D+00 Coefficients=  1.0000000000D+00
 D 1 1.00
     Exponent=  2.1405000000D+00 Coefficients=  1.0000000000D+00
 D 1 1.00
     Exponent=  1.7800000000D-02 Coefficients=  1.0000000000D+00
 F 1 1.00
     Exponent=  5.6633000000D+00 Coefficients=  1.0000000000D+00
 F 1 1.00
     Exponent=  2.3365000000D+00 Coefficients=  1.0000000000D+00
 F 1 1.00
     Exponent=  9.6390000000D-01 Coefficients=  1.0000000000D+00
 F 1 1.00
     Exponent=  3.1420000000D-01 Coefficients=  1.0000000000D+00
 F 1 1.00
     Exponent=  1.0242000000D-01 Coefficients=  1.0000000000D+00
 G 1 1.00
     Exponent=  4.6690000000D+00 Coefficients=  1.0000000000D+00
 G 1 1.00
     Exponent=  1.9538000000D+00 Coefficients=  1.0000000000D+00
 G 1 1.00
     Exponent=  6.8480000000D-01 Coefficients=  1.0000000000D+00
 G 1 1.00
     Exponent=  2.4002000000D-01 Coefficients=  1.0000000000D+00
 H 1 1.00
     Exponent=  4.4133000000D+00 Coefficients=  1.0000000000D+00
 H 1 1.00
     Exponent=  1.6472000000D+00 Coefficients=  1.0000000000D+00
 H 1 1.00
     Exponent=  6.1479000000D-01 Coefficients=  1.0000000000D+00
 ****
 Centers:       2
 S 1 1.00
     Exponent=  8.2640000000D+01 Coefficients=  1.0000000000D+00
 S 1 1.00
     Exponent=  1.2410000000D+01 Coefficients=  1.0000000000D+00
 S 1 1.00
     Exponent=  2.8240000000D+00 Coefficients=  1.0000000000D+00
 S 1 1.00
     Exponent=  7.9770000000D-01 Coefficients=  1.0000000000D+00
 S 1 1.00
     Exponent=  2.5810000000D-01 Coefficients=  1.0000000000D+00
 S 1 1.00
     Exponent=  8.9890000000D-02 Coefficients=  1.0000000000D+00
 S 1 1.00
     Exponent=  2.3630000000D-02 Coefficients=  1.0000000000D+00
 P 1 1.00
     Exponent=  2.2920000000D+00 Coefficients=  1.0000000000D+00
 P 1 1.00
     Exponent=  8.3800000000D-01 Coefficients=  1.0000000000D+00
 P 1 1.00
     Exponent=  2.9200000000D-01 Coefficients=  1.0000000000D+00
 P 1 1.00
     Exponent=  8.4800000000D-02 Coefficients=  1.0000000000D+00
 D 1 1.00
     Exponent=  2.0620000000D+00 Coefficients=  1.0000000000D+00
 D 1 1.00
     Exponent=  6.6200000000D-01 Coefficients=  1.0000000000D+00
 D 1 1.00
     Exponent=  1.9000000000D-01 Coefficients=  1.0000000000D+00
 F 1 1.00
     Exponent=  1.3970000000D+00 Coefficients=  1.0000000000D+00
 F 1 1.00
     Exponent=  3.6000000000D-01 Coefficients=  1.0000000000D+00
 ****
 ======================================================================================================
                                       Pseudopotential Parameters
 ======================================================================================================
  Center     Atomic      Valence      Angular      Power
  Number     Number     Electrons     Momentum     of R      Exponent        Coefficient   SO-Coeffient
 ======================================================================================================
    1         24           14
                                      F and up 
                                                     2        1.0000000        0.00000000    0.00000000
                                      S - F
                                                     2       16.3900000      201.57888700    0.00000000
                                                     2        7.4020000       24.20574100    0.00000000
                                      P - F
                                                     2       16.4500000      125.02277400    0.00000000
                                                     2        6.9620000       16.47906600    0.00000000
                                      D - F
                                                     2       19.9300000      -20.82742100    0.00000000
                                                     2        6.5980000       -0.83436800    0.00000000
    2          1            1
                                      P and up 
                                                     2       21.7769666      -10.85192405    0.00000000
                                                     1       21.2435951        1.00000000    0.00000000
                                                     3       21.2435951       21.24359508    0.00000000
                                      S - P
                                                     2        1.0000000        0.00000000    0.00000000
 ======================================================================================================
 Ernie: Thresh=  0.10000D-02 Tol=  0.10000D-05 Strict=F.
 There are   171 symmetry adapted cartesian basis functions of A1  symmetry.
 There are    45 symmetry adapted cartesian basis functions of A2  symmetry.
 There are    93 symmetry adapted cartesian basis functions of B1  symmetry.
 There are    93 symmetry adapted cartesian basis functions of B2  symmetry.
 There are   126 symmetry adapted basis functions of A1  symmetry.
 There are    38 symmetry adapted basis functions of A2  symmetry.
 There are    73 symmetry adapted basis functions of B1  symmetry.
 There are    73 symmetry adapted basis functions of B2  symmetry.
   310 basis functions,   402 primitive gaussians,   402 cartesian basis functions
    10 alpha electrons        5 beta electrons
       nuclear repulsion energy         3.8992005015 Hartrees.
 IExCor=    0 DFT=F Ex=HF Corr=None ExCW=0 ScaHFX=  1.000000
 ScaDFX=  1.000000  1.000000  1.000000  1.000000 ScalE2=  1.000000  1.000000
 IRadAn=      5 IRanWt=     -1 IRanGd=            0 ICorTp=0 IEmpDi=  4
 NAtoms=    2 NActive=    2 NUniq=    2 SFac= 1.00D+00 NAtFMM=   60 NAOKFM=F Big=F
 Integral buffers will be    131072 words long.
 Raffenetti 2 integral format.
 Two-electron integral symmetry is turned on.
 Leave Link  301 at Mon Feb 26 15:35:58 2018, MaxMem=  8589934592 cpu:               4.0 elap:               0.3
 (Enter /home1/apps/gaussian/16rA.03/g16/l302.exe)
 NPDir=0 NMtPBC=     1 NCelOv=     1 NCel=       1 NClECP=     1 NCelD=      1
         NCelK=      1 NCelE2=     1 NClLst=     1 CellRange=     0.0.
 One-electron integrals computed using PRISM.
 One-electron integral symmetry used in STVInt
   4 Symmetry operations used in ECPInt.
 ECPInt:  NShTT=    3916 NPrTT=    3916 LenC2=    3858 LenP2D=    3857.
 LDataN:  DoStor=T MaxTD1=10 Len=  848
 NBasis=   310 RedAO= T EigKep=  1.51D-06  NBF=   126    38    73    73
 NBsUse=   306 1.00D-06 EigRej=  3.72D-07 NBFU=   124    38    72    72
 Leave Link  302 at Mon Feb 26 15:36:01 2018, MaxMem=  8589934592 cpu:              47.0 elap:               3.0
 (Enter /home1/apps/gaussian/16rA.03/g16/l303.exe)
 DipDrv:  MaxL=1.
 Leave Link  303 at Mon Feb 26 15:36:02 2018, MaxMem=  8589934592 cpu:               1.4 elap:               0.2
 (Enter /home1/apps/gaussian/16rA.03/g16/l401.exe)
 Initial guess from the checkpoint file:  "CrH.chk"
 B after Tr=     0.000000    0.000000    0.000000
         Rot=    1.000000    0.000000    0.000000    0.000000 Ang=   0.00 deg.
 Guess basis will be translated and rotated to current coordinates.
 JPrj=2 DoOrth=T DoCkMO=T.
 Initial guess orbital symmetries:
       Occupied  (SG) (SG) (PI) (PI) (SG) (PI) (PI) (SG) (DLTA)
                 (DLTA)
       Virtual   (PI) (PI) (SG) (SG) (PI) (PI) (SG) (DLTA) (DLTA)
                 (PI) (PI) (SG) (SG) (SG) (PI) (PI) (SG) (SG) (DLTA)
                 (DLTA) (PI) (PI) (PI) (PI) (SG) (SG) (PHI) (PHI)
                 (DLTA) (DLTA) (SG) (PI) (PI) (SG) (PI) (PI) (SG)
                 (PI) (PI) (DLTA) (DLTA) (DLTA) (DLTA) (SG) (PI)
                 (PI) (SG) (PI) (PI) (SG) (SG) (PHI) (PHI) (DLTA)
                 (DLTA) (PI) (PI) (SG) (PI) (PI) (?A) (?A) (PHI)
                 (PHI) (SG) (DLTA) (DLTA) (SG) (PI) (PI) (DLTA)
                 (DLTA) (SG) (PI) (PI) (SG) (DLTA) (DLTA) (PI)
                 (PI) (PI) (PI) (SG) (SG) (DLTA) (DLTA) (PHI) (PHI)
                 (PI) (PI) (SG) (SG) (PI) (PI) (SG) (PHI) (PHI)
                 (?A) (?A) (DLTA) (DLTA) (PI) (PI) (SG) (DLTA)
                 (DLTA) (PI) (PI) (SG) (SG) (DLTA) (DLTA) (PHI)
                 (PHI) (PI) (PI) (SG) (PI) (PI) (SG) (SG) (DLTA)
                 (DLTA) (PI) (PI) (SG) (PHI) (PHI) (DLTA) (DLTA)
                 (?A) (?A) (PI) (PI) (SG) (PI) (PI) (SG) (DLTA)
                 (DLTA) (PI) (PI) (SG) (SG) (PI) (PI) (SG) (SG)
                 (SG) (DLTA) (DLTA) (PI) (PI) (SG) (PI) (PI) (SG)
                 (SG) (PI) (PI) (SG) (SG) (DLTA) (DLTA) (PI) (PI)
                 (SG) (PI) (PI) (SG) (SG) (PI) (PI) (SG) (SG) (SG)
                 (PI) (PI) (SG) (SG) (PI) (PI) (SG) (SG) (PI) (PI)
                 (SG) (SG) (PI) (PI) (SG) (SG) (SG) (SG) (SG) (SG)
                 (SG) (SG) (SG) (DLTA) (SG) (SG) (DLTA) (SG) (DLTA)
                 (SG) (DLTA) (SG) (?A) (SG) (DLTA) (SG) (DLTA)
                 (?A) (SG) (DLTA) (SG) (SG) (DLTA) (SG) (DLTA)
                 (SG) (SG) (DLTA) (DLTA) (SG) (?A) (SG) (DLTA)
                 (?A) (DLTA) (DLTA) (DLTA) (DLTA) (?A) (DLTA) (DLTA)
                 (?A) (DLTA) (DLTA) (DLTA) (DLTA) (DLTA) (?A) (DLTA)
                 (?A) (PI) (PI) (PI) (PI) (PI) (PHI) (PI) (PI)
                 (PHI) (PI) (PI) (PHI) (?B) (PI) (PI) (PHI) (PI)
                 (PHI) (PI) (PHI) (PI) (?B) (PHI) (PI) (?B) (PI)
                 (PI) (PI) (PI) (PI) (PHI) (PI) (PI) (PHI) (PI)
                 (PI) (PHI) (?B) (PI) (PI) (PHI) (PI) (PHI) (PI)
                 (PHI) (PI) (?B) (PHI) (PI) (?B)
 The electronic state of the initial guess is 6-SG.
 Leave Link  401 at Mon Feb 26 15:36:03 2018, MaxMem=  8589934592 cpu:              12.5 elap:               0.9
 (Enter /home1/apps/gaussian/16rA.03/g16/l502.exe)
 Keep R1 and R2 ints in memory in symmetry-blocked form, NReq=1456552531.
 FoFCou: FMM=F IPFlag=           8 FMFlag=           0 FMFlg1=           0
         NFxFlg=           0 DoJE=F BraDBF=F KetDBF=F FulRan=T
         wScrn=  0.000000 ICntrl=       600 IOpCl=  0 I1Cent=           0 NGrid=           0
         NMat0=    1 NMatS0=  48205 NMatT0=    0 NMatD0=    1 NMtDS0=    0 NMtDT0=    0
 Petite list used in FoFCou.
 Restricted open shell SCF:
 Using DIIS extrapolation, IDIIS=  1040.
 NGot=  8589934592 LenX=  8000380050 LenY=  8000218005
 Requested convergence on RMS density matrix=1.00D-08 within 300 cycles.
 Requested convergence on MAX density matrix=1.00D-06.
 Requested convergence on             energy=1.00D-06.
 No special actions if energy rises.

 Cycle   1  Pass 1  IDiag  1:
 E= -86.8776188811354    
 DIIS: error= 7.61D-01 at cycle   1 NSaved=   1.
 NSaved= 1 IEnMin= 1 EnMin= -86.8776188811354     IErMin= 1 ErrMin= 7.61D-01
 ErrMax= 7.61D-01  0.00D+00 EMaxC= 1.00D-01 BMatC= 1.93D+02 BMatP= 1.93D+02
 IDIUse=3 WtCom= 0.00D+00 WtEn= 1.00D+00
 Coeff-Com:  0.100D+01
 Coeff-En:   0.100D+01
 Coeff:      0.100D+01
 Gap=     0.083 Goal=   None    Shift=    0.000
 GapD=    0.083 DampG=0.500 DampE=0.125 DampFc=0.1250 IDamp=-1.
 Damping current iteration by 1.25D-01
 RMSDP=2.66D-03 MaxDP=2.21D-01              OVMax= 6.22D-03

 Cycle   2  Pass 1  IDiag  1:
 E= -86.8776804006931     Delta-E=       -0.000061519558 Rises=F Damp=T
 DIIS: error= 6.66D-01 at cycle   2 NSaved=   2.
 NSaved= 2 IEnMin= 2 EnMin= -86.8776804006931     IErMin= 2 ErrMin= 6.66D-01
 ErrMax= 6.66D-01  0.00D+00 EMaxC= 1.00D-01 BMatC= 1.48D+02 BMatP= 1.93D+02
 IDIUse=3 WtCom= 0.00D+00 WtEn= 1.00D+00
 Coeff-Com: -0.700D+01 0.800D+01
 Coeff-En:   0.000D+00 0.100D+01
 Coeff:      0.000D+00 0.100D+01
 Gap=     0.082 Goal=   None    Shift=    0.000
 RMSDP=2.28D-03 MaxDP=1.97D-01 DE=-6.15D-05 OVMax= 9.52D-03

 Cycle   3  Pass 1  IDiag  1:
 E= -86.8780454756072     Delta-E=       -0.000365074914 Rises=F Damp=F
 DIIS: error= 7.47D-04 at cycle   3 NSaved=   3.
 NSaved= 3 IEnMin= 3 EnMin= -86.8780454756072     IErMin= 3 ErrMin= 7.47D-04
 ErrMax= 7.47D-04  0.00D+00 EMaxC= 1.00D-01 BMatC= 5.23D-05 BMatP= 1.48D+02
 IDIUse=3 WtCom= 9.93D-01 WtEn= 7.47D-03
 Coeff-Com: -0.152D+01 0.174D+01 0.783D+00
 Coeff-En:   0.000D+00 0.000D+00 0.100D+01
 Coeff:     -0.151D+01 0.172D+01 0.784D+00
 Gap=     0.082 Goal=   None    Shift=    0.000
 RMSDP=1.63D-04 MaxDP=1.67D-02 DE=-3.65D-04 OVMax= 9.90D-03

 Cycle   4  Pass 1  IDiag  1:
 E= -86.8780981870572     Delta-E=       -0.000052711450 Rises=F Damp=F
 DIIS: error= 4.88D-04 at cycle   4 NSaved=   4.
 NSaved= 4 IEnMin= 4 EnMin= -86.8780981870572     IErMin= 4 ErrMin= 4.88D-04
 ErrMax= 4.88D-04  0.00D+00 EMaxC= 1.00D-01 BMatC= 2.59D-05 BMatP= 5.23D-05
 IDIUse=3 WtCom= 9.95D-01 WtEn= 4.88D-03
 Coeff-Com: -0.116D+01 0.132D+01 0.494D+00 0.340D+00
 Coeff-En:   0.000D+00 0.000D+00 0.371D+00 0.629D+00
 Coeff:     -0.115D+01 0.132D+01 0.494D+00 0.342D+00
 Gap=     0.082 Goal=   None    Shift=    0.000
 RMSDP=1.27D-04 MaxDP=1.46D-02 DE=-5.27D-05 OVMax= 6.13D-03

 Cycle   5  Pass 1  IDiag  1:
 E= -86.8781185169263     Delta-E=       -0.000020329869 Rises=F Damp=F
 DIIS: error= 4.26D-04 at cycle   5 NSaved=   5.
 NSaved= 5 IEnMin= 5 EnMin= -86.8781185169263     IErMin= 5 ErrMin= 4.26D-04
 ErrMax= 4.26D-04  0.00D+00 EMaxC= 1.00D-01 BMatC= 1.37D-05 BMatP= 2.59D-05
 IDIUse=3 WtCom= 9.96D-01 WtEn= 4.26D-03
 EnCoef did    29 forward-backward iterations
 Coeff-Com: -0.975D+00 0.111D+01 0.181D+00 0.173D+00 0.507D+00
 Coeff-En:   0.000D+00 0.000D+00 0.865D-01 0.411D+00 0.502D+00
 Coeff:     -0.971D+00 0.111D+01 0.180D+00 0.174D+00 0.507D+00
 Gap=     0.082 Goal=   None    Shift=    0.000
 RMSDP=3.88D-05 MaxDP=3.85D-03 DE=-2.03D-05 OVMax= 1.53D-03

 Cycle   6  Pass 1  IDiag  1:
 E= -86.8781235867953     Delta-E=       -0.000005069869 Rises=F Damp=F
 DIIS: error= 3.53D-04 at cycle   6 NSaved=   6.
 NSaved= 6 IEnMin= 6 EnMin= -86.8781235867953     IErMin= 6 ErrMin= 3.53D-04
 ErrMax= 3.53D-04  0.00D+00 EMaxC= 1.00D-01 BMatC= 1.07D-05 BMatP= 1.37D-05
 IDIUse=3 WtCom= 9.96D-01 WtEn= 3.53D-03
 EnCoef did    28 forward-backward iterations
 Coeff-Com: -0.857D+00 0.980D+00 0.278D-01 0.550D-01 0.383D+00 0.412D+00
 Coeff-En:   0.000D+00 0.000D+00 0.401D-01 0.341D+00 0.355D+00 0.264D+00
 Coeff:     -0.854D+00 0.976D+00 0.278D-01 0.560D-01 0.383D+00 0.411D+00
 Gap=     0.082 Goal=   None    Shift=    0.000
 RMSDP=1.81D-05 MaxDP=1.38D-03 DE=-5.07D-06 OVMax= 1.55D-03

 Cycle   7  Pass 1  IDiag  1:
 E= -86.8781277636773     Delta-E=       -0.000004176882 Rises=F Damp=F
 DIIS: error= 3.37D-04 at cycle   7 NSaved=   7.
 NSaved= 7 IEnMin= 7 EnMin= -86.8781277636773     IErMin= 7 ErrMin= 3.37D-04
 ErrMax= 3.37D-04  0.00D+00 EMaxC= 1.00D-01 BMatC= 8.17D-06 BMatP= 1.07D-05
 IDIUse=3 WtCom= 9.97D-01 WtEn= 3.37D-03
 EnCoef did    14 forward-backward iterations
 Coeff-Com: -0.724D+00 0.828D+00-0.598D-01-0.360D-01 0.953D-01 0.379D+00
 Coeff-Com:  0.518D+00
 Coeff-En:   0.000D+00 0.000D+00 0.272D-01 0.239D+00 0.000D+00 0.000D+00
 Coeff-En:   0.734D+00
 Coeff:     -0.722D+00 0.825D+00-0.595D-01-0.351D-01 0.950D-01 0.377D+00
 Coeff:      0.519D+00
 Gap=     0.082 Goal=   None    Shift=    0.000
 RMSDP=1.90D-05 MaxDP=1.52D-03 DE=-4.18D-06 OVMax= 8.75D-04

 Cycle   8  Pass 1  IDiag  1:
 E= -86.8781318132644     Delta-E=       -0.000004049587 Rises=F Damp=F
 DIIS: error= 2.89D-04 at cycle   8 NSaved=   8.
 NSaved= 8 IEnMin= 8 EnMin= -86.8781318132644     IErMin= 8 ErrMin= 2.89D-04
 ErrMax= 2.89D-04  0.00D+00 EMaxC= 1.00D-01 BMatC= 5.63D-06 BMatP= 8.17D-06
 IDIUse=3 WtCom= 9.97D-01 WtEn= 2.89D-03
 EnCoef did     6 forward-backward iterations
 Coeff-Com: -0.591D+00 0.676D+00-0.715D-01-0.681D-01-0.926D-01 0.154D+00
 Coeff-Com:  0.433D+00 0.561D+00
 Coeff-En:   0.000D+00 0.000D+00 0.319D-02 0.147D+00 0.000D+00 0.000D+00
 Coeff-En:   0.000D+00 0.850D+00
 Coeff:     -0.589D+00 0.674D+00-0.713D-01-0.675D-01-0.924D-01 0.153D+00
 Coeff:      0.432D+00 0.562D+00
 Gap=     0.082 Goal=   None    Shift=    0.000
 RMSDP=2.17D-05 MaxDP=2.05D-03 DE=-4.05D-06 OVMax= 6.12D-04

 Cycle   9  Pass 1  IDiag  1:
 E= -86.8781349791495     Delta-E=       -0.000003165885 Rises=F Damp=F
 DIIS: error= 2.18D-04 at cycle   9 NSaved=   9.
 NSaved= 9 IEnMin= 9 EnMin= -86.8781349791495     IErMin= 9 ErrMin= 2.18D-04
 ErrMax= 2.18D-04  0.00D+00 EMaxC= 1.00D-01 BMatC= 3.69D-06 BMatP= 5.63D-06
 IDIUse=3 WtCom= 9.98D-01 WtEn= 2.18D-03
 EnCoef did     7 forward-backward iterations
 Coeff-Com: -0.400D+00 0.457D+00-0.538D-01-0.735D-01-0.228D+00-0.115D+00
 Coeff-Com:  0.142D+00 0.643D+00 0.627D+00
 Coeff-En:   0.000D+00 0.000D+00 0.182D-01 0.106D+00 0.000D+00 0.000D+00
 Coeff-En:   0.000D+00 0.000D+00 0.876D+00
 Coeff:     -0.399D+00 0.456D+00-0.536D-01-0.731D-01-0.227D+00-0.114D+00
 Coeff:      0.142D+00 0.642D+00 0.628D+00
 Gap=     0.082 Goal=   None    Shift=    0.000
 RMSDP=3.31D-05 MaxDP=3.22D-03 DE=-3.17D-06 OVMax= 6.18D-04

 Cycle  10  Pass 1  IDiag  1:
 E= -86.8781382699446     Delta-E=       -0.000003290795 Rises=F Damp=F
 DIIS: error= 1.51D-04 at cycle  10 NSaved=  10.
 NSaved=10 IEnMin=10 EnMin= -86.8781382699446     IErMin=10 ErrMin= 1.51D-04
 ErrMax= 1.51D-04  0.00D+00 EMaxC= 1.00D-01 BMatC= 1.64D-06 BMatP= 3.69D-06
 IDIUse=3 WtCom= 9.98D-01 WtEn= 1.51D-03
 EnCoef did     4 forward-backward iterations
 Coeff-Com: -0.230D+00 0.263D+00-0.207D-01-0.385D-01-0.177D+00-0.144D+00
 Coeff-Com: -0.191D-01 0.234D+00 0.294D+00 0.838D+00
 Coeff-En:   0.000D+00 0.000D+00 0.587D-01 0.852D-01 0.000D+00 0.000D+00
 Coeff-En:   0.000D+00 0.000D+00 0.000D+00 0.856D+00
 Coeff:     -0.230D+00 0.262D+00-0.205D-01-0.383D-01-0.177D+00-0.144D+00
 Coeff:     -0.191D-01 0.234D+00 0.294D+00 0.838D+00
 Gap=     0.082 Goal=   None    Shift=    0.000
 RMSDP=2.96D-05 MaxDP=2.83D-03 DE=-3.29D-06 OVMax= 5.13D-04

 Cycle  11  Pass 1  IDiag  1:
 E= -86.8781400349215     Delta-E=       -0.000001764977 Rises=F Damp=F
 DIIS: error= 8.63D-05 at cycle  11 NSaved=  11.
 NSaved=11 IEnMin=11 EnMin= -86.8781400349215     IErMin=11 ErrMin= 8.63D-05
 ErrMax= 8.63D-05  0.00D+00 EMaxC= 1.00D-01 BMatC= 5.44D-07 BMatP= 1.64D-06
 IDIUse=1 WtCom= 1.00D+00 WtEn= 0.00D+00
 Coeff-Com: -0.877D-01 0.100D+00 0.191D-02-0.915D-02-0.964D-01-0.108D+00
 Coeff-Com: -0.896D-01-0.543D-01-0.329D-02 0.748D+00 0.598D+00
 Coeff:     -0.877D-01 0.100D+00 0.191D-02-0.915D-02-0.964D-01-0.108D+00
 Coeff:     -0.896D-01-0.543D-01-0.329D-02 0.748D+00 0.598D+00
 Gap=     0.082 Goal=   None    Shift=    0.000
 RMSDP=2.43D-05 MaxDP=2.30D-03 DE=-1.76D-06 OVMax= 4.15D-04

 Cycle  12  Pass 1  IDiag  1:
 E= -86.8781407776810     Delta-E=       -0.000000742760 Rises=F Damp=F
 DIIS: error= 3.35D-05 at cycle  12 NSaved=  12.
 NSaved=12 IEnMin=12 EnMin= -86.8781407776810     IErMin=12 ErrMin= 3.35D-05
 ErrMax= 3.35D-05  0.00D+00 EMaxC= 1.00D-01 BMatC= 8.04D-08 BMatP= 5.44D-07
 IDIUse=1 WtCom= 1.00D+00 WtEn= 0.00D+00
 Coeff-Com:  0.899D-02-0.103D-01 0.371D-02 0.469D-02 0.151D-01 0.215D-02
 Coeff-Com: -0.236D-01-0.627D-01-0.639D-01-0.166D+00 0.121D+00 0.117D+01
 Coeff:      0.899D-02-0.103D-01 0.371D-02 0.469D-02 0.151D-01 0.215D-02
 Coeff:     -0.236D-01-0.627D-01-0.639D-01-0.166D+00 0.121D+00 0.117D+01
 Gap=     0.082 Goal=   None    Shift=    0.000
 RMSDP=1.58D-05 MaxDP=1.46D-03 DE=-7.43D-07 OVMax= 2.74D-04

 Cycle  13  Pass 1  IDiag  1:
 E= -86.8781409051242     Delta-E=       -0.000000127443 Rises=F Damp=F
 DIIS: error= 3.40D-06 at cycle  13 NSaved=  13.
 NSaved=13 IEnMin=13 EnMin= -86.8781409051242     IErMin=13 ErrMin= 3.40D-06
 ErrMax= 3.40D-06  0.00D+00 EMaxC= 1.00D-01 BMatC= 8.68D-10 BMatP= 8.04D-08
 IDIUse=1 WtCom= 1.00D+00 WtEn= 0.00D+00
 Coeff-Com:  0.525D-02-0.600D-02 0.677D-03 0.194D-02 0.135D-01 0.101D-01
 Coeff-Com: -0.127D-03-0.134D-01-0.189D-01-0.153D+00 0.985D-03 0.602D+00
 Coeff-Com:  0.557D+00
 Coeff:      0.525D-02-0.600D-02 0.677D-03 0.194D-02 0.135D-01 0.101D-01
 Coeff:     -0.127D-03-0.134D-01-0.189D-01-0.153D+00 0.985D-03 0.602D+00
 Coeff:      0.557D+00
 Gap=     0.082 Goal=   None    Shift=    0.000
 RMSDP=7.16D-07 MaxDP=5.58D-05 DE=-1.27D-07 OVMax= 3.80D-05

 Cycle  14  Pass 1  IDiag  1:
 E= -86.8781409058164     Delta-E=       -0.000000000692 Rises=F Damp=F
 DIIS: error= 1.97D-06 at cycle  14 NSaved=  14.
 NSaved=14 IEnMin=14 EnMin= -86.8781409058164     IErMin=14 ErrMin= 1.97D-06
 ErrMax= 1.97D-06  0.00D+00 EMaxC= 1.00D-01 BMatC= 4.11D-10 BMatP= 8.68D-10
 IDIUse=1 WtCom= 1.00D+00 WtEn= 0.00D+00
 Coeff-Com:  0.850D-03-0.971D-03-0.630D-03 0.256D-03 0.799D-02 0.919D-02
 Coeff-Com:  0.780D-02 0.753D-02 0.199D-02-0.989D-01-0.336D-01 0.250D+00
 Coeff-Com:  0.558D+00 0.291D+00
 Coeff:      0.850D-03-0.971D-03-0.630D-03 0.256D-03 0.799D-02 0.919D-02
 Coeff:      0.780D-02 0.753D-02 0.199D-02-0.989D-01-0.336D-01 0.250D+00
 Coeff:      0.558D+00 0.291D+00
 Gap=     0.082 Goal=   None    Shift=    0.000
 RMSDP=7.23D-07 MaxDP=6.01D-05 DE=-6.92D-10 OVMax= 2.94D-05

 Cycle  15  Pass 1  IDiag  1:
 E= -86.8781409065162     Delta-E=       -0.000000000700 Rises=F Damp=F
 DIIS: error= 2.97D-07 at cycle  15 NSaved=  15.
 NSaved=15 IEnMin=15 EnMin= -86.8781409065162     IErMin=15 ErrMin= 2.97D-07
 ErrMax= 2.97D-07  0.00D+00 EMaxC= 1.00D-01 BMatC= 1.19D-11 BMatP= 4.11D-10
 IDIUse=1 WtCom= 1.00D+00 WtEn= 0.00D+00
 Coeff-Com: -0.296D-02 0.339D-02-0.756D-03-0.743D-03-0.130D-02 0.178D-02
 Coeff-Com:  0.587D-02 0.960D-02 0.694D-02 0.389D-02-0.171D-01-0.721D-01
 Coeff-Com:  0.124D+00 0.164D+00 0.775D+00
 Coeff:     -0.296D-02 0.339D-02-0.756D-03-0.743D-03-0.130D-02 0.178D-02
 Coeff:      0.587D-02 0.960D-02 0.694D-02 0.389D-02-0.171D-01-0.721D-01
 Coeff:      0.124D+00 0.164D+00 0.775D+00
 Gap=     0.082 Goal=   None    Shift=    0.000
 RMSDP=5.63D-07 MaxDP=4.42D-05 DE=-7.00D-10 OVMax= 1.35D-05

 Cycle  16  Pass 1  IDiag  1:
 E= -86.8781409063977     Delta-E=        0.000000000119 Rises=F Damp=F
 DIIS: error= 1.12D-06 at cycle  16 NSaved=  16.
 NSaved=16 IEnMin=15 EnMin= -86.8781409065162     IErMin=15 ErrMin= 2.97D-07
 ErrMax= 1.12D-06  0.00D+00 EMaxC= 1.00D-01 BMatC= 9.14D-11 BMatP= 1.19D-11
 IDIUse=1 WtCom= 1.00D+00 WtEn= 0.00D+00
 Coeff-Com: -0.218D-02 0.250D-02-0.293D-03-0.467D-03-0.243D-02-0.953D-03
 Coeff-Com:  0.150D-02 0.299D-02 0.236D-02 0.193D-01-0.206D-02-0.799D-01
 Coeff-Com: -0.343D-01 0.295D-01 0.361D+00 0.703D+00
 Coeff:     -0.218D-02 0.250D-02-0.293D-03-0.467D-03-0.243D-02-0.953D-03
 Coeff:      0.150D-02 0.299D-02 0.236D-02 0.193D-01-0.206D-02-0.799D-01
 Coeff:     -0.343D-01 0.295D-01 0.361D+00 0.703D+00
 Gap=     0.082 Goal=   None    Shift=    0.000
 RMSDP=1.01D-07 MaxDP=8.02D-06 DE= 1.19D-10 OVMax= 3.41D-06

 Cycle  17  Pass 1  IDiag  1:
 E= -86.8781409064641     Delta-E=       -0.000000000066 Rises=F Damp=F
 DIIS: error= 8.23D-07 at cycle  17 NSaved=  17.
 NSaved=17 IEnMin=15 EnMin= -86.8781409065162     IErMin=15 ErrMin= 2.97D-07
 ErrMax= 8.23D-07  0.00D+00 EMaxC= 1.00D-01 BMatC= 5.04D-11 BMatP= 1.19D-11
 IDIUse=1 WtCom= 1.00D+00 WtEn= 0.00D+00
 Coeff-Com: -0.162D-02 0.186D-02-0.141D-03-0.312D-03-0.210D-02-0.127D-02
 Coeff-Com:  0.290D-03 0.925D-03 0.784D-03 0.169D-01 0.142D-02-0.603D-01
 Coeff-Com: -0.531D-01-0.223D-02 0.189D+00 0.609D+00 0.301D+00
 Coeff:     -0.162D-02 0.186D-02-0.141D-03-0.312D-03-0.210D-02-0.127D-02
 Coeff:      0.290D-03 0.925D-03 0.784D-03 0.169D-01 0.142D-02-0.603D-01
 Coeff:     -0.531D-01-0.223D-02 0.189D+00 0.609D+00 0.301D+00
 Gap=     0.082 Goal=   None    Shift=    0.000
 RMSDP=9.49D-08 MaxDP=8.01D-06 DE=-6.64D-11 OVMax= 2.94D-06

 Cycle  18  Pass 1  IDiag  1:
 E= -86.8781409065016     Delta-E=       -0.000000000038 Rises=F Damp=F
 DIIS: error= 6.12D-07 at cycle  18 NSaved=  18.
 NSaved=18 IEnMin=15 EnMin= -86.8781409065162     IErMin=15 ErrMin= 2.97D-07
 ErrMax= 6.12D-07  0.00D+00 EMaxC= 1.00D-01 BMatC= 2.76D-11 BMatP= 1.19D-11
 IDIUse=1 WtCom= 1.00D+00 WtEn= 0.00D+00
 Coeff-Com: -0.457D-03 0.522D-03 0.478D-04-0.241D-04-0.666D-03-0.815D-03
 Coeff-Com: -0.857D-03-0.142D-02-0.120D-02 0.370D-02 0.381D-02-0.422D-02
 Coeff-Com: -0.297D-01-0.243D-01-0.772D-01 0.427D-01 0.281D+00 0.809D+00
 Coeff:     -0.457D-03 0.522D-03 0.478D-04-0.241D-04-0.666D-03-0.815D-03
 Coeff:     -0.857D-03-0.142D-02-0.120D-02 0.370D-02 0.381D-02-0.422D-02
 Coeff:     -0.297D-01-0.243D-01-0.772D-01 0.427D-01 0.281D+00 0.809D+00
 Gap=     0.082 Goal=   None    Shift=    0.000
 RMSDP=2.11D-07 MaxDP=2.09D-05 DE=-3.75D-11 OVMax= 3.94D-06

 Cycle  19  Pass 1  IDiag  1:
 E= -86.8781409065429     Delta-E=       -0.000000000041 Rises=F Damp=F
 DIIS: error= 1.75D-07 at cycle  19 NSaved=  19.
 NSaved=19 IEnMin=19 EnMin= -86.8781409065429     IErMin=19 ErrMin= 1.75D-07
 ErrMax= 1.75D-07  0.00D+00 EMaxC= 1.00D-01 BMatC= 2.28D-12 BMatP= 1.19D-11
 IDIUse=1 WtCom= 1.00D+00 WtEn= 0.00D+00
 Coeff-Com:  0.294D-04-0.336D-04 0.157D-04 0.477D-04 0.391D-03 0.301D-03
 Coeff-Com: -0.191D-04-0.547D-03-0.756D-03-0.484D-02 0.155D-02 0.251D-01
 Coeff-Com:  0.205D-01-0.206D-02-0.103D+00-0.367D+00-0.154D+00 0.148D+00
 Coeff-Com:  0.144D+01
 Coeff:      0.294D-04-0.336D-04 0.157D-04 0.477D-04 0.391D-03 0.301D-03
 Coeff:     -0.191D-04-0.547D-03-0.756D-03-0.484D-02 0.155D-02 0.251D-01
 Coeff:      0.205D-01-0.206D-02-0.103D+00-0.367D+00-0.154D+00 0.148D+00
 Coeff:      0.144D+01
 Gap=     0.082 Goal=   None    Shift=    0.000
 RMSDP=7.73D-08 MaxDP=6.72D-06 DE=-4.14D-11 OVMax= 2.66D-06

 Cycle  20  Pass 1  IDiag  1:
 E= -86.8781409065473     Delta-E=       -0.000000000004 Rises=F Damp=F
 DIIS: error= 3.49D-08 at cycle  20 NSaved=  20.
 NSaved=20 IEnMin=20 EnMin= -86.8781409065473     IErMin=20 ErrMin= 3.49D-08
 ErrMax= 3.49D-08  0.00D+00 EMaxC= 1.00D-01 BMatC= 8.57D-14 BMatP= 2.28D-12
 IDIUse=1 WtCom= 1.00D+00 WtEn= 0.00D+00
 Coeff-Com: -0.302D-04 0.345D-04-0.239D-04 0.107D-04 0.315D-03 0.443D-03
 Coeff-Com:  0.404D-03 0.109D-03-0.257D-03-0.334D-02 0.556D-03 0.170D-01
 Coeff-Com:  0.234D-01 0.688D-02-0.439D-01-0.281D+00-0.214D+00-0.176D+00
 Coeff-Com:  0.112D+01 0.551D+00
 Coeff:     -0.302D-04 0.345D-04-0.239D-04 0.107D-04 0.315D-03 0.443D-03
 Coeff:      0.404D-03 0.109D-03-0.257D-03-0.334D-02 0.556D-03 0.170D-01
 Coeff:      0.234D-01 0.688D-02-0.439D-01-0.281D+00-0.214D+00-0.176D+00
 Coeff:      0.112D+01 0.551D+00
 Gap=     0.082 Goal=   None    Shift=    0.000
 RMSDP=1.66D-08 MaxDP=1.41D-06 DE=-4.36D-12 OVMax= 1.09D-06

 Cycle  21  Pass 1  IDiag  1:
 E= -86.8781409065474     Delta-E=       -0.000000000000 Rises=F Damp=F
 DIIS: error= 3.22D-08 at cycle  21 NSaved=  20.
 NSaved=20 IEnMin=20 EnMin= -86.8781409065474     IErMin=20 ErrMin= 3.22D-08
 ErrMax= 3.22D-08  0.00D+00 EMaxC= 1.00D-01 BMatC= 6.32D-14 BMatP= 8.57D-14
 IDIUse=1 WtCom= 1.00D+00 WtEn= 0.00D+00
 Coeff-Com: -0.299D-11-0.261D-04-0.850D-05 0.670D-04 0.294D-03 0.456D-03
 Coeff-Com:  0.227D-03-0.111D-03 0.657D-04 0.813D-04 0.107D-02 0.101D-01
 Coeff-Com:  0.805D-02 0.221D-01-0.470D-01-0.123D+00-0.294D+00 0.186D+00
 Coeff-Com:  0.619D+00 0.617D+00
 Coeff:     -0.299D-11-0.261D-04-0.850D-05 0.670D-04 0.294D-03 0.456D-03
 Coeff:      0.227D-03-0.111D-03 0.657D-04 0.813D-04 0.107D-02 0.101D-01
 Coeff:      0.805D-02 0.221D-01-0.470D-01-0.123D+00-0.294D+00 0.186D+00
 Coeff:      0.619D+00 0.617D+00
 Gap=     0.082 Goal=   None    Shift=    0.000
 RMSDP=1.08D-08 MaxDP=8.68D-07 DE=-9.95D-14 OVMax= 1.01D-06

 Cycle  22  Pass 1  IDiag  1:
 E= -86.8781409065478     Delta-E=       -0.000000000000 Rises=F Damp=F
 DIIS: error= 5.86D-09 at cycle  22 NSaved=  20.
 NSaved=20 IEnMin=20 EnMin= -86.8781409065478     IErMin=20 ErrMin= 5.86D-09
 ErrMax= 5.86D-09  0.00D+00 EMaxC= 1.00D-01 BMatC= 2.45D-15 BMatP= 6.32D-14
 IDIUse=1 WtCom= 1.00D+00 WtEn= 0.00D+00
 Large coefficients: NSaved= 20 BigCof=    0.00 CofMax=   10.00 Det=-8.58D-15
 Inversion failed.  Reducing to 19 matrices.
 Large coefficients: NSaved= 19 BigCof=    0.00 CofMax=   10.00 Det=-9.15D-15
 Inversion failed.  Reducing to 18 matrices.
 Coeff-Com: -0.336D-04 0.172D-04 0.580D-04-0.571D-04-0.116D-03 0.705D-03
 Coeff-Com:  0.171D-03-0.231D-02-0.157D-02 0.860D-03 0.136D-01 0.349D-01
 Coeff-Com:  0.474D-02-0.459D-01-0.167D+00 0.716D-01 0.182D+00 0.908D+00
 Coeff:     -0.336D-04 0.172D-04 0.580D-04-0.571D-04-0.116D-03 0.705D-03
 Coeff:      0.171D-03-0.231D-02-0.157D-02 0.860D-03 0.136D-01 0.349D-01
 Coeff:      0.474D-02-0.459D-01-0.167D+00 0.716D-01 0.182D+00 0.908D+00
 Gap=     0.082 Goal=   None    Shift=    0.000
 RMSDP=3.36D-09 MaxDP=4.40D-07 DE=-4.12D-13 OVMax= 3.36D-07

 SCF Done:  E(ROHF) =  -86.8781409065     A.U. after   22 cycles
            NFock= 22  Conv=0.34D-08     -V/T= 2.8819
 <Sx>= 0.0000 <Sy>= 0.0000 <Sz>= 2.5000 <S**2>= 8.7500 S= 2.5000
 <L.S>=  0.00000000000    
 KE= 4.616400829867D+01 PE=-2.037779698159D+02 EE= 6.683662010917D+01
 Annihilation of the first spin contaminant:
 S**2 before annihilation     8.7500,   after     8.7500
 Leave Link  502 at Mon Feb 26 15:37:11 2018, MaxMem=  8589934592 cpu:             968.2 elap:              68.1
 (Enter /home1/apps/gaussian/16rA.03/g16/l801.exe)
 Windowed orbitals will be sorted by symmetry type.
 GenMOA:  NOpAll=  4 NOp2=4 NOpUse=  4 JSym2X=1
 FoFJK:  IHMeth= 1 ICntrl=       0 DoSepK=F KAlg= 0 I1Cent=           0 FoldK=F
 IRaf=         0 NMat=       1 IRICut=       1 DoRegI=T DoRafI=F ISym2E= 1 IDoP0=0 IntGTp=1.
 FoFCou: FMM=F IPFlag=           8 FMFlag=      100000 FMFlg1=           0
         NFxFlg=           0 DoJE=F BraDBF=F KetDBF=F FulRan=T
         wScrn=  0.000000 ICntrl=         0 IOpCl=  1 I1Cent=           0 NGrid=           0
         NMat0=    1 NMatS0=      1 NMatT0=    0 NMatD0=    1 NMtDS0=    0 NMtDT0=    0
 Petite list used in FoFCou.
 <Sx>= 0.0000 <Sy>= 0.0000 <Sz>= 2.5000 <S**2>= 8.7500 S= 2.5000
 Range of M.O.s used for correlation:     1   306
 NBasis=   310 NAE=    10 NBE=     5 NFC=     0 NFV=     0
 NROrb=    306 NOA=    10 NOB=     5 NVA=   296 NVB=   301

 **** Warning!!: The largest alpha MO coefficient is  0.31624500D+03


 **** Warning!!: The largest beta MO coefficient is  0.31589850D+03

 Singles contribution to E2=   -0.3397792677D-02
 Leave Link  801 at Mon Feb 26 15:37:30 2018, MaxMem=  8589934592 cpu:             302.0 elap:              18.9
 (Enter /home1/apps/gaussian/16rA.03/g16/l804.exe)
 Open-shell transformation, MDV=  8589934592 ITran=4 ISComp=2.
 Unit  1 TFree=       2913416 TCopy=       2133466.
 Semi-Direct transformation.
 ModeAB=           2 MOrb=            10 LenV=    8587015462
 LASXX=     35609842 LTotXX=    35609842 LenRXX=    35609842
 LTotAB=    36064058 MaxLAS=   247869180 LenRXY=   247869180
 NonZer=   252394920 LenScr=   380078080 LnRSAI=           0
 LnScr1=           0 LExtra=     9116722 Total=    672673824
 MaxDsk= 67108864000 SrtSym=           F ITran=            4
 DoSDTr:  NPSUse= 16
 JobTyp=1 Pass  1:  I=   1 to  10.
 (rs|ai) integrals will be sorted in core.
 Complete sort for first half transformation.
 First half transformation complete.
 Begin second half transformation for I=  10.
 Begin second half transformation for I=  10.
 Complete sort for second half transformation.
 Second half transformation complete.
 ModeAB=           2 MOrb=             5 LenV=    8587015462
 LASXX=     18115288 LTotXX=    18115288 LenRXX=   123934590
 LTotAB=    17153940 MaxLAS=   123934590 LenRXY=    17153940
 NonZer=   126197460 LenScr=   190068736 LnRSAI=           0
 LnScr1=           0 LExtra=   292595744 Total=    623753010
 MaxDsk= 67108864000 SrtSym=           F ITran=            4
 DoSDTr:  NPSUse= 16
 JobTyp=2 Pass  1:  I=   1 to   5.
 (rs|ai) integrals will be sorted in core.
 Complete sort for first half transformation.
 First half transformation complete.
 Complete sort for second half transformation.
 Second half transformation complete.
 Spin components of T(2) and E(2):
     alpha-alpha T2 =       0.2478377165D-01 E2=     -0.1307658895D+00
     alpha-beta  T2 =       0.5734407173D-01 E2=     -0.3776687648D+00
     beta-beta   T2 =       0.6656282260D-02 E2=     -0.4032269263D-01
 ANorm=    0.1044095665D+01
 E2 =    -0.5521551395D+00 EUMP2 =    -0.87430296046086D+02
 (S**2,0)=  0.87500D+01           (S**2,1)=  0.87500D+01
 E(PUHF)=      -0.86878140907D+02        E(PMP2)=      -0.87430296046D+02
 Recovering and transforming amplitudes from chk file.
 B after Tr=     0.000000    0.000000    0.000000
         Rot=    1.000000    0.000000    0.000000    0.000000 Ang=   0.00 deg.
 Alpha occ  Sing. vals= 9.999998D-01 9.999998D-01 9.999997D-01 9.999997D-01 9.999950D-01 9.999950D-01 9.999934D-01 9.999934D-01 9.999905D-01 9.999588D-01
 Alpha occ  NOrbO=    10 NOrbN=    10 NSVal=    10 ThrEig=  0.900000.
 TrMax= 1.000000D+00 PrMax= 1.000000D+00 Trace(Pr)= 1.000000D+01
 B after Tr=     0.000000    0.000000    0.000000
         Rot=    1.000000    0.000000    0.000000    0.000000 Ang=   0.00 deg.
 Alpha virt Sing. vals= 1.000000D+00 1.000000D+00 1.000000D+00 1.000000D+00 1.000000D+00 1.000000D+00 1.000000D+00 1.000000D+00 1.000000D+00 1.000000D+00
 Alpha virt Sing. vals= 1.000000D+00 1.000000D+00 1.000000D+00 1.000000D+00 1.000000D+00 1.000000D+00 1.000000D+00 1.000000D+00 1.000000D+00 1.000000D+00
 Alpha virt Sing. vals= 1.000000D+00 9.999999D-01 9.999999D-01 9.999999D-01 9.999999D-01 9.999999D-01 9.999999D-01 9.999999D-01 9.999997D-01 9.999996D-01
 Alpha virt Sing. vals= 9.999996D-01 9.999995D-01 9.999995D-01 9.999995D-01 9.999995D-01 9.999994D-01 9.999990D-01 9.999989D-01 9.999989D-01 9.999986D-01
 Alpha virt Sing. vals= 9.999980D-01 9.999978D-01 9.999978D-01 9.999978D-01 9.999978D-01 9.999958D-01 9.999947D-01 9.999947D-01 9.999909D-01 9.999892D-01
 Alpha virt Sing. vals= 9.999814D-01 9.999752D-01 9.999752D-01 9.999752D-01 9.999752D-01 9.999747D-01 9.999569D-01 9.999533D-01 9.999405D-01 9.999377D-01
 Alpha virt Sing. vals= 9.999377D-01 9.999322D-01 9.999322D-01 9.999201D-01 9.999201D-01 9.998605D-01 9.998590D-01 9.998590D-01 9.998441D-01 9.998441D-01
 Alpha virt Sing. vals= 9.998250D-01 9.998245D-01 9.998245D-01 9.998243D-01 9.998141D-01 9.997943D-01 9.997926D-01 9.997926D-01 9.997926D-01 9.997926D-01
 Alpha virt Sing. vals= 9.997890D-01 9.997725D-01 9.997725D-01 9.997548D-01 9.997548D-01 9.997543D-01 9.997543D-01 9.996642D-01 9.995651D-01 9.994922D-01
 Alpha virt Sing. vals= 9.994583D-01 9.994583D-01 9.993912D-01 9.993912D-01 9.993723D-01 9.993723D-01 9.993710D-01 9.993710D-01 9.993452D-01 9.992408D-01
 Alpha virt Sing. vals= 9.991288D-01 9.991288D-01 9.990303D-01 9.988849D-01 9.988849D-01 9.986360D-01 9.985840D-01 9.985840D-01 9.984489D-01 9.984489D-01
 Alpha virt Sing. vals= 9.981806D-01 9.981584D-01 9.981584D-01 9.977224D-01 9.976585D-01 9.976585D-01 9.975767D-01 9.975767D-01 9.973350D-01 9.973350D-01
 Alpha virt Sing. vals= 9.972528D-01 9.970035D-01 9.970035D-01 9.964466D-01 9.964466D-01 9.964277D-01 9.963905D-01 9.963905D-01 9.963677D-01 9.963677D-01
 Alpha virt Sing. vals= 9.961579D-01 9.956850D-01 9.956850D-01 9.956849D-01 9.948028D-01 9.942899D-01 9.942635D-01 9.942635D-01 9.940135D-01 9.940135D-01
 Alpha virt Sing. vals= 9.939795D-01 9.939795D-01 9.938533D-01 9.938533D-01 9.925769D-01 9.908869D-01 9.892558D-01 9.892558D-01 9.891817D-01 9.842094D-01
 Alpha virt Sing. vals= 9.842094D-01 9.813531D-01 9.809009D-01 9.809009D-01 9.805132D-01 9.805132D-01 9.792679D-01 9.792679D-01 9.783350D-01 9.771871D-01
 Alpha virt Sing. vals= 9.756185D-01 9.756185D-01 9.706936D-01 9.700077D-01 9.700077D-01 9.697564D-01 9.697564D-01 9.657370D-01 9.602571D-01 9.602571D-01
 Alpha virt Sing. vals= 9.538449D-01 9.538449D-01 9.420389D-01 9.399978D-01 9.399977D-01 9.399977D-01 9.360045D-01 9.241156D-01 9.241156D-01 9.223710D-01
 Alpha virt Sing. vals= 9.223710D-01 9.204502D-01 9.204502D-01 9.199208D-01 9.199208D-01 9.061185D-01 8.912701D-01 8.567528D-01 8.535842D-01 8.535842D-01
 Alpha virt Sing. vals= 8.490544D-01 8.490544D-01 8.484356D-01 8.484356D-01 8.465956D-01 7.618859D-01
 Alpha virt NOrbO=   196 NOrbN=   296 NSVal=   186 ThrEig=  0.900000.
 TrMax= 9.984769D-01 PrMax= 9.993790D-01 Trace(Pr)= 1.860000D+02
 B after Tr=     0.000000    0.000000    0.000000
         Rot=    1.000000    0.000000    0.000000    0.000000 Ang=   0.00 deg.
 Beta  occ  Sing. vals= 9.999998D-01 9.999998D-01 9.999997D-01 9.999996D-01 9.999745D-01
 Beta  occ  NOrbO=     5 NOrbN=     5 NSVal=     5 ThrEig=  0.900000.
 TrMax= 1.000000D+00 PrMax= 1.000000D+00 Trace(Pr)= 5.000000D+00
 B after Tr=     0.000000    0.000000    0.000000
         Rot=    1.000000    0.000000    0.000000    0.000000 Ang=   0.00 deg.
 Beta  virt Sing. vals= 1.000000D+00 1.000000D+00 1.000000D+00 1.000000D+00 1.000000D+00 1.000000D+00 1.000000D+00 1.000000D+00 1.000000D+00 1.000000D+00
 Beta  virt Sing. vals= 1.000000D+00 1.000000D+00 1.000000D+00 1.000000D+00 1.000000D+00 1.000000D+00 1.000000D+00 1.000000D+00 1.000000D+00 1.000000D+00
 Beta  virt Sing. vals= 1.000000D+00 1.000000D+00 1.000000D+00 1.000000D+00 1.000000D+00 1.000000D+00 9.999999D-01 9.999999D-01 9.999999D-01 9.999999D-01
 Beta  virt Sing. vals= 9.999999D-01 9.999999D-01 9.999997D-01 9.999997D-01 9.999996D-01 9.999996D-01 9.999994D-01 9.999994D-01 9.999994D-01 9.999994D-01
 Beta  virt Sing. vals= 9.999994D-01 9.999992D-01 9.999989D-01 9.999989D-01 9.999989D-01 9.999980D-01 9.999978D-01 9.999978D-01 9.999978D-01 9.999978D-01
 Beta  virt Sing. vals= 9.999961D-01 9.999947D-01 9.999947D-01 9.999918D-01 9.999893D-01 9.999817D-01 9.999749D-01 9.999749D-01 9.999748D-01 9.999748D-01
 Beta  virt Sing. vals= 9.999747D-01 9.999562D-01 9.999533D-01 9.999406D-01 9.999375D-01 9.999375D-01 9.999320D-01 9.999320D-01 9.999193D-01 9.999193D-01
 Beta  virt Sing. vals= 9.998605D-01 9.998590D-01 9.998590D-01 9.998439D-01 9.998439D-01 9.998250D-01 9.998245D-01 9.998245D-01 9.998243D-01 9.998142D-01
 Beta  virt Sing. vals= 9.997942D-01 9.997926D-01 9.997926D-01 9.997925D-01 9.997925D-01 9.997890D-01 9.997725D-01 9.997725D-01 9.997548D-01 9.997548D-01
 Beta  virt Sing. vals= 9.997543D-01 9.997543D-01 9.996647D-01 9.995643D-01 9.994920D-01 9.994583D-01 9.994583D-01 9.993912D-01 9.993912D-01 9.993723D-01
 Beta  virt Sing. vals= 9.993723D-01 9.993710D-01 9.993710D-01 9.993452D-01 9.992412D-01 9.991286D-01 9.991286D-01 9.990305D-01 9.988839D-01 9.988839D-01
 Beta  virt Sing. vals= 9.986360D-01 9.985811D-01 9.985811D-01 9.984479D-01 9.984479D-01 9.981806D-01 9.981584D-01 9.981584D-01 9.977224D-01 9.976584D-01
 Beta  virt Sing. vals= 9.976584D-01 9.975767D-01 9.975767D-01 9.973350D-01 9.973350D-01 9.972525D-01 9.970035D-01 9.970035D-01 9.964466D-01 9.964466D-01
 Beta  virt Sing. vals= 9.964277D-01 9.963905D-01 9.963905D-01 9.963677D-01 9.963677D-01 9.961579D-01 9.956850D-01 9.956850D-01 9.956849D-01 9.948029D-01
 Beta  virt Sing. vals= 9.942894D-01 9.942635D-01 9.942635D-01 9.940135D-01 9.940135D-01 9.939795D-01 9.939795D-01 9.938532D-01 9.938532D-01 9.925770D-01
 Beta  virt Sing. vals= 9.908848D-01 9.892557D-01 9.892557D-01 9.891817D-01 9.842094D-01 9.842094D-01 9.813528D-01 9.809009D-01 9.809009D-01 9.805130D-01
 Beta  virt Sing. vals= 9.805130D-01 9.792679D-01 9.792679D-01 9.783349D-01 9.771872D-01 9.756185D-01 9.756185D-01 9.706933D-01 9.700072D-01 9.700072D-01
 Beta  virt Sing. vals= 9.697562D-01 9.697562D-01 9.657370D-01 9.602569D-01 9.602569D-01 9.538444D-01 9.538444D-01 9.420396D-01 9.399978D-01 9.399977D-01
 Beta  virt Sing. vals= 9.399977D-01 9.360048D-01 9.241156D-01 9.241156D-01 9.223710D-01 9.223710D-01 9.204502D-01 9.204502D-01 9.199208D-01 9.199208D-01
 Beta  virt Sing. vals= 9.061188D-01 8.912698D-01 8.567521D-01 8.535841D-01 8.535841D-01 8.490544D-01 8.490544D-01 8.484354D-01 8.484354D-01 8.465973D-01
 Beta  virt Sing. vals= 7.618860D-01
 Beta  virt NOrbO=   201 NOrbN=   301 NSVal=   191 ThrEig=  0.900000.
 TrMax= 9.971993D-01 PrMax= 9.986139D-01 Trace(Pr)= 1.910000D+02
 Leave Link  804 at Mon Feb 26 15:45:18 2018, MaxMem=  8589934592 cpu:            7477.4 elap:             467.8
 (Enter /home1/apps/gaussian/16rA.03/g16/l913.exe)
 CIDS:  MDV=  8589934592.
 IFCWin=0 IBDFC=1 NFBD=     0     0 NFCmp=     0     0 NFFFC=     0     0
 Amplitudes recovered.
 Using DD4UQ or CC4UQ for all iterations.
 Keep R2 and R3 ints in memory in symmetry-blocked form, NReq=1456566172.
 FoFCou: FMM=F IPFlag=           8 FMFlag=           0 FMFlg1=           0
         NFxFlg=           0 DoJE=F BraDBF=F KetDBF=F FulRan=T
         wScrn=  0.000000 ICntrl=       600 IOpCl=  0 I1Cent=           0 NGrid=           0
         NMat0=    1 NMatS0=  48205 NMatT0=    0 NMatD0=    1 NMtDS0=    0 NMtDT0=    0
 Petite list used in FoFCou.
 CIDS: In Core Option IDoMem=           1.
 CCSD(T)
 =======
 Iterations= 150 Convergence= 0.100D-06
 Produce multiple copies of IABC intergrals
 Iteration Nr.   1
 **********************
 DD1Dir will call FoFMem   1 times, MxPair=       156
 NAB=    50 NAA=    45 NBB=    10.
 Maximum subspace dimension=  5
 A-vector RMS=  1.8513872D-04 Max=  2.0372730D-03 conv= 1.00D-05.
 RLE energy=       -0.5568040909
 DE(Corr)= -0.58525980     E(Corr)=     -87.463400702    
 NORM(A)=   0.10574103D+01
 Iteration Nr.   2
 **********************
 DD1Dir will call FoFMem   1 times, MxPair=       156
 NAB=    50 NAA=    45 NBB=    10.
 A-vector RMS=  2.3404866D-03 Max=  4.2797877D-02 conv= 1.00D-05.
 RLE energy=       -0.5574903621
 DE(Corr)= -0.55720537     E(CORR)=     -87.435346279     Delta= 2.81D-02
 NORM(A)=   0.10754058D+01
 Iteration Nr.   3
 **********************
 DD1Dir will call FoFMem   1 times, MxPair=       156
 NAB=    50 NAA=    45 NBB=    10.
 A-vector RMS=  8.6383324D-04 Max=  2.3827888D-02 conv= 1.00D-05.
 RLE energy=       -0.5703012385
 DE(Corr)= -0.56768624     E(CORR)=     -87.445827144     Delta=-1.05D-02
 NORM(A)=   0.10950668D+01
 Iteration Nr.   4
 **********************
 DD1Dir will call FoFMem   1 times, MxPair=       156
 NAB=    50 NAA=    45 NBB=    10.
 A-vector RMS=  1.2130561D-03 Max=  2.9690852D-02 conv= 1.00D-05.
 RLE energy=       -0.5756870701
 DE(Corr)= -0.56961241     E(CORR)=     -87.447753317     Delta=-1.93D-03
 NORM(A)=   0.11476879D+01
 Iteration Nr.   5
 **********************
 DD1Dir will call FoFMem   1 times, MxPair=       156
 NAB=    50 NAA=    45 NBB=    10.
 A-vector RMS=  7.7917429D-04 Max=  1.8874830D-02 conv= 1.00D-05.
 RLE energy=       -0.5826509727
 DE(Corr)= -0.57550420     E(CORR)=     -87.453645110     Delta=-5.89D-03
 NORM(A)=   0.12795863D+01
 Iteration Nr.   6
 **********************
 DD1Dir will call FoFMem   1 times, MxPair=       156
 NAB=    50 NAA=    45 NBB=    10.
 A-vector RMS=  6.9272691D-04 Max=  1.3098887D-02 conv= 1.00D-05.
 RLE energy=       -0.5846074403
 DE(Corr)= -0.58234231     E(CORR)=     -87.460483212     Delta=-6.84D-03
 NORM(A)=   0.13564045D+01
 Iteration Nr.   7
 **********************
 DD1Dir will call FoFMem   1 times, MxPair=       156
 NAB=    50 NAA=    45 NBB=    10.
 A-vector RMS=  4.9530264D-04 Max=  6.2578987D-03 conv= 1.00D-05.
 RLE energy=       -0.5842994557
 DE(Corr)= -0.58459840     E(CORR)=     -87.462739308     Delta=-2.26D-03
 NORM(A)=   0.13822214D+01
 Iteration Nr.   8
 **********************
 DD1Dir will call FoFMem   1 times, MxPair=       156
 NAB=    50 NAA=    45 NBB=    10.
 A-vector RMS=  2.6587145D-04 Max=  4.4376011D-03 conv= 1.00D-05.
 RLE energy=       -0.5864631517
 DE(Corr)= -0.58499491     E(CORR)=     -87.463135817     Delta=-3.97D-04
 NORM(A)=   0.14255456D+01
 Iteration Nr.   9
 **********************
 DD1Dir will call FoFMem   1 times, MxPair=       156
 NAB=    50 NAA=    45 NBB=    10.
 A-vector RMS=  1.6041961D-04 Max=  3.0782826D-03 conv= 1.00D-05.
 RLE energy=       -0.5854985968
 DE(Corr)= -0.58614326     E(CORR)=     -87.464284167     Delta=-1.15D-03
 NORM(A)=   0.14145189D+01
 Iteration Nr.  10
 **********************
 DD1Dir will call FoFMem   1 times, MxPair=       156
 NAB=    50 NAA=    45 NBB=    10.
 A-vector RMS=  9.2555048D-05 Max=  1.3907862D-03 conv= 1.00D-05.
 RLE energy=       -0.5858983426
 DE(Corr)= -0.58568704     E(CORR)=     -87.463827943     Delta= 4.56D-04
 NORM(A)=   0.14227511D+01
 Iteration Nr.  11
 **********************
 DD1Dir will call FoFMem   1 times, MxPair=       156
 NAB=    50 NAA=    45 NBB=    10.
 A-vector RMS=  5.9190419D-05 Max=  7.4394092D-04 conv= 1.00D-05.
 RLE energy=       -0.5860358561
 DE(Corr)= -0.58589483     E(CORR)=     -87.464035738     Delta=-2.08D-04
 NORM(A)=   0.14281155D+01
 Iteration Nr.  12
 **********************
 DD1Dir will call FoFMem   1 times, MxPair=       156
 NAB=    50 NAA=    45 NBB=    10.
 A-vector RMS=  3.2269780D-05 Max=  4.6474838D-04 conv= 1.00D-05.
 RLE energy=       -0.5861608679
 DE(Corr)= -0.58608807     E(CORR)=     -87.464228978     Delta=-1.93D-04
 NORM(A)=   0.14298022D+01
 Iteration Nr.  13
 **********************
 DD1Dir will call FoFMem   1 times, MxPair=       156
 NAB=    50 NAA=    45 NBB=    10.
 A-vector RMS=  1.5553109D-05 Max=  1.9887617D-04 conv= 1.00D-05.
 RLE energy=       -0.5861235137
 DE(Corr)= -0.58612596     E(CORR)=     -87.464266863     Delta=-3.79D-05
 NORM(A)=   0.14297153D+01
 Iteration Nr.  14
 **********************
 DD1Dir will call FoFMem   1 times, MxPair=       156
 NAB=    50 NAA=    45 NBB=    10.
 A-vector RMS=  8.0225228D-06 Max=  1.2350093D-04 conv= 1.00D-05.
 RLE energy=       -0.5861162030
 DE(Corr)= -0.58612613     E(CORR)=     -87.464267033     Delta=-1.70D-07
 NORM(A)=   0.14295827D+01
 Iteration Nr.  15
 **********************
 DD1Dir will call FoFMem   1 times, MxPair=       156
 NAB=    50 NAA=    45 NBB=    10.
 A-vector RMS=  3.6027481D-06 Max=  4.2624165D-05 conv= 1.00D-05.
 RLE energy=       -0.5861074462
 DE(Corr)= -0.58610874     E(CORR)=     -87.464249644     Delta= 1.74D-05
 NORM(A)=   0.14296054D+01
 Iteration Nr.  16
 **********************
 DD1Dir will call FoFMem   1 times, MxPair=       156
 NAB=    50 NAA=    45 NBB=    10.
 A-vector RMS=  1.1269285D-06 Max=  1.7295613D-05 conv= 1.00D-05.
 RLE energy=       -0.5861027518
 DE(Corr)= -0.58610584     E(CORR)=     -87.464246749     Delta= 2.89D-06
 NORM(A)=   0.14296096D+01
 Iteration Nr.  17
 **********************
 DD1Dir will call FoFMem   1 times, MxPair=       156
 NAB=    50 NAA=    45 NBB=    10.
 A-vector RMS=  9.8923611D-07 Max=  1.0161273D-05 conv= 1.00D-05.
 RLE energy=       -0.5861037614
 DE(Corr)= -0.58610402     E(CORR)=     -87.464244927     Delta= 1.82D-06
 NORM(A)=   0.14296412D+01
 Iteration Nr.  18
 **********************
 DD1Dir will call FoFMem   1 times, MxPair=       156
 NAB=    50 NAA=    45 NBB=    10.
 A-vector RMS=  6.6572958D-07 Max=  9.9031348D-06 conv= 1.00D-05.
 RLE energy=       -0.5861042082
 DE(Corr)= -0.58610374     E(CORR)=     -87.464244650     Delta= 2.77D-07
 NORM(A)=   0.14296776D+01
 Iteration Nr.  19
 **********************
 DD1Dir will call FoFMem   1 times, MxPair=       156
 NAB=    50 NAA=    45 NBB=    10.
 A-vector RMS=  3.1086240D-07 Max=  3.5716495D-06 conv= 1.00D-05.
 RLE energy=       -0.5861067258
 DE(Corr)= -0.58610531     E(CORR)=     -87.464246218     Delta=-1.57D-06
 NORM(A)=   0.14297117D+01
 Iteration Nr.  20
 **********************
 DD1Dir will call FoFMem   1 times, MxPair=       156
 NAB=    50 NAA=    45 NBB=    10.
 A-vector RMS=  3.1793674D-07 Max=  4.7572784D-06 conv= 1.00D-05.
 RLE energy=       -0.5861070415
 DE(Corr)= -0.58610644     E(CORR)=     -87.464247343     Delta=-1.12D-06
 NORM(A)=   0.14297238D+01
 Iteration Nr.  21
 **********************
 DD1Dir will call FoFMem   1 times, MxPair=       156
 NAB=    50 NAA=    45 NBB=    10.
 A-vector RMS=  1.9350634D-07 Max=  2.7190197D-06 conv= 1.00D-05.
 RLE energy=       -0.5861074596
 DE(Corr)= -0.58610720     E(CORR)=     -87.464248103     Delta=-7.61D-07
 NORM(A)=   0.14297309D+01
 Iteration Nr.  22
 **********************
 DD1Dir will call FoFMem   1 times, MxPair=       156
 NAB=    50 NAA=    45 NBB=    10.
 A-vector RMS=  1.1624239D-07 Max=  1.6663404D-06 conv= 1.00D-05.
 RLE energy=       -0.5861075058
 DE(Corr)= -0.58610740     E(CORR)=     -87.464248303     Delta=-2.00D-07
 NORM(A)=   0.14297328D+01
 Iteration Nr.  23
 **********************
 DD1Dir will call FoFMem   1 times, MxPair=       156
 NAB=    50 NAA=    45 NBB=    10.
 A-vector RMS=  5.7422952D-08 Max=  8.9026863D-07 conv= 1.00D-05.
 RLE energy=       -0.5861073609
 DE(Corr)= -0.58610744     E(CORR)=     -87.464248349     Delta=-4.61D-08
 NORM(A)=   0.14297324D+01
 CI/CC converged in   23 iterations to DelEn=-4.61D-08 Conv= 1.00D-07 ErrA1= 5.74D-08 Conv= 1.00D-05
 Wavefunction amplitudes converged. E(Corr)=     -87.464248349    
 Dominant configurations:
 ***********************
 Spin Case        I    J    A    B          Value
    AA           10        13           -0.137868D+00
    AA           10        14           -0.260245D+00
    AA           10        15            0.338062D+00
    AA           10        22            0.599602D+00
    AA           10        23           -0.125160D+00
    AA           10        24            0.104911D+00
    AA           10        25            0.446231D+00
    AA           10        32           -0.122362D+00
    AA           10        36           -0.189931D+00
 Largest amplitude= 6.00D-01
 Time for triples=    17235.64 seconds.
 T4(CCSD)= -0.30823288D-01
 T5(CCSD)=  0.14250510D-01
 CCSD(T)= -0.87480821126D+02
 Discarding MO integrals.
 Leave Link  913 at Mon Feb 26 16:11:23 2018, MaxMem=  8589934592 cpu:           24976.6 elap:            1565.1
 (Enter /home1/apps/gaussian/16rA.03/g16/l601.exe)
 Copying SCF densities to generalized density rwf, IOpCl= 0 IROHF=1.

 **********************************************************************

            Population analysis using the SCF density.

 **********************************************************************

 Orbital symmetries:
       Occupied  (SG) (SG) (PI) (PI) (SG) (PI) (PI) (SG) (DLTA)
                 (DLTA)
       Virtual   (PI) (PI) (SG) (SG) (SG) (DLTA) (DLTA) (PI) (PI)
                 (PI) (PI) (SG) (SG) (SG) (DLTA) (DLTA) (PI) (PI)
                 (SG) (PI) (PI) (SG) (SG) (PI) (PI) (SG) (PHI)
                 (PHI) (DLTA) (DLTA) (SG) (PI) (PI) (SG) (DLTA)
                 (DLTA) (PI) (PI) (SG) (PI) (PI) (SG) (SG) (DLTA)
                 (DLTA) (PI) (PI) (SG) (PI) (PI) (?A) (?A) (PHI)
                 (PHI) (SG) (DLTA) (DLTA) (PI) (PI) (PHI) (PHI)
                 (DLTA) (DLTA) (PI) (PI) (DLTA) (DLTA) (SG) (SG)
                 (SG) (PI) (PI) (PI) (PI) (SG) (PHI) (PHI) (SG)
                 (SG) (DLTA) (DLTA) (PI) (PI) (SG) (DLTA) (DLTA)
                 (PI) (PI) (DLTA) (DLTA) (PI) (PI) (SG) (SG) (PI)
                 (PI) (PHI) (PHI) (DLTA) (DLTA) (SG) (?A) (?A)
                 (PHI) (PHI) (?B) (?B) (?A) (?A) (DLTA) (DLTA)
                 (PI) (PI) (PHI) (PHI) (PI) (PI) (SG) (DLTA) (DLTA)
                 (SG) (PI) (PI) (SG) (PI) (PI) (SG) (SG) (PI) (PI)
                 (DLTA) (DLTA) (SG) (SG) (PHI) (PHI) (DLTA) (DLTA)
                 (PI) (PI) (SG) (PI) (PI) (PHI) (PHI) (DLTA) (DLTA)
                 (DLTA) (DLTA) (PI) (PI) (SG) (SG) (PI) (PI) (PI)
                 (PI) (SG) (?A) (?A) (PHI) (PHI) (DLTA) (DLTA)
                 (SG) (PI) (PI) (?B) (?B) (?A) (?A) (PHI) (PHI)
                 (DLTA) (DLTA) (SG) (PI) (PI) (SG) (DLTA) (DLTA)
                 (PI) (PI) (SG) (SG) (PI) (PI) (SG) (DLTA) (DLTA)
                 (PI) (PI) (PHI) (PHI) (DLTA) (DLTA) (SG) (PI)
                 (PI) (SG) (PHI) (PHI) (DLTA) (DLTA) (?A) (?A)
                 (PI) (PI) (SG) (SG) (PHI) (PHI) (?A) (?A) (?B)
                 (?B) (DLTA) (DLTA) (PI) (PI) (SG) (SG) (PI) (PI)
                 (SG) (DLTA) (DLTA) (PI) (PI) (SG) (DLTA) (DLTA)
                 (PI) (PI) (SG) (SG) (PI) (PI) (SG) (SG) (PI) (PI)
                 (SG) (DLTA) (DLTA) (PI) (PI) (SG) (SG) (SG) (PI)
                 (PI) (SG) (DLTA) (DLTA) (PI) (PI) (SG) (SG) (PI)
                 (PI) (SG) (SG) (PI) (PI) (SG) (DLTA) (DLTA) (PI)
                 (PI) (SG) (SG) (PI) (PI) (SG) (SG) (PI) (PI) (SG)
                 (SG) (PI) (PI) (SG) (SG) (PI) (PI) (SG) (SG) (PI)
                 (PI) (SG) (SG) (SG) (SG) (SG) (SG)
 The electronic state is 6-SG.
 Alpha  occ. eigenvalues --   -3.76945  -2.46868  -2.46868  -2.41912  -0.57203
 Alpha  occ. eigenvalues --   -0.57203  -0.53734  -0.53734  -0.38766  -0.26601
 Alpha virt. eigenvalues --    0.01100   0.01100   0.01894   0.02471   0.04575
 Alpha virt. eigenvalues --    0.04871   0.04871   0.05292   0.05292   0.05657
 Alpha virt. eigenvalues --    0.05657   0.06785   0.09612   0.12287   0.16329
 Alpha virt. eigenvalues --    0.16728   0.16728   0.16834   0.16834   0.18077
 Alpha virt. eigenvalues --    0.18077   0.18931   0.27703   0.28645   0.28645
 Alpha virt. eigenvalues --    0.31515   0.39000   0.39000   0.39403   0.39403
 Alpha virt. eigenvalues --    0.40807   0.44059   0.44059   0.45259   0.46389
 Alpha virt. eigenvalues --    0.46389   0.48588   0.48588   0.55959   0.55959
 Alpha virt. eigenvalues --    0.56163   0.64784   0.69017   0.78763   0.78763
 Alpha virt. eigenvalues --    0.82890   0.82890   0.88652   1.01781   1.01781
 Alpha virt. eigenvalues --    1.14740   1.14740   1.15186   1.15186   1.15693
 Alpha virt. eigenvalues --    1.19116   1.19116   1.20662   1.20662   1.21456
 Alpha virt. eigenvalues --    1.21456   1.21700   1.21700   1.26531   1.26531
 Alpha virt. eigenvalues --    1.31074   1.31074   1.31983   1.39401   1.57222
 Alpha virt. eigenvalues --    1.58180   1.58180   1.70152   1.70152   1.71538
 Alpha virt. eigenvalues --    1.72684   1.72684   1.79460   2.06538   2.06684
 Alpha virt. eigenvalues --    2.06684   2.09299   2.09299   2.35850   2.60212
 Alpha virt. eigenvalues --    2.60212   2.73037   2.73037   2.92047   2.92047
 Alpha virt. eigenvalues --    2.92853   2.92853   2.97916   3.10897   3.11236
 Alpha virt. eigenvalues --    3.11236   3.34219   3.34219   3.35634   3.35634
 Alpha virt. eigenvalues --    3.44398   3.44398   3.44432   3.45711   3.45711
 Alpha virt. eigenvalues --    3.51003   3.51003   3.51169   3.51169   3.51815
 Alpha virt. eigenvalues --    3.51815   3.51851   3.51851   3.57768   3.57768
 Alpha virt. eigenvalues --    3.69397   3.69397   3.69995   3.86210   3.86210
 Alpha virt. eigenvalues --    3.91354   4.12327   4.12327   4.24318   4.40894
 Alpha virt. eigenvalues --    4.40894   4.78896   5.47632   6.23780   6.23780
 Alpha virt. eigenvalues --    6.24717   6.24717   6.36554   6.54491   6.71199
 Alpha virt. eigenvalues --    6.71199   6.80679   6.80679   7.04177   7.04177
 Alpha virt. eigenvalues --    7.27998   8.32804   8.32804   8.49931   8.49931
 Alpha virt. eigenvalues --    8.50434   8.50434   8.61996   8.61996   8.66842
 Alpha virt. eigenvalues --    8.66842   8.76668   8.89287   8.96615   8.96615
 Alpha virt. eigenvalues --    8.97587   8.97587   9.09528   9.32654   9.32654
 Alpha virt. eigenvalues --    9.32979   9.32979   9.35782   9.35782   9.46898
 Alpha virt. eigenvalues --    9.59159   9.59159   9.97205   9.97205   9.97247
 Alpha virt. eigenvalues --    9.97247   9.98795   9.98795  10.09044  10.09044
 Alpha virt. eigenvalues --   10.22977  10.31285  10.31285  10.53730  11.99718
 Alpha virt. eigenvalues --   11.99718  12.01974  12.01974  12.25883  12.71980
 Alpha virt. eigenvalues --   17.68261  17.68261  17.80976  21.35675  21.35675
 Alpha virt. eigenvalues --   21.35692  21.35692  21.40242  21.40242  21.40980
 Alpha virt. eigenvalues --   21.40980  21.49122  21.52931  21.52931  21.79922
 Alpha virt. eigenvalues --   23.25316  23.25316  23.26208  23.26208  23.26212
 Alpha virt. eigenvalues --   23.26212  23.34120  23.34120  23.53647  26.38557
 Alpha virt. eigenvalues --   26.39619  26.39619  26.39737  26.39737  26.40282
 Alpha virt. eigenvalues --   26.40282  26.43022  26.43022  26.48950  26.48950
 Alpha virt. eigenvalues --   26.72031  28.67701  34.06682  34.06682  34.18462
 Alpha virt. eigenvalues --   36.41976  36.41976  36.42886  36.42886  36.62707
 Alpha virt. eigenvalues --   63.41518  63.41518  63.42175  63.42175  63.58448
 Alpha virt. eigenvalues --   64.52477  65.66441  65.66441  65.82088 106.90530
 Alpha virt. eigenvalues --  122.21964 122.21964 122.29577 127.10414 127.10414
 Alpha virt. eigenvalues --  127.11068 127.11068 127.25941 162.83793 184.59176
 Alpha virt. eigenvalues --  224.53405 224.53405 224.61170 318.05720 318.05720
 Alpha virt. eigenvalues --  318.06489 318.06489 318.18147 356.76236 422.59988
 Alpha virt. eigenvalues --  422.59988 422.68057 704.28991 826.77209 826.77209
 Alpha virt. eigenvalues --  826.852681046.058101046.058101046.065171046.06517
 Alpha virt. eigenvalues -- 1046.143121439.139721711.906711711.906711711.98371
 Alpha virt. eigenvalues -- 3072.015503822.797883822.797883822.868356867.75999
 Alpha virt. eigenvalues -- 9427.088859427.088859427.15056********************
 Alpha virt. eigenvalues -- **************************************************
 Alpha virt. eigenvalues -- **************************************************
 Alpha virt. eigenvalues -- **********
     Molecular Orbital Coefficients:
                           1         2         3         4         5
                           O         O         O         O         O
     Eigenvalues --    -3.76945  -2.46868  -2.46868  -2.41912  -0.57203
   1 1   Cr 1S          0.00000  -0.00000   0.00000   0.00000  -0.00000
   2        2S          0.00000  -0.00000   0.00000   0.00000  -0.00000
   3        3S          0.00000  -0.00000   0.00000   0.00000  -0.00000
   4        4S          0.00000  -0.00000   0.00000   0.00000  -0.00000
   5        5S         -0.00000  -0.00000   0.00000   0.00000  -0.00000
   6        6S          0.00001  -0.00000   0.00000   0.00000  -0.00000
   7        7S         -0.00001  -0.00000   0.00000   0.00000   0.00000
   8        8S          0.00014  -0.00000   0.00000   0.00000  -0.00002
   9        9S         -0.00016  -0.00000   0.00000   0.00000   0.00001
  10       10S          0.00105  -0.00000   0.00000   0.00000  -0.00012
  11       11S         -0.00169   0.00000   0.00000   0.00000   0.00016
  12       12S          0.00676  -0.00002   0.00000   0.00000  -0.00076
  13       13S         -0.01919   0.00007   0.00000   0.00000   0.00223
  14       14S          0.10747  -0.00055   0.00000   0.00000  -0.01385
  15       15S         -0.18500   0.00077   0.00000   0.00000   0.02474
  16       16S         -0.30551   0.01004   0.00000   0.00000   0.05724
  17       17S          0.39747  -0.00012   0.00000   0.00000  -0.07298
  18       18S          0.80572  -0.00271   0.00000   0.00000  -0.19982
  19       19S          0.26339   0.00127   0.00000   0.00000  -0.08496
  20       20S          0.00739   0.00581   0.00000   0.00000   0.20606
  21       21S         -0.00136   0.00351   0.00000   0.00000   0.13939
  22       22S          0.00175   0.00039   0.00000   0.00000   0.01455
  23       23S         -0.06718  -0.00825   0.00000   0.00000  -0.00357
  24       24S         -0.14539  -0.00506   0.00000   0.00000   0.07364
  25       25S         -0.00020  -0.00005   0.00000   0.00000  -0.00823
  26       26PX         0.00000   0.00000   0.00000   0.00000   0.00000
  27       26PY         0.00000   0.00000   0.00000   0.00000   0.00000
  28       26PZ        -0.00000   0.00000   0.00000   0.00000   0.00000
  29       27PX         0.00000   0.00000   0.00000   0.00000   0.00000
  30       27PY         0.00000   0.00000   0.00000   0.00000   0.00000
  31       27PZ         0.00000   0.00000   0.00000   0.00000   0.00000
  32       28PX         0.00000   0.00000   0.00000   0.00000   0.00000
  33       28PY         0.00000   0.00000   0.00000   0.00000   0.00000
  34       28PZ        -0.00000   0.00000   0.00000   0.00000   0.00000
  35       29PX         0.00000   0.00000   0.00000   0.00002   0.00000
  36       29PY         0.00000   0.00000   0.00002   0.00000   0.00000
  37       29PZ         0.00000   0.00002   0.00000   0.00000   0.00000
  38       30PX         0.00000   0.00000   0.00000   0.00003   0.00000
  39       30PY         0.00000   0.00000   0.00003   0.00000   0.00000
  40       30PZ        -0.00000   0.00003   0.00000   0.00000   0.00000
  41       31PX         0.00000   0.00000   0.00000   0.00025   0.00000
  42       31PY         0.00000   0.00000   0.00025   0.00000   0.00000
  43       31PZ         0.00001   0.00025   0.00000   0.00000   0.00003
  44       32PX         0.00000   0.00000   0.00000   0.00015   0.00000
  45       32PY         0.00000   0.00000   0.00015   0.00000   0.00000
  46       32PZ        -0.00002   0.00015   0.00000   0.00000   0.00001
  47       33PX         0.00000   0.00000   0.00000   0.00139   0.00000
  48       33PY         0.00000   0.00000   0.00139   0.00000   0.00000
  49       33PZ         0.00005   0.00139   0.00000   0.00000   0.00018
  50       34PX         0.00000   0.00000   0.00000   0.01026   0.00000
  51       34PY         0.00000   0.00000   0.01026   0.00000   0.00000
  52       34PZ        -0.00009   0.01030   0.00000   0.00000   0.00105
  53       35PX         0.00000   0.00000   0.00000  -0.06989   0.00000
  54       35PY         0.00000   0.00000  -0.06989   0.00000   0.00000
  55       35PZ         0.00012  -0.07002   0.00000   0.00000  -0.00773
  56       36PX         0.00000   0.00000   0.00000  -0.03553   0.00000
  57       36PY         0.00000   0.00000  -0.03553   0.00000   0.00000
  58       36PZ         0.00186  -0.03576   0.00000   0.00000  -0.00366
  59       37PX         0.00000   0.00000   0.00000   0.19026   0.00000
  60       37PY         0.00000   0.00000   0.19026   0.00000   0.00000
  61       37PZ         0.00165   0.19099   0.00000   0.00000   0.02344
  62       38PX         0.00000   0.00000   0.00000   0.43411   0.00000
  63       38PY         0.00000   0.00000   0.43411   0.00000   0.00000
  64       38PZ        -0.02376   0.42801   0.00000   0.00000   0.04457
  65       39PX         0.00000   0.00000   0.00000   0.38535   0.00000
  66       39PY         0.00000   0.00000   0.38535   0.00000   0.00000
  67       39PZ        -0.00047   0.38450   0.00000   0.00000   0.05320
  68       40PX         0.00000   0.00000   0.00000   0.16073   0.00000
  69       40PY         0.00000   0.00000   0.16073   0.00000   0.00000
  70       40PZ         0.00322   0.15687   0.00000   0.00000   0.01456
  71       41PX         0.00000   0.00000   0.00000   0.01533   0.00000
  72       41PY         0.00000   0.00000   0.01533   0.00000   0.00000
  73       41PZ         0.00036   0.01039   0.00000   0.00000  -0.08756
  74       42PX         0.00000   0.00000   0.00000  -0.00102   0.00000
  75       42PY         0.00000   0.00000  -0.00102   0.00000   0.00000
  76       42PZ        -0.00237  -0.00285   0.00000   0.00000  -0.09708
  77       43PX         0.00000   0.00000   0.00000   0.00054   0.00000
  78       43PY         0.00000   0.00000   0.00054   0.00000   0.00000
  79       43PZ        -0.00013   0.00083   0.00000   0.00000  -0.01175
  80       44PX         0.00000   0.00000   0.00000  -0.00336   0.00000
  81       44PY         0.00000   0.00000  -0.00336   0.00000   0.00000
  82       44PZ        -0.00247  -0.00368   0.00000   0.00000  -0.00057
  83       45PX         0.00000   0.00000   0.00000  -0.02886   0.00000
  84       45PY         0.00000   0.00000  -0.02886   0.00000   0.00000
  85       45PZ         0.02474  -0.01878   0.00000   0.00000   0.00342
  86       46PX         0.00000   0.00000   0.00000  -0.00015   0.00000
  87       46PY         0.00000   0.00000  -0.00015   0.00000   0.00000
  88       46PZ        -0.00015  -0.00015   0.00000   0.00000   0.00311
  89       47D 0        0.00000   0.00000   0.00000   0.00000   0.00002
  90       47D+1        0.00000   0.00000   0.00000  -0.00000   0.00000
  91       47D-1        0.00000   0.00000  -0.00000   0.00000   0.00000
  92       47D+2       -0.00000   0.00000   0.00000   0.00000   0.00000
  93       47D-2        0.00000   0.00000   0.00000   0.00000   0.00000
  94       48D 0        0.00001   0.00001   0.00000   0.00000   0.00022
  95       48D+1        0.00000   0.00000   0.00000  -0.00000   0.00000
  96       48D-1        0.00000   0.00000  -0.00000   0.00000   0.00000
  97       48D+2       -0.00000   0.00000   0.00000   0.00000   0.00000
  98       48D-2        0.00000   0.00000   0.00000   0.00000   0.00000
  99       49D 0        0.00009   0.00012   0.00000   0.00000   0.00190
 100       49D+1        0.00000   0.00000   0.00000  -0.00002   0.00000
 101       49D-1        0.00000   0.00000  -0.00002   0.00000   0.00000
 102       49D+2       -0.00000   0.00000   0.00000   0.00000   0.00000
 103       49D-2        0.00000   0.00000   0.00000   0.00000   0.00000
 104       50D 0        0.00032   0.00043   0.00000   0.00000   0.00751
 105       50D+1        0.00000   0.00000   0.00000  -0.00006   0.00000
 106       50D-1        0.00000   0.00000  -0.00006   0.00000   0.00000
 107       50D+2       -0.00000   0.00000   0.00000   0.00000   0.00000
 108       50D-2        0.00000   0.00000   0.00000   0.00000   0.00000
 109       51D 0        0.00063   0.00146   0.00000   0.00000   0.01701
 110       51D+1        0.00000   0.00000   0.00000  -0.00016   0.00000
 111       51D-1        0.00000   0.00000  -0.00016   0.00000   0.00000
 112       51D+2       -0.00000   0.00000   0.00000   0.00000   0.00000
 113       51D-2        0.00000   0.00000   0.00000   0.00000   0.00000
 114       52D 0        0.00156   0.00532   0.00000   0.00000   0.02842
 115       52D+1        0.00000   0.00000   0.00000  -0.00026   0.00000
 116       52D-1        0.00000   0.00000  -0.00026   0.00000   0.00000
 117       52D+2       -0.00000   0.00000   0.00000   0.00000   0.00000
 118       52D-2        0.00000   0.00000   0.00000   0.00000   0.00000
 119       53D 0        0.00204   0.00500   0.00000   0.00000   0.04087
 120       53D+1        0.00000   0.00000   0.00000  -0.00001   0.00000
 121       53D-1        0.00000   0.00000  -0.00001   0.00000   0.00000
 122       53D+2       -0.00000   0.00000   0.00000   0.00000   0.00000
 123       53D-2        0.00000   0.00000   0.00000   0.00000   0.00000
 124       54D 0       -0.00042   0.00231   0.00000   0.00000   0.04946
 125       54D+1        0.00000   0.00000   0.00000   0.00157   0.00000
 126       54D-1        0.00000   0.00000   0.00157   0.00000   0.00000
 127       54D+2       -0.00000   0.00000   0.00000   0.00000   0.00000
 128       54D-2        0.00000   0.00000   0.00000   0.00000   0.00000
 129       55D 0       -0.00119   0.00128   0.00000   0.00000   0.05784
 130       55D+1        0.00000   0.00000   0.00000   0.00157   0.00000
 131       55D-1        0.00000   0.00000   0.00157   0.00000   0.00000
 132       55D+2       -0.00000  -0.00000   0.00000   0.00000   0.00000
 133       55D-2        0.00000   0.00000   0.00000   0.00000   0.00000
 134       56D 0        0.00131   0.00146   0.00000   0.00000   0.05612
 135       56D+1        0.00000   0.00000   0.00000   0.00041   0.00000
 136       56D-1        0.00000   0.00000   0.00041   0.00000   0.00000
 137       56D+2       -0.00000  -0.00000   0.00000   0.00000  -0.00000
 138       56D-2        0.00000   0.00000   0.00000   0.00000   0.00000
 139       57D 0        0.00035   0.00017   0.00000   0.00000   0.01466
 140       57D+1        0.00000   0.00000   0.00000   0.00009   0.00000
 141       57D-1        0.00000   0.00000   0.00009   0.00000   0.00000
 142       57D+2       -0.00000  -0.00000   0.00000   0.00000   0.00000
 143       57D-2        0.00000   0.00000   0.00000   0.00000   0.00000
 144       58D 0        0.00035  -0.00158   0.00000   0.00000   0.00210
 145       58D+1        0.00000   0.00000   0.00000  -0.00006   0.00000
 146       58D-1        0.00000   0.00000  -0.00006   0.00000   0.00000
 147       58D+2       -0.00000  -0.00000   0.00000   0.00000  -0.00000
 148       58D-2        0.00000   0.00000   0.00000   0.00000   0.00000
 149       59D 0        0.00099  -0.00384   0.00000   0.00000   0.00298
 150       59D+1        0.00000   0.00000   0.00000  -0.00019   0.00000
 151       59D-1        0.00000   0.00000  -0.00019   0.00000   0.00000
 152       59D+2       -0.00000  -0.00000   0.00000   0.00000  -0.00000
 153       59D-2        0.00000   0.00000   0.00000   0.00000   0.00000
 154       60D 0        0.00003  -0.00006   0.00000   0.00000  -0.00145
 155       60D+1        0.00000   0.00000   0.00000  -0.00001   0.00000
 156       60D-1        0.00000   0.00000  -0.00001   0.00000   0.00000
 157       60D+2       -0.00000   0.00000   0.00000   0.00000  -0.00000
 158       60D-2        0.00000   0.00000   0.00000   0.00000   0.00000
 159       61F 0        0.00007  -0.00078   0.00000   0.00000  -0.00029
 160       61F+1        0.00000   0.00000   0.00000   0.00090   0.00000
 161       61F-1        0.00000   0.00000   0.00090   0.00000   0.00000
 162       61F+2        0.00000  -0.00000   0.00000   0.00000  -0.00000
 163       61F-2        0.00000   0.00000   0.00000   0.00000   0.00000
 164       61F+3        0.00000   0.00000   0.00000  -0.00000   0.00000
[...]
  92       47D+2        0.00000   0.00000   0.00000   0.00000
  93       47D-2        0.00000   0.00000   0.00000   0.00000
  94       48D 0        0.00001   0.00000   0.00000   0.00000
  95       48D+1        0.00009   0.00009   0.00000   0.00009
  96       48D-1        0.00009   0.00009   0.00000   0.00009
  97       48D+2        0.00008   0.00008   0.00000   0.00008
  98       48D-2        0.00008   0.00008   0.00000   0.00008
  99       49D 0        0.00016   0.00012   0.00004   0.00008
 100       49D+1        0.00226   0.00226   0.00000   0.00226
 101       49D-1        0.00226   0.00226   0.00000   0.00226
 102       49D+2        0.00219   0.00219   0.00000   0.00219
 103       49D-2        0.00219   0.00219   0.00000   0.00219
 104       50D 0        0.00137   0.00104   0.00034   0.00070
 105       50D+1        0.01938   0.01938   0.00000   0.01938
 106       50D-1        0.01938   0.01938   0.00000   0.01938
 107       50D+2        0.01884   0.01884   0.00000   0.01884
 108       50D-2        0.01884   0.01884   0.00000   0.01884
 109       51D 0        0.00542   0.00408   0.00134   0.00274
 110       51D+1        0.07517   0.07517   0.00000   0.07517
 111       51D-1        0.07517   0.07517   0.00000   0.07517
 112       51D+2        0.07309   0.07309   0.00000   0.07309
 113       51D-2        0.07309   0.07309   0.00000   0.07309
 114       52D 0        0.01344   0.01007   0.00337   0.00670
 115       52D+1        0.17823   0.17823  -0.00000   0.17823
 116       52D-1        0.17823   0.17823  -0.00000   0.17823
 117       52D+2        0.17340   0.17340   0.00000   0.17340
 118       52D-2        0.17340   0.17340   0.00000   0.17340
 119       53D 0        0.02528   0.01865   0.00663   0.01202
 120       53D+1        0.28520   0.28520  -0.00000   0.28520
 121       53D-1        0.28520   0.28520  -0.00000   0.28520
 122       53D+2        0.27927   0.27927   0.00000   0.27927
 123       53D-2        0.27927   0.27927   0.00000   0.27927
 124       54D 0        0.03721   0.02587   0.01134   0.01453
 125       54D+1        0.26453   0.26452   0.00000   0.26452
 126       54D-1        0.26453   0.26452   0.00000   0.26452
 127       54D+2        0.26703   0.26703   0.00000   0.26703
 128       54D-2        0.26703   0.26703   0.00000   0.26703
 129       55D 0        0.05648   0.03587   0.02061   0.01526
 130       55D+1        0.12789   0.12789   0.00000   0.12788
 131       55D-1        0.12789   0.12789   0.00000   0.12788
 132       55D+2        0.13821   0.13821   0.00000   0.13821
 133       55D-2        0.13821   0.13821   0.00000   0.13821
 134       56D 0        0.05703   0.03219   0.02484   0.00735
 135       56D+1        0.02258   0.02258   0.00000   0.02258
 136       56D-1        0.02258   0.02258   0.00000   0.02258
 137       56D+2        0.02612   0.02612  -0.00000   0.02612
 138       56D-2        0.02612   0.02612  -0.00000   0.02612
 139       57D 0        0.00994   0.00542   0.00453   0.00089
 140       57D+1        0.00033   0.00033   0.00000   0.00033
 141       57D-1        0.00033   0.00033   0.00000   0.00033
 142       57D+2        0.00040   0.00040   0.00000   0.00040
 143       57D-2        0.00040   0.00040   0.00000   0.00040
 144       58D 0        0.00083   0.00063   0.00020   0.00043
 145       58D+1        0.01016   0.01016   0.00000   0.01016
 146       58D-1        0.01016   0.01016   0.00000   0.01016
 147       58D+2        0.00986   0.00986  -0.00000   0.00986
 148       58D-2        0.00986   0.00986  -0.00000   0.00986
 149       59D 0        0.00138   0.00100   0.00038   0.00062
 150       59D+1        0.01161   0.01161  -0.00000   0.01161
 151       59D-1        0.01161   0.01161  -0.00000   0.01161
 152       59D+2        0.01137   0.01137  -0.00000   0.01137
 153       59D-2        0.01137   0.01137  -0.00000   0.01137
 154       60D 0       -0.00039  -0.00021  -0.00018  -0.00003
 155       60D+1        0.00001   0.00001  -0.00000   0.00001
 156       60D-1        0.00001   0.00001  -0.00000   0.00001
 157       60D+2        0.00001   0.00001  -0.00000   0.00001
 158       60D-2        0.00001   0.00001  -0.00000   0.00001
 159       61F 0        0.00000   0.00000   0.00000  -0.00000
 160       61F+1        0.00001   0.00000   0.00000   0.00000
 161       61F-1        0.00001   0.00000   0.00000   0.00000
 162       61F+2        0.00000   0.00000   0.00000   0.00000
 163       61F-2        0.00000   0.00000   0.00000   0.00000
 164       61F+3        0.00000   0.00000   0.00000   0.00000
 165       61F-3        0.00000   0.00000   0.00000   0.00000
 166       62F 0        0.00001   0.00001   0.00000   0.00000
 167       62F+1        0.00003   0.00001   0.00001   0.00000
 168       62F-1        0.00003   0.00001   0.00001   0.00000
 169       62F+2       -0.00000  -0.00000   0.00000  -0.00000
 170       62F-2       -0.00000  -0.00000   0.00000  -0.00000
 171       62F+3        0.00000   0.00000   0.00000   0.00000
 172       62F-3        0.00000   0.00000   0.00000  -0.00000
 173       63F 0        0.00025   0.00012   0.00013  -0.00000
 174       63F+1        0.00004   0.00002   0.00001   0.00001
 175       63F-1        0.00004   0.00002   0.00001   0.00001
 176       63F+2        0.00001   0.00001   0.00000   0.00001
 177       63F-2        0.00001   0.00001   0.00000   0.00001
 178       63F+3        0.00000   0.00000   0.00000   0.00000
 179       63F-3        0.00000   0.00000   0.00000   0.00000
 180       64F 0        0.00397   0.00193   0.00204  -0.00011
 181       64F+1        0.00005   0.00005   0.00000   0.00005
 182       64F-1        0.00005   0.00005   0.00000   0.00005
 183       64F+2        0.00007   0.00007   0.00000   0.00007
 184       64F-2        0.00007   0.00007   0.00000   0.00007
 185       64F+3        0.00000   0.00000  -0.00000   0.00000
 186       64F-3        0.00000   0.00000  -0.00000   0.00000
 187       65F 0        0.00465   0.00216   0.00249  -0.00033
 188       65F+1        0.00001   0.00001   0.00000   0.00001
 189       65F-1        0.00001   0.00001   0.00000   0.00001
 190       65F+2        0.00003   0.00003   0.00000   0.00003
 191       65F-2        0.00003   0.00003   0.00000   0.00003
 192       65F+3        0.00000   0.00000   0.00000   0.00000
 193       65F-3        0.00000   0.00000   0.00000   0.00000
 194       66G 0        0.00000   0.00000   0.00000  -0.00000
 195       66G+1        0.00000   0.00000  -0.00000   0.00000
 196       66G-1        0.00000   0.00000  -0.00000   0.00000
 197       66G+2        0.00000   0.00000   0.00000   0.00000
 198       66G-2        0.00000   0.00000   0.00000   0.00000
 199       66G+3        0.00000   0.00000   0.00000   0.00000
 200       66G-3        0.00000   0.00000   0.00000   0.00000
 201       66G+4        0.00000   0.00000  -0.00000   0.00000
 202       66G-4        0.00000   0.00000  -0.00000   0.00000
 203       67G 0        0.00000   0.00000   0.00000  -0.00000
 204       67G+1       -0.00000  -0.00000   0.00000  -0.00000
 205       67G-1       -0.00000  -0.00000   0.00000  -0.00000
 206       67G+2        0.00001   0.00001   0.00000   0.00001
 207       67G-2        0.00001   0.00001   0.00000   0.00001
 208       67G+3        0.00000   0.00000   0.00000   0.00000
 209       67G-3        0.00000   0.00000   0.00000   0.00000
 210       67G+4        0.00000   0.00000   0.00000   0.00000
 211       67G-4        0.00000   0.00000   0.00000   0.00000
 212       68G 0        0.00016   0.00009   0.00007   0.00001
 213       68G+1        0.00000   0.00000   0.00000   0.00000
 214       68G-1        0.00000   0.00000   0.00000   0.00000
 215       68G+2        0.00000   0.00000   0.00000   0.00000
 216       68G-2        0.00000   0.00000   0.00000   0.00000
 217       68G+3        0.00000   0.00000   0.00000   0.00000
 218       68G-3        0.00000   0.00000   0.00000   0.00000
 219       68G+4        0.00000   0.00000   0.00000   0.00000
 220       68G-4        0.00000   0.00000   0.00000   0.00000
 221       69G 0        0.00071   0.00036   0.00035   0.00000
 222       69G+1        0.00000   0.00000   0.00000   0.00000
 223       69G-1        0.00000   0.00000   0.00000   0.00000
 224       69G+2        0.00000   0.00000   0.00000   0.00000
 225       69G-2        0.00000   0.00000   0.00000   0.00000
 226       69G+3        0.00000   0.00000   0.00000   0.00000
 227       69G-3        0.00000   0.00000   0.00000   0.00000
 228       69G+4        0.00000   0.00000   0.00000   0.00000
 229       69G-4        0.00000   0.00000   0.00000   0.00000
 230       70H 0        0.00000   0.00000   0.00000   0.00000
 231       70H+1        0.00000   0.00000   0.00000  -0.00000
 232       70H-1        0.00000   0.00000   0.00000  -0.00000
 233       70H+2       -0.00000  -0.00000   0.00000  -0.00000
 234       70H-2       -0.00000  -0.00000   0.00000  -0.00000
 235       70H+3        0.00000   0.00000   0.00000   0.00000
 236       70H-3        0.00000   0.00000   0.00000   0.00000
 237       70H+4       -0.00000  -0.00000  -0.00000   0.00000
 238       70H-4        0.00000   0.00000  -0.00000   0.00000
 239       70H+5        0.00000  -0.00000   0.00000  -0.00000
 240       70H-5        0.00000   0.00000   0.00000  -0.00000
 241       71H 0        0.00000   0.00000   0.00000  -0.00000
 242       71H+1        0.00000   0.00000   0.00000   0.00000
 243       71H-1        0.00000   0.00000   0.00000   0.00000
 244       71H+2        0.00000   0.00000  -0.00000   0.00000
 245       71H-2        0.00000   0.00000  -0.00000   0.00000
 246       71H+3        0.00000   0.00000   0.00000  -0.00000
 247       71H-3        0.00000   0.00000   0.00000  -0.00000
 248       71H+4        0.00000   0.00000   0.00000   0.00000
 249       71H-4        0.00000   0.00000   0.00000   0.00000
 250       71H+5        0.00000  -0.00000   0.00000  -0.00000
 251       71H-5       -0.00000  -0.00000   0.00000  -0.00000
 252       72H 0        0.00005   0.00003   0.00003   0.00000
 253       72H+1       -0.00000  -0.00000  -0.00000  -0.00000
 254       72H-1       -0.00000  -0.00000  -0.00000  -0.00000
 255       72H+2        0.00000   0.00000   0.00000   0.00000
 256       72H-2        0.00000   0.00000   0.00000   0.00000
 257       72H+3        0.00000   0.00000   0.00000   0.00000
 258       72H-3        0.00000   0.00000   0.00000   0.00000
 259       72H+4        0.00000   0.00000   0.00000   0.00000
 260       72H-4        0.00000   0.00000   0.00000   0.00000
 261       72H+5       -0.00000  -0.00000  -0.00000  -0.00000
 262       72H-5        0.00000   0.00000   0.00000   0.00000
 263 2   H  1S          0.00004   0.00002   0.00002   0.00000
 264        2S          0.00474   0.00246   0.00229   0.00017
 265        3S          0.04832   0.02502   0.02330   0.00172
 266        4S          0.24876   0.12872   0.12004   0.00869
 267        5S          0.58100   0.29841   0.28259   0.01582
 268        6S          0.40226   0.20046   0.20180  -0.00134
 269        7S          0.02541   0.00983   0.01558  -0.00575
 270        8PX         0.00000   0.00000   0.00000   0.00000
 271        8PY         0.00000   0.00000   0.00000   0.00000
 272        8PZ         0.00010   0.00005   0.00005   0.00000
 273        9PX         0.00008   0.00008   0.00000   0.00008
 274        9PY         0.00008   0.00008   0.00000   0.00008
 275        9PZ         0.00135   0.00068   0.00068  -0.00000
 276       10PX         0.00050   0.00049   0.00001   0.00048
 277       10PY         0.00050   0.00049   0.00001   0.00048
 278       10PZ         0.00730   0.00368   0.00363   0.00005
 279       11PX         0.00025   0.00024   0.00001   0.00022
 280       11PY         0.00025   0.00024   0.00001   0.00022
 281       11PZ         0.00329   0.00255   0.00074   0.00181
 282       12D 0        0.00000   0.00000   0.00000   0.00000
 283       12D+1        0.00000   0.00000  -0.00000   0.00000
 284       12D-1        0.00000   0.00000  -0.00000   0.00000
 285       12D+2        0.00000   0.00000  -0.00000   0.00000
 286       12D-2        0.00000   0.00000  -0.00000   0.00000
 287       13D 0        0.00031   0.00015   0.00015  -0.00000
 288       13D+1        0.00010   0.00010   0.00000   0.00009
 289       13D-1        0.00010   0.00010   0.00000   0.00009
 290       13D+2        0.00001   0.00001  -0.00000   0.00001
 291       13D-2        0.00001   0.00001  -0.00000   0.00001
 292       14D 0        0.00088   0.00062   0.00026   0.00036
 293       14D+1        0.00019   0.00017   0.00002   0.00015
 294       14D-1        0.00019   0.00017   0.00002   0.00015
 295       14D+2       -0.00000  -0.00000  -0.00000  -0.00000
 296       14D-2       -0.00000  -0.00000  -0.00000  -0.00000
 297       15F 0        0.00001   0.00000   0.00000   0.00000
 298       15F+1        0.00001   0.00001   0.00000   0.00001
 299       15F-1        0.00001   0.00001   0.00000   0.00001
 300       15F+2        0.00000   0.00000   0.00000   0.00000
 301       15F-2        0.00000   0.00000   0.00000   0.00000
 302       15F+3        0.00000   0.00000   0.00000   0.00000
 303       15F-3        0.00000   0.00000   0.00000   0.00000
 304       16F 0       -0.00003  -0.00003   0.00000  -0.00004
 305       16F+1        0.00006   0.00004   0.00002   0.00003
 306       16F-1        0.00006   0.00004   0.00002   0.00003
 307       16F+2       -0.00000  -0.00000  -0.00000  -0.00000
 308       16F-2       -0.00000  -0.00000  -0.00000  -0.00000
 309       16F+3       -0.00000  -0.00000   0.00000  -0.00000
 310       16F-3       -0.00000  -0.00000   0.00000  -0.00000
          Condensed to atoms (all electrons):
               1          2
     1  Cr  13.323410   0.350445
     2  H    0.350445   0.975701
          Atomic-Atomic Spin Densities.
               1          2
     1  Cr   5.000931  -0.024538
     2  H   -0.024538   0.048144
 Mulliken charges and spin densities:
               1          2
     1  Cr   0.326145   4.976394
     2  H   -0.326145   0.023606
 Sum of Mulliken charges =  -0.00000   5.00000
 Mulliken charges and spin densities with hydrogens summed into heavy atoms:
               1          2
     1  Cr  -0.000000   5.000000
 Electronic spatial extent (au):  <R**2>=             56.8159
 Charge=             -0.0000 electrons
 Dipole moment (field-independent basis, Debye):
    X=              0.0000    Y=              0.0000    Z=              2.6930  Tot=              2.6930
 Quadrupole moment (field-independent basis, Debye-Ang):
   XX=            -17.0650   YY=            -17.0650   ZZ=            -25.9208
   XY=              0.0000   XZ=              0.0000   YZ=              0.0000
 Traceless Quadrupole moment (field-independent basis, Debye-Ang):
   XX=              2.9519   YY=              2.9519   ZZ=             -5.9039
   XY=              0.0000   XZ=              0.0000   YZ=              0.0000
 Octapole moment (field-independent basis, Debye-Ang**2):
  XXX=              0.0000  YYY=              0.0000  ZZZ=             13.9354  XYY=              0.0000
  XXY=              0.0000  XXZ=              0.7156  XZZ=              0.0000  YZZ=              0.0000
  YYZ=              0.7156  XYZ=              0.0000
 Hexadecapole moment (field-independent basis, Debye-Ang**3):
 XXXX=            -31.2919 YYYY=            -31.2919 ZZZZ=           -109.5477 XXXY=              0.0000
 XXXZ=              0.0000 YYYX=              0.0000 YYYZ=              0.0000 ZZZX=              0.0000
 ZZZY=              0.0000 XXYY=            -10.4306 XXZZ=            -21.6204 YYZZ=            -21.6204
 XXYZ=              0.0000 YYXZ=              0.0000 ZZXY=              0.0000
 N-N= 3.899200501516D+00 E-N=-2.037779700681D+02  KE= 4.616400829867D+01
 Symmetry A1   KE= 1.710375066403D+01
 Symmetry A2   KE= 5.467140322334D+00
 Symmetry B1   KE= 1.179655864468D+01
 Symmetry B2   KE= 1.179655866828D+01
 Symmetry A1   SP= 2.000000000000D+00
 Symmetry A2   SP= 1.000000000000D+00
 Symmetry B1   SP= 1.000000000000D+00
 Symmetry B2   SP= 1.000000000000D+00
 Orbital energies and kinetic energies (alpha):
                                 1                 2
   1         O                -3.769449          1.881273
   2         O                -2.468680          3.116091
   3         O                -2.468680          3.101884
   4         O                -2.419120          3.101884
   5         O                -0.572033          0.530939
   6         O                -0.572033          5.592790
   7         O                -0.537340          5.592790
   8         O                -0.537340          0.580004
   9         O                -0.387662          5.467140
  10         O                -0.266012          5.467140
  11         V                 0.010995          0.055859
  12         V                 0.010995          0.055859
  13         V                 0.018936          0.039676
  14         V                 0.024709          0.067175
  15         V                 0.045746          0.096786
 Total kinetic energy from orbitals= 6.886387380026D+01
                          Isotropic Fermi Contact Couplings
        Atom                 a.u.       MegaHertz       Gauss      10(-4) cm-1
     1  Cr(53)             0.00103      -0.05192      -0.01852      -0.01732
     2  H(1)               0.01150      10.28105       3.66854       3.42939
 --------------------------------------------------------
       Center         ----  Spin Dipole Couplings  ----
                      3XX-RR        3YY-RR        3ZZ-RR
 --------------------------------------------------------
     1   Atom        0.763947      0.763947     -1.527894
     2   Atom       -0.080778     -0.080778      0.161557
 --------------------------------------------------------
                        XY            XZ            YZ
 --------------------------------------------------------
     1   Atom        0.000000      0.000000      0.000000
     2   Atom        0.000000      0.000000      0.000000
 --------------------------------------------------------


 ---------------------------------------------------------------------------------
              Anisotropic Spin Dipole Couplings in Principal Axis System
 ---------------------------------------------------------------------------------

       Atom             a.u.   MegaHertz   Gauss  10(-4) cm-1        Axes

              Baa    -1.5279    46.172    16.475    15.401  0.0000  0.0000  1.0000
     1 Cr(53) Bbb     0.7639   -23.086    -8.238    -7.701 -0.0000  1.0000  0.0000
              Bcc     0.7639   -23.086    -8.238    -7.701  1.0000  0.0000  0.0000
 
              Baa    -0.0808   -43.099   -15.379   -14.376 -0.0000  1.0000  0.0000
     2 H(1)   Bbb    -0.0808   -43.099   -15.379   -14.376  1.0000  0.0000  0.0000
              Bcc     0.1616    86.199    30.758    28.753  0.0000  0.0000  1.0000
 

 ---------------------------------------------------------------------------------

 No NMR shielding tensors so no spin-rotation constants.
 Leave Link  601 at Mon Feb 26 16:11:29 2018, MaxMem=  8589934592 cpu:              86.3 elap:               5.6
 (Enter /home1/apps/gaussian/16rA.03/g16/l9999.exe)
 1\1\GINC-C412-134\SP\ROCCSD(T)-Full\Gen\Cr1H1(6)\AANNABE\26-Feb-2018\0
 \\#P ROCCSD(T)=(maxcyc=150, Full, SaveAmplitudes, ReadAmplitudes)/Gen 
 5d 7f SCF=(maxcycles=300) Integral(NoXCTest) MaxDisk=500GB Pop=Regular
  Pseudo=Read Guess=Read\\CrH\\0,6\Cr,0,0.,0.,0.\H,0,0.,0.,1.9\\Version
 =ES64L-G16RevA.03\State=6-SG\HF=-86.8781409\MP2=-87.430296\PUHF=-86.87
 81409\PMP2-0=-87.430296\CCSD=-87.4642483\CCSD(T)=-87.4808211\RMSD=3.36
 3e-09\PG=C*V [C*(H1Cr1)]\\@


 OLD AGE AND TREACHERY WILL ALWAYS PREVAIL OVER YOUTH AND SKILL.
 Job cpu time:       0 days  9 hours 24 minutes 44.0 seconds.
 Elapsed time:       0 days  0 hours 35 minutes 30.4 seconds.
 File lengths (MBytes):  RWF=   7485 Int=      0 D2E=      0 Chk=     32 Scr=      1
 Normal termination of Gaussian 16 at Mon Feb 26 16:11:29 2018.
