 Entering Gaussian System, Link 0=g16
 Initial command:
 /home1/apps/gaussian/16rA.03/g16/l1.exe "/tmp/Gau-275669.inp" -scrdir="/tmp/"
 Entering Link 1 = /home1/apps/gaussian/16rA.03/g16/l1.exe PID=    275670.
  
 Copyright (c) 1988,1990,1992,1993,1995,1998,2003,2009,2016,
            Gaussian, Inc.  All Rights Reserved.
  
 This is part of the Gaussian(R) 16 program.  It is based on
 the Gaussian(R) 09 system (copyright 2009, Gaussian, Inc.),
 the Gaussian(R) 03 system (copyright 2003, Gaussian, Inc.),
 the Gaussian(R) 98 system (copyright 1998, Gaussian, Inc.),
 the Gaussian(R) 94 system (copyright 1995, Gaussian, Inc.),
 the Gaussian 92(TM) system (copyright 1992, Gaussian, Inc.),
 the Gaussian 90(TM) system (copyright 1990, Gaussian, Inc.),
 the Gaussian 88(TM) system (copyright 1988, Gaussian, Inc.),
 the Gaussian 86(TM) system (copyright 1986, Carnegie Mellon
 University), and the Gaussian 82(TM) system (copyright 1983,
 Carnegie Mellon University). Gaussian is a federally registered
 trademark of Gaussian, Inc.
  
 This software contains proprietary and confidential information,
 including trade secrets, belonging to Gaussian, Inc.
  
 This software is provided under written license and may be
 used, copied, transmitted, or stored only in accord with that
 written license.
  
 The following legend is applicable only to US Government
 contracts under FAR:
  
                    RESTRICTED RIGHTS LEGEND
  
 Use, reproduction and disclosure by the US Government is
 subject to restrictions as set forth in subparagraphs (a)
 and (c) of the Commercial Computer Software - Restricted
 Rights clause in FAR 52.227-19.
  
 Gaussian, Inc.
 340 Quinnipiac St., Bldg. 40, Wallingford CT 06492
  
  
 ---------------------------------------------------------------
 Warning -- This program may not be used in any manner that
 competes with the business of Gaussian, Inc. or will provide
 assistance to any competitor of Gaussian, Inc.  The licensee
 of this program is prohibited from giving any competitor of
 Gaussian, Inc. access to this program.  By using this program,
 the user acknowledges that Gaussian, Inc. is engaged in the
 business of creating and licensing software in the field of
 computational chemistry and represents and warrants to the
 licensee that it is not a competitor of Gaussian, Inc. and that
 it will not use this program in any manner prohibited above.
 ---------------------------------------------------------------
  

 Cite this work as:
 Gaussian 16, Revision A.03,
 M. J. Frisch, G. W. Trucks, H. B. Schlegel, G. E. Scuseria, 
 M. A. Robb, J. R. Cheeseman, G. Scalmani, V. Barone, 
 G. A. Petersson, H. Nakatsuji, X. Li, M. Caricato, A. V. Marenich, 
 J. Bloino, B. G. Janesko, R. Gomperts, B. Mennucci, H. P. Hratchian, 
 J. V. Ortiz, A. F. Izmaylov, J. L. Sonnenberg, D. Williams-Young, 
 F. Ding, F. Lipparini, F. Egidi, J. Goings, B. Peng, A. Petrone, 
 T. Henderson, D. Ranasinghe, V. G. Zakrzewski, J. Gao, N. Rega, 
 G. Zheng, W. Liang, M. Hada, M. Ehara, K. Toyota, R. Fukuda, 
 J. Hasegawa, M. Ishida, T. Nakajima, Y. Honda, O. Kitao, H. Nakai, 
 T. Vreven, K. Throssell, J. A. Montgomery, Jr., J. E. Peralta, 
 F. Ogliaro, M. J. Bearpark, J. J. Heyd, E. N. Brothers, K. N. Kudin, 
 V. N. Staroverov, T. A. Keith, R. Kobayashi, J. Normand, 
 K. Raghavachari, A. P. Rendell, J. C. Burant, S. S. Iyengar, 
 J. Tomasi, M. Cossi, J. M. Millam, M. Klene, C. Adamo, R. Cammi, 
 J. W. Ochterski, R. L. Martin, K. Morokuma, O. Farkas, 
 J. B. Foresman, and D. J. Fox, Gaussian, Inc., Wallingford CT, 2016.
 
 ******************************************
 Gaussian 16:  ES64L-G16RevA.03 25-Dec-2016
                22-Apr-2018 
 ******************************************
 %mem=160GB
 %cpu=0-31
 SetSPE:  set environment variable "MP_BIND" = "yes"
 SetSPE:  set environment variable "MP_BLIST" = "0,1,2,3,4,5,6,7,8,9,10,11,12,13,14,15,16,17,18,19,20,21,22,23,24,25,26,27,28,29,30,31"
 Will use up to   32 processors via shared memory.
 %chk=tz.chk
 %rwf=/scratch/04843/gwang18/znh/
 ----------------------------------------------------------------------
 #P ROCCSD(T)=(MaxCyc=150, Full)/Gen SCF=(maxcycle=400, vshift=200) Pse
 udo=Read Integral(NoXCTest) Pop=Regular MaxDisk=500GB Guess=Read IOp(5
 /15=2)
 ----------------------------------------------------------------------
 1/38=1,172=1/1;
 2/12=2,17=6,18=5,40=1/2;
 3/5=7,11=2,16=1,17=8,25=1,30=1,47=8,116=101/1,2,3;
 4/5=1/1;
 5/5=2,7=400,10=200,15=2,38=6/2;
 8/5=-1,6=4,9=120000,10=90/1,4;
 9/5=7,6=150,14=2/13;
 6//1;
 99/5=1,9=1/99;
 Leave Link    1 at Sun Apr 22 22:58:38 2018, MaxMem= 21474836480 cpu:               2.4 elap:               0.1
 (Enter /home1/apps/gaussian/16rA.03/g16/l101.exe)
 ---
 FeH
 ---
 Symbolic Z-matrix:
 Charge =  0 Multiplicity = 4
 Fe                    0.        0.        0. 
 H                     0.        0.        1.4 
 
 ITRead=  0  0
 MicOpt= -1 -1
 NAtoms=      2 NQM=        2 NQMF=       0 NMMI=      0 NMMIF=      0
                NMic=       0 NMicF=      0.
                    Isotopes and Nuclear Properties:
 (Nuclear quadrupole moments (NQMom) in fm**2, nuclear magnetic moments (NMagM)
  in nuclear magnetons)

  Atom         1           2
 IAtWgt=          56           1
 AtmWgt=  55.9349393   1.0078250
 NucSpn=           0           1
 AtZEff=  -0.0000000  -0.0000000
 NQMom=    0.0000000   0.0000000
 NMagM=    0.0000000   2.7928460
 AtZNuc=  26.0000000   1.0000000
 Leave Link  101 at Sun Apr 22 22:58:38 2018, MaxMem= 21474836480 cpu:               2.8 elap:               0.1
 (Enter /home1/apps/gaussian/16rA.03/g16/l202.exe)
                          Input orientation:                          
 ---------------------------------------------------------------------
 Center     Atomic      Atomic             Coordinates (Angstroms)
 Number     Number       Type             X           Y           Z
 ---------------------------------------------------------------------
      1         26           0        0.000000    0.000000    0.000000
      2          1           0        0.000000    0.000000    1.400000
 ---------------------------------------------------------------------
 Stoichiometry    FeH(4)
 Framework group  C*V[C*(HFe)]
 Deg. of freedom     1
 Full point group                 C*V     NOp   4
 Largest Abelian subgroup         C2V     NOp   4
 Largest concise Abelian subgroup C1      NOp   1
                         Standard orientation:                         
 ---------------------------------------------------------------------
 Center     Atomic      Atomic             Coordinates (Angstroms)
 Number     Number       Type             X           Y           Z
 ---------------------------------------------------------------------
      1         26           0        0.000000    0.000000    0.051852
      2          1           0        0.000000    0.000000   -1.348148
 ---------------------------------------------------------------------
 Rotational constants (GHZ):           0.0000000         260.4541973         260.4541973
 Leave Link  202 at Sun Apr 22 22:58:38 2018, MaxMem= 21474836480 cpu:               0.5 elap:               0.0
 (Enter /home1/apps/gaussian/16rA.03/g16/l301.exe)
 General basis read from cards:  (5D, 7F)
 Centers:       1
 S 1 1.00
     Exponent=  4.3162650000D+06 Coefficients=  1.0000000000D+00
 S 1 1.00
     Exponent=  6.4634240000D+05 Coefficients=  1.0000000000D+00
 S 1 1.00
     Exponent=  1.4708970000D+05 Coefficients=  1.0000000000D+00
 S 1 1.00
     Exponent=  4.1661520000D+04 Coefficients=  1.0000000000D+00
 S 1 1.00
     Exponent=  1.3590770000D+04 Coefficients=  1.0000000000D+00
 S 1 1.00
     Exponent=  4.9057500000D+03 Coefficients=  1.0000000000D+00
 S 1 1.00
     Exponent=  1.9127460000D+03 Coefficients=  1.0000000000D+00
 S 1 1.00
     Exponent=  7.9260430000D+02 Coefficients=  1.0000000000D+00
 S 1 1.00
     Exponent=  3.4480650000D+02 Coefficients=  1.0000000000D+00
 S 1 1.00
     Exponent=  1.5589990000D+02 Coefficients=  1.0000000000D+00
 S 1 1.00
     Exponent=  7.2230910000D+01 Coefficients=  1.0000000000D+00
 S 1 1.00
     Exponent=  3.2725060000D+01 Coefficients=  1.0000000000D+00
 S 1 1.00
     Exponent=  1.5667620000D+01 Coefficients=  1.0000000000D+00
 S 1 1.00
     Exponent=  7.5034830000D+00 Coefficients=  1.0000000000D+00
 S 1 1.00
     Exponent=  3.3122230000D+00 Coefficients=  1.0000000000D+00
 S 1 1.00
     Exponent=  1.5584710000D+00 Coefficients=  1.0000000000D+00
 S 1 1.00
     Exponent=  6.8391400000D-01 Coefficients=  1.0000000000D+00
 S 1 1.00
     Exponent=  1.4675700000D-01 Coefficients=  1.0000000000D+00
 S 1 1.00
     Exponent=  7.0583000000D-02 Coefficients=  1.0000000000D+00
 S 1 1.00
     Exponent=  3.1449000000D-02 Coefficients=  1.0000000000D+00
 S 1 1.00
     Exponent=  4.6844000000D+00 Coefficients=  1.0000000000D+00
 S 1 1.00
     Exponent=  1.2204000000D+00 Coefficients=  1.0000000000D+00
 S 1 1.00
     Exponent=  1.4010000000D-02 Coefficients=  1.0000000000D+00
 P 1 1.00
     Exponent=  1.7745690000D+04 Coefficients=  1.0000000000D+00
 P 1 1.00
     Exponent=  4.2007210000D+03 Coefficients=  1.0000000000D+00
 P 1 1.00
     Exponent=  1.3644290000D+03 Coefficients=  1.0000000000D+00
 P 1 1.00
     Exponent=  5.2208060000D+02 Coefficients=  1.0000000000D+00
 P 1 1.00
     Exponent=  2.2145950000D+02 Coefficients=  1.0000000000D+00
 P 1 1.00
     Exponent=  1.0090960000D+02 Coefficients=  1.0000000000D+00
 P 1 1.00
     Exponent=  4.8401150000D+01 Coefficients=  1.0000000000D+00
 P 1 1.00
     Exponent=  2.3985360000D+01 Coefficients=  1.0000000000D+00
 P 1 1.00
     Exponent=  1.2182500000D+01 Coefficients=  1.0000000000D+00
 P 1 1.00
     Exponent=  6.2422980000D+00 Coefficients=  1.0000000000D+00
 P 1 1.00
     Exponent=  3.1109440000D+00 Coefficients=  1.0000000000D+00
 P 1 1.00
     Exponent=  1.5099580000D+00 Coefficients=  1.0000000000D+00
 P 1 1.00
     Exponent=  7.1084500000D-01 Coefficients=  1.0000000000D+00
 P 1 1.00
     Exponent=  2.7259800000D-01 Coefficients=  1.0000000000D+00
 P 1 1.00
     Exponent=  1.0397200000D-01 Coefficients=  1.0000000000D+00
 P 1 1.00
     Exponent=  3.8166000000D-02 Coefficients=  1.0000000000D+00
 P 1 1.00
     Exponent=  6.8788000000D+00 Coefficients=  1.0000000000D+00
 P 1 1.00
     Exponent=  1.5748000000D+00 Coefficients=  1.0000000000D+00
 P 1 1.00
     Exponent=  1.4010000000D-02 Coefficients=  1.0000000000D+00
 D 1 1.00
     Exponent=  1.1488400000D+02 Coefficients=  1.0000000000D+00
 D 1 1.00
     Exponent=  3.3887800000D+01 Coefficients=  1.0000000000D+00
 D 1 1.00
     Exponent=  1.2373000000D+01 Coefficients=  1.0000000000D+00
 D 1 1.00
     Exponent=  4.9992500000D+00 Coefficients=  1.0000000000D+00
 D 1 1.00
     Exponent=  2.0704300000D+00 Coefficients=  1.0000000000D+00
 D 1 1.00
     Exponent=  8.2818300000D-01 Coefficients=  1.0000000000D+00
 D 1 1.00
     Exponent=  3.0754700000D-01 Coefficients=  1.0000000000D+00
 D 1 1.00
     Exponent=  9.9455000000D-02 Coefficients=  1.0000000000D+00
 D 1 1.00
     Exponent=  4.5305000000D+00 Coefficients=  1.0000000000D+00
 D 1 1.00
     Exponent=  2.1205000000D+00 Coefficients=  1.0000000000D+00
 D 1 1.00
     Exponent=  3.2160000000D-02 Coefficients=  1.0000000000D+00
 F 1 1.00
     Exponent=  6.0066000000D+00 Coefficients=  1.0000000000D+00
 F 1 1.00
     Exponent=  2.2522000000D+00 Coefficients=  1.0000000000D+00
 F 1 1.00
     Exponent=  7.7580000000D-01 Coefficients=  1.0000000000D+00
 F 1 1.00
     Exponent=  2.6723000000D-01 Coefficients=  1.0000000000D+00
 G 1 1.00
     Exponent=  5.5068000000D+00 Coefficients=  1.0000000000D+00
 G 1 1.00
     Exponent=  2.0515000000D+00 Coefficients=  1.0000000000D+00
 G 1 1.00
     Exponent=  7.6426000000D-01 Coefficients=  1.0000000000D+00
 ****
 Centers:       2
 S 1 1.00
     Exponent=  3.3870000000D+01 Coefficients=  1.0000000000D+00
 S 1 1.00
     Exponent=  5.0950000000D+00 Coefficients=  1.0000000000D+00
 S 1 1.00
     Exponent=  1.1590000000D+00 Coefficients=  1.0000000000D+00
 S 1 1.00
     Exponent=  3.2580000000D-01 Coefficients=  1.0000000000D+00
 S 1 1.00
     Exponent=  1.0270000000D-01 Coefficients=  1.0000000000D+00
 S 1 1.00
     Exponent=  2.5260000000D-02 Coefficients=  1.0000000000D+00
 P 1 1.00
     Exponent=  1.4070000000D+00 Coefficients=  1.0000000000D+00
 P 1 1.00
     Exponent=  3.8800000000D-01 Coefficients=  1.0000000000D+00
 P 1 1.00
     Exponent=  1.0200000000D-01 Coefficients=  1.0000000000D+00
 D 1 1.00
     Exponent=  1.0570000000D+00 Coefficients=  1.0000000000D+00
 D 1 1.00
     Exponent=  2.4700000000D-01 Coefficients=  1.0000000000D+00
 ****
 ======================================================================================================
                                       Pseudopotential Parameters
 ======================================================================================================
  Center     Atomic      Valence      Angular      Power
  Number     Number     Electrons     Momentum     of R      Exponent        Coefficient   SO-Coeffient
 ======================================================================================================
    1         26           16
                                      D and up 
                                                     1       23.2209171       16.00000000    0.00000000
                                                     3       23.5471468      371.53467418    0.00000000
                                                     2       23.4725634     -181.22603445    0.00000000
                                                     2        9.8523882       -2.37305236    0.00000000
                                      S - D
                                                     2       22.2106270      277.50032547    0.00000000
                                                     2        9.5151580       46.20495585    0.00000000
                                      P - D
                                                     2       24.5700087      194.99875057    0.00000000
                                                     2        8.8664878       31.67945133    0.00000000
    2          1            1
                                      P and up 
                                                     2       21.7769666      -10.85192405    0.00000000
                                                     1       21.2435951        1.00000000    0.00000000
                                                     3       21.2435951       21.24359508    0.00000000
                                      S - P
                                                     2        1.0000000        0.00000000    0.00000000
 ======================================================================================================
 Ernie: Thresh=  0.10000D-02 Tol=  0.10000D-05 Strict=F.
 There are   120 symmetry adapted cartesian basis functions of A1  symmetry.
 There are    26 symmetry adapted cartesian basis functions of A2  symmetry.
 There are    56 symmetry adapted cartesian basis functions of B1  symmetry.
 There are    56 symmetry adapted cartesian basis functions of B2  symmetry.
 There are    94 symmetry adapted basis functions of A1  symmetry.
 There are    23 symmetry adapted basis functions of A2  symmetry.
 There are    49 symmetry adapted basis functions of B1  symmetry.
 There are    49 symmetry adapted basis functions of B2  symmetry.
   215 basis functions,   258 primitive gaussians,   258 cartesian basis functions
    10 alpha electrons        7 beta electrons
       nuclear repulsion energy         6.0477395534 Hartrees.
 IExCor=    0 DFT=F Ex=HF Corr=None ExCW=0 ScaHFX=  1.000000
 ScaDFX=  1.000000  1.000000  1.000000  1.000000 ScalE2=  1.000000  1.000000
 IRadAn=      5 IRanWt=     -1 IRanGd=            0 ICorTp=0 IEmpDi=  4
 NAtoms=    2 NActive=    2 NUniq=    2 SFac= 1.00D+00 NAtFMM=   60 NAOKFM=F Big=F
 Integral buffers will be    131072 words long.
 Raffenetti 2 integral format.
 Two-electron integral symmetry is turned on.
 Leave Link  301 at Sun Apr 22 22:58:39 2018, MaxMem= 21474836480 cpu:               3.1 elap:               0.1
 (Enter /home1/apps/gaussian/16rA.03/g16/l302.exe)
 NPDir=0 NMtPBC=     1 NCelOv=     1 NCel=       1 NClECP=     1 NCelD=      1
         NCelK=      1 NCelE2=     1 NClLst=     1 CellRange=     0.0.
 One-electron integrals computed using PRISM.
 One-electron integral symmetry used in STVInt
   4 Symmetry operations used in ECPInt.
 ECPInt:  NShTT=    2556 NPrTT=    2556 LenC2=    2534 LenP2D=    2533.
 LDataN:  DoStor=T MaxTD1= 8 Len=  415
 NBasis=   215 RedAO= T EigKep=  2.28D-06  NBF=    94    23    49    49
 NBsUse=   212 1.00D-06 EigRej=  9.64D-07 NBFU=    93    23    48    48
 Leave Link  302 at Sun Apr 22 22:58:39 2018, MaxMem= 21474836480 cpu:               7.0 elap:               0.2
 (Enter /home1/apps/gaussian/16rA.03/g16/l303.exe)
 DipDrv:  MaxL=1.
 Leave Link  303 at Sun Apr 22 22:58:39 2018, MaxMem= 21474836480 cpu:               1.1 elap:               0.1
 (Enter /home1/apps/gaussian/16rA.03/g16/l401.exe)
 Initial guess from the checkpoint file:  "tz.chk"
 B after Tr=     0.000000    0.000000    0.000000
         Rot=    1.000000    0.000000    0.000000    0.000000 Ang=   0.00 deg.
 Guess basis will be translated and rotated to current coordinates.
 JPrj=2 DoOrth=T DoCkMO=T.
 Initial guess orbital symmetries:
       Occupied  (SG) (SG) (PI) (PI) (SG) (?A) (SG) (PI) (PI) (?A)
       Virtual   (SG) (PI) (PI) (SG) (SG) (PI) (PI) (SG) (DLTA)
                 (DLTA) (PI) (PI) (SG) (SG) (SG) (PI) (PI) (SG)
                 (PI) (PI) (?A) (?A) (SG) (PI) (PI) (SG) (SG) (SG)
                 (DLTA) (DLTA) (PI) (PI) (SG) (PHI) (PHI) (PI)
                 (PI) (SG) (PI) (PI) (?A) (?A) (PI) (PI) (SG) (?A)
                 (?A) (SG) (PI) (PI) (SG) (SG) (SG) (?B) (?B) (?B)
                 (?B) (DLTA) (?B) (?B) (DLTA) (SG) (SG) (PI) (PI)
                 (SG) (DLTA) (DLTA) (DLTA) (DLTA) (PHI) (PHI) (?C)
                 (?C) (PI) (PI) (DLTA) (DLTA) (SG) (PI) (PI) (PI)
                 (PI) (SG) (SG) (SG) (?D) (?D) (DLTA) (DLTA) (PI)
                 (PI) (SG) (DLTA) (DLTA) (?D) (?D) (PI) (PI) (SG)
                 (SG) (?D) (?D) (?E) (?E) (DLTA) (DLTA) (?D) (?D)
                 (?E) (SG) (SG) (DLTA) (DLTA) (PI) (PI) (SG) (PI)
                 (PI) (SG) (?D) (?D) (DLTA) (DLTA) (?D) (?D) (SG)
                 (?D) (?D) (?F) (?F) (DLTA) (DLTA) (?D) (?D) (?F)
                 (SG) (DLTA) (DLTA) (PI) (PI) (SG) (PI) (PI) (SG)
                 (DLTA) (DLTA) (PI) (PI) (SG) (SG) (SG) (PI) (PI)
                 (SG) (SG) (DLTA) (DLTA) (PI) (PI) (SG) (PI) (PI)
                 (SG) (SG) (PI) (PI) (SG) (SG) (DLTA) (DLTA) (PI)
                 (PI) (SG) (PI) (PI) (SG) (SG) (PI) (PI) (SG) (SG)
                 (PI) (PI) (SG) (SG) (PI) (PI) (SG) (SG) (PI) (PI)
                 (SG) (SG) (SG) (PI) (PI) (SG) (SG) (SG) (SG) (SG)
 Leave Link  401 at Sun Apr 22 22:58:39 2018, MaxMem= 21474836480 cpu:               4.7 elap:               0.2
 (Enter /home1/apps/gaussian/16rA.03/g16/l502.exe)
 Keep R1 and R2 ints in memory in symmetry-blocked form, NReq=338797193.
 FoFCou: FMM=F IPFlag=           8 FMFlag=           0 FMFlg1=           0
         NFxFlg=           0 DoJE=F BraDBF=F KetDBF=F FulRan=T
         wScrn=  0.000000 ICntrl=       600 IOpCl=  0 I1Cent=           0 NGrid=           0
         NMat0=    1 NMatS0=  23220 NMatT0=    0 NMatD0=    1 NMtDS0=    0 NMtDT0=    0
 Petite list used in FoFCou.
 Restricted open shell SCF:
 Using DIIS extrapolation, IDIIS=  1040.
 NGot= 21474836480 LenX= 21336348183 LenY= 21336281178
 Requested convergence on RMS density matrix=1.00D-08 within 400 cycles.
 Requested convergence on MAX density matrix=1.00D-06.
 Requested convergence on             energy=1.00D-06.
 Virtual orbitals will be shifted by   0.200 hartree.
 No special actions if energy rises.

 Cycle   1  Pass 1  IDiag  1:
 E= -123.002666668361    
 DIIS: error= 2.38D-01 at cycle   1 NSaved=   1.
 NSaved= 1 IEnMin= 1 EnMin= -123.002666668361     IErMin= 1 ErrMin= 2.38D-01
 ErrMax= 2.38D-01  0.00D+00 EMaxC= 1.00D-01 BMatC= 5.78D+00 BMatP= 5.78D+00
 IDIUse=3 WtCom= 0.00D+00 WtEn= 1.00D+00
 Coeff-Com:  0.100D+01
 Coeff-En:   0.100D+01
 Coeff:      0.100D+01
 Gap=     0.024 Goal=   None    Shift=    0.200
 GapD=    0.024 DampG=0.250 DampE=0.125 DampFc=0.1250 IDamp=-1.
 Damping current iteration by 1.25D-01
 RMSDP=3.72D-03 MaxDP=2.92D-01              OVMax= 1.60D-02

 Cycle   2  Pass 1  IDiag  1:
 E= -123.015445799725     Delta-E=       -0.012779131364 Rises=F Damp=T
 DIIS: error= 2.07D-01 at cycle   2 NSaved=   2.
 NSaved= 2 IEnMin= 2 EnMin= -123.015445799725     IErMin= 2 ErrMin= 2.07D-01
 ErrMax= 2.07D-01  0.00D+00 EMaxC= 1.00D-01 BMatC= 4.42D+00 BMatP= 5.78D+00
 IDIUse=3 WtCom= 0.00D+00 WtEn= 1.00D+00
 Coeff-Com: -0.692D+01 0.792D+01
 Coeff-En:   0.000D+00 0.100D+01
 Coeff:      0.000D+00 0.100D+01
 Gap=     0.012 Goal=   None    Shift=    0.200
 RMSDP=3.26D-03 MaxDP=2.57D-01 DE=-1.28D-02 OVMax= 6.04D-03

 Cycle   3  Pass 1  IDiag  1:
 E= -123.105187006912     Delta-E=       -0.089741207187 Rises=F Damp=F
 DIIS: error= 8.40D-03 at cycle   3 NSaved=   3.
 NSaved= 3 IEnMin= 3 EnMin= -123.105187006912     IErMin= 3 ErrMin= 8.40D-03
 ErrMax= 8.40D-03  0.00D+00 EMaxC= 1.00D-01 BMatC= 4.60D-03 BMatP= 4.42D+00
 IDIUse=3 WtCom= 9.16D-01 WtEn= 8.40D-02
 Coeff-Com:  0.178D+01-0.205D+01 0.127D+01
 Coeff-En:   0.000D+00 0.000D+00 0.100D+01
 Coeff:      0.163D+01-0.187D+01 0.125D+01
 Gap=     0.037 Goal=   None    Shift=    0.200
 RMSDP=1.39D-04 MaxDP=5.67D-03 DE=-8.97D-02 OVMax= 1.11D-02

 Cycle   4  Pass 1  IDiag  1:
 E= -123.105799387782     Delta-E=       -0.000612380870 Rises=F Damp=F
 DIIS: error= 4.56D-03 at cycle   4 NSaved=   4.
 NSaved= 4 IEnMin= 4 EnMin= -123.105799387782     IErMin= 4 ErrMin= 4.56D-03
 ErrMax= 4.56D-03  0.00D+00 EMaxC= 1.00D-01 BMatC= 1.94D-03 BMatP= 4.60D-03
 IDIUse=3 WtCom= 9.54D-01 WtEn= 4.56D-02
 Coeff-Com:  0.486D+00-0.561D+00 0.492D+00 0.582D+00
 Coeff-En:   0.000D+00 0.000D+00 0.318D+00 0.682D+00
 Coeff:      0.464D+00-0.535D+00 0.484D+00 0.586D+00
 Gap=     0.022 Goal=   None    Shift=    0.200
 RMSDP=6.66D-05 MaxDP=2.85D-03 DE=-6.12D-04 OVMax= 5.22D-03

 Cycle   5  Pass 1  IDiag  1:
 E= -123.106264909863     Delta-E=       -0.000465522081 Rises=F Damp=F
 DIIS: error= 9.91D-04 at cycle   5 NSaved=   5.
 NSaved= 5 IEnMin= 5 EnMin= -123.106264909863     IErMin= 5 ErrMin= 9.91D-04
 ErrMax= 9.91D-04  0.00D+00 EMaxC= 1.00D-01 BMatC= 3.81D-05 BMatP= 1.94D-03
 IDIUse=3 WtCom= 9.90D-01 WtEn= 9.91D-03
 Coeff-Com:  0.360D+00-0.411D+00 0.437D-01-0.828D-01 0.109D+01
 Coeff-En:   0.000D+00 0.000D+00 0.000D+00 0.000D+00 0.100D+01
 Coeff:      0.356D+00-0.407D+00 0.432D-01-0.819D-01 0.109D+01
 Gap=     0.021 Goal=   None    Shift=    0.200
 RMSDP=3.10D-05 MaxDP=2.04D-03 DE=-4.66D-04 OVMax= 3.84D-03

 Cycle   6  Pass 1  IDiag  1:
 E= -123.106305919557     Delta-E=       -0.000041009694 Rises=F Damp=F
 DIIS: error= 7.00D-04 at cycle   6 NSaved=   6.
 NSaved= 6 IEnMin= 6 EnMin= -123.106305919557     IErMin= 6 ErrMin= 7.00D-04
 ErrMax= 7.00D-04  0.00D+00 EMaxC= 1.00D-01 BMatC= 2.96D-05 BMatP= 3.81D-05
 IDIUse=3 WtCom= 9.93D-01 WtEn= 7.00D-03
 Coeff-Com:  0.361D+00-0.412D+00 0.542D-01 0.242D-01-0.128D+00 0.110D+01
 Coeff-En:   0.000D+00 0.000D+00 0.000D+00 0.000D+00 0.000D+00 0.100D+01
 Coeff:      0.358D+00-0.409D+00 0.538D-01 0.241D-01-0.127D+00 0.110D+01
 Gap=     0.022 Goal=   None    Shift=    0.200
 RMSDP=1.86D-05 MaxDP=1.34D-03 DE=-4.10D-05 OVMax= 3.04D-03

 Cycle   7  Pass 1  IDiag  1:
 E= -123.106328858374     Delta-E=       -0.000022938817 Rises=F Damp=F
 DIIS: error= 7.26D-04 at cycle   7 NSaved=   7.
 NSaved= 7 IEnMin= 7 EnMin= -123.106328858374     IErMin= 6 ErrMin= 7.00D-04
 ErrMax= 7.26D-04  0.00D+00 EMaxC= 1.00D-01 BMatC= 2.63D-05 BMatP= 2.96D-05
 IDIUse=3 WtCom= 9.93D-01 WtEn= 7.00D-03
 Coeff-Com:  0.341D+00-0.390D+00 0.623D-01 0.402D-01-0.334D+00-0.584D+00
 Coeff-Com:  0.186D+01
 Coeff-En:   0.000D+00 0.000D+00 0.000D+00 0.000D+00 0.000D+00 0.000D+00
 Coeff-En:   0.100D+01
 Coeff:      0.339D+00-0.387D+00 0.619D-01 0.399D-01-0.331D+00-0.580D+00
 Coeff:      0.186D+01
 Gap=     0.022 Goal=   None    Shift=    0.200
 RMSDP=2.42D-05 MaxDP=1.49D-03 DE=-2.29D-05 OVMax= 4.00D-03

 Cycle   8  Pass 1  IDiag  1:
 E= -123.106355936130     Delta-E=       -0.000027077756 Rises=F Damp=F
 DIIS: error= 6.60D-04 at cycle   8 NSaved=   8.
 NSaved= 8 IEnMin= 8 EnMin= -123.106355936130     IErMin= 8 ErrMin= 6.60D-04
 ErrMax= 6.60D-04  0.00D+00 EMaxC= 1.00D-01 BMatC= 1.99D-05 BMatP= 2.63D-05
 IDIUse=3 WtCom= 9.93D-01 WtEn= 6.60D-03
 Coeff-Com:  0.288D+00-0.329D+00 0.540D-01-0.655D-02-0.221D-01-0.756D+00
 Coeff-Com:  0.217D+00 0.156D+01
 Coeff-En:   0.000D+00 0.000D+00 0.000D+00 0.000D+00 0.000D+00 0.000D+00
 Coeff-En:   0.000D+00 0.100D+01
 Coeff:      0.286D+00-0.327D+00 0.537D-01-0.651D-02-0.220D-01-0.751D+00
 Coeff:      0.215D+00 0.155D+01
 Gap=     0.023 Goal=   None    Shift=    0.200
 RMSDP=2.22D-05 MaxDP=1.35D-03 DE=-2.71D-05 OVMax= 4.12D-03

 Cycle   9  Pass 1  IDiag  1:
 E= -123.106377810988     Delta-E=       -0.000021874859 Rises=F Damp=F
 DIIS: error= 5.64D-04 at cycle   9 NSaved=   9.
 NSaved= 9 IEnMin= 9 EnMin= -123.106377810988     IErMin= 9 ErrMin= 5.64D-04
 ErrMax= 5.64D-04  0.00D+00 EMaxC= 1.00D-01 BMatC= 1.38D-05 BMatP= 1.99D-05
 IDIUse=3 WtCom= 9.94D-01 WtEn= 5.64D-03
 Coeff-Com:  0.236D+00-0.270D+00 0.432D-01-0.528D-02 0.134D-01-0.158D+00
 Coeff-Com: -0.105D+00-0.151D+00 0.140D+01
 Coeff-En:   0.000D+00 0.000D+00 0.000D+00 0.000D+00 0.000D+00 0.000D+00
 Coeff-En:   0.000D+00 0.000D+00 0.100D+01
 Coeff:      0.235D+00-0.269D+00 0.430D-01-0.525D-02 0.133D-01-0.157D+00
 Coeff:     -0.104D+00-0.150D+00 0.139D+01
 Gap=     0.023 Goal=   None    Shift=    0.200
 RMSDP=1.50D-05 MaxDP=8.31D-04 DE=-2.19D-05 OVMax= 2.82D-03

 Cycle  10  Pass 1  IDiag  1:
 E= -123.106389752566     Delta-E=       -0.000011941578 Rises=F Damp=F
 DIIS: error= 4.65D-04 at cycle  10 NSaved=  10.
 NSaved=10 IEnMin=10 EnMin= -123.106389752566     IErMin=10 ErrMin= 4.65D-04
 ErrMax= 4.65D-04  0.00D+00 EMaxC= 1.00D-01 BMatC= 9.45D-06 BMatP= 1.38D-05
 IDIUse=3 WtCom= 9.95D-01 WtEn= 4.65D-03
 Coeff-Com:  0.153D+00-0.175D+00 0.266D-01 0.707D-02-0.282D-01 0.326D+00
 Coeff-Com: -0.322D-01-0.135D+01 0.462D+00 0.161D+01
 Coeff-En:   0.000D+00 0.000D+00 0.000D+00 0.000D+00 0.000D+00 0.000D+00
 Coeff-En:   0.000D+00 0.000D+00 0.000D+00 0.100D+01
 Coeff:      0.152D+00-0.174D+00 0.265D-01 0.704D-02-0.280D-01 0.324D+00
 Coeff:     -0.320D-01-0.135D+01 0.460D+00 0.161D+01
 Gap=     0.023 Goal=   None    Shift=    0.200
 RMSDP=1.59D-05 MaxDP=8.17D-04 DE=-1.19D-05 OVMax= 3.05D-03

 Cycle  11  Pass 1  IDiag  1:
 E= -123.106399938252     Delta-E=       -0.000010185686 Rises=F Damp=F
 DIIS: error= 3.07D-04 at cycle  11 NSaved=  11.
 NSaved=11 IEnMin=11 EnMin= -123.106399938252     IErMin=11 ErrMin= 3.07D-04
 ErrMax= 3.07D-04  0.00D+00 EMaxC= 1.00D-01 BMatC= 4.09D-06 BMatP= 9.45D-06
 IDIUse=3 WtCom= 9.97D-01 WtEn= 3.07D-03
 Coeff-Com:  0.923D-01-0.105D+00 0.161D-01 0.820D-02-0.937D-01 0.130D+00
 Coeff-Com:  0.436D+00-0.826D+00-0.432D+00 0.532D+00 0.124D+01
 Coeff-En:   0.000D+00 0.000D+00 0.000D+00 0.000D+00 0.000D+00 0.000D+00
 Coeff-En:   0.000D+00 0.000D+00 0.000D+00 0.000D+00 0.100D+01
 Coeff:      0.920D-01-0.105D+00 0.161D-01 0.817D-02-0.934D-01 0.129D+00
 Coeff:      0.435D+00-0.823D+00-0.431D+00 0.531D+00 0.124D+01
 Gap=     0.023 Goal=   None    Shift=    0.200
 RMSDP=9.58D-06 MaxDP=5.57D-04 DE=-1.02D-05 OVMax= 1.91D-03

 Cycle  12  Pass 1  IDiag  1:
 E= -123.106404538511     Delta-E=       -0.000004600259 Rises=F Damp=F
 DIIS: error= 1.91D-04 at cycle  12 NSaved=  12.
 NSaved=12 IEnMin=12 EnMin= -123.106404538511     IErMin=12 ErrMin= 1.91D-04
 ErrMax= 1.91D-04  0.00D+00 EMaxC= 1.00D-01 BMatC= 1.51D-06 BMatP= 4.09D-06
 IDIUse=3 WtCom= 9.98D-01 WtEn= 1.91D-03
 Coeff-Com:  0.237D-01-0.271D-01 0.595D-02 0.319D-02-0.643D-01-0.983D-01
 Coeff-Com:  0.252D+00 0.853D-01-0.489D+00 0.249D+00-0.901D+00 0.196D+01
 Coeff-En:   0.000D+00 0.000D+00 0.000D+00 0.000D+00 0.000D+00 0.000D+00
 Coeff-En:   0.000D+00 0.000D+00 0.000D+00 0.000D+00 0.000D+00 0.100D+01
 Coeff:      0.236D-01-0.270D-01 0.593D-02 0.319D-02-0.642D-01-0.981D-01
 Coeff:      0.251D+00 0.851D-01-0.488D+00 0.249D+00-0.900D+00 0.196D+01
 Gap=     0.023 Goal=   None    Shift=    0.200
 RMSDP=8.76D-06 MaxDP=5.28D-04 DE=-4.60D-06 OVMax= 1.60D-03

 Cycle  13  Pass 1  IDiag  1:
 E= -123.106406663474     Delta-E=       -0.000002124963 Rises=F Damp=F
 DIIS: error= 6.31D-05 at cycle  13 NSaved=  13.
 NSaved=13 IEnMin=13 EnMin= -123.106406663474     IErMin=13 ErrMin= 6.31D-05
 ErrMax= 6.31D-05  0.00D+00 EMaxC= 1.00D-01 BMatC= 2.59D-07 BMatP= 1.51D-06
 IDIUse=1 WtCom= 1.00D+00 WtEn= 0.00D+00
 Coeff-Com: -0.190D-01 0.217D-01-0.178D-02 0.167D-02-0.314D-01-0.307D-01
 Coeff-Com: -0.771D-01 0.298D+00-0.782D-01 0.441D+00-0.193D+01 0.120D+01
 Coeff-Com:  0.121D+01
 Coeff:     -0.190D-01 0.217D-01-0.178D-02 0.167D-02-0.314D-01-0.307D-01
 Coeff:     -0.771D-01 0.298D+00-0.782D-01 0.441D+00-0.193D+01 0.120D+01
 Coeff:      0.121D+01
 Gap=     0.023 Goal=   None    Shift=    0.200
 RMSDP=4.94D-06 MaxDP=3.20D-04 DE=-2.12D-06 OVMax= 8.62D-04

 Cycle  14  Pass 1  IDiag  1:
 E= -123.106407219277     Delta-E=       -0.000000555803 Rises=F Damp=F
 DIIS: error= 5.09D-05 at cycle  14 NSaved=  14.
 NSaved=14 IEnMin=14 EnMin= -123.106407219277     IErMin=14 ErrMin= 5.09D-05
 ErrMax= 5.09D-05  0.00D+00 EMaxC= 1.00D-01 BMatC= 9.41D-08 BMatP= 2.59D-07
 IDIUse=1 WtCom= 1.00D+00 WtEn= 0.00D+00
 Coeff-Com: -0.333D-01 0.380D-01-0.504D-02 0.385D-02-0.230D-01 0.113D+00
 Coeff-Com: -0.213D+00 0.385D-01 0.809D-01 0.491D+00-0.114D+01 0.737D+00
 Coeff-Com: -0.623D+00 0.154D+01
 Coeff:     -0.333D-01 0.380D-01-0.504D-02 0.385D-02-0.230D-01 0.113D+00
 Coeff:     -0.213D+00 0.385D-01 0.809D-01 0.491D+00-0.114D+01 0.737D+00
 Coeff:     -0.623D+00 0.154D+01
 Gap=     0.023 Goal=   None    Shift=    0.200
 RMSDP=2.46D-06 MaxDP=1.53D-04 DE=-5.56D-07 OVMax= 4.19D-04

 Cycle  15  Pass 1  IDiag  1:
 E= -123.106407282422     Delta-E=       -0.000000063145 Rises=F Damp=F
 DIIS: error= 6.15D-05 at cycle  15 NSaved=  15.
 NSaved=15 IEnMin=15 EnMin= -123.106407282422     IErMin=14 ErrMin= 5.09D-05
 ErrMax= 6.15D-05  0.00D+00 EMaxC= 1.00D-01 BMatC= 1.62D-07 BMatP= 9.41D-08
 IDIUse=1 WtCom= 1.00D+00 WtEn= 0.00D+00
 Coeff-Com: -0.313D-01 0.358D-01-0.522D-02 0.269D-02-0.158D-01 0.888D-01
 Coeff-Com: -0.128D+00-0.556D-02-0.286D-01 0.273D+00-0.370D+00 0.504D+00
 Coeff-Com: -0.750D+00 0.198D+00 0.123D+01
 Coeff:     -0.313D-01 0.358D-01-0.522D-02 0.269D-02-0.158D-01 0.888D-01
 Coeff:     -0.128D+00-0.556D-02-0.286D-01 0.273D+00-0.370D+00 0.504D+00
 Coeff:     -0.750D+00 0.198D+00 0.123D+01
 Gap=     0.023 Goal=   None    Shift=    0.200
 RMSDP=1.05D-06 MaxDP=4.64D-05 DE=-6.31D-08 OVMax= 1.69D-04

 Cycle  16  Pass 1  IDiag  1:
 E= -123.106407288858     Delta-E=       -0.000000006436 Rises=F Damp=F
 DIIS: error= 5.67D-05 at cycle  16 NSaved=  16.
 NSaved=16 IEnMin=16 EnMin= -123.106407288858     IErMin=14 ErrMin= 5.09D-05
 ErrMax= 5.67D-05  0.00D+00 EMaxC= 1.00D-01 BMatC= 1.46D-07 BMatP= 9.41D-08
 IDIUse=1 WtCom= 1.00D+00 WtEn= 0.00D+00
 Coeff-Com: -0.201D-01 0.230D-01-0.334D-02-0.464D-04-0.522D-02 0.151D-02
 Coeff-Com: -0.216D-01 0.877D-01-0.130D+00 0.775D-01-0.156D+00 0.302D+00
 Coeff-Com:  0.412D-01-0.276D+00-0.440D+00 0.152D+01
 Coeff:     -0.201D-01 0.230D-01-0.334D-02-0.464D-04-0.522D-02 0.151D-02
 Coeff:     -0.216D-01 0.877D-01-0.130D+00 0.775D-01-0.156D+00 0.302D+00
 Coeff:      0.412D-01-0.276D+00-0.440D+00 0.152D+01
 Gap=     0.023 Goal=   None    Shift=    0.200
 RMSDP=5.68D-07 MaxDP=3.67D-05 DE=-6.44D-09 OVMax= 5.75D-05

 Cycle  17  Pass 1  IDiag  1:
 E= -123.106407323076     Delta-E=       -0.000000034218 Rises=F Damp=F
 DIIS: error= 3.83D-05 at cycle  17 NSaved=  17.
 NSaved=17 IEnMin=17 EnMin= -123.106407323076     IErMin=17 ErrMin= 3.83D-05
 ErrMax= 3.83D-05  0.00D+00 EMaxC= 1.00D-01 BMatC= 6.66D-08 BMatP= 9.41D-08
 IDIUse=1 WtCom= 1.00D+00 WtEn= 0.00D+00
 Coeff-Com: -0.138D-01 0.158D-01-0.225D-02 0.233D-03-0.449D-02 0.163D-01
 Coeff-Com: -0.444D-01 0.589D-01-0.730D-01 0.115D+00-0.205D+00 0.195D+00
 Coeff-Com:  0.257D-01 0.919D-02 0.329D-01-0.248D+00 0.112D+01
 Coeff:     -0.138D-01 0.158D-01-0.225D-02 0.233D-03-0.449D-02 0.163D-01
 Coeff:     -0.444D-01 0.589D-01-0.730D-01 0.115D+00-0.205D+00 0.195D+00
 Coeff:      0.257D-01 0.919D-02 0.329D-01-0.248D+00 0.112D+01
 Gap=     0.023 Goal=   None    Shift=    0.200
 RMSDP=3.54D-07 MaxDP=1.74D-05 DE=-3.42D-08 OVMax= 4.87D-05

 Cycle  18  Pass 1  IDiag  1:
 E= -123.106407344545     Delta-E=       -0.000000021470 Rises=F Damp=F
 DIIS: error= 2.73D-05 at cycle  18 NSaved=  18.
 NSaved=18 IEnMin=18 EnMin= -123.106407344545     IErMin=18 ErrMin= 2.73D-05
 ErrMax= 2.73D-05  0.00D+00 EMaxC= 1.00D-01 BMatC= 3.22D-08 BMatP= 6.66D-08
 IDIUse=1 WtCom= 1.00D+00 WtEn= 0.00D+00
 Coeff-Com: -0.564D-02 0.645D-02-0.109D-02 0.827D-04 0.455D-02-0.117D-02
 Coeff-Com: -0.106D-01 0.665D-02-0.179D-01 0.315D-01 0.452D-01-0.930D-01
 Coeff-Com: -0.325D-01-0.417D-01 0.447D+00-0.527D-01-0.253D+01 0.324D+01
 Coeff:     -0.564D-02 0.645D-02-0.109D-02 0.827D-04 0.455D-02-0.117D-02
 Coeff:     -0.106D-01 0.665D-02-0.179D-01 0.315D-01 0.452D-01-0.930D-01
 Coeff:     -0.325D-01-0.417D-01 0.447D+00-0.527D-01-0.253D+01 0.324D+01
 Gap=     0.023 Goal=   None    Shift=    0.200
 RMSDP=3.67D-07 MaxDP=2.04D-05 DE=-2.15D-08 OVMax= 5.15D-05

 Cycle  19  Pass 1  IDiag  1:
 E= -123.106407360229     Delta-E=       -0.000000015684 Rises=F Damp=F
 DIIS: error= 1.26D-05 at cycle  19 NSaved=  19.
 NSaved=19 IEnMin=19 EnMin= -123.106407360229     IErMin=19 ErrMin= 1.26D-05
 ErrMax= 1.26D-05  0.00D+00 EMaxC= 1.00D-01 BMatC= 8.04D-09 BMatP= 3.22D-08
 IDIUse=1 WtCom= 1.00D+00 WtEn= 0.00D+00
 Coeff-Com: -0.436D-02 0.498D-02-0.833D-03-0.692D-04 0.303D-02-0.689D-02
 Coeff-Com:  0.713D-02 0.318D-02-0.363D-01 0.277D-01 0.407D-01-0.303D-01
 Coeff-Com: -0.322D-01-0.144D+00 0.374D+00 0.519D+00-0.268D+01 0.212D+01
 Coeff-Com:  0.831D+00
 Coeff:     -0.436D-02 0.498D-02-0.833D-03-0.692D-04 0.303D-02-0.689D-02
 Coeff:      0.713D-02 0.318D-02-0.363D-01 0.277D-01 0.407D-01-0.303D-01
 Coeff:     -0.322D-01-0.144D+00 0.374D+00 0.519D+00-0.268D+01 0.212D+01
 Coeff:      0.831D+00
 Gap=     0.023 Goal=   None    Shift=    0.200
 RMSDP=1.68D-07 MaxDP=1.42D-05 DE=-1.57D-08 OVMax= 2.50D-05

 Cycle  20  Pass 1  IDiag  1:
 E= -123.106407364726     Delta-E=       -0.000000004497 Rises=F Damp=F
 DIIS: error= 9.32D-06 at cycle  20 NSaved=  20.
 NSaved=20 IEnMin=20 EnMin= -123.106407364726     IErMin=20 ErrMin= 9.32D-06
 ErrMax= 9.32D-06  0.00D+00 EMaxC= 1.00D-01 BMatC= 4.05D-09 BMatP= 8.04D-09
 IDIUse=1 WtCom= 1.00D+00 WtEn= 0.00D+00
 Coeff-Com: -0.370D-02 0.423D-02-0.670D-03-0.692D-04 0.122D-02-0.601D-02
 Coeff-Com:  0.184D-02 0.181D-01-0.313D-01 0.188D-01-0.284D-03-0.170D-01
 Coeff-Com:  0.846D-01-0.170D+00 0.869D-01 0.108D+00-0.220D+00 0.349D+00
 Coeff-Com: -0.124D+01 0.201D+01
 Coeff:     -0.370D-02 0.423D-02-0.670D-03-0.692D-04 0.122D-02-0.601D-02
 Coeff:      0.184D-02 0.181D-01-0.313D-01 0.188D-01-0.284D-03-0.170D-01
 Coeff:      0.846D-01-0.170D+00 0.869D-01 0.108D+00-0.220D+00 0.349D+00
 Coeff:     -0.124D+01 0.201D+01
 Gap=     0.023 Goal=   None    Shift=    0.200
 RMSDP=1.21D-07 MaxDP=8.87D-06 DE=-4.50D-09 OVMax= 1.35D-05

 Cycle  21  Pass 1  IDiag  1:
 E= -123.106407366345     Delta-E=       -0.000000001619 Rises=F Damp=F
 DIIS: error= 7.75D-06 at cycle  21 NSaved=  20.
 NSaved=20 IEnMin=20 EnMin= -123.106407366345     IErMin=20 ErrMin= 7.75D-06
 ErrMax= 7.75D-06  0.00D+00 EMaxC= 1.00D-01 BMatC= 2.63D-09 BMatP= 4.05D-09
 IDIUse=1 WtCom= 1.00D+00 WtEn= 0.00D+00
 Coeff-Com: -0.297D-06-0.285D-05 0.747D-05 0.495D-03-0.199D-02-0.159D-04
 Coeff-Com:  0.373D-02-0.743D-02 0.200D-01-0.141D-01-0.380D-01 0.889D-01
 Coeff-Com: -0.674D-01 0.138D+00-0.484D+00 0.586D+00-0.132D+00-0.786D+00
 Coeff-Com: -0.777D-02 0.170D+01
 Coeff:     -0.297D-06-0.285D-05 0.747D-05 0.495D-03-0.199D-02-0.159D-04
 Coeff:      0.373D-02-0.743D-02 0.200D-01-0.141D-01-0.380D-01 0.889D-01
 Coeff:     -0.674D-01 0.138D+00-0.484D+00 0.586D+00-0.132D+00-0.786D+00
 Coeff:     -0.777D-02 0.170D+01
 Gap=     0.023 Goal=   None    Shift=    0.200
 RMSDP=2.20D-07 MaxDP=1.56D-05 DE=-1.62D-09 OVMax= 2.38D-05

 Cycle  22  Pass 1  IDiag  1:
 E= -123.106407368098     Delta-E=       -0.000000001753 Rises=F Damp=F
 DIIS: error= 2.03D-06 at cycle  22 NSaved=  20.
 NSaved=20 IEnMin=20 EnMin= -123.106407368098     IErMin=20 ErrMin= 2.03D-06
 ErrMax= 2.03D-06  0.00D+00 EMaxC= 1.00D-01 BMatC= 2.83D-10 BMatP= 2.63D-09
 IDIUse=1 WtCom= 1.00D+00 WtEn= 0.00D+00
 Coeff-Com: -0.434D-05 0.263D-05 0.366D-03-0.121D-02-0.125D-02 0.496D-02
 Coeff-Com: -0.960D-02 0.195D-01-0.184D-01-0.189D-01 0.685D-01-0.711D-01
 Coeff-Com:  0.130D+00-0.291D+00 0.354D+00-0.501D-01-0.708D+00-0.738D-02
 Coeff-Com:  0.993D+00 0.607D+00
 Coeff:     -0.434D-05 0.263D-05 0.366D-03-0.121D-02-0.125D-02 0.496D-02
 Coeff:     -0.960D-02 0.195D-01-0.184D-01-0.189D-01 0.685D-01-0.711D-01
 Coeff:      0.130D+00-0.291D+00 0.354D+00-0.501D-01-0.708D+00-0.738D-02
 Coeff:      0.993D+00 0.607D+00
 Gap=     0.023 Goal=   None    Shift=    0.200
 RMSDP=6.82D-08 MaxDP=4.10D-06 DE=-1.75D-09 OVMax= 8.97D-06

 Cycle  23  Pass 1  IDiag  1:
 E= -123.106407368436     Delta-E=       -0.000000000338 Rises=F Damp=F
 DIIS: error= 1.38D-06 at cycle  23 NSaved=  20.
 NSaved=20 IEnMin=20 EnMin= -123.106407368436     IErMin=20 ErrMin= 1.38D-06
 ErrMax= 1.38D-06  0.00D+00 EMaxC= 1.00D-01 BMatC= 1.04D-10 BMatP= 2.83D-10
 IDIUse=1 WtCom= 1.00D+00 WtEn= 0.00D+00
 Coeff-Com:  0.100D-04 0.602D-03-0.622D-03-0.318D-02 0.605D-02-0.729D-02
 Coeff-Com:  0.133D-01-0.131D-01-0.106D-01 0.331D-01-0.429D-01 0.959D-01
 Coeff-Com: -0.168D+00 0.966D-01 0.148D+00-0.169D-01-0.517D+00 0.297D+00
 Coeff-Com: -0.592D+00 0.168D+01
 Coeff:      0.100D-04 0.602D-03-0.622D-03-0.318D-02 0.605D-02-0.729D-02
 Coeff:      0.133D-01-0.131D-01-0.106D-01 0.331D-01-0.429D-01 0.959D-01
 Coeff:     -0.168D+00 0.966D-01 0.148D+00-0.169D-01-0.517D+00 0.297D+00
 Coeff:     -0.592D+00 0.168D+01
 Gap=     0.023 Goal=   None    Shift=    0.200
 RMSDP=3.94D-08 MaxDP=2.58D-06 DE=-3.38D-10 OVMax= 5.00D-06

 Cycle  24  Pass 1  IDiag  1:
 E= -123.106407368554     Delta-E=       -0.000000000118 Rises=F Damp=F
 DIIS: error= 8.83D-07 at cycle  24 NSaved=  20.
 NSaved=20 IEnMin=20 EnMin= -123.106407368554     IErMin=20 ErrMin= 8.83D-07
 ErrMax= 8.83D-07  0.00D+00 EMaxC= 1.00D-01 BMatC= 4.71D-11 BMatP= 1.04D-10
 IDIUse=1 WtCom= 1.00D+00 WtEn= 0.00D+00
 Coeff-Com:  0.294D-03-0.511D-03-0.101D-02 0.353D-02-0.801D-02 0.106D-01
 Coeff-Com: -0.703D-02-0.225D-02 0.152D-01-0.394D-01 0.682D-01-0.263D-01
 Coeff-Com: -0.886D-01 0.121D+00 0.956D-01-0.107D+00-0.161D+00-0.238D+00
 Coeff-Com: -0.921D-01 0.146D+01
 Coeff:      0.294D-03-0.511D-03-0.101D-02 0.353D-02-0.801D-02 0.106D-01
 Coeff:     -0.703D-02-0.225D-02 0.152D-01-0.394D-01 0.682D-01-0.263D-01
 Coeff:     -0.886D-01 0.121D+00 0.956D-01-0.107D+00-0.161D+00-0.238D+00
 Coeff:     -0.921D-01 0.146D+01
 Gap=     0.023 Goal=   None    Shift=    0.200
 RMSDP=2.92D-08 MaxDP=1.68D-06 DE=-1.18D-10 OVMax= 2.92D-06

 Cycle  25  Pass 1  IDiag  1:
 E= -123.106407368605     Delta-E=       -0.000000000050 Rises=F Damp=F
 DIIS: error= 6.12D-07 at cycle  25 NSaved=  20.
 NSaved=20 IEnMin=20 EnMin= -123.106407368605     IErMin=20 ErrMin= 6.12D-07
 ErrMax= 6.12D-07  0.00D+00 EMaxC= 1.00D-01 BMatC= 2.34D-11 BMatP= 4.71D-11
 IDIUse=1 WtCom= 1.00D+00 WtEn= 0.00D+00
 Coeff-Com: -0.122D-03-0.359D-03 0.196D-02-0.538D-02 0.756D-02-0.531D-02
 Coeff-Com: -0.236D-02 0.165D-01-0.286D-01 0.354D-01-0.407D-01 0.382D-01
 Coeff-Com: -0.152D-01-0.961D-01 0.132D+00 0.403D-01 0.107D+00-0.537D+00
 Coeff-Com: -0.296D+00 0.165D+01
 Coeff:     -0.122D-03-0.359D-03 0.196D-02-0.538D-02 0.756D-02-0.531D-02
 Coeff:     -0.236D-02 0.165D-01-0.286D-01 0.354D-01-0.407D-01 0.382D-01
 Coeff:     -0.152D-01-0.961D-01 0.132D+00 0.403D-01 0.107D+00-0.537D+00
 Coeff:     -0.296D+00 0.165D+01
 Gap=     0.023 Goal=   None    Shift=    0.200
 RMSDP=3.24D-08 MaxDP=2.88D-06 DE=-5.02D-11 OVMax= 1.95D-06

 Cycle  26  Pass 1  IDiag  1:
 E= -123.106407368629     Delta-E=       -0.000000000024 Rises=F Damp=F
 DIIS: error= 4.47D-07 at cycle  26 NSaved=  20.
 NSaved=20 IEnMin=20 EnMin= -123.106407368629     IErMin=20 ErrMin= 4.47D-07
 ErrMax= 4.47D-07  0.00D+00 EMaxC= 1.00D-01 BMatC= 1.22D-11 BMatP= 2.34D-11
 IDIUse=1 WtCom= 1.00D+00 WtEn= 0.00D+00
 Coeff-Com: -0.429D-03 0.135D-02-0.338D-02 0.536D-02-0.363D-02-0.336D-02
 Coeff-Com:  0.146D-01-0.196D-01 0.207D-01-0.448D-01 0.589D-01-0.251D-01
 Coeff-Com: -0.130D+00 0.138D+00 0.126D+00 0.138D+00-0.438D+00-0.633D+00
 Coeff-Com:  0.827D+00 0.971D+00
 Coeff:     -0.429D-03 0.135D-02-0.338D-02 0.536D-02-0.363D-02-0.336D-02
 Coeff:      0.146D-01-0.196D-01 0.207D-01-0.448D-01 0.589D-01-0.251D-01
 Coeff:     -0.130D+00 0.138D+00 0.126D+00 0.138D+00-0.438D+00-0.633D+00
 Coeff:      0.827D+00 0.971D+00
 Gap=     0.023 Goal=   None    Shift=    0.200
 RMSDP=1.69D-08 MaxDP=1.41D-06 DE=-2.41D-11 OVMax= 1.38D-06

 Cycle  27  Pass 1  IDiag  1:
 E= -123.106407368641     Delta-E=       -0.000000000012 Rises=F Damp=F
 DIIS: error= 3.30D-07 at cycle  27 NSaved=  20.
 NSaved=20 IEnMin=20 EnMin= -123.106407368641     IErMin=20 ErrMin= 3.30D-07
 ErrMax= 3.30D-07  0.00D+00 EMaxC= 1.00D-01 BMatC= 6.54D-12 BMatP= 1.22D-11
 IDIUse=1 WtCom= 1.00D+00 WtEn= 0.00D+00
 Large coefficients: NSaved= 20 BigCof=    0.00 CofMax=   10.00 Det=-8.08D-15
 Inversion failed.  Reducing to 19 matrices.
 Large coefficients: NSaved= 19 BigCof=    0.00 CofMax=   10.00 Det=-8.79D-15
 Inversion failed.  Reducing to 18 matrices.
 Coeff-Com: -0.287D-03 0.836D-03-0.439D-03 0.164D-02-0.569D-03-0.101D-01
 Coeff-Com:  0.101D-01-0.200D-01 0.153D-01-0.405D-01 0.510D-01 0.772D-01
 Coeff-Com:  0.498D-01-0.531D-01-0.266D+00-0.482D+00-0.140D+01 0.307D+01
 Coeff:     -0.287D-03 0.836D-03-0.439D-03 0.164D-02-0.569D-03-0.101D-01
 Coeff:      0.101D-01-0.200D-01 0.153D-01-0.405D-01 0.510D-01 0.772D-01
 Coeff:      0.498D-01-0.531D-01-0.266D+00-0.482D+00-0.140D+01 0.307D+01
 Gap=     0.023 Goal=   None    Shift=    0.200
 RMSDP=1.68D-08 MaxDP=1.44D-06 DE=-1.21D-11 OVMax= 1.02D-06

 Cycle  28  Pass 1  IDiag  1:
 E= -123.106407368647     Delta-E=       -0.000000000006 Rises=F Damp=F
 DIIS: error= 2.41D-07 at cycle  28 NSaved=  19.
 NSaved=19 IEnMin=19 EnMin= -123.106407368647     IErMin=19 ErrMin= 2.41D-07
 ErrMax= 2.41D-07  0.00D+00 EMaxC= 1.00D-01 BMatC= 3.59D-12 BMatP= 6.54D-12
 IDIUse=1 WtCom= 1.00D+00 WtEn= 0.00D+00
 Large coefficients: NSaved= 19 BigCof=    0.00 CofMax=   10.00 Det=-7.82D-15
 Inversion failed.  Reducing to 18 matrices.
 Coeff-Com: -0.391D-03 0.852D-03 0.424D-03-0.242D-03-0.679D-02 0.195D-01
 Coeff-Com: -0.449D-01 0.281D-01 0.619D-02 0.128D-02 0.335D-01 0.515D-02
 Coeff-Com: -0.543D-03 0.150D+00-0.577D+00-0.178D+01 0.219D+01 0.973D+00
 Coeff:     -0.391D-03 0.852D-03 0.424D-03-0.242D-03-0.679D-02 0.195D-01
 Coeff:     -0.449D-01 0.281D-01 0.619D-02 0.128D-02 0.335D-01 0.515D-02
 Coeff:     -0.543D-03 0.150D+00-0.577D+00-0.178D+01 0.219D+01 0.973D+00
 Gap=     0.023 Goal=   None    Shift=    0.200
 RMSDP=9.46D-09 MaxDP=7.50D-07 DE=-6.28D-12 OVMax= 7.48D-07

 SCF Done:  E(ROHF) =  -123.106407369     A.U. after   28 cycles
            NFock= 28  Conv=0.95D-08     -V/T= 2.6835
 <Sx>= 0.0000 <Sy>= 0.0000 <Sz>= 1.5000 <S**2>= 3.7500 S= 1.5000
 <L.S>=  0.00000000000    
 KE= 7.312427623115D+01 PE=-3.034901289010D+02 EE= 1.012117057479D+02
 Annihilation of the first spin contaminant:
 S**2 before annihilation     3.7500,   after     3.7500
 Leave Link  502 at Sun Apr 22 22:58:45 2018, MaxMem= 21474836480 cpu:             115.7 elap:               5.8
 (Enter /home1/apps/gaussian/16rA.03/g16/l801.exe)
 Windowed orbitals will be sorted by symmetry type.
 GenMOA:  NOpAll=  4 NOp2=4 NOpUse=  4 JSym2X=1
 FoFJK:  IHMeth= 1 ICntrl=       0 DoSepK=F KAlg= 0 I1Cent=           0 FoldK=F
 IRaf=         0 NMat=       1 IRICut=       1 DoRegI=T DoRafI=F ISym2E= 1 IDoP0=0 IntGTp=1.
 FoFCou: FMM=F IPFlag=           8 FMFlag=      100000 FMFlg1=           0
         NFxFlg=           0 DoJE=F BraDBF=F KetDBF=F FulRan=T
         wScrn=  0.000000 ICntrl=         0 IOpCl=  1 I1Cent=           0 NGrid=           0
         NMat0=    1 NMatS0=      1 NMatT0=    0 NMatD0=    1 NMtDS0=    0 NMtDT0=    0
 Petite list used in FoFCou.
 <Sx>= 0.0000 <Sy>= 0.0000 <Sz>= 1.5000 <S**2>= 3.7500 S= 1.5000
 Range of M.O.s used for correlation:     1   212
 NBasis=   215 NAE=    10 NBE=     7 NFC=     0 NFV=     0
 NROrb=    212 NOA=    10 NOB=     7 NVA=   202 NVB=   205

 **** Warning!!: The largest alpha MO coefficient is  0.24388690D+03


 **** Warning!!: The largest beta MO coefficient is  0.24292021D+03

 Singles contribution to E2=   -0.7324640723D-02
 Leave Link  801 at Sun Apr 22 22:58:46 2018, MaxMem= 21474836480 cpu:              24.3 elap:               0.8
 (Enter /home1/apps/gaussian/16rA.03/g16/l804.exe)
 Open-shell transformation, MDV= 21474836480 ITran=4 ISComp=2.
 Unit  1 TFree=       1395097 TCopy=       1089051.
 Semi-Direct transformation.
 ModeAB=           2 MOrb=            10 LenV=   21473353250
 LASXX=     11836819 LTotXX=    11836819 LenRXX=    11836819
 LTotAB=    12069633 MaxLAS=    70831320 LenRXY=    70831320
 NonZer=    72311080 LenScr=   109242880 LnRSAI=           0
 LnScr1=           0 LExtra=     5450651 Total=    197361670
 MaxDsk= 67108864000 SrtSym=           F ITran=            4
 DoSDTr:  NPSUse= 32
 JobTyp=1 Pass  1:  I=   1 to  10.
 (rs|ai) integrals will be sorted in core.
 Complete sort for first half transformation.
 First half transformation complete.
 Begin second half transformation for I=  10.
 Begin second half transformation for I=  10.
 Complete sort for second half transformation.
 Second half transformation complete.
 ModeAB=           2 MOrb=             7 LenV=   21473353250
 LASXX=      8371498 LTotXX=     8371498 LenRXX=    49581924
 LTotAB=     7741007 MaxLAS=    49581924 LenRXY=     7741007
 NonZer=    50617756 LenScr=    76690944 LnRSAI=           0
 LnScr1=           0 LExtra=    88118790 Total=    222132665
 MaxDsk= 67108864000 SrtSym=           F ITran=            4
 DoSDTr:  NPSUse= 32
 JobTyp=2 Pass  1:  I=   1 to   7.
 (rs|ai) integrals will be sorted in core.
 Complete sort for first half transformation.
 First half transformation complete.
 Complete sort for second half transformation.
 Second half transformation complete.
 Spin components of T(2) and E(2):
     alpha-alpha T2 =       0.2958490570D-01 E2=     -0.1641267867D+00
     alpha-beta  T2 =       0.9408391487D-01 E2=     -0.5337685725D+00
     beta-beta   T2 =       0.1159153363D-01 E2=     -0.7004482909D-01
 ANorm=    0.1066965364D+01
 E2 =    -0.7752648289D+00 EUMP2 =    -0.12388167219760D+03
 (S**2,0)=  0.37500D+01           (S**2,1)=  0.37500D+01
 E(PUHF)=      -0.12310640737D+03        E(PMP2)=      -0.12388167220D+03
 Leave Link  804 at Sun Apr 22 22:59:14 2018, MaxMem= 21474836480 cpu:             879.2 elap:              27.6
 (Enter /home1/apps/gaussian/16rA.03/g16/l913.exe)
 CIDS:  MDV= 21474836480.
 IFCWin=0 IBDFC=1 NFBD=     0     0 NFCmp=     0     0 NFFFC=     0     0
 Using original routines for 1st iteration.
 Using DD4UQ or CC4UQ for 2nd and later iterations.
 Keep R2 and R3 ints in memory in symmetry-blocked form, NReq=338808259.
 FoFCou: FMM=F IPFlag=           8 FMFlag=           0 FMFlg1=           0
         NFxFlg=           0 DoJE=F BraDBF=F KetDBF=F FulRan=T
         wScrn=  0.000000 ICntrl=       600 IOpCl=  0 I1Cent=           0 NGrid=           0
         NMat0=    1 NMatS0=  23220 NMatT0=    0 NMatD0=    1 NMtDS0=    0 NMtDT0=    0
 Petite list used in FoFCou.
 CIDS: In Core Option IDoMem=           1.
 CCSD(T)
 =======
 Iterations= 150 Convergence= 0.100D-06
 Produce multiple copies of IABC intergrals
 Iteration Nr.   1
 **********************
 DD1Dir will call FoFMem   1 times, MxPair=       206
 NAB=    70 NAA=    45 NBB=    21.
 DD1Dir will call FoFMem   1 times, MxPair=       206
 NAB=    70 NAA=    45 NBB=    21.
 MP4(R+Q)= -0.52271817D-01
 Maximum subspace dimension=  5
 A-vector RMS=  5.5367957D-04 Max=  6.1947340D-03 conv= 1.00D-05.
 RLE energy=       -0.7675154038
 E3=        0.59724613D-01        EROMP3=      -0.12382194758D+03
 E4(SDQ)=  -0.38863606D-01        ROMP4(SDQ)=  -0.12386081119D+03
 VARIATIONAL ENERGIES WITH THE FIRST-ORDER WAVEFUNCTION:
 DE(Corr)= -0.76743556     E(Corr)=     -123.87384293    
 NORM(A)=   0.10627418D+01
 Iteration Nr.   2
 **********************
 DD1Dir will call FoFMem   1 times, MxPair=       206
 NAB=    70 NAA=    45 NBB=    21.
 A-vector RMS=  4.2130976D-03 Max=  3.8759964D-02 conv= 1.00D-05.
 RLE energy=       -0.7528585888
 DE(Corr)= -0.70593228     E(CORR)=     -123.81233964     Delta= 6.15D-02
 NORM(A)=   0.10601275D+01
 Iteration Nr.   3
 **********************
 DD1Dir will call FoFMem   1 times, MxPair=       206
 NAB=    70 NAA=    45 NBB=    21.
 A-vector RMS=  3.0103159D-03 Max=  2.8018930D-02 conv= 1.00D-05.
 RLE energy=       -0.7502806030
 DE(Corr)= -0.71501303     E(CORR)=     -123.82142040     Delta=-9.08D-03
 NORM(A)=   0.10630317D+01
 Iteration Nr.   4
 **********************
 DD1Dir will call FoFMem   1 times, MxPair=       206
 NAB=    70 NAA=    45 NBB=    21.
 A-vector RMS=  2.7567973D-03 Max=  2.9404235D-02 conv= 1.00D-05.
 RLE energy=       -0.7354968455
 DE(Corr)= -0.72149276     E(CORR)=     -123.82790013     Delta=-6.48D-03
 NORM(A)=   0.10816873D+01
 Iteration Nr.   5
 **********************
 DD1Dir will call FoFMem   1 times, MxPair=       206
 NAB=    70 NAA=    45 NBB=    21.
 A-vector RMS=  1.0239446D-03 Max=  8.9088475D-03 conv= 1.00D-05.
 RLE energy=       -0.7441202104
 DE(Corr)= -0.74506761     E(CORR)=     -123.85147498     Delta=-2.36D-02
 NORM(A)=   0.10846355D+01
 Iteration Nr.   6
 **********************
 DD1Dir will call FoFMem   1 times, MxPair=       206
 NAB=    70 NAA=    45 NBB=    21.
 A-vector RMS=  9.4749051D-04 Max=  1.7698455D-02 conv= 1.00D-05.
 RLE energy=       -0.7421335628
 DE(Corr)= -0.73780013     E(CORR)=     -123.84420750     Delta= 7.27D-03
 NORM(A)=   0.11037117D+01
 Iteration Nr.   7
 **********************
 DD1Dir will call FoFMem   1 times, MxPair=       206
 NAB=    70 NAA=    45 NBB=    21.
 A-vector RMS=  5.3991403D-04 Max=  8.0550166D-03 conv= 1.00D-05.
 RLE energy=       -0.7426124902
 DE(Corr)= -0.74236618     E(CORR)=     -123.84877355     Delta=-4.57D-03
 NORM(A)=   0.11160810D+01
 Iteration Nr.   8
 **********************
 DD1Dir will call FoFMem   1 times, MxPair=       206
 NAB=    70 NAA=    45 NBB=    21.
 A-vector RMS=  4.6056856D-04 Max=  7.4890166D-03 conv= 1.00D-05.
 RLE energy=       -0.7431043038
 DE(Corr)= -0.74311574     E(CORR)=     -123.84952311     Delta=-7.50D-04
 NORM(A)=   0.11266890D+01
 Iteration Nr.   9
 **********************
 DD1Dir will call FoFMem   1 times, MxPair=       206
 NAB=    70 NAA=    45 NBB=    21.
 A-vector RMS=  2.6370351D-04 Max=  3.5840054D-03 conv= 1.00D-05.
 RLE energy=       -0.7434833928
 DE(Corr)= -0.74289755     E(CORR)=     -123.84930492     Delta= 2.18D-04
 NORM(A)=   0.11327633D+01
 Iteration Nr.  10
 **********************
 DD1Dir will call FoFMem   1 times, MxPair=       206
 NAB=    70 NAA=    45 NBB=    21.
 A-vector RMS=  1.6035419D-04 Max=  2.3611398D-03 conv= 1.00D-05.
 RLE energy=       -0.7430398342
 DE(Corr)= -0.74328490     E(CORR)=     -123.84969227     Delta=-3.87D-04
 NORM(A)=   0.11333275D+01
 Iteration Nr.  11
 **********************
 DD1Dir will call FoFMem   1 times, MxPair=       206
 NAB=    70 NAA=    45 NBB=    21.
 A-vector RMS=  1.0054242D-04 Max=  1.5427238D-03 conv= 1.00D-05.
 RLE energy=       -0.7433743924
 DE(Corr)= -0.74328314     E(CORR)=     -123.84969051     Delta= 1.76D-06
 NORM(A)=   0.11344045D+01
 Iteration Nr.  12
 **********************
 DD1Dir will call FoFMem   1 times, MxPair=       206
 NAB=    70 NAA=    45 NBB=    21.
 A-vector RMS=  8.6930971D-05 Max=  8.8863719D-04 conv= 1.00D-05.
 RLE energy=       -0.7432007655
 DE(Corr)= -0.74319776     E(CORR)=     -123.84960513     Delta= 8.54D-05
 NORM(A)=   0.11355208D+01
 Iteration Nr.  13
 **********************
 DD1Dir will call FoFMem   1 times, MxPair=       206
 NAB=    70 NAA=    45 NBB=    21.
 A-vector RMS=  7.8573459D-05 Max=  1.2307428D-03 conv= 1.00D-05.
 RLE energy=       -0.7433246355
 DE(Corr)= -0.74341103     E(CORR)=     -123.84981840     Delta=-2.13D-04
 NORM(A)=   0.11354947D+01
 Iteration Nr.  14
 **********************
 DD1Dir will call FoFMem   1 times, MxPair=       206
 NAB=    70 NAA=    45 NBB=    21.
 A-vector RMS=  6.4531190D-05 Max=  1.0256189D-03 conv= 1.00D-05.
 RLE energy=       -0.7434212138
 DE(Corr)= -0.74334998     E(CORR)=     -123.84975735     Delta= 6.11D-05
 NORM(A)=   0.11360150D+01
 Iteration Nr.  15
 **********************
 DD1Dir will call FoFMem   1 times, MxPair=       206
 NAB=    70 NAA=    45 NBB=    21.
 A-vector RMS=  3.5062394D-05 Max=  3.9473609D-04 conv= 1.00D-05.
 RLE energy=       -0.7433776146
 DE(Corr)= -0.74336036     E(CORR)=     -123.84976773     Delta=-1.04D-05
 NORM(A)=   0.11362906D+01
 Iteration Nr.  16
 **********************
 DD1Dir will call FoFMem   1 times, MxPair=       206
 NAB=    70 NAA=    45 NBB=    21.
 A-vector RMS=  2.1070974D-05 Max=  2.1877322D-04 conv= 1.00D-05.
 RLE energy=       -0.7434323405
 DE(Corr)= -0.74343744     E(CORR)=     -123.84984481     Delta=-7.71D-05
 NORM(A)=   0.11364462D+01
 Iteration Nr.  17
 **********************
 DD1Dir will call FoFMem   1 times, MxPair=       206
 NAB=    70 NAA=    45 NBB=    21.
 A-vector RMS=  1.9879835D-05 Max=  2.9435244D-04 conv= 1.00D-05.
 RLE energy=       -0.7434427508
 DE(Corr)= -0.74341992     E(CORR)=     -123.84982729     Delta= 1.75D-05
 NORM(A)=   0.11366522D+01
 Iteration Nr.  18
 **********************
 DD1Dir will call FoFMem   1 times, MxPair=       206
 NAB=    70 NAA=    45 NBB=    21.
 A-vector RMS=  1.1256139D-05 Max=  1.7354702D-04 conv= 1.00D-05.
 RLE energy=       -0.7434352568
 DE(Corr)= -0.74343643     E(CORR)=     -123.84984380     Delta=-1.65D-05
 NORM(A)=   0.11368336D+01
 Iteration Nr.  19
 **********************
 DD1Dir will call FoFMem   1 times, MxPair=       206
 NAB=    70 NAA=    45 NBB=    21.
 A-vector RMS=  7.7084185D-06 Max=  9.3998539D-05 conv= 1.00D-05.
 RLE energy=       -0.7434560086
 DE(Corr)= -0.74346007     E(CORR)=     -123.84986744     Delta=-2.36D-05
 NORM(A)=   0.11369458D+01
 Iteration Nr.  20
 **********************
 DD1Dir will call FoFMem   1 times, MxPair=       206
 NAB=    70 NAA=    45 NBB=    21.
 A-vector RMS=  7.6402996D-06 Max=  1.3881054D-04 conv= 1.00D-05.
 RLE energy=       -0.7434665626
 DE(Corr)= -0.74345358     E(CORR)=     -123.84986095     Delta= 6.49D-06
 NORM(A)=   0.11371252D+01
 Iteration Nr.  21
 **********************
 DD1Dir will call FoFMem   1 times, MxPair=       206
 NAB=    70 NAA=    45 NBB=    21.
 A-vector RMS=  5.4706243D-06 Max=  7.3630711D-05 conv= 1.00D-05.
 RLE energy=       -0.7434615162
 DE(Corr)= -0.74346023     E(CORR)=     -123.84986760     Delta=-6.65D-06
 NORM(A)=   0.11372393D+01
 Iteration Nr.  22
 **********************
 DD1Dir will call FoFMem   1 times, MxPair=       206
 NAB=    70 NAA=    45 NBB=    21.
 A-vector RMS=  3.0175635D-06 Max=  3.0534528D-05 conv= 1.00D-05.
 RLE energy=       -0.7434711425
 DE(Corr)= -0.74347041     E(CORR)=     -123.84987778     Delta=-1.02D-05
 NORM(A)=   0.11373115D+01
 Iteration Nr.  23
 **********************
 DD1Dir will call FoFMem   1 times, MxPair=       206
 NAB=    70 NAA=    45 NBB=    21.
 A-vector RMS=  2.7225067D-06 Max=  3.8188172D-05 conv= 1.00D-05.
 RLE energy=       -0.7434702813
 DE(Corr)= -0.74346682     E(CORR)=     -123.84987419     Delta= 3.59D-06
 NORM(A)=   0.11373654D+01
 Iteration Nr.  24
 **********************
 DD1Dir will call FoFMem   1 times, MxPair=       206
 NAB=    70 NAA=    45 NBB=    21.
 A-vector RMS=  1.3903238D-06 Max=  1.3740963D-05 conv= 1.00D-05.
 RLE energy=       -0.7434690023
 DE(Corr)= -0.74347023     E(CORR)=     -123.84987759     Delta=-3.40D-06
 NORM(A)=   0.11373829D+01
 Iteration Nr.  25
 **********************
 DD1Dir will call FoFMem   1 times, MxPair=       206
 NAB=    70 NAA=    45 NBB=    21.
 A-vector RMS=  8.6410827D-07 Max=  1.2511019D-05 conv= 1.00D-05.
 RLE energy=       -0.7434708872
 DE(Corr)= -0.74347107     E(CORR)=     -123.84987843     Delta=-8.40D-07
 NORM(A)=   0.11373882D+01
 Iteration Nr.  26
 **********************
 DD1Dir will call FoFMem   1 times, MxPair=       206
 NAB=    70 NAA=    45 NBB=    21.
 A-vector RMS=  5.7321058D-07 Max=  8.6050616D-06 conv= 1.00D-05.
 RLE energy=       -0.7434704822
 DE(Corr)= -0.74346970     E(CORR)=     -123.84987707     Delta= 1.37D-06
 NORM(A)=   0.11373910D+01
 Iteration Nr.  27
 **********************
 DD1Dir will call FoFMem   1 times, MxPair=       206
 NAB=    70 NAA=    45 NBB=    21.
 A-vector RMS=  3.4504569D-07 Max=  4.4493084D-06 conv= 1.00D-05.
 RLE energy=       -0.7434697498
 DE(Corr)= -0.74346995     E(CORR)=     -123.84987731     Delta=-2.45D-07
 NORM(A)=   0.11373907D+01
 Iteration Nr.  28
 **********************
 DD1Dir will call FoFMem   1 times, MxPair=       206
 NAB=    70 NAA=    45 NBB=    21.
 A-vector RMS=  3.0967925D-07 Max=  4.9514870D-06 conv= 1.00D-05.
 RLE energy=       -0.7434701788
 DE(Corr)= -0.74347022     E(CORR)=     -123.84987759     Delta=-2.77D-07
 NORM(A)=   0.11373897D+01
 Iteration Nr.  29
 **********************
 DD1Dir will call FoFMem   1 times, MxPair=       206
 NAB=    70 NAA=    45 NBB=    21.
 A-vector RMS=  1.7469752D-07 Max=  2.3072390D-06 conv= 1.00D-05.
 RLE energy=       -0.7434699080
 DE(Corr)= -0.74346978     E(CORR)=     -123.84987715     Delta= 4.45D-07
 NORM(A)=   0.11373882D+01
 Iteration Nr.  30
 **********************
 DD1Dir will call FoFMem   1 times, MxPair=       206
 NAB=    70 NAA=    45 NBB=    21.
 A-vector RMS=  1.6589744D-07 Max=  2.9322698D-06 conv= 1.00D-05.
 RLE energy=       -0.7434697671
 DE(Corr)= -0.74346987     E(CORR)=     -123.84987724     Delta=-9.28D-08
 NORM(A)=   0.11373862D+01
 CI/CC converged in   30 iterations to DelEn=-9.28D-08 Conv= 1.00D-07 ErrA1= 1.66D-07 Conv= 1.00D-05
 Wavefunction amplitudes converged. E(Corr)=     -123.84987724    
 Dominant configurations:
 ***********************
 Spin Case        I    J    A    B          Value
    BB            7         8           -0.214015D+00
    BB            7        12           -0.217139D+00
    BB            7        21           -0.120525D+00
 Largest amplitude= 2.17D-01
 Time for triples=     3498.77 seconds.
 T4(CCSD)= -0.35603099D-01
 T5(CCSD)=  0.64132673D-02
 CCSD(T)= -0.12387906707D+03
 Discarding MO integrals.
 Leave Link  913 at Sun Apr 22 23:02:42 2018, MaxMem= 21474836480 cpu:            6612.9 elap:             207.5
 (Enter /home1/apps/gaussian/16rA.03/g16/l601.exe)
 Copying SCF densities to generalized density rwf, IOpCl= 0 IROHF=1.

 **********************************************************************

            Population analysis using the SCF density.

 **********************************************************************

 Orbital symmetries:
       Occupied  (SG) (SG) (PI) (PI) (SG) (?A) (SG) (PI) (PI) (?A)
       Virtual   (SG) (PI) (PI) (SG) (SG) (PI) (PI) (SG) (DLTA)
                 (DLTA) (PI) (PI) (SG) (SG) (SG) (PI) (PI) (SG)
                 (PI) (PI) (?A) (?A) (SG) (PI) (PI) (SG) (SG) (SG)
                 (DLTA) (DLTA) (PI) (PI) (SG) (PI) (PI) (PHI) (PHI)
                 (SG) (?A) (?A) (PI) (PI) (PI) (PI) (SG) (?A) (?A)
                 (SG) (PI) (PI) (SG) (SG) (SG) (?B) (?B) (?B) (?B)
                 (DLTA) (DLTA) (?B) (?B) (SG) (SG) (PI) (PI) (DLTA)
                 (DLTA) (?C) (DLTA) (DLTA) (PHI) (PHI) (?C) (?C)
                 (PI) (PI) (SG) (DLTA) (DLTA) (PI) (PI) (PI) (PI)
                 (SG) (SG) (SG) (?D) (?D) (DLTA) (DLTA) (PI) (PI)
                 (SG) (DLTA) (DLTA) (?D) (?D) (PI) (PI) (SG) (SG)
                 (?D) (?D) (?E) (?E) (DLTA) (DLTA) (?D) (?D) (SG)
                 (SG) (SG) (DLTA) (DLTA) (PI) (PI) (SG) (PI) (PI)
                 (SG) (?D) (?D) (DLTA) (DLTA) (?D) (?D) (SG) (?D)
                 (?D) (?F) (?F) (DLTA) (DLTA) (?D) (?D) (?F) (SG)
                 (DLTA) (DLTA) (PI) (PI) (SG) (PI) (PI) (SG) (DLTA)
                 (DLTA) (PI) (PI) (SG) (SG) (SG) (PI) (PI) (SG)
                 (DLTA) (DLTA) (PI) (PI) (SG) (SG) (PI) (PI) (SG)
                 (SG) (PI) (PI) (SG) (SG) (DLTA) (DLTA) (PI) (PI)
                 (SG) (PI) (PI) (SG) (SG) (PI) (PI) (SG) (SG) (PI)
                 (PI) (SG) (SG) (PI) (PI) (SG) (SG) (PI) (PI) (SG)
                 (SG) (SG) (PI) (PI) (SG) (SG) (SG) (SG) (SG)
 Unable to determine electronic state:  an orbital has unidentified symmetry.
 Alpha  occ. eigenvalues --   -4.26480  -2.79946  -2.78741  -2.78741  -0.52172
 Alpha  occ. eigenvalues --   -0.52172  -0.50702  -0.48697  -0.45806  -0.31311
 Alpha virt. eigenvalues --    0.00007   0.02470   0.02470   0.03042   0.04473
 Alpha virt. eigenvalues --    0.08407   0.08407   0.09615   0.10299   0.10336
 Alpha virt. eigenvalues --    0.10352   0.10352   0.10591   0.16958   0.24512
 Alpha virt. eigenvalues --    0.27491   0.27491   0.30123   0.35467   0.35467
 Alpha virt. eigenvalues --    0.37256   0.37689   0.38784   0.38996   0.38996
 Alpha virt. eigenvalues --    0.46937   0.64915   0.70062   0.87969   0.88115
 Alpha virt. eigenvalues --    0.91349   0.91349   0.97406   0.98443   0.98443
 Alpha virt. eigenvalues --    0.99807   0.99807   1.10437   1.14382   1.14568
 Alpha virt. eigenvalues --    1.14568   1.15142   1.17654   1.17654   1.19783
 Alpha virt. eigenvalues --    1.26289   1.27343   1.60086   1.83043   1.83043
 Alpha virt. eigenvalues --    1.93223   2.14054   2.72255   2.86506   2.86506
 Alpha virt. eigenvalues --    2.91474   2.92956   2.93053   2.93053   2.98247
 Alpha virt. eigenvalues --    2.98247   3.03148   3.23401   3.32120   3.32120
 Alpha virt. eigenvalues --    3.38486   3.40590   3.46067   3.50033   3.51284
 Alpha virt. eigenvalues --    3.52128   3.52128   3.54092   3.54101   3.89312
 Alpha virt. eigenvalues --    3.89312   4.16584   4.19050   4.19371   4.49928
 Alpha virt. eigenvalues --    4.49928   5.06491   5.06491   5.15944   5.70032
 Alpha virt. eigenvalues --    6.41406   7.72423   7.73723   7.73723   7.75277
 Alpha virt. eigenvalues --    7.81812   7.81812   7.82629   7.84745   7.85731
 Alpha virt. eigenvalues --    7.97302   7.97302   8.17681   8.17681   8.19174
 Alpha virt. eigenvalues --    8.99098   9.99282   9.99282  10.02543  10.02559
 Alpha virt. eigenvalues --   10.05060  10.07305  10.31947  10.31947  10.44075
 Alpha virt. eigenvalues --   11.01416  13.83914  15.59588  15.63050  15.66810
 Alpha virt. eigenvalues --   15.66810  15.81586  18.80326  18.80326  19.36654
 Alpha virt. eigenvalues --   20.58986  20.60890  20.60890  20.61843  20.70886
 Alpha virt. eigenvalues --   20.70886  21.11786  26.17488  26.17488  26.20152
 Alpha virt. eigenvalues --   26.20705  26.20758  26.22863  26.36629  26.36629
 Alpha virt. eigenvalues --   26.45316  28.55545  28.78473  28.82213  28.85463
 Alpha virt. eigenvalues --   28.85463  29.04289  38.31135  38.31135  39.05124
 Alpha virt. eigenvalues --   52.40425  52.43884  52.47212  52.47212  52.61052
 Alpha virt. eigenvalues --   58.05717  64.18377  73.82465  73.82465  74.74212
 Alpha virt. eigenvalues --  115.78644 115.80729 115.84376 115.84376 115.92274
 Alpha virt. eigenvalues --  116.87230 140.75742 140.75742 141.68955 210.61440
 Alpha virt. eigenvalues --  268.34221 268.34221 269.22120 374.71336 400.75724
 Alpha virt. eigenvalues --  400.76245 400.79456 400.79456 400.85444 522.95898
 Alpha virt. eigenvalues --  522.95898 523.80065 706.813771066.699261066.69926
 Alpha virt. eigenvalues -- 1067.477681412.996722333.480832333.480832334.18000
 Alpha virt. eigenvalues -- 3001.432695634.708125634.708125635.314196786.63324
 Alpha virt. eigenvalues -- **************************************************
 Alpha virt. eigenvalues -- **************************************************
 Alpha virt. eigenvalues -- ********************
     Molecular Orbital Coefficients:
                           3         4         5         6         7
                           O         O         O         O         O
     Eigenvalues --    -2.78741  -2.78741  -0.52172  -0.52172  -0.50702
   1 1   Fe 1S          0.00000   0.00000   0.00000   0.00000  -0.00000
   2        2S          0.00000   0.00000  -0.00000   0.00000   0.00000
   3        3S          0.00000   0.00000   0.00000   0.00000  -0.00000
   4        4S          0.00000   0.00000  -0.00000   0.00000   0.00000
   5        5S          0.00000   0.00000   0.00000   0.00000  -0.00000
   6        6S          0.00000   0.00000  -0.00000   0.00000   0.00001
   7        7S          0.00000   0.00000   0.00001   0.00000  -0.00003
   8        8S          0.00000   0.00000  -0.00004   0.00000   0.00008
   9        9S          0.00000   0.00000   0.00013   0.00000  -0.00025
  10       10S          0.00000   0.00000  -0.00039   0.00000   0.00075
  11       11S          0.00000   0.00000   0.00121   0.00000  -0.00235
  12       12S          0.00000   0.00000  -0.00429   0.00000   0.00844
  13       13S          0.00000   0.00000  -0.00003   0.00000   0.00040
  14       14S          0.00000   0.00000   0.04781   0.00000  -0.09940
  15       15S          0.00000   0.00000  -0.00889   0.00000   0.00333
  16       16S          0.00000   0.00000  -0.06773   0.00000   0.20089
  17       17S          0.00000   0.00000  -0.05800   0.00000   0.17917
  18       18S          0.00000   0.00000   0.01850   0.00000  -0.21114
  19       19S          0.00000   0.00000   0.01900   0.00000  -0.30098
  20       20S          0.00000   0.00000   0.00111   0.00000  -0.11687
  21       21S          0.00000   0.00000  -0.01156   0.00000   0.03508
  22       22S          0.00000   0.00000  -0.02720   0.00000  -0.02644
  23       23S          0.00000   0.00000  -0.00793   0.00000   0.01196
  24       24PX         0.00000   0.00000   0.00000   0.00000   0.00000
  25       24PY         0.00000   0.00000   0.00000   0.00000   0.00000
  26       24PZ         0.00000   0.00000   0.00000   0.00000  -0.00000
  27       25PX        -0.00000   0.00000   0.00000   0.00000   0.00000
  28       25PY         0.00000  -0.00000   0.00000   0.00000   0.00000
  29       25PZ         0.00000   0.00000  -0.00000   0.00000   0.00000
  30       26PX         0.00001   0.00000   0.00000   0.00000   0.00000
  31       26PY         0.00000   0.00001   0.00000   0.00000   0.00000
  32       26PZ         0.00000   0.00000   0.00000   0.00000  -0.00000
  33       27PX        -0.00006   0.00000   0.00000   0.00000   0.00000
  34       27PY         0.00000  -0.00006   0.00000   0.00000   0.00000
  35       27PZ         0.00000   0.00000  -0.00001   0.00000   0.00000
  36       28PX         0.00025   0.00000   0.00000   0.00000   0.00000
  37       28PY         0.00000   0.00025   0.00000   0.00000   0.00000
  38       28PZ         0.00000   0.00000   0.00003   0.00000  -0.00001
  39       29PX        -0.00094   0.00000   0.00000   0.00000   0.00000
  40       29PY         0.00000  -0.00094   0.00000   0.00000   0.00000
  41       29PZ         0.00000   0.00000  -0.00012   0.00000   0.00006
  42       30PX         0.00415   0.00000   0.00000   0.00000   0.00000
  43       30PY         0.00000   0.00415   0.00000   0.00000   0.00000
  44       30PZ         0.00000   0.00000   0.00050   0.00000  -0.00026
  45       31PX        -0.00761   0.00000   0.00000   0.00000   0.00000
  46       31PY         0.00000  -0.00761   0.00000   0.00000   0.00000
  47       31PZ         0.00000   0.00000  -0.00103   0.00000   0.00048
  48       32PX        -0.07471   0.00000   0.00000   0.00000   0.00000
  49       32PY         0.00000  -0.07471   0.00000   0.00000   0.00000
  50       32PZ         0.00000   0.00000  -0.00741   0.00000   0.00541
  51       33PX         0.06163   0.00000   0.00000   0.00000   0.00000
  52       33PY         0.00000   0.06163   0.00000   0.00000   0.00000
  53       33PZ         0.00000   0.00000   0.01586   0.00000  -0.00289
  54       34PX         0.31971   0.00000   0.00000   0.00000   0.00000
  55       34PY         0.00000   0.31971   0.00000   0.00000   0.00000
  56       34PZ         0.00000   0.00000   0.03501   0.00000  -0.02335
  57       35PX         0.24015   0.00000   0.00000   0.00000   0.00000
  58       35PY         0.00000   0.24015   0.00000   0.00000   0.00000
  59       35PZ         0.00000   0.00000   0.05154   0.00000   0.00376
  60       36PX         0.29120   0.00000   0.00000   0.00000   0.00000
  61       36PY         0.00000   0.29120   0.00000   0.00000   0.00000
  62       36PZ         0.00000   0.00000   0.02761   0.00000  -0.02729
  63       37PX         0.04563   0.00000   0.00000   0.00000   0.00000
  64       37PY         0.00000   0.04563   0.00000   0.00000   0.00000
  65       37PZ         0.00000   0.00000  -0.01670   0.00000   0.02763
  66       38PX        -0.00206   0.00000   0.00000   0.00000   0.00000
  67       38PY         0.00000  -0.00206   0.00000   0.00000   0.00000
  68       38PZ         0.00000   0.00000  -0.03483   0.00000   0.01371
  69       39PX         0.00153   0.00000   0.00000   0.00000   0.00000
  70       39PY         0.00000   0.00153   0.00000   0.00000   0.00000
  71       39PZ         0.00000   0.00000  -0.00664   0.00000   0.00227
  72       40PX        -0.02916   0.00000   0.00000   0.00000   0.00000
  73       40PY         0.00000  -0.02916   0.00000   0.00000   0.00000
  74       40PZ         0.00000   0.00000  -0.01095   0.00000   0.00016
  75       41PX         0.21591   0.00000   0.00000   0.00000   0.00000
  76       41PY         0.00000   0.21591   0.00000   0.00000   0.00000
  77       41PZ         0.00000   0.00000   0.00774   0.00000  -0.03710
  78       42PX        -0.00045   0.00000   0.00000   0.00000   0.00000
  79       42PY         0.00000  -0.00045   0.00000   0.00000   0.00000
  80       42PZ         0.00000   0.00000   0.00381   0.00000  -0.00208
  81       43D 0        0.00000   0.00000   0.00015   0.00000   0.00015
  82       43D+1        0.00000   0.00000   0.00000   0.00000   0.00000
  83       43D-1        0.00000   0.00000   0.00000   0.00000   0.00000
  84       43D+2        0.00000   0.00000  -0.00000   0.00000  -0.00000
  85       43D-2        0.00000   0.00000   0.00000   0.00024   0.00000
  86       44D 0        0.00000   0.00000   0.01655   0.00000   0.01550
  87       44D+1        0.00009   0.00000   0.00000   0.00000   0.00000
  88       44D-1        0.00000   0.00009   0.00000   0.00000   0.00000
  89       44D+2        0.00000   0.00000  -0.00000   0.00000  -0.00000
  90       44D-2        0.00000   0.00000   0.00000   0.02578   0.00000
  91       45D 0        0.00000   0.00000   0.06350   0.00000   0.05978
  92       45D+1        0.00030   0.00000   0.00000   0.00000   0.00000
  93       45D-1        0.00000   0.00030   0.00000   0.00000   0.00000
  94       45D+2        0.00000   0.00000  -0.00000   0.00000  -0.00000
  95       45D-2        0.00000   0.00000   0.00000   0.09948   0.00000
  96       46D 0        0.00000   0.00000   0.12823   0.00000   0.11379
  97       46D+1        0.00121   0.00000   0.00000   0.00000   0.00000
  98       46D-1        0.00000   0.00121   0.00000   0.00000   0.00000
  99       46D+2        0.00000   0.00000  -0.00000   0.00000  -0.00000
 100       46D-2        0.00000   0.00000   0.00000   0.18942   0.00000
 101       47D 0        0.00000   0.00000   0.23561   0.00000   0.30797
 102       47D+1       -0.00272   0.00000   0.00000   0.00000   0.00000
 103       47D-1        0.00000  -0.00272   0.00000   0.00000   0.00000
 104       47D+2        0.00000   0.00000  -0.00000   0.00000  -0.00000
 105       47D-2        0.00000   0.00000   0.00000   0.52034   0.00000
 106       48D 0        0.00000   0.00000   0.24427   0.00000   0.21961
 107       48D+1        0.00375   0.00000   0.00000   0.00000   0.00000
 108       48D-1        0.00000   0.00375   0.00000   0.00000   0.00000
 109       48D+2        0.00000   0.00000  -0.00000   0.00000  -0.00000
 110       48D-2        0.00000   0.00000   0.00000   0.35571   0.00000
 111       49D 0        0.00000   0.00000   0.17019   0.00000   0.16213
 112       49D+1        0.00161   0.00000   0.00000   0.00000   0.00000
 113       49D-1        0.00000   0.00161   0.00000   0.00000   0.00000
 114       49D+2        0.00000   0.00000  -0.00000   0.00000  -0.00000
 115       49D-2        0.00000   0.00000   0.00000   0.25562   0.00000
 116       50D 0        0.00000   0.00000   0.05106   0.00000   0.07381
 117       50D+1       -0.00005   0.00000   0.00000   0.00000   0.00000
 118       50D-1        0.00000  -0.00005   0.00000   0.00000   0.00000
 119       50D+2        0.00000   0.00000  -0.00000   0.00000  -0.00000
 120       50D-2        0.00000   0.00000   0.00000   0.07846   0.00000
 121       51D 0        0.00000   0.00000   0.02239   0.00000   0.02942
 122       51D+1       -0.00067   0.00000   0.00000   0.00000   0.00000
 123       51D-1        0.00000  -0.00067   0.00000   0.00000   0.00000
 124       51D+2        0.00000   0.00000  -0.00000   0.00000  -0.00000
 125       51D-2        0.00000   0.00000   0.00000   0.04885   0.00000
 126       52D 0        0.00000   0.00000  -0.01487   0.00000  -0.10091
 127       52D+1        0.00408   0.00000   0.00000   0.00000   0.00000
 128       52D-1        0.00000   0.00408   0.00000   0.00000   0.00000
 129       52D+2        0.00000   0.00000   0.00000   0.00000   0.00000
 130       52D-2        0.00000   0.00000   0.00000  -0.17748   0.00000
 131       53D 0        0.00000   0.00000  -0.00178   0.00000   0.00405
 132       53D+1        0.00004   0.00000   0.00000   0.00000   0.00000
 133       53D-1        0.00000   0.00004   0.00000   0.00000   0.00000
 134       53D+2        0.00000   0.00000   0.00000   0.00000  -0.00000
 135       53D-2        0.00000   0.00000   0.00000  -0.00212   0.00000
 136       54F 0        0.00000   0.00000  -0.00019   0.00000   0.00027
 137       54F+1       -0.00048   0.00000   0.00000   0.00000   0.00000
 138       54F-1        0.00000  -0.00048   0.00000   0.00000   0.00000
 139       54F+2        0.00000   0.00000  -0.00000   0.00000   0.00000
 140       54F-2        0.00000   0.00000   0.00000   0.00016   0.00000
 141       54F+3       -0.00118   0.00000   0.00000   0.00000   0.00000
 142       54F-3        0.00000   0.00118   0.00000   0.00000   0.00000
 143       55F 0        0.00000   0.00000  -0.00100   0.00000   0.00129
 144       55F+1       -0.00065   0.00000   0.00000   0.00000   0.00000
 145       55F-1        0.00000  -0.00065   0.00000   0.00000   0.00000
 146       55F+2        0.00000   0.00000  -0.00000   0.00000   0.00000
 147       55F-2        0.00000   0.00000   0.00000   0.00081   0.00000
 148       55F+3       -0.00262   0.00000   0.00000   0.00000   0.00000
 149       55F-3        0.00000   0.00262   0.00000   0.00000   0.00000
 150       56F 0        0.00000   0.00000  -0.00493   0.00000   0.00590
 151       56F+1       -0.00109   0.00000   0.00000   0.00000   0.00000
 152       56F-1        0.00000  -0.00109   0.00000   0.00000   0.00000
 153       56F+2        0.00000   0.00000  -0.00000   0.00000  -0.00000
 154       56F-2        0.00000   0.00000   0.00000   0.00377   0.00000
 155       56F+3       -0.00325   0.00000   0.00000   0.00000   0.00000
 156       56F-3        0.00000   0.00325   0.00000   0.00000   0.00000
 157       57F 0        0.00000   0.00000   0.00450   0.00000   0.01245
 158       57F+1       -0.00090   0.00000   0.00000   0.00000   0.00000
 159       57F-1        0.00000  -0.00090   0.00000   0.00000   0.00000
 160       57F+2        0.00000   0.00000  -0.00000   0.00000  -0.00000
 161       57F-2        0.00000   0.00000   0.00000   0.00867   0.00000
 162       57F+3       -0.00090   0.00000   0.00000   0.00000   0.00000
 163       57F-3        0.00000   0.00090   0.00000   0.00000   0.00000
 164       58G 0        0.00000   0.00000   0.00011   0.00000   0.00006
 165       58G+1       -0.00004   0.00000   0.00000   0.00000   0.00000
 166       58G-1        0.00000  -0.00004   0.00000   0.00000   0.00000
 167       58G+2        0.00000   0.00000  -0.00000   0.00000  -0.00000
 168       58G-2        0.00000   0.00000   0.00000  -0.00004   0.00000
 169       58G+3       -0.00000   0.00000   0.00000   0.00000   0.00000
 170       58G-3        0.00000   0.00000   0.00000   0.00000   0.00000
 171       58G+4        0.00000   0.00000   0.00008   0.00000   0.00009
 172       58G-4        0.00000   0.00000   0.00000  -0.00000   0.00000
 173       59G 0        0.00000   0.00000   0.00107   0.00000   0.00025
 174       59G+1        0.00002   0.00000   0.00000   0.00000   0.00000
 175       59G-1        0.00000   0.00002   0.00000   0.00000   0.00000
 176       59G+2        0.00000   0.00000  -0.00000   0.00000  -0.00000
 177       59G-2        0.00000   0.00000   0.00000   0.00011   0.00000
 178       59G+3       -0.00001   0.00000   0.00000   0.00000   0.00000
 179       59G-3        0.00000   0.00001   0.00000   0.00000   0.00000
 180       59G+4        0.00000   0.00000   0.00011   0.00000   0.00024
 181       59G-4        0.00000   0.00000   0.00000  -0.00000   0.00000
 182       60G 0        0.00000   0.00000   0.00340   0.00000   0.00075
 183       60G+1       -0.00012   0.00000   0.00000   0.00000   0.00000
 184       60G-1        0.00000  -0.00012   0.00000   0.00000   0.00000
 185       60G+2        0.00000   0.00000  -0.00000   0.00000  -0.00000
 186       60G-2        0.00000   0.00000   0.00000   0.00082   0.00000
 187       60G+3       -0.00005   0.00000   0.00000   0.00000   0.00000
 188       60G-3        0.00000   0.00005   0.00000   0.00000   0.00000
 189       60G+4        0.00000   0.00000   0.00040   0.00000   0.00032
 190       60G-4        0.00000   0.00000   0.00000  -0.00000   0.00000
 191 2   H  1S          0.00000   0.00000   0.00321   0.00000  -0.00141
 192        2S          0.00000   0.00000   0.03461   0.00000  -0.01523
 193        3S          0.00000   0.00000   0.13526   0.00000  -0.05921
 194        4S          0.00000   0.00000   0.30675   0.00000  -0.14824
 195        5S          0.00000   0.00000   0.20500   0.00000  -0.19858
 196        6S          0.00000   0.00000   0.02441   0.00000  -0.03575
 197        7PX         0.00045   0.00000   0.00000   0.00000   0.00000
 198        7PY         0.00000   0.00045   0.00000   0.00000   0.00000
 199        7PZ         0.00000   0.00000   0.00976   0.00000   0.00271
 200        8PX         0.00044   0.00000   0.00000   0.00000   0.00000
 201        8PY         0.00000   0.00044   0.00000   0.00000   0.00000
 202        8PZ         0.00000   0.00000   0.02916   0.00000  -0.00189
 203        9PX         0.00010   0.00000   0.00000   0.00000   0.00000
 204        9PY         0.00000   0.00010   0.00000   0.00000   0.00000
 205        9PZ         0.00000   0.00000   0.01943   0.00000   0.00287
 206       10D 0        0.00000   0.00000   0.00300   0.00000   0.00107
 207       10D+1        0.00034   0.00000   0.00000   0.00000   0.00000
 208       10D-1        0.00000   0.00034   0.00000   0.00000   0.00000
 209       10D+2        0.00000   0.00000  -0.00000   0.00000  -0.00000
 210       10D-2        0.00000   0.00000   0.00000   0.00070   0.00000
 211       11D 0        0.00000   0.00000   0.00281   0.00000   0.00145
 212       11D+1       -0.00008   0.00000   0.00000   0.00000   0.00000
 213       11D-1        0.00000  -0.00008   0.00000   0.00000   0.00000
 214       11D+2        0.00000   0.00000  -0.00000   0.00000  -0.00000
 215       11D-2        0.00000   0.00000   0.00000   0.00041   0.00000
[...]
     Gross orbital populations:
                         Total     Alpha     Beta      Spin
   1 1   Fe 1S         -0.00000  -0.00000  -0.00000  -0.00000
   2        2S          0.00000   0.00000   0.00000   0.00000
   3        3S         -0.00000  -0.00000  -0.00000  -0.00000
   4        4S          0.00000   0.00000   0.00000   0.00000
   5        5S         -0.00000  -0.00000  -0.00000  -0.00000
   6        6S          0.00000   0.00000   0.00000   0.00000
   7        7S         -0.00000  -0.00000  -0.00000   0.00000
   8        8S          0.00000   0.00000   0.00000   0.00000
   9        9S         -0.00001  -0.00000  -0.00000   0.00000
  10       10S          0.00004   0.00002   0.00002  -0.00000
  11       11S         -0.00038  -0.00019  -0.00019   0.00000
  12       12S          0.00441   0.00220   0.00220  -0.00000
  13       13S          0.00244   0.00122   0.00122  -0.00000
  14       14S         -0.37352  -0.18676  -0.18676   0.00000
  15       15S          0.02528   0.01264   0.01264   0.00000
  16       16S          1.59071   0.79536   0.79536  -0.00000
  17       17S          0.74203   0.37102   0.37102  -0.00000
  18       18S          0.27691   0.13846   0.13846  -0.00000
  19       19S          0.44047   0.22024   0.22024   0.00000
  20       20S          0.15822   0.07911   0.07911  -0.00000
  21       21S          0.17617   0.08808   0.08808  -0.00000
  22       22S         -0.19056  -0.09528  -0.09528   0.00000
  23       23S         -0.01524  -0.00762  -0.00762  -0.00000
  24       24PX         0.00000   0.00000   0.00000   0.00000
  25       24PY         0.00000   0.00000   0.00000   0.00000
  26       24PZ         0.00000   0.00000   0.00000  -0.00000
  27       25PX        -0.00000  -0.00000  -0.00000  -0.00000
  28       25PY        -0.00000  -0.00000  -0.00000  -0.00000
  29       25PZ        -0.00000  -0.00000  -0.00000   0.00000
  30       26PX         0.00000   0.00000   0.00000   0.00000
  31       26PY         0.00000   0.00000   0.00000   0.00000
  32       26PZ         0.00000   0.00000   0.00000  -0.00000
  33       27PX        -0.00000  -0.00000  -0.00000  -0.00000
  34       27PY        -0.00000  -0.00000  -0.00000  -0.00000
  35       27PZ        -0.00000  -0.00000  -0.00000   0.00000
  36       28PX         0.00000   0.00000   0.00000   0.00000
  37       28PY         0.00000   0.00000   0.00000   0.00000
  38       28PZ         0.00000   0.00000   0.00000  -0.00000
  39       29PX        -0.00004  -0.00002  -0.00002  -0.00000
  40       29PY        -0.00004  -0.00002  -0.00002  -0.00000
  41       29PZ        -0.00004  -0.00002  -0.00002   0.00000
  42       30PX         0.00045   0.00022   0.00022   0.00000
  43       30PY         0.00045   0.00022   0.00022   0.00000
  44       30PZ         0.00046   0.00023   0.00023  -0.00000
  45       31PX        -0.00218  -0.00109  -0.00109  -0.00000
  46       31PY        -0.00218  -0.00109  -0.00109  -0.00000
  47       31PZ        -0.00222  -0.00111  -0.00111   0.00000
  48       32PX        -0.04807  -0.02404  -0.02403  -0.00001
  49       32PY        -0.04807  -0.02404  -0.02403  -0.00001
  50       32PZ        -0.04880  -0.02440  -0.02440  -0.00000
  51       33PX         0.07225   0.03613   0.03611   0.00002
  52       33PY         0.07225   0.03613   0.03611   0.00002
  53       33PZ         0.07307   0.03654   0.03654  -0.00000
  54       34PX         0.55049   0.27527   0.27521   0.00006
  55       34PY         0.55049   0.27527   0.27521   0.00006
  56       34PZ         0.55792   0.27896   0.27896   0.00000
  57       35PX         0.47466   0.23732   0.23734  -0.00002
  58       35PY         0.47466   0.23732   0.23734  -0.00002
  59       35PZ         0.48258   0.24129   0.24129  -0.00000
  60       36PX         0.50976   0.25488   0.25488  -0.00000
  61       36PY         0.50976   0.25488   0.25488  -0.00000
  62       36PZ         0.50312   0.25156   0.25156  -0.00000
  63       37PX         0.04882   0.02452   0.02430   0.00021
  64       37PY         0.04882   0.02452   0.02430   0.00021
  65       37PZ         0.06345   0.03172   0.03172   0.00000
  66       38PX        -0.00088  -0.00039  -0.00049   0.00010
  67       38PY        -0.00088  -0.00039  -0.00049   0.00010
  68       38PZ         0.02643   0.01322   0.01322  -0.00000
  69       39PX         0.00024   0.00011   0.00013  -0.00001
  70       39PY         0.00024   0.00011   0.00013  -0.00001
  71       39PZ         0.00477   0.00238   0.00238   0.00000
  72       40PX        -0.03177  -0.01589  -0.01588  -0.00001
  73       40PY        -0.03177  -0.01589  -0.01588  -0.00001
  74       40PZ        -0.03211  -0.01605  -0.01605   0.00000
  75       41PX         0.42644   0.21327   0.21318   0.00009
  76       41PY         0.42644   0.21327   0.21318   0.00009
  77       41PZ         0.42519   0.21259   0.21259   0.00000
  78       42PX        -0.00002  -0.00001  -0.00001   0.00000
  79       42PY        -0.00002  -0.00001  -0.00001   0.00000
  80       42PZ        -0.00129  -0.00064  -0.00064   0.00000
  81       43D 0        0.00002   0.00001   0.00001   0.00000
  82       43D+1        0.00001   0.00001   0.00000   0.00001
  83       43D-1        0.00001   0.00001   0.00000   0.00001
  84       43D+2        0.00001   0.00001   0.00000   0.00001
  85       43D-2        0.00002   0.00001   0.00001   0.00000
  86       44D 0        0.00709   0.00354   0.00354   0.00000
  87       44D+1        0.00478   0.00478   0.00000   0.00478
  88       44D-1        0.00478   0.00478   0.00000   0.00478
  89       44D+2        0.00482   0.00482   0.00000   0.00482
  90       44D-2        0.00915   0.00457   0.00457  -0.00000
  91       45D 0        0.06351   0.03175   0.03175   0.00000
  92       45D+1        0.04281   0.04281   0.00000   0.04281
  93       45D-1        0.04281   0.04281   0.00000   0.04281
  94       45D+2        0.04315   0.04315   0.00000   0.04315
  95       45D-2        0.08196   0.04098   0.04098  -0.00000
  96       46D 0        0.20730   0.10365   0.10365   0.00000
  97       46D+1        0.13620   0.13620   0.00000   0.13619
  98       46D-1        0.13620   0.13620   0.00000   0.13619
  99       46D+2        0.13611   0.13611   0.00000   0.13611
 100       46D-2        0.25724   0.12862   0.12862   0.00000
 101       47D 0        0.59644   0.29822   0.29822   0.00000
 102       47D+1        0.44030   0.44031  -0.00001   0.44032
 103       47D-1        0.44030   0.44031  -0.00001   0.44032
 104       47D+2        0.46066   0.46066   0.00000   0.46066
 105       47D-2        0.89873   0.44937   0.44937  -0.00000
 106       48D 0        0.53930   0.26965   0.26965   0.00000
 107       48D+1        0.31090   0.31087   0.00002   0.31085
 108       48D-1        0.31090   0.31087   0.00002   0.31085
 109       48D+2        0.31032   0.31032   0.00000   0.31032
 110       48D-2        0.61184   0.30592   0.30592   0.00000
 111       49D 0        0.31846   0.15923   0.15923   0.00000
 112       49D+1        0.14356   0.14356   0.00001   0.14355
 113       49D-1        0.14356   0.14356   0.00001   0.14355
 114       49D+2        0.14322   0.14322   0.00000   0.14322
 115       49D-2        0.32832   0.16416   0.16416  -0.00000
 116       50D 0        0.05566   0.02783   0.02783   0.00000
 117       50D+1        0.01530   0.01530  -0.00000   0.01530
 118       50D-1        0.01530   0.01530  -0.00000   0.01530
 119       50D+2        0.01483   0.01483   0.00000   0.01483
 120       50D-2        0.04923   0.02461   0.02461  -0.00000
 121       51D 0        0.04585   0.02293   0.02293   0.00000
 122       51D+1        0.03409   0.03409  -0.00000   0.03410
 123       51D-1        0.03409   0.03409  -0.00000   0.03410
 124       51D+2        0.03571   0.03571   0.00000   0.03571
 125       51D-2        0.06898   0.03449   0.03449  -0.00000
 126       52D 0       -0.12197  -0.06099  -0.06099   0.00000
 127       52D+1       -0.13018  -0.13020   0.00002  -0.13022
 128       52D-1       -0.13018  -0.13020   0.00002  -0.13022
 129       52D+2       -0.14893  -0.14893  -0.00000  -0.14893
 130       52D-2       -0.30553  -0.15277  -0.15277   0.00000
 131       53D 0       -0.00046  -0.00023  -0.00023  -0.00000
 132       53D+1       -0.00017  -0.00017   0.00000  -0.00017
 133       53D-1       -0.00017  -0.00017   0.00000  -0.00017
 134       53D+2       -0.00020  -0.00020   0.00000  -0.00020
 135       53D-2       -0.00042  -0.00021  -0.00021   0.00000
 136       54F 0        0.00001   0.00001   0.00001   0.00000
 137       54F+1        0.00000   0.00000   0.00000   0.00000
 138       54F-1        0.00000   0.00000   0.00000   0.00000
 139       54F+2        0.00000   0.00000   0.00000   0.00000
 140       54F-2        0.00000   0.00000   0.00000  -0.00000
 141       54F+3        0.00001   0.00000   0.00000   0.00000
 142       54F-3        0.00001   0.00000   0.00000   0.00000
 143       55F 0        0.00010   0.00005   0.00005  -0.00000
 144       55F+1        0.00001   0.00000   0.00000   0.00000
 145       55F-1        0.00001   0.00000   0.00000   0.00000
 146       55F+2        0.00000   0.00000   0.00000   0.00000
 147       55F-2        0.00001   0.00000   0.00000  -0.00000
 148       55F+3        0.00003   0.00001   0.00001   0.00000
 149       55F-3        0.00003   0.00001   0.00001   0.00000
 150       56F 0        0.00142   0.00071   0.00071   0.00000
 151       56F+1        0.00002   0.00002   0.00000   0.00002
 152       56F-1        0.00002   0.00002   0.00000   0.00002
 153       56F+2        0.00003   0.00003   0.00000   0.00003
 154       56F-2        0.00007   0.00003   0.00003   0.00000
 155       56F+3        0.00003   0.00002   0.00002   0.00000
 156       56F-3        0.00003   0.00002   0.00002   0.00000
 157       57F 0        0.00107   0.00053   0.00053  -0.00000
 158       57F+1        0.00003   0.00003   0.00000   0.00002
 159       57F-1        0.00003   0.00003   0.00000   0.00002
 160       57F+2        0.00007   0.00007   0.00000   0.00007
 161       57F-2        0.00018   0.00009   0.00009  -0.00000
 162       57F+3        0.00001   0.00000   0.00000   0.00000
 163       57F-3        0.00001   0.00000   0.00000   0.00000
 164       58G 0        0.00000   0.00000   0.00000   0.00000
 165       58G+1       -0.00000  -0.00000   0.00000  -0.00000
 166       58G-1       -0.00000  -0.00000   0.00000  -0.00000
 167       58G+2        0.00000   0.00000   0.00000   0.00000
 168       58G-2       -0.00000  -0.00000  -0.00000   0.00000
 169       58G+3        0.00000   0.00000   0.00000   0.00000
 170       58G-3        0.00000   0.00000   0.00000   0.00000
 171       58G+4        0.00000   0.00000   0.00000   0.00000
 172       58G-4        0.00000   0.00000   0.00000  -0.00000
 173       59G 0        0.00002   0.00001   0.00001   0.00000
 174       59G+1        0.00000   0.00000  -0.00000   0.00000
 175       59G-1        0.00000   0.00000  -0.00000   0.00000
 176       59G+2        0.00000   0.00000   0.00000   0.00000
 177       59G-2        0.00000   0.00000   0.00000  -0.00000
 178       59G+3        0.00000   0.00000   0.00000   0.00000
 179       59G-3        0.00000   0.00000   0.00000   0.00000
 180       59G+4        0.00000   0.00000   0.00000   0.00000
 181       59G-4        0.00000   0.00000   0.00000  -0.00000
 182       60G 0        0.00039   0.00019   0.00019   0.00000
 183       60G+1        0.00001   0.00001   0.00000   0.00001
 184       60G-1        0.00001   0.00001   0.00000   0.00001
 185       60G+2        0.00001   0.00001   0.00000   0.00001
 186       60G-2        0.00000   0.00000   0.00000  -0.00000
 187       60G+3        0.00000   0.00000   0.00000   0.00000
 188       60G-3        0.00000   0.00000   0.00000   0.00000
 189       60G+4        0.00000   0.00000   0.00000   0.00000
 190       60G-4        0.00000   0.00000   0.00000  -0.00000
 191 2   H  1S          0.00076   0.00038   0.00038   0.00000
 192        2S          0.02606   0.01303   0.01303   0.00000
 193        3S          0.20062   0.10031   0.10031  -0.00000
 194        4S          0.59657   0.29828   0.29828   0.00000
 195        5S          0.50765   0.25382   0.25382   0.00000
 196        6S          0.05838   0.02919   0.02919  -0.00000
 197        7PX         0.00040   0.00039   0.00001   0.00038
 198        7PY         0.00040   0.00039   0.00001   0.00038
 199        7PZ         0.00318   0.00159   0.00159  -0.00000
 200        8PX         0.00212   0.00208   0.00004   0.00204
 201        8PY         0.00212   0.00208   0.00004   0.00204
 202        8PZ         0.00647   0.00324   0.00324   0.00000
 203        9PX        -0.00052  -0.00053   0.00001  -0.00054
 204        9PY        -0.00052  -0.00053   0.00001  -0.00054
 205        9PZ        -0.00431  -0.00215  -0.00215   0.00000
 206       10D 0        0.00091   0.00045   0.00045   0.00000
 207       10D+1        0.00039   0.00037   0.00002   0.00035
 208       10D-1        0.00039   0.00037   0.00002   0.00035
 209       10D+2        0.00003   0.00003   0.00000   0.00003
 210       10D-2        0.00006   0.00003   0.00003  -0.00000
 211       11D 0       -0.00000  -0.00000  -0.00000   0.00000
 212       11D+1       -0.00030  -0.00027  -0.00002  -0.00025
 213       11D-1       -0.00030  -0.00027  -0.00002  -0.00025
 214       11D+2        0.00016   0.00016   0.00000   0.00016
 215       11D-2        0.00016   0.00008   0.00008  -0.00000
          Condensed to atoms (all electrons):
               1          2
     1  Fe  15.253712   0.345406
     2  H    0.345406   1.055476
          Atomic-Atomic Spin Densities.
               1          2
     1  Fe   2.991941   0.003916
     2  H    0.003916   0.000226
 Mulliken charges and spin densities:
               1          2
     1  Fe   0.400882   2.995858
     2  H   -0.400882   0.004142
 Sum of Mulliken charges =  -0.00000   3.00000
 Mulliken charges and spin densities with hydrogens summed into heavy atoms:
               1          2
     1  Fe  -0.000000   3.000000
 Electronic spatial extent (au):  <R**2>=             42.8491
 Charge=             -0.0000 electrons
 Dipole moment (field-independent basis, Debye):
    X=              0.0000    Y=              0.0000    Z=              3.7755  Tot=              3.7755
 Quadrupole moment (field-independent basis, Debye-Ang):
   XX=            -16.1273   YY=            -16.1273   ZZ=            -16.4424
   XY=              0.0000   XZ=              0.0000   YZ=              0.0000
 Traceless Quadrupole moment (field-independent basis, Debye-Ang):
   XX=              0.1050   YY=              0.1050   ZZ=             -0.2101
   XY=              0.0000   XZ=              0.0000   YZ=              0.0000
 Octapole moment (field-independent basis, Debye-Ang**2):
  XXX=              0.0000  YYY=              0.0000  ZZZ=             13.0843  XYY=              0.0000
  XXY=              0.0000  XXZ=              3.2496  XZZ=              0.0000  YZZ=              0.0000
  YYZ=              3.2496  XYZ=              0.0000
 Hexadecapole moment (field-independent basis, Debye-Ang**3):
 XXXX=            -26.6093 YYYY=            -26.6092 ZZZZ=            -43.5972 XXXY=              0.0000
 XXXZ=              0.0000 YYYX=              0.0000 YYYZ=              0.0000 ZZZX=              0.0000
 ZZZY=              0.0000 XXYY=             -9.1836 XXZZ=            -11.2189 YYZZ=            -11.2189
 XXYZ=              0.0000 YYXZ=              0.0000 ZZXY=              0.0000
 N-N= 6.047739553371D+00 E-N=-3.034901283129D+02  KE= 7.312427623115D+01
 Symmetry A1   KE= 3.079931764924D+01
 Symmetry A2   KE= 1.324584868679D+01
 Symmetry B1   KE= 1.453955494156D+01
 Symmetry B2   KE= 1.453955495446D+01
 Symmetry A1   SP= 1.000000000000D+00
 Symmetry A2   SP=-7.210833945109D-17
 Symmetry B1   SP= 1.000000000000D+00
 Symmetry B2   SP= 1.000000000000D+00
 Orbital energies and kinetic energies (alpha):
                                 1                 2
   3         O                -2.787412          3.820754
   4         O                -2.787412          3.820754
   5         O                -0.521717          3.188336
   6         O                -0.521717          6.622924
   7         O                -0.507016          2.663654
   8         O                -0.486970          6.898047
   9         O                -0.458064          6.898047
  10         O                -0.313113          6.938302
  11         V                 0.000066          0.262847
  12         V                 0.024698          0.043973
  13         V                 0.024698          0.043973
  14         V                 0.030417          0.034923
  15         V                 0.044734          0.306131
 Total kinetic energy from orbitals= 9.385867186030D+01
                          Isotropic Fermi Contact Couplings
        Atom                 a.u.       MegaHertz       Gauss      10(-4) cm-1
     1  Fe(57)            -0.00000      -0.00000      -0.00000      -0.00000
     2  H(1)               0.00000       0.00000       0.00000       0.00000
 --------------------------------------------------------
       Center         ----  Spin Dipole Couplings  ----
                      3XX-RR        3YY-RR        3ZZ-RR
 --------------------------------------------------------
     1   Atom        0.006019      0.006020     -0.012039
     2   Atom       -0.135027     -0.135027      0.270053
 --------------------------------------------------------
                        XY            XZ            YZ
 --------------------------------------------------------
     1   Atom        0.000000      0.000000      0.000000
     2   Atom        0.000000      0.000000      0.000000
 --------------------------------------------------------


 ---------------------------------------------------------------------------------
              Anisotropic Spin Dipole Couplings in Principal Axis System
 ---------------------------------------------------------------------------------

       Atom             a.u.   MegaHertz   Gauss  10(-4) cm-1        Axes

              Baa    -0.0120    -0.208    -0.074    -0.070  0.0000  0.0000  1.0000
     1 Fe(57) Bbb     0.0060     0.104     0.037     0.035  1.0000  0.0000  0.0000
              Bcc     0.0060     0.104     0.037     0.035 -0.0000  1.0000  0.0000
 
              Baa    -0.1350   -72.044   -25.707   -24.031  1.0000  0.0000  0.0000
     2 H(1)   Bbb    -0.1350   -72.044   -25.707   -24.031 -0.0000  1.0000  0.0000
              Bcc     0.2701   144.088    51.414    48.062  0.0000  0.0000  1.0000
 

 ---------------------------------------------------------------------------------

 No NMR shielding tensors so no spin-rotation constants.
 Leave Link  601 at Sun Apr 22 23:02:43 2018, MaxMem= 21474836480 cpu:              15.6 elap:               0.5
 (Enter /home1/apps/gaussian/16rA.03/g16/l9999.exe)

 Test job not archived.
 1\1\GINC-C478-023\SP\ROCCSD(T)-Full\Gen\Fe1H1(4)\GWANG18\22-Apr-2018\0
 \\#P ROCCSD(T)=(MaxCyc=150, Full)/Gen SCF=(maxcycle=400, vshift=200) P
 seudo=Read Integral(NoXCTest) Pop=Regular MaxDisk=500GB Guess=Read IOp
 (5/15=2)\\FeH\\0,4\Fe,0,0.,0.,0.\H,0,0.,0.,1.4\\Version=ES64L-G16RevA.
 03\HF=-123.1064074\MP2=-123.8816722\MP3=-123.8219476\PUHF=-123.1064074
 \PMP2-0=-123.8816722\MP4SDQ=-123.8608112\CCSD=-123.8498772\CCSD(T)=-12
 3.8790671\RMSD=9.459e-09\PG=C*V [C*(H1Fe1)]\\@


 CHARLIE BROWN -- WHICH DO YOU THINK LASTS LONGER IN LIFE, THE GOOD THINGS 
                  OR THE BAD THINGS?
 LINUS --         GOOD THINGS LAST EIGHT SECONDS ..
                  BAD THINGS LAST THREE WEEKS
 CHARLIE BROWN -- WHAT ABOUT IN BETWEEN?
 SNOOPY --        IN BETWEEN YOU SHOULD TAKE A NAP ...
 Job cpu time:       0 days  2 hours  7 minutes 51.5 seconds.
 Elapsed time:       0 days  0 hours  4 minutes  3.1 seconds.
 File lengths (MBytes):  RWF=   2673 Int=      0 D2E=      0 Chk=      6 Scr=      1
 Normal termination of Gaussian 16 at Sun Apr 22 23:02:43 2018.
