 Entering Gaussian System, Link 0=g16
 Initial command:
 /home1/apps/gaussian/16rA.03/g16/l1.exe "/tmp/Gau-17434.inp" -scrdir="/tmp/"
 Entering Link 1 = /home1/apps/gaussian/16rA.03/g16/l1.exe PID=     17435.
  
 Copyright (c) 1988,1990,1992,1993,1995,1998,2003,2009,2016,
            Gaussian, Inc.  All Rights Reserved.
  
 This is part of the Gaussian(R) 16 program.  It is based on
 the Gaussian(R) 09 system (copyright 2009, Gaussian, Inc.),
 the Gaussian(R) 03 system (copyright 2003, Gaussian, Inc.),
 the Gaussian(R) 98 system (copyright 1998, Gaussian, Inc.),
 the Gaussian(R) 94 system (copyright 1995, Gaussian, Inc.),
 the Gaussian 92(TM) system (copyright 1992, Gaussian, Inc.),
 the Gaussian 90(TM) system (copyright 1990, Gaussian, Inc.),
 the Gaussian 88(TM) system (copyright 1988, Gaussian, Inc.),
 the Gaussian 86(TM) system (copyright 1986, Carnegie Mellon
 University), and the Gaussian 82(TM) system (copyright 1983,
 Carnegie Mellon University). Gaussian is a federally registered
 trademark of Gaussian, Inc.
  
 This software contains proprietary and confidential information,
 including trade secrets, belonging to Gaussian, Inc.
  
 This software is provided under written license and may be
 used, copied, transmitted, or stored only in accord with that
 written license.
  
 The following legend is applicable only to US Government
 contracts under FAR:
  
                    RESTRICTED RIGHTS LEGEND
  
 Use, reproduction and disclosure by the US Government is
 subject to restrictions as set forth in subparagraphs (a)
 and (c) of the Commercial Computer Software - Restricted
 Rights clause in FAR 52.227-19.
  
 Gaussian, Inc.
 340 Quinnipiac St., Bldg. 40, Wallingford CT 06492
  
  
 ---------------------------------------------------------------
 Warning -- This program may not be used in any manner that
 competes with the business of Gaussian, Inc. or will provide
 assistance to any competitor of Gaussian, Inc.  The licensee
 of this program is prohibited from giving any competitor of
 Gaussian, Inc. access to this program.  By using this program,
 the user acknowledges that Gaussian, Inc. is engaged in the
 business of creating and licensing software in the field of
 computational chemistry and represents and warrants to the
 licensee that it is not a competitor of Gaussian, Inc. and that
 it will not use this program in any manner prohibited above.
 ---------------------------------------------------------------
  

 Cite this work as:
 Gaussian 16, Revision A.03,
 M. J. Frisch, G. W. Trucks, H. B. Schlegel, G. E. Scuseria, 
 M. A. Robb, J. R. Cheeseman, G. Scalmani, V. Barone, 
 G. A. Petersson, H. Nakatsuji, X. Li, M. Caricato, A. V. Marenich, 
 J. Bloino, B. G. Janesko, R. Gomperts, B. Mennucci, H. P. Hratchian, 
 J. V. Ortiz, A. F. Izmaylov, J. L. Sonnenberg, D. Williams-Young, 
 F. Ding, F. Lipparini, F. Egidi, J. Goings, B. Peng, A. Petrone, 
 T. Henderson, D. Ranasinghe, V. G. Zakrzewski, J. Gao, N. Rega, 
 G. Zheng, W. Liang, M. Hada, M. Ehara, K. Toyota, R. Fukuda, 
 J. Hasegawa, M. Ishida, T. Nakajima, Y. Honda, O. Kitao, H. Nakai, 
 T. Vreven, K. Throssell, J. A. Montgomery, Jr., J. E. Peralta, 
 F. Ogliaro, M. J. Bearpark, J. J. Heyd, E. N. Brothers, K. N. Kudin, 
 V. N. Staroverov, T. A. Keith, R. Kobayashi, J. Normand, 
 K. Raghavachari, A. P. Rendell, J. C. Burant, S. S. Iyengar, 
 J. Tomasi, M. Cossi, J. M. Millam, M. Klene, C. Adamo, R. Cammi, 
 J. W. Ochterski, R. L. Martin, K. Morokuma, O. Farkas, 
 J. B. Foresman, and D. J. Fox, Gaussian, Inc., Wallingford CT, 2016.
 
 ******************************************
 Gaussian 16:  ES64L-G16RevA.03 25-Dec-2016
                12-Mar-2018 
 ******************************************
 %MEM=80GB
 %CPU=0-15
 SetSPE:  set environment variable "MP_BIND" = "yes"
 SetSPE:  set environment variable "MP_BLIST" = "0,1,2,3,4,5,6,7,8,9,10,11,12,13,14,15"
 Will use up to   16 processors via shared memory.
 %RWF=/scratch/04843/aannabe/gaussian/
 %Int=/scratch/04843/aannabe/gaussian/
 %D2E=/scratch/04843/aannabe/gaussian/
 %NoSave
 %CHK=CrO
 ----------------------------------------------------------------------
 #P ROCCSD(T)=(maxcyc=150, Full, SaveAmplitudes, ReadAmplitudes)/Gen 5d
  7f SCF=(maxcycles=300) Integral(NoXCTest) MaxDisk=500GB Pop=Regular P
 seudo=Read Guess=Read IOp(5/15=2)
 ----------------------------------------------------------------------
 1/38=1,172=1/1;
 2/12=2,17=6,18=5,40=1/2;
 3/5=7,8=11,11=2,16=1,17=8,25=1,30=1,47=8,116=101/1,2,3;
 4/5=1/1;
 5/5=2,7=300,15=2,38=6/2;
 8/5=-1,6=4,9=120000,10=90,24=1/1,4;
 9/5=7,6=150,14=2,77=1/13;
 6//1;
 99/5=1,9=1/99;
 Leave Link    1 at Mon Mar 12 14:08:23 2018, MaxMem= 10737418240 cpu:               4.7 elap:               0.3
 (Enter /home1/apps/gaussian/16rA.03/g16/l101.exe)
 ---
 CrO
 ---
 Symbolic Z-matrix:
 Charge =  0 Multiplicity = 5
 Cr                    0.        0.        0. 
 O                     0.        0.        1.2 
 
 ITRead=  0  0
 MicOpt= -1 -1
 NAtoms=      2 NQM=        2 NQMF=       0 NMMI=      0 NMMIF=      0
                NMic=       0 NMicF=      0.
                    Isotopes and Nuclear Properties:
 (Nuclear quadrupole moments (NQMom) in fm**2, nuclear magnetic moments (NMagM)
  in nuclear magnetons)

  Atom         1           2
 IAtWgt=          52          16
 AtmWgt=  51.9405097  15.9949146
 NucSpn=           0           0
 AtZEff=  -0.0000000  -0.0000000
 NQMom=    0.0000000   0.0000000
 NMagM=    0.0000000   0.0000000
 AtZNuc=  24.0000000   8.0000000
 Leave Link  101 at Mon Mar 12 14:08:23 2018, MaxMem= 10737418240 cpu:               1.7 elap:               0.1
 (Enter /home1/apps/gaussian/16rA.03/g16/l202.exe)
                          Input orientation:                          
 ---------------------------------------------------------------------
 Center     Atomic      Atomic             Coordinates (Angstroms)
 Number     Number       Type             X           Y           Z
 ---------------------------------------------------------------------
      1         24           0        0.000000    0.000000    0.000000
      2          8           0        0.000000    0.000000    1.200000
 ---------------------------------------------------------------------
 Stoichiometry    CrO(5)
 Framework group  C*V[C*(OCr)]
 Deg. of freedom     1
 Full point group                 C*V     NOp   4
 Largest Abelian subgroup         C2V     NOp   4
 Largest concise Abelian subgroup C1      NOp   1
                         Standard orientation:                         
 ---------------------------------------------------------------------
 Center     Atomic      Atomic             Coordinates (Angstroms)
 Number     Number       Type             X           Y           Z
 ---------------------------------------------------------------------
      1         24           0        0.000000    0.000000    0.300000
      2          8           0        0.000000    0.000000   -0.900000
 ---------------------------------------------------------------------
 Rotational constants (GHZ):           0.0000000          28.6987424          28.6987424
 Leave Link  202 at Mon Mar 12 14:08:24 2018, MaxMem= 10737418240 cpu:               0.4 elap:               0.1
 (Enter /home1/apps/gaussian/16rA.03/g16/l301.exe)
 General basis read from cards:  (5D, 7F)
 Centers:       1
 S 1 1.00
     Exponent=  6.1771940000D+06 Coefficients=  1.0000000000D+00
 S 1 1.00
     Exponent=  9.2492950000D+05 Coefficients=  1.0000000000D+00
 S 1 1.00
     Exponent=  2.1048650000D+05 Coefficients=  1.0000000000D+00
 S 1 1.00
     Exponent=  5.9620050000D+04 Coefficients=  1.0000000000D+00
 S 1 1.00
     Exponent=  1.9450760000D+04 Coefficients=  1.0000000000D+00
 S 1 1.00
     Exponent=  7.0220560000D+03 Coefficients=  1.0000000000D+00
 S 1 1.00
     Exponent=  2.7387630000D+03 Coefficients=  1.0000000000D+00
 S 1 1.00
     Exponent=  1.1358140000D+03 Coefficients=  1.0000000000D+00
 S 1 1.00
     Exponent=  4.9509230000D+02 Coefficients=  1.0000000000D+00
 S 1 1.00
     Exponent=  2.2474870000D+02 Coefficients=  1.0000000000D+00
 S 1 1.00
     Exponent=  1.0538360000D+02 Coefficients=  1.0000000000D+00
 S 1 1.00
     Exponent=  5.0193590000D+01 Coefficients=  1.0000000000D+00
 S 1 1.00
     Exponent=  2.2249570000D+01 Coefficients=  1.0000000000D+00
 S 1 1.00
     Exponent=  1.0982650000D+01 Coefficients=  1.0000000000D+00
 S 1 1.00
     Exponent=  5.3836650000D+00 Coefficients=  1.0000000000D+00
 S 1 1.00
     Exponent=  2.3436850000D+00 Coefficients=  1.0000000000D+00
 S 1 1.00
     Exponent=  1.1052020000D+00 Coefficients=  1.0000000000D+00
 S 1 1.00
     Exponent=  4.8784800000D-01 Coefficients=  1.0000000000D+00
 S 1 1.00
     Exponent=  8.9599000000D-02 Coefficients=  1.0000000000D+00
 S 1 1.00
     Exponent=  3.3423000000D-02 Coefficients=  1.0000000000D+00
 S 1 1.00
     Exponent=  4.8281000000D+00 Coefficients=  1.0000000000D+00
 S 1 1.00
     Exponent=  1.1499000000D+00 Coefficients=  1.0000000000D+00
 S 1 1.00
     Exponent=  1.2470000000D-02 Coefficients=  1.0000000000D+00
 P 1 1.00
     Exponent=  1.4454200000D+04 Coefficients=  1.0000000000D+00
 P 1 1.00
     Exponent=  3.4216760000D+03 Coefficients=  1.0000000000D+00
 P 1 1.00
     Exponent=  1.1113870000D+03 Coefficients=  1.0000000000D+00
 P 1 1.00
     Exponent=  4.2519180000D+02 Coefficients=  1.0000000000D+00
 P 1 1.00
     Exponent=  1.8026230000D+02 Coefficients=  1.0000000000D+00
 P 1 1.00
     Exponent=  8.2061170000D+01 Coefficients=  1.0000000000D+00
 P 1 1.00
     Exponent=  3.9297260000D+01 Coefficients=  1.0000000000D+00
 P 1 1.00
     Exponent=  1.9419590000D+01 Coefficients=  1.0000000000D+00
 P 1 1.00
     Exponent=  9.8288990000D+00 Coefficients=  1.0000000000D+00
 P 1 1.00
     Exponent=  5.0168100000D+00 Coefficients=  1.0000000000D+00
 P 1 1.00
     Exponent=  2.4870910000D+00 Coefficients=  1.0000000000D+00
 P 1 1.00
     Exponent=  1.1987800000D+00 Coefficients=  1.0000000000D+00
 P 1 1.00
     Exponent=  5.5869500000D-01 Coefficients=  1.0000000000D+00
 P 1 1.00
     Exponent=  2.0936600000D-01 Coefficients=  1.0000000000D+00
 P 1 1.00
     Exponent=  8.4722000000D-02 Coefficients=  1.0000000000D+00
 P 1 1.00
     Exponent=  3.3278000000D-02 Coefficients=  1.0000000000D+00
 P 1 1.00
     Exponent=  5.2718000000D+00 Coefficients=  1.0000000000D+00
 P 1 1.00
     Exponent=  1.2083000000D+00 Coefficients=  1.0000000000D+00
 P 1 1.00
     Exponent=  1.3070000000D-02 Coefficients=  1.0000000000D+00
 D 1 1.00
     Exponent=  8.9474500000D+01 Coefficients=  1.0000000000D+00
 D 1 1.00
     Exponent=  2.6336800000D+01 Coefficients=  1.0000000000D+00
 D 1 1.00
     Exponent=  9.5342900000D+00 Coefficients=  1.0000000000D+00
 D 1 1.00
     Exponent=  3.8211800000D+00 Coefficients=  1.0000000000D+00
 D 1 1.00
     Exponent=  1.5716900000D+00 Coefficients=  1.0000000000D+00
 D 1 1.00
     Exponent=  6.2642200000D-01 Coefficients=  1.0000000000D+00
 D 1 1.00
     Exponent=  2.3305500000D-01 Coefficients=  1.0000000000D+00
 D 1 1.00
     Exponent=  7.6303000000D-02 Coefficients=  1.0000000000D+00
 D 1 1.00
     Exponent=  3.4093000000D+00 Coefficients=  1.0000000000D+00
 D 1 1.00
     Exponent=  1.5874000000D+00 Coefficients=  1.0000000000D+00
 D 1 1.00
     Exponent=  2.4980000000D-02 Coefficients=  1.0000000000D+00
 F 1 1.00
     Exponent=  4.3629000000D+00 Coefficients=  1.0000000000D+00
 F 1 1.00
     Exponent=  1.5864000000D+00 Coefficients=  1.0000000000D+00
 F 1 1.00
     Exponent=  5.2310000000D-01 Coefficients=  1.0000000000D+00
 F 1 1.00
     Exponent=  1.7249000000D-01 Coefficients=  1.0000000000D+00
 G 1 1.00
     Exponent=  4.0406000000D+00 Coefficients=  1.0000000000D+00
 G 1 1.00
     Exponent=  1.4199000000D+00 Coefficients=  1.0000000000D+00
 G 1 1.00
     Exponent=  4.9896000000D-01 Coefficients=  1.0000000000D+00
 ****
 Centers:       2
 S 1 1.00
     Exponent=  1.5330000000D+04 Coefficients=  1.0000000000D+00
 S 1 1.00
     Exponent=  2.2990000000D+03 Coefficients=  1.0000000000D+00
 S 1 1.00
     Exponent=  5.2240000000D+02 Coefficients=  1.0000000000D+00
 S 1 1.00
     Exponent=  1.4730000000D+02 Coefficients=  1.0000000000D+00
 S 1 1.00
     Exponent=  4.7550000000D+01 Coefficients=  1.0000000000D+00
 S 1 1.00
     Exponent=  1.6760000000D+01 Coefficients=  1.0000000000D+00
 S 1 1.00
     Exponent=  6.2070000000D+00 Coefficients=  1.0000000000D+00
 S 1 1.00
     Exponent=  6.8820000000D-01 Coefficients=  1.0000000000D+00
 S 1 1.00
     Exponent=  1.7520000000D+00 Coefficients=  1.0000000000D+00
 S 1 1.00
     Exponent=  2.3840000000D-01 Coefficients=  1.0000000000D+00
 S 1 1.00
     Exponent=  7.8450000000D+00 Coefficients=  1.0000000000D+00
 S 1 1.00
     Exponent=  2.1032000000D+01 Coefficients=  1.0000000000D+00
 S 1 1.00
     Exponent=  7.3760000000D-02 Coefficients=  1.0000000000D+00
 P 1 1.00
     Exponent=  3.4460000000D+01 Coefficients=  1.0000000000D+00
 P 1 1.00
     Exponent=  7.7490000000D+00 Coefficients=  1.0000000000D+00
 P 1 1.00
     Exponent=  2.2800000000D+00 Coefficients=  1.0000000000D+00
 P 1 1.00
     Exponent=  7.1560000000D-01 Coefficients=  1.0000000000D+00
 P 1 1.00
     Exponent=  2.1400000000D-01 Coefficients=  1.0000000000D+00
 P 1 1.00
     Exponent=  1.5159000000D+01 Coefficients=  1.0000000000D+00
 P 1 1.00
     Exponent=  5.7437000000D+01 Coefficients=  1.0000000000D+00
 P 1 1.00
     Exponent=  5.9740000000D-02 Coefficients=  1.0000000000D+00
 D 1 1.00
     Exponent=  2.3140000000D+00 Coefficients=  1.0000000000D+00
 D 1 1.00
     Exponent=  6.4500000000D-01 Coefficients=  1.0000000000D+00
 D 1 1.00
     Exponent=  1.5858000000D+01 Coefficients=  1.0000000000D+00
 D 1 1.00
     Exponent=  2.1400000000D-01 Coefficients=  1.0000000000D+00
 F 1 1.00
     Exponent=  1.4280000000D+00 Coefficients=  1.0000000000D+00
 F 1 1.00
     Exponent=  5.0000000000D-01 Coefficients=  1.0000000000D+00
 ****
 ======================================================================================================
                                       Pseudopotential Parameters
 ======================================================================================================
  Center     Atomic      Valence      Angular      Power
  Number     Number     Electrons     Momentum     of R      Exponent        Coefficient   SO-Coeffient
 ======================================================================================================
    1         24           14
                                      D and up 
                                                     1        2.9433766       14.00000000    0.00000000
                                                     3        3.4075035       41.20727267    0.00000000
                                                     2        3.3358711      -55.51413840    0.00000000
                                      S - D
                                                     2        9.1423178      103.26274052    0.00000000
                                      P - D
                                                     2        7.2122077       45.80124572    0.00000000
    2          8            6
                                      P and up 
                                                     1       12.3099700        6.00000000    0.00000000
                                                     3       14.7696200       73.85984000    0.00000000
                                                     2       13.7141900      -47.87600000    0.00000000
                                      S - P
                                                     2       13.6551200       85.86406000    0.00000000
 ======================================================================================================
 Ernie: Thresh=  0.10000D-02 Tol=  0.10000D-05 Strict=F.
 There are   144 symmetry adapted cartesian basis functions of A1  symmetry.
 There are    30 symmetry adapted cartesian basis functions of A2  symmetry.
 There are    69 symmetry adapted cartesian basis functions of B1  symmetry.
 There are    69 symmetry adapted cartesian basis functions of B2  symmetry.
 There are   114 symmetry adapted basis functions of A1  symmetry.
 There are    27 symmetry adapted basis functions of A2  symmetry.
 There are    60 symmetry adapted basis functions of B1  symmetry.
 There are    60 symmetry adapted basis functions of B2  symmetry.
   261 basis functions,   312 primitive gaussians,   312 cartesian basis functions
    12 alpha electrons        8 beta electrons
       nuclear repulsion energy        37.0424047644 Hartrees.
 IExCor=    0 DFT=F Ex=HF Corr=None ExCW=0 ScaHFX=  1.000000
 ScaDFX=  1.000000  1.000000  1.000000  1.000000 ScalE2=  1.000000  1.000000
 IRadAn=      5 IRanWt=     -1 IRanGd=            0 ICorTp=0 IEmpDi=  4
 NAtoms=    2 NActive=    2 NUniq=    2 SFac= 1.00D+00 NAtFMM=   60 NAOKFM=F Big=F
 Integral buffers will be    131072 words long.
 Raffenetti 2 integral format.
 Two-electron integral symmetry is turned on.
 Leave Link  301 at Mon Mar 12 14:08:24 2018, MaxMem= 10737418240 cpu:               3.9 elap:               0.3
 (Enter /home1/apps/gaussian/16rA.03/g16/l302.exe)
 NPDir=0 NMtPBC=     1 NCelOv=     1 NCel=       1 NClECP=     1 NCelD=      1
         NCelK=      1 NCelE2=     1 NClLst=     1 CellRange=     0.0.
 One-electron integrals computed using PRISM.
 One-electron integral symmetry used in STVInt
   4 Symmetry operations used in ECPInt.
 ECPInt:  NShTT=    3828 NPrTT=    3828 LenC2=    3613 LenP2D=    3612.
 LDataN:  DoStor=T MaxTD1= 8 Len=  415
 NBasis=   261 RedAO= T EigKep=  1.69D-06  NBF=   114    27    60    60
 NBsUse=   252 1.00D-06 EigRej=  4.85D-07 NBFU=   110    26    58    58
 Leave Link  302 at Mon Mar 12 14:08:26 2018, MaxMem= 10737418240 cpu:              15.2 elap:               1.0
 (Enter /home1/apps/gaussian/16rA.03/g16/l303.exe)
 DipDrv:  MaxL=1.
 Leave Link  303 at Mon Mar 12 14:08:26 2018, MaxMem= 10737418240 cpu:               1.2 elap:               0.2
 (Enter /home1/apps/gaussian/16rA.03/g16/l401.exe)
 Initial guess from the checkpoint file:  "CrO.chk"
 B after Tr=     0.000000    0.000000    0.000000
         Rot=    1.000000    0.000000    0.000000    0.000000 Ang=   0.00 deg.
 Guess basis will be translated and rotated to current coordinates.
 JPrj=2 DoOrth=T DoCkMO=T.
 Initial guess orbital symmetries:
       Occupied  (SG) (SG) (PI) (PI) (SG) (SG) (?A) (?A) (?B) (?B)
                 (?B) (?A)
       Virtual   (?B) (?A) (?A) (SG) (?B) (?A) (?A) (?B) (?B) (?A)
                 (?B) (?A) (SG) (?A) (?B) (?A) (?A) (?B) (?B) (?B)
                 (?A) (?A) (?B) (?A) (?A) (?B) (SG) (DLTA) (DLTA)
                 (PHI) (PHI) (?A) (SG) (?A) (?A) (?A) (?C) (?C)
                 (?C) (?C) (?A) (?A) (?C) (?C) (?A) (?A) (SG) (SG)
                 (?A) (?A) (SG) (DLTA) (DLTA) (?D) (?D) (?D) (?D)
                 (SG) (PHI) (PHI) (SG) (?E) (?E) (?A) (?A) (?E)
                 (?F) (?F) (?A) (?A) (DLTA) (DLTA) (PHI) (PHI)
                 (?G) (?A) (?A) (?G) (?G) (?G) (?A) (?A) (DLTA)
                 (DLTA) (SG) (SG) (?A) (?A) (?A) (?A) (SG) (PHI)
                 (PHI) (DLTA) (DLTA) (SG) (?A) (?A) (SG) (SG) (PI)
                 (PI) (?A) (?A) (?H) (?A) (?H) (?H) (?A) (?F) (?F)
                 (PHI) (PHI) (?I) (?I) (?I) (DLTA) (DLTA) (?A)
                 (?A) (?A) (?A) (?I) (?I) (?I) (?A) (?A) (SG) (SG)
                 (?D) (?D) (DLTA) (DLTA) (?D) (?D) (SG) (?A) (?A)
                 (SG) (PI) (PI) (SG) (SG) (?J) (?J) (?A) (?A) (?J)
                 (SG) (?D) (?D) (?K) (?K) (?K) (?K) (?D) (?D) (SG)
                 (PI) (PI) (SG) (DLTA) (DLTA) (PI) (PI) (SG) (SG)
                 (SG) (DLTA) (DLTA) (PI) (PI) (SG) (?A) (?A) (SG)
                 (PI) (PI) (SG) (SG) (SG) (DLTA) (DLTA) (PI) (PI)
                 (SG) (PI) (PI) (PI) (PI) (SG) (SG) (SG) (SG) (PI)
                 (PI) (SG) (SG) (SG) (PI) (PI) (SG) (DLTA) (DLTA)
                 (PI) (PI) (SG) (PI) (PI) (SG) (SG) (SG) (PI) (PI)
                 (SG) (SG) (SG) (PI) (PI) (SG) (SG) (SG) (PI) (PI)
                 (SG) (SG) (SG) (PI) (PI) (SG) (SG) (SG) (PI) (PI)
                 (SG) (SG) (SG) (SG) (SG) (SG)
 Leave Link  401 at Mon Mar 12 14:08:27 2018, MaxMem= 10737418240 cpu:               6.5 elap:               0.5
 (Enter /home1/apps/gaussian/16rA.03/g16/l502.exe)
 Keep R1 and R2 ints in memory in symmetry-blocked form, NReq=734602573.
 FoFCou: FMM=F IPFlag=           8 FMFlag=           0 FMFlg1=           0
         NFxFlg=           0 DoJE=F BraDBF=F KetDBF=F FulRan=T
         wScrn=  0.000000 ICntrl=       600 IOpCl=  0 I1Cent=           0 NGrid=           0
         NMat0=    1 NMatS0=  34191 NMatT0=    0 NMatD0=    1 NMtDS0=    0 NMtDT0=    0
 Petite list used in FoFCou.
 Restricted open shell SCF:
 Using DIIS extrapolation, IDIIS=  1040.
 NGot= 10737418240 LenX= 10437151885 LenY= 10437054100
 Requested convergence on RMS density matrix=1.00D-08 within 300 cycles.
 Requested convergence on MAX density matrix=1.00D-06.
 Requested convergence on             energy=1.00D-06.
 No special actions if energy rises.

 Cycle   1  Pass 1  IDiag  1:
 E= -100.897798777190    
 DIIS: error= 5.08D-01 at cycle   1 NSaved=   1.
 NSaved= 1 IEnMin= 1 EnMin= -100.897798777190     IErMin= 1 ErrMin= 5.08D-01
 ErrMax= 5.08D-01  0.00D+00 EMaxC= 1.00D-01 BMatC= 2.21D+01 BMatP= 2.21D+01
 IDIUse=3 WtCom= 0.00D+00 WtEn= 1.00D+00
 Coeff-Com:  0.100D+01
 Coeff-En:   0.100D+01
 Coeff:      0.100D+01
 Gap=     0.052 Goal=   None    Shift=    0.000
 GapD=    0.052 DampG=0.500 DampE=0.125 DampFc=0.1250 IDamp=-1.
 Damping current iteration by 1.25D-01
 RMSDP=1.51D-02 MaxDP=1.87D+00              OVMax= 1.48D-01

 Cycle   2  Pass 1  IDiag  1:
 E= -100.992726084245     Delta-E=       -0.094927307056 Rises=F Damp=T
 DIIS: error= 4.41D-01 at cycle   2 NSaved=   2.
 NSaved= 2 IEnMin= 2 EnMin= -100.992726084245     IErMin= 2 ErrMin= 4.41D-01
 ErrMax= 4.41D-01  0.00D+00 EMaxC= 1.00D-01 BMatC= 1.68D+01 BMatP= 2.21D+01
 IDIUse=3 WtCom= 0.00D+00 WtEn= 1.00D+00
 Coeff-Com: -0.675D+01 0.775D+01
 Coeff-En:   0.000D+00 0.100D+01
 Coeff:      0.000D+00 0.100D+01
 Gap=     0.049 Goal=   None    Shift=    0.000
 RMSDP=1.33D-02 MaxDP=1.63D+00 DE=-9.49D-02 OVMax= 3.42D-01

 Cycle   3  Pass 1  IDiag  1:
 E= -101.671239766701     Delta-E=       -0.678513682456 Rises=F Damp=F
 DIIS: error= 1.98D-02 at cycle   3 NSaved=   3.
 NSaved= 3 IEnMin= 3 EnMin= -101.671239766701     IErMin= 3 ErrMin= 1.98D-02
 ErrMax= 1.98D-02  0.00D+00 EMaxC= 1.00D-01 BMatC= 4.00D-02 BMatP= 1.68D+01
 IDIUse=3 WtCom= 8.02D-01 WtEn= 1.98D-01
 Coeff-Com: -0.613D+00 0.687D+00 0.926D+00
 Coeff-En:   0.000D+00 0.000D+00 0.100D+01
 Coeff:     -0.492D+00 0.551D+00 0.941D+00
 Gap=    -0.024 Goal=   None    Shift=    0.000
 RMSDP=3.34D-03 MaxDP=3.82D-01 DE=-6.79D-01 OVMax= 7.56D-01

 Cycle   4  Pass 1  IDiag  1:
 E= -101.596832461985     Delta-E=        0.074407304716 Rises=F Damp=F
 DIIS: error= 4.24D-02 at cycle   4 NSaved=   4.
 NSaved= 4 IEnMin= 3 EnMin= -101.671239766701     IErMin= 3 ErrMin= 1.98D-02
 ErrMax= 4.24D-02  0.00D+00 EMaxC= 1.00D-01 BMatC= 1.43D-01 BMatP= 4.00D-02
 IDIUse=2 WtCom= 0.00D+00 WtEn= 1.00D+00
 Coeff-En:   0.000D+00 0.000D+00 0.627D+00 0.373D+00
 Coeff:      0.000D+00 0.000D+00 0.627D+00 0.373D+00
 Gap=     0.081 Goal=   None    Shift=    0.000
 RMSDP=3.76D-03 MaxDP=4.10D-01 DE= 7.44D-02 OVMax= 4.19D-01

 Cycle   5  Pass 1  IDiag  1:
 E= -101.721523962849     Delta-E=       -0.124691500864 Rises=F Damp=F
 DIIS: error= 1.52D-02 at cycle   5 NSaved=   5.
 NSaved= 5 IEnMin= 5 EnMin= -101.721523962849     IErMin= 5 ErrMin= 1.52D-02
 ErrMax= 1.52D-02  0.00D+00 EMaxC= 1.00D-01 BMatC= 1.97D-02 BMatP= 4.00D-02
 IDIUse=3 WtCom= 8.48D-01 WtEn= 1.52D-01
 EnCoef did     6 forward-backward iterations
 Coeff-Com: -0.144D+00 0.157D+00 0.309D+00 0.227D+00 0.450D+00
 Coeff-En:   0.000D+00 0.000D+00 0.969D-01 0.225D+00 0.679D+00
 Coeff:     -0.122D+00 0.133D+00 0.276D+00 0.227D+00 0.485D+00
 Gap=     0.064 Goal=   None    Shift=    0.000
 RMSDP=2.43D-03 MaxDP=1.87D-01 DE=-1.25D-01 OVMax= 1.79D-01

 Cycle   6  Pass 1  IDiag  1:
 E= -101.739625801190     Delta-E=       -0.018101838341 Rises=F Damp=F
 DIIS: error= 3.88D-03 at cycle   6 NSaved=   6.
 NSaved= 6 IEnMin= 6 EnMin= -101.739625801190     IErMin= 6 ErrMin= 3.88D-03
 ErrMax= 3.88D-03  0.00D+00 EMaxC= 1.00D-01 BMatC= 1.97D-03 BMatP= 1.97D-02
 IDIUse=3 WtCom= 9.61D-01 WtEn= 3.88D-02
 EnCoef did     4 forward-backward iterations
 Coeff-Com:  0.155D-01-0.169D-01-0.827D-01 0.209D-01 0.172D+00 0.891D+00
 Coeff-En:   0.000D+00 0.000D+00 0.000D+00 0.102D+00 0.274D+00 0.624D+00
 Coeff:      0.149D-01-0.162D-01-0.795D-01 0.241D-01 0.176D+00 0.880D+00
 Gap=     0.035 Goal=   None    Shift=    0.000
 RMSDP=2.50D-03 MaxDP=1.76D-01 DE=-1.81D-02 OVMax= 1.69D-01

 Cycle   7  Pass 1  IDiag  1:
 E= -101.736125603956     Delta-E=        0.003500197234 Rises=F Damp=F
 DIIS: error= 8.23D-03 at cycle   7 NSaved=   7.
 NSaved= 7 IEnMin= 6 EnMin= -101.739625801190     IErMin= 6 ErrMin= 3.88D-03
 ErrMax= 8.23D-03  0.00D+00 EMaxC= 1.00D-01 BMatC= 3.73D-03 BMatP= 1.97D-03
 IDIUse=3 WtCom= 9.61D-01 WtEn= 3.88D-02
 EnCoef did     4 forward-backward iterations
 Coeff-Com: -0.202D-01 0.237D-01-0.565D-01-0.245D-02 0.325D-01 0.649D+00
 Coeff-Com:  0.374D+00
 Coeff-En:   0.000D+00 0.000D+00 0.000D+00 0.706D-01 0.000D+00 0.512D+00
 Coeff-En:   0.417D+00
 Coeff:     -0.194D-01 0.228D-01-0.543D-01 0.385D-03 0.312D-01 0.644D+00
 Coeff:      0.375D+00
 Gap=     0.035 Goal=   None    Shift=    0.000
 RMSDP=1.99D-03 MaxDP=1.40D-01 DE= 3.50D-03 OVMax= 1.38D-01

 Cycle   8  Pass 1  IDiag  1:
 E= -101.743797953677     Delta-E=       -0.007672349721 Rises=F Damp=F
 DIIS: error= 2.55D-03 at cycle   8 NSaved=   8.
 NSaved= 8 IEnMin= 8 EnMin= -101.743797953677     IErMin= 8 ErrMin= 2.55D-03
 ErrMax= 2.55D-03  0.00D+00 EMaxC= 1.00D-01 BMatC= 4.85D-04 BMatP= 1.97D-03
 IDIUse=3 WtCom= 9.75D-01 WtEn= 2.55D-02
 EnCoef did     5 forward-backward iterations
 Coeff-Com: -0.359D-01 0.414D-01-0.249D-01 0.188D-03-0.317D-01 0.103D+00
 Coeff-Com:  0.247D+00 0.702D+00
 Coeff-En:   0.000D+00 0.000D+00 0.000D+00 0.607D-01 0.000D+00 0.000D+00
 Coeff-En:   0.306D+00 0.634D+00
 Coeff:     -0.349D-01 0.403D-01-0.243D-01 0.173D-02-0.309D-01 0.999D-01
 Coeff:      0.248D+00 0.700D+00
 Gap=     0.033 Goal=   None    Shift=    0.000
 RMSDP=5.22D-04 MaxDP=4.38D-02 DE=-7.67D-03 OVMax= 4.74D-02

 Cycle   9  Pass 1  IDiag  1:
 E= -101.744546499954     Delta-E=       -0.000748546277 Rises=F Damp=F
 DIIS: error= 1.00D-03 at cycle   9 NSaved=   9.
 NSaved= 9 IEnMin= 9 EnMin= -101.744546499954     IErMin= 9 ErrMin= 1.00D-03
 ErrMax= 1.00D-03  0.00D+00 EMaxC= 1.00D-01 BMatC= 1.49D-04 BMatP= 4.85D-04
 IDIUse=3 WtCom= 9.90D-01 WtEn= 1.00D-02
 Rare condition: small coef for last iteration: -0.222D-15
 Coeff-Com: -0.315D-01 0.361D-01-0.417D-02-0.383D-02-0.271D-01-0.623D-01
 Coeff-Com:  0.394D-01 0.434D+00 0.620D+00
 Coeff-En:   0.000D+00 0.000D+00 0.000D+00 0.541D-01 0.000D+00 0.000D+00
 Coeff-En:   0.165D+00 0.269D+00 0.512D+00
 Coeff:     -0.315D-01 0.361D-01-0.417D-02-0.383D-02-0.271D-01-0.623D-01
 Coeff:      0.394D-01 0.434D+00 0.620D+00
 Gap=     0.033 Goal=   None    Shift=    0.000
 RMSDP=4.34D-04 MaxDP=3.85D-02 DE=-7.49D-04 OVMax= 2.28D-02

 Cycle  10  Pass 1  IDiag  1:
 E= -101.744787173687     Delta-E=       -0.000240673733 Rises=F Damp=F
 DIIS: error= 8.78D-04 at cycle  10 NSaved=  10.
 NSaved=10 IEnMin=10 EnMin= -101.744787173687     IErMin=10 ErrMin= 8.78D-04
 ErrMax= 8.78D-04  0.00D+00 EMaxC= 1.00D-01 BMatC= 5.16D-05 BMatP= 1.49D-04
 IDIUse=3 WtCom= 9.91D-01 WtEn= 8.78D-03
 EnCoef did   100 forward-backward iterations
 Rare condition: small coef for last iteration:  0.452D-17
 Coeff-Com: -0.238D-01 0.272D-01-0.187D-02-0.419D-02-0.110D-01-0.580D-01
 Coeff-Com: -0.319D-01 0.135D+00 0.409D+00 0.560D+00
 Coeff-En:   0.000D+00 0.000D+00 0.000D+00 0.523D-01 0.000D+00 0.000D+00
 Coeff-En:   0.138D+00 0.763D-01 0.226D+00 0.507D+00
 Coeff:     -0.238D-01 0.272D-01-0.187D-02-0.419D-02-0.110D-01-0.580D-01
 Coeff:     -0.319D-01 0.135D+00 0.409D+00 0.560D+00
 Gap=     0.034 Goal=   None    Shift=    0.000
 RMSDP=4.48D-04 MaxDP=4.48D-02 DE=-2.41D-04 OVMax= 2.18D-02

 Cycle  11  Pass 1  IDiag  1:
 E= -101.744810845821     Delta-E=       -0.000023672134 Rises=F Damp=F
 DIIS: error= 8.37D-04 at cycle  11 NSaved=  11.
 NSaved=11 IEnMin=11 EnMin= -101.744810845821     IErMin=11 ErrMin= 8.37D-04
 ErrMax= 8.37D-04  0.00D+00 EMaxC= 1.00D-01 BMatC= 4.51D-05 BMatP= 5.16D-05
 IDIUse=3 WtCom= 9.92D-01 WtEn= 8.37D-03
 EnCoef did   100 forward-backward iterations
 Coeff-Com: -0.186D-01 0.212D-01-0.291D-02-0.167D-02 0.552D-02-0.262D-01
 Coeff-Com: -0.478D-01-0.941D-01 0.540D-01 0.568D+00 0.543D+00
 Coeff-En:   0.000D+00 0.000D+00 0.000D+00 0.605D-01 0.000D+00 0.000D+00
 Coeff-En:   0.301D+00 0.617D+00 0.464D-03 0.996D-02 0.111D-01
 Coeff:     -0.184D-01 0.210D-01-0.288D-02-0.115D-02 0.547D-02-0.260D-01
 Coeff:     -0.449D-01-0.881D-01 0.536D-01 0.563D+00 0.538D+00
 Gap=     0.034 Goal=   None    Shift=    0.000
 RMSDP=3.60D-04 MaxDP=3.49D-02 DE=-2.37D-05 OVMax= 2.21D-02

 Cycle  12  Pass 1  IDiag  1:
 E= -101.744867233580     Delta-E=       -0.000056387759 Rises=F Damp=F
 DIIS: error= 7.43D-04 at cycle  12 NSaved=  12.
 NSaved=12 IEnMin=12 EnMin= -101.744867233580     IErMin=12 ErrMin= 7.43D-04
 ErrMax= 7.43D-04  0.00D+00 EMaxC= 1.00D-01 BMatC= 2.84D-05 BMatP= 4.51D-05
 IDIUse=3 WtCom= 9.93D-01 WtEn= 7.43D-03
 EnCoef did   100 forward-backward iterations
 Rare condition: small coef for last iteration:  0.169D-15
 Coeff-Com: -0.152D-01 0.174D-01-0.366D-02-0.804D-03 0.933D-02-0.379D-02
 Coeff-Com: -0.299D-01-0.145D+00-0.120D+00 0.319D+00 0.543D+00 0.429D+00
 Coeff-En:   0.000D+00 0.000D+00 0.000D+00 0.499D-01 0.000D+00 0.000D+00
 Coeff-En:   0.139D+00 0.000D+00 0.000D+00 0.493D-01 0.320D+00 0.441D+00
 Coeff:     -0.152D-01 0.174D-01-0.366D-02-0.804D-03 0.933D-02-0.379D-02
 Coeff:     -0.299D-01-0.145D+00-0.120D+00 0.319D+00 0.543D+00 0.429D+00
 Gap=     0.034 Goal=   None    Shift=    0.000
 RMSDP=1.26D-04 MaxDP=1.04D-02 DE=-5.64D-05 OVMax= 1.15D-02

 Cycle  13  Pass 1  IDiag  1:
 E= -101.744931947319     Delta-E=       -0.000064713739 Rises=F Damp=F
 DIIS: error= 2.00D-04 at cycle  13 NSaved=  13.
 NSaved=13 IEnMin=13 EnMin= -101.744931947319     IErMin=13 ErrMin= 2.00D-04
 ErrMax= 2.00D-04  0.00D+00 EMaxC= 1.00D-01 BMatC= 3.22D-06 BMatP= 2.84D-05
 IDIUse=3 WtCom= 9.98D-01 WtEn= 2.00D-03
 EnCoef did   100 forward-backward iterations
 Rare condition: small coef for last iteration:  0.282D-17
 Coeff-Com: -0.115D-01 0.131D-01-0.269D-02-0.107D-02 0.183D-02 0.309D-02
 Coeff-Com:  0.382D-02-0.266D-01-0.583D-01-0.354D-01 0.671D-01 0.200D+00
 Coeff-Com:  0.847D+00
 Coeff-En:   0.000D+00 0.000D+00 0.000D+00 0.479D-01 0.000D+00 0.000D+00
 Coeff-En:   0.134D+00 0.000D+00 0.000D+00 0.000D+00 0.379D-01 0.161D+00
 Coeff-En:   0.620D+00
 Coeff:     -0.115D-01 0.131D-01-0.269D-02-0.107D-02 0.183D-02 0.309D-02
 Coeff:      0.382D-02-0.266D-01-0.583D-01-0.354D-01 0.671D-01 0.200D+00
 Coeff:      0.847D+00
 Gap=     0.035 Goal=   None    Shift=    0.000
 RMSDP=3.75D-05 MaxDP=2.68D-03 DE=-6.47D-05 OVMax= 2.78D-03

 Cycle  14  Pass 1  IDiag  1:
 E= -101.744938138409     Delta-E=       -0.000006191090 Rises=F Damp=F
 DIIS: error= 1.74D-04 at cycle  14 NSaved=  14.
 NSaved=14 IEnMin=14 EnMin= -101.744938138409     IErMin=14 ErrMin= 1.74D-04
 ErrMax= 1.74D-04  0.00D+00 EMaxC= 1.00D-01 BMatC= 1.60D-06 BMatP= 3.22D-06
 IDIUse=3 WtCom= 9.98D-01 WtEn= 1.74D-03
 EnCoef did   100 forward-backward iterations
 Rare condition: small coef for last iteration:  0.000D+00
 Coeff-Com: -0.946D-02 0.108D-01-0.180D-02-0.487D-03-0.633D-03 0.677D-03
 Coeff-Com:  0.807D-02 0.187D-01-0.119D-01-0.921D-01-0.750D-01 0.377D-01
 Coeff-Com:  0.505D+00 0.611D+00
 Coeff-En:   0.000D+00 0.000D+00 0.000D+00 0.483D-01 0.000D+00 0.000D+00
 Coeff-En:   0.129D+00 0.000D+00 0.000D+00 0.000D+00 0.000D+00 0.518D-01
 Coeff-En:   0.000D+00 0.771D+00
 Coeff:     -0.946D-02 0.108D-01-0.180D-02-0.487D-03-0.633D-03 0.677D-03
 Coeff:      0.807D-02 0.187D-01-0.119D-01-0.921D-01-0.750D-01 0.377D-01
 Coeff:      0.505D+00 0.611D+00
 Gap=     0.035 Goal=   None    Shift=    0.000
 RMSDP=2.66D-05 MaxDP=1.89D-03 DE=-6.19D-06 OVMax= 3.44D-03

 Cycle  15  Pass 1  IDiag  1:
 E= -101.744941268724     Delta-E=       -0.000003130315 Rises=F Damp=F
 DIIS: error= 1.31D-04 at cycle  15 NSaved=  15.
 NSaved=15 IEnMin=15 EnMin= -101.744941268724     IErMin=15 ErrMin= 1.31D-04
 ErrMax= 1.31D-04  0.00D+00 EMaxC= 1.00D-01 BMatC= 1.12D-06 BMatP= 1.60D-06
 IDIUse=3 WtCom= 9.99D-01 WtEn= 1.31D-03
 EnCoef did   100 forward-backward iterations
 Rare condition: small coef for last iteration:  0.000D+00
 Coeff-Com: -0.717D-02 0.821D-02-0.164D-02-0.111D-02-0.199D-02-0.553D-03
 Coeff-Com:  0.418D-02 0.283D-01 0.790D-02-0.570D-01-0.734D-01-0.302D-01
 Coeff-Com:  0.104D+00 0.410D+00 0.611D+00
 Coeff-En:   0.000D+00 0.000D+00 0.000D+00 0.463D-01 0.000D+00 0.000D+00
 Coeff-En:   0.125D+00 0.000D+00 0.000D+00 0.000D+00 0.000D+00 0.182D-01
 Coeff-En:   0.000D+00 0.193D+00 0.617D+00
 Coeff:     -0.717D-02 0.821D-02-0.164D-02-0.111D-02-0.199D-02-0.553D-03
 Coeff:      0.418D-02 0.283D-01 0.790D-02-0.570D-01-0.734D-01-0.302D-01
 Coeff:      0.104D+00 0.410D+00 0.611D+00
 Gap=     0.035 Goal=   None    Shift=    0.000
 RMSDP=2.96D-05 MaxDP=2.53D-03 DE=-3.13D-06 OVMax= 4.14D-03

 Cycle  16  Pass 1  IDiag  1:
 E= -101.744941556048     Delta-E=       -0.000000287324 Rises=F Damp=F
 DIIS: error= 1.40D-04 at cycle  16 NSaved=  16.
 NSaved=16 IEnMin=16 EnMin= -101.744941556048     IErMin=15 ErrMin= 1.31D-04
 ErrMax= 1.40D-04  0.00D+00 EMaxC= 1.00D-01 BMatC= 1.17D-06 BMatP= 1.12D-06
 IDIUse=3 WtCom= 9.99D-01 WtEn= 1.31D-03
 EnCoef did   100 forward-backward iterations
 Coeff-Com: -0.678D-02 0.776D-02-0.128D-02-0.772D-03-0.150D-02-0.175D-02
 Coeff-Com:  0.213D-02 0.251D-01 0.600D-02-0.362D-01-0.501D-01-0.317D-01
 Coeff-Com: -0.186D-01 0.221D+00 0.623D+00 0.264D+00
 Coeff-En:   0.000D+00 0.000D+00 0.000D+00 0.605D-01 0.000D+00 0.000D+00
 Coeff-En:   0.302D+00 0.620D+00 0.000D+00 0.000D+00 0.000D+00 0.307D-05
 Coeff-En:   0.000D+00 0.000D+00 0.816D-02 0.879D-02
 Coeff:     -0.677D-02 0.775D-02-0.128D-02-0.692D-03-0.150D-02-0.175D-02
 Coeff:      0.252D-02 0.258D-01 0.600D-02-0.361D-01-0.501D-01-0.317D-01
 Coeff:     -0.186D-01 0.221D+00 0.622D+00 0.264D+00
 Gap=     0.035 Goal=   None    Shift=    0.000
 RMSDP=1.01D-05 MaxDP=1.03D-03 DE=-2.87D-07 OVMax= 2.02D-03

 Cycle  17  Pass 1  IDiag  1:
 E= -101.744944201907     Delta-E=       -0.000002645859 Rises=F Damp=F
 DIIS: error= 1.10D-04 at cycle  17 NSaved=  17.
 NSaved=17 IEnMin=17 EnMin= -101.744944201907     IErMin=17 ErrMin= 1.10D-04
 ErrMax= 1.10D-04  0.00D+00 EMaxC= 1.00D-01 BMatC= 5.70D-07 BMatP= 1.12D-06
 IDIUse=3 WtCom= 9.99D-01 WtEn= 1.10D-03
 EnCoef did   100 forward-backward iterations
 Rare condition: small coef for last iteration: -0.777D-15
 Coeff-Com: -0.520D-02 0.595D-02-0.939D-03-0.859D-03-0.897D-03-0.185D-02
 Coeff-Com:  0.636D-03 0.136D-01-0.450D-02-0.426D-02-0.108D-02-0.999D-03
 Coeff-Com: -0.644D-01-0.112D+00 0.265D+00-0.223D+00 0.114D+01
 Coeff-En:   0.000D+00 0.000D+00 0.000D+00 0.470D-01 0.000D+00 0.000D+00
 Coeff-En:   0.126D+00 0.000D+00 0.000D+00 0.000D+00 0.000D+00 0.000D+00
 Coeff-En:   0.000D+00 0.000D+00 0.000D+00 0.000D+00 0.827D+00
 Coeff:     -0.520D-02 0.595D-02-0.939D-03-0.859D-03-0.897D-03-0.185D-02
 Coeff:      0.636D-03 0.136D-01-0.450D-02-0.426D-02-0.108D-02-0.999D-03
 Coeff:     -0.644D-01-0.112D+00 0.265D+00-0.223D+00 0.114D+01
 Gap=     0.035 Goal=   None    Shift=    0.000
 RMSDP=8.57D-06 MaxDP=7.47D-04 DE=-2.65D-06 OVMax= 1.07D-03

 Cycle  18  Pass 1  IDiag  1:
 E= -101.744944998598     Delta-E=       -0.000000796691 Rises=F Damp=F
 DIIS: error= 9.74D-05 at cycle  18 NSaved=  18.
 NSaved=18 IEnMin=18 EnMin= -101.744944998598     IErMin=18 ErrMin= 9.74D-05
 ErrMax= 9.74D-05  0.00D+00 EMaxC= 1.00D-01 BMatC= 4.98D-07 BMatP= 5.70D-07
 IDIUse=1 WtCom= 1.00D+00 WtEn= 0.00D+00
 Coeff-Com: -0.250D-02 0.286D-02-0.605D-03-0.772D-03 0.714D-04-0.912D-03
 Coeff-Com:  0.102D-02 0.143D-02-0.135D-01 0.978D-02 0.313D-01 0.371D-01
 Coeff-Com:  0.188D-01-0.293D+00-0.236D+00-0.117D+01 0.144D+01 0.117D+01
 Coeff:     -0.250D-02 0.286D-02-0.605D-03-0.772D-03 0.714D-04-0.912D-03
 Coeff:      0.102D-02 0.143D-02-0.135D-01 0.978D-02 0.313D-01 0.371D-01
 Coeff:      0.188D-01-0.293D+00-0.236D+00-0.117D+01 0.144D+01 0.117D+01
 Gap=     0.035 Goal=   None    Shift=    0.000
 RMSDP=7.38D-06 MaxDP=4.63D-04 DE=-7.97D-07 OVMax= 1.62D-03

 Cycle  19  Pass 1  IDiag  1:
 E= -101.744946570479     Delta-E=       -0.000001571881 Rises=F Damp=F
 DIIS: error= 5.46D-05 at cycle  19 NSaved=  19.
 NSaved=19 IEnMin=19 EnMin= -101.744946570479     IErMin=19 ErrMin= 5.46D-05
 ErrMax= 5.46D-05  0.00D+00 EMaxC= 1.00D-01 BMatC= 2.33D-07 BMatP= 4.98D-07
 IDIUse=1 WtCom= 1.00D+00 WtEn= 0.00D+00
 Coeff-Com: -0.428D-03 0.492D-03-0.278D-03-0.196D-03 0.351D-03 0.234D-03
 Coeff-Com:  0.178D-02-0.690D-03-0.675D-02-0.425D-02 0.883D-02 0.288D-01
 Coeff-Com:  0.982D-01-0.110D+00-0.225D+00-0.121D+01 0.574D+00 0.901D+00
 Coeff-Com:  0.942D+00
 Coeff:     -0.428D-03 0.492D-03-0.278D-03-0.196D-03 0.351D-03 0.234D-03
 Coeff:      0.178D-02-0.690D-03-0.675D-02-0.425D-02 0.883D-02 0.288D-01
 Coeff:      0.982D-01-0.110D+00-0.225D+00-0.121D+01 0.574D+00 0.901D+00
 Coeff:      0.942D+00
 Gap=     0.036 Goal=   None    Shift=    0.000
 RMSDP=1.70D-05 MaxDP=1.64D-03 DE=-1.57D-06 OVMax= 1.88D-03

 Cycle  20  Pass 1  IDiag  1:
 E= -101.744947614101     Delta-E=       -0.000001043621 Rises=F Damp=F
 DIIS: error= 1.68D-05 at cycle  20 NSaved=  20.
 NSaved=20 IEnMin=20 EnMin= -101.744947614101     IErMin=20 ErrMin= 1.68D-05
 ErrMax= 1.68D-05  0.00D+00 EMaxC= 1.00D-01 BMatC= 2.20D-08 BMatP= 2.33D-07
 IDIUse=1 WtCom= 1.00D+00 WtEn= 0.00D+00
 Coeff-Com:  0.131D-04-0.125D-04-0.126D-03 0.216D-04 0.125D-03 0.442D-03
 Coeff-Com:  0.112D-02 0.441D-03-0.132D-02-0.772D-02-0.506D-02 0.100D-01
 Coeff-Com:  0.679D-01 0.114D-01-0.616D-01-0.569D+00 0.537D-01 0.291D+00
 Coeff-Com:  0.609D+00 0.599D+00
 Coeff:      0.131D-04-0.125D-04-0.126D-03 0.216D-04 0.125D-03 0.442D-03
 Coeff:      0.112D-02 0.441D-03-0.132D-02-0.772D-02-0.506D-02 0.100D-01
 Coeff:      0.679D-01 0.114D-01-0.616D-01-0.569D+00 0.537D-01 0.291D+00
 Coeff:      0.609D+00 0.599D+00
 Gap=     0.036 Goal=   None    Shift=    0.000
 RMSDP=9.87D-06 MaxDP=1.05D-03 DE=-1.04D-06 OVMax= 6.30D-04

 Cycle  21  Pass 1  IDiag  1:
 E= -101.744947694101     Delta-E=       -0.000000080000 Rises=F Damp=F
 DIIS: error= 4.97D-06 at cycle  21 NSaved=  20.
 NSaved=20 IEnMin=20 EnMin= -101.744947694101     IErMin=20 ErrMin= 4.97D-06
 ErrMax= 4.97D-06  0.00D+00 EMaxC= 1.00D-01 BMatC= 1.81D-09 BMatP= 2.20D-08
 IDIUse=1 WtCom= 1.00D+00 WtEn= 0.00D+00
 Coeff-Com:  0.787D-06-0.150D-04-0.121D-04-0.860D-04 0.279D-03 0.152D-03
 Coeff-Com:  0.403D-03 0.189D-03-0.302D-02-0.356D-02-0.894D-03 0.133D-01
 Coeff-Com:  0.317D-01 0.181D-01 0.175D-01-0.104D+00-0.615D-01 0.475D-01
 Coeff-Com:  0.239D+00 0.805D+00
 Coeff:      0.787D-06-0.150D-04-0.121D-04-0.860D-04 0.279D-03 0.152D-03
 Coeff:      0.403D-03 0.189D-03-0.302D-02-0.356D-02-0.894D-03 0.133D-01
 Coeff:      0.317D-01 0.181D-01 0.175D-01-0.104D+00-0.615D-01 0.475D-01
 Coeff:      0.239D+00 0.805D+00
 Gap=     0.036 Goal=   None    Shift=    0.000
 RMSDP=1.16D-06 MaxDP=8.10D-05 DE=-8.00D-08 OVMax= 1.29D-04

 Cycle  22  Pass 1  IDiag  1:
 E= -101.744947696983     Delta-E=       -0.000000002883 Rises=F Damp=F
 DIIS: error= 1.87D-06 at cycle  22 NSaved=  20.
 NSaved=20 IEnMin=20 EnMin= -101.744947696983     IErMin=20 ErrMin= 1.87D-06
 ErrMax= 1.87D-06  0.00D+00 EMaxC= 1.00D-01 BMatC= 5.09D-10 BMatP= 1.81D-09
 IDIUse=1 WtCom= 1.00D+00 WtEn= 0.00D+00
 Coeff-Com:  0.103D-04-0.190D-04-0.667D-04 0.111D-03-0.419D-04 0.330D-03
 Coeff-Com:  0.197D-03-0.129D-02-0.181D-02-0.180D-02 0.715D-03 0.198D-01
 Coeff-Com:  0.208D-01 0.785D-01-0.708D-01-0.745D-01-0.494D-01 0.718D-01
 Coeff-Com:  0.487D+00 0.520D+00
 Coeff:      0.103D-04-0.190D-04-0.667D-04 0.111D-03-0.419D-04 0.330D-03
 Coeff:      0.197D-03-0.129D-02-0.181D-02-0.180D-02 0.715D-03 0.198D-01
 Coeff:      0.208D-01 0.785D-01-0.708D-01-0.745D-01-0.494D-01 0.718D-01
 Coeff:      0.487D+00 0.520D+00
 Gap=     0.036 Goal=   None    Shift=    0.000
 RMSDP=1.02D-06 MaxDP=1.05D-04 DE=-2.88D-09 OVMax= 6.38D-05

 Cycle  23  Pass 1  IDiag  1:
 E= -101.744947697768     Delta-E=       -0.000000000785 Rises=F Damp=F
 DIIS: error= 1.43D-06 at cycle  23 NSaved=  20.
 NSaved=20 IEnMin=20 EnMin= -101.744947697768     IErMin=20 ErrMin= 1.43D-06
 ErrMax= 1.43D-06  0.00D+00 EMaxC= 1.00D-01 BMatC= 1.52D-10 BMatP= 5.09D-10
 IDIUse=1 WtCom= 1.00D+00 WtEn= 0.00D+00
 Coeff-Com:  0.925D-05 0.735D-05-0.305D-04-0.161D-04 0.227D-03 0.319D-04
 Coeff-Com: -0.395D-03-0.505D-03-0.481D-03-0.993D-03 0.322D-02 0.725D-02
 Coeff-Com:  0.121D-01-0.462D-02-0.137D-01-0.194D-01-0.181D-01-0.332D-01
 Coeff-Com:  0.265D+00 0.804D+00
 Coeff:      0.925D-05 0.735D-05-0.305D-04-0.161D-04 0.227D-03 0.319D-04
 Coeff:     -0.395D-03-0.505D-03-0.481D-03-0.993D-03 0.322D-02 0.725D-02
 Coeff:      0.121D-01-0.462D-02-0.137D-01-0.194D-01-0.181D-01-0.332D-01
 Coeff:      0.265D+00 0.804D+00
 Gap=     0.036 Goal=   None    Shift=    0.000
 RMSDP=3.86D-07 MaxDP=3.09D-05 DE=-7.85D-10 OVMax= 3.09D-05

 Cycle  24  Pass 1  IDiag  1:
 E= -101.744947698120     Delta-E=       -0.000000000351 Rises=F Damp=F
 DIIS: error= 5.14D-07 at cycle  24 NSaved=  20.
 NSaved=20 IEnMin=20 EnMin= -101.744947698120     IErMin=20 ErrMin= 5.14D-07
 ErrMax= 5.14D-07  0.00D+00 EMaxC= 1.00D-01 BMatC= 1.14D-11 BMatP= 1.52D-10
 IDIUse=1 WtCom= 1.00D+00 WtEn= 0.00D+00
 Coeff-Com:  0.473D-05-0.343D-04-0.139D-04 0.977D-04 0.530D-05 0.203D-04
 Coeff-Com: -0.138D-04-0.137D-03-0.110D-02-0.873D-03 0.181D-02-0.994D-03
 Coeff-Com:  0.697D-02-0.222D-03-0.645D-02-0.142D-01-0.576D-01 0.833D-01
 Coeff-Com:  0.377D+00 0.613D+00
 Coeff:      0.473D-05-0.343D-04-0.139D-04 0.977D-04 0.530D-05 0.203D-04
 Coeff:     -0.138D-04-0.137D-03-0.110D-02-0.873D-03 0.181D-02-0.994D-03
 Coeff:      0.697D-02-0.222D-03-0.645D-02-0.142D-01-0.576D-01 0.833D-01
 Coeff:      0.377D+00 0.613D+00
 Gap=     0.036 Goal=   None    Shift=    0.000
 RMSDP=1.93D-07 MaxDP=1.97D-05 DE=-3.51D-10 OVMax= 9.50D-06

 Cycle  25  Pass 1  IDiag  1:
 E= -101.744947698140     Delta-E=       -0.000000000020 Rises=F Damp=F
 DIIS: error= 3.34D-07 at cycle  25 NSaved=  20.
 NSaved=20 IEnMin=20 EnMin= -101.744947698140     IErMin=20 ErrMin= 3.34D-07
 ErrMax= 3.34D-07  0.00D+00 EMaxC= 1.00D-01 BMatC= 2.84D-12 BMatP= 1.14D-11
 IDIUse=1 WtCom= 1.00D+00 WtEn= 0.00D+00
 Coeff-Com: -0.216D-04-0.868D-05 0.590D-04 0.260D-04 0.412D-04-0.932D-05
 Coeff-Com: -0.125D-03-0.776D-03-0.612D-03 0.910D-03 0.155D-03 0.365D-02
 Coeff-Com: -0.430D-03-0.305D-02-0.554D-02-0.254D-01 0.263D-01 0.140D+00
 Coeff-Com:  0.382D+00 0.483D+00
 Coeff:     -0.216D-04-0.868D-05 0.590D-04 0.260D-04 0.412D-04-0.932D-05
 Coeff:     -0.125D-03-0.776D-03-0.612D-03 0.910D-03 0.155D-03 0.365D-02
 Coeff:     -0.430D-03-0.305D-02-0.554D-02-0.254D-01 0.263D-01 0.140D+00
 Coeff:      0.382D+00 0.483D+00
 Gap=     0.036 Goal=   None    Shift=    0.000
 RMSDP=2.77D-08 MaxDP=2.04D-06 DE=-2.03D-11 OVMax= 4.00D-06

 Cycle  26  Pass 1  IDiag  1:
 E= -101.744947698145     Delta-E=       -0.000000000005 Rises=F Damp=F
 DIIS: error= 9.80D-08 at cycle  26 NSaved=  20.
 NSaved=20 IEnMin=20 EnMin= -101.744947698145     IErMin=20 ErrMin= 9.80D-08
 ErrMax= 9.80D-08  0.00D+00 EMaxC= 1.00D-01 BMatC= 4.16D-13 BMatP= 2.84D-12
 IDIUse=1 WtCom= 1.00D+00 WtEn= 0.00D+00
 Coeff-Com: -0.271D-05 0.448D-05 0.630D-05 0.176D-04 0.126D-04-0.946D-05
 Coeff-Com: -0.942D-04-0.217D-03-0.120D-03-0.296D-03 0.503D-03 0.295D-03
 Coeff-Com:  0.621D-03 0.951D-03-0.126D-02-0.106D-01-0.234D-01 0.545D-01
 Coeff-Com:  0.280D+00 0.699D+00
 Coeff:     -0.271D-05 0.448D-05 0.630D-05 0.176D-04 0.126D-04-0.946D-05
 Coeff:     -0.942D-04-0.217D-03-0.120D-03-0.296D-03 0.503D-03 0.295D-03
 Coeff:      0.621D-03 0.951D-03-0.126D-02-0.106D-01-0.234D-01 0.545D-01
 Coeff:      0.280D+00 0.699D+00
 Gap=     0.036 Goal=   None    Shift=    0.000
 RMSDP=3.70D-08 MaxDP=3.54D-06 DE=-5.46D-12 OVMax= 1.56D-06

 Cycle  27  Pass 1  IDiag  1:
 E= -101.744947698147     Delta-E=       -0.000000000001 Rises=F Damp=F
 DIIS: error= 1.08D-08 at cycle  27 NSaved=  20.
 NSaved=20 IEnMin=20 EnMin= -101.744947698147     IErMin=20 ErrMin= 1.08D-08
 ErrMax= 1.08D-08  0.00D+00 EMaxC= 1.00D-01 BMatC= 2.22D-14 BMatP= 4.16D-13
 IDIUse=1 WtCom= 1.00D+00 WtEn= 0.00D+00
 Coeff-Com: -0.227D-05 0.344D-05 0.558D-05 0.597D-05-0.947D-06-0.121D-04
 Coeff-Com: -0.880D-05-0.431D-04 0.266D-03-0.246D-03-0.116D-03 0.152D-03
 Coeff-Com:  0.641D-03 0.164D-02-0.603D-02-0.193D-01-0.159D-01 0.503D-01
 Coeff-Com:  0.242D+00 0.746D+00
 Coeff:     -0.227D-05 0.344D-05 0.558D-05 0.597D-05-0.947D-06-0.121D-04
 Coeff:     -0.880D-05-0.431D-04 0.266D-03-0.246D-03-0.116D-03 0.152D-03
 Coeff:      0.641D-03 0.164D-02-0.603D-02-0.193D-01-0.159D-01 0.503D-01
 Coeff:      0.242D+00 0.746D+00
 Gap=     0.036 Goal=   None    Shift=    0.000
 RMSDP=1.45D-08 MaxDP=1.44D-06 DE=-1.31D-12 OVMax= 5.48D-07

 Cycle  28  Pass 1  IDiag  1:
 E= -101.744947698147     Delta-E=        0.000000000000 Rises=F Damp=F
 DIIS: error= 5.49D-09 at cycle  28 NSaved=  20.
 NSaved=20 IEnMin=19 EnMin= -101.744947698147     IErMin=20 ErrMin= 5.49D-09
 ErrMax= 5.49D-09  0.00D+00 EMaxC= 1.00D-01 BMatC= 2.94D-15 BMatP= 2.22D-14
 IDIUse=1 WtCom= 1.00D+00 WtEn= 0.00D+00
 Coeff-Com: -0.370D-06-0.291D-05-0.103D-05 0.375D-05 0.257D-04 0.137D-04
 Coeff-Com: -0.193D-04-0.458D-04-0.233D-04 0.125D-04 0.205D-04 0.677D-04
 Coeff-Com:  0.492D-03 0.519D-03-0.392D-04-0.113D-01-0.324D-01-0.624D-01
 Coeff-Com:  0.145D+00 0.960D+00
 Coeff:     -0.370D-06-0.291D-05-0.103D-05 0.375D-05 0.257D-04 0.137D-04
 Coeff:     -0.193D-04-0.458D-04-0.233D-04 0.125D-04 0.205D-04 0.677D-04
 Coeff:      0.492D-03 0.519D-03-0.392D-04-0.113D-01-0.324D-01-0.624D-01
 Coeff:      0.145D+00 0.960D+00
 Gap=     0.036 Goal=   None    Shift=    0.000
 RMSDP=3.85D-09 MaxDP=4.51D-07 DE= 0.00D+00 OVMax= 1.22D-07

 SCF Done:  E(ROHF) =  -101.744947698     A.U. after   28 cycles
            NFock= 28  Conv=0.38D-08     -V/T= 2.7776
 <Sx>= 0.0000 <Sy>= 0.0000 <Sz>= 2.0000 <S**2>= 6.0000 S= 2.0000
 <L.S>=  0.00000000000    
 KE= 5.723720701873D+01 PE=-3.057788255367D+02 EE= 1.097542660554D+02
 Annihilation of the first spin contaminant:
 S**2 before annihilation     6.0000,   after     6.0000
 Leave Link  502 at Mon Mar 12 14:09:01 2018, MaxMem= 10737418240 cpu:             453.5 elap:              33.8
 (Enter /home1/apps/gaussian/16rA.03/g16/l801.exe)
 Windowed orbitals will be sorted by symmetry type.
 GenMOA:  NOpAll=  4 NOp2=4 NOpUse=  4 JSym2X=1
 FoFJK:  IHMeth= 1 ICntrl=       0 DoSepK=F KAlg= 0 I1Cent=           0 FoldK=F
 IRaf=         0 NMat=       1 IRICut=       1 DoRegI=T DoRafI=F ISym2E= 1 IDoP0=0 IntGTp=1.
 FoFCou: FMM=F IPFlag=           8 FMFlag=      100000 FMFlg1=           0
         NFxFlg=           0 DoJE=F BraDBF=F KetDBF=F FulRan=T
         wScrn=  0.000000 ICntrl=         0 IOpCl=  1 I1Cent=           0 NGrid=           0
         NMat0=    1 NMatS0=      1 NMatT0=    0 NMatD0=    1 NMtDS0=    0 NMtDT0=    0
 Petite list used in FoFCou.
 <Sx>= 0.0000 <Sy>= 0.0000 <Sz>= 2.0000 <S**2>= 6.0000 S= 2.0000
 Range of M.O.s used for correlation:     1   252
 NBasis=   261 NAE=    12 NBE=     8 NFC=     0 NFV=     0
 NROrb=    252 NOA=    12 NOB=     8 NVA=   240 NVB=   244

 **** Warning!!: The largest alpha MO coefficient is  0.29059675D+03


 **** Warning!!: The largest beta MO coefficient is  0.29056729D+03

 Singles contribution to E2=   -0.5420395037D-02
 Leave Link  801 at Mon Mar 12 14:09:08 2018, MaxMem= 10737418240 cpu:             103.0 elap:               6.5
 (Enter /home1/apps/gaussian/16rA.03/g16/l804.exe)
 Open-shell transformation, MDV= 10737418240 ITran=4 ISComp=2.
 Unit  1 TFree=       2062740 TCopy=       1526759.
 Semi-Direct transformation.
 ModeAB=           4 MOrb=            12 LenV=   10735412347
 LASXX=     23925662 LTotXX=    23925662 LenRXX=    48257580
 LTotAB=    24331918 MaxLAS=   147314160 LenRXY=           0
 NonZer=    72183242 LenScr=   109029376 LnRSAI=   147314160
 LnScr1=   221838336 LExtra=     9984485 Total=    536423937
 MaxDsk= 67108864000 SrtSym=           T ITran=            4
 DoSDTr:  NPSUse= 16
 JobTyp=1 Pass  1:  I=   1 to  12.
 (rs|ai) integrals will be sorted in core.
 Complete sort for first half transformation.
 First half transformation complete.
 Begin second half transformation for I=  10.
 Complete sort for second half transformation.
 Second half transformation complete.
 ModeAB=           4 MOrb=             8 LenV=   10735412347
 LASXX=     16191526 LTotXX=    16191526 LenRXX=    31103054
 LTotAB=    14911528 MaxLAS=    98209440 LenRXY=           0
 NonZer=    47294580 LenScr=    71709696 LnRSAI=    98209440
 LnScr1=   148062720 LExtra=    58242065 Total=    407326975
 MaxDsk= 67108864000 SrtSym=           T ITran=            4
 DoSDTr:  NPSUse= 16
 JobTyp=2 Pass  1:  I=   1 to   8.
 (rs|ai) integrals will be sorted in core.
 Complete sort for first half transformation.
 First half transformation complete.
 Complete sort for second half transformation.
 Second half transformation complete.
 Spin components of T(2) and E(2):
     alpha-alpha T2 =       0.4225323321D-01 E2=     -0.1778131815D+00
     alpha-beta  T2 =       0.1143136498D+00 E2=     -0.6167741831D+00
     beta-beta   T2 =       0.2148596343D-01 E2=     -0.9925952267D-01
 ANorm=    0.1086914819D+01
 E2 =    -0.8992672823D+00 EUMP2 =    -0.10264421498043D+03
 (S**2,0)=  0.60000D+01           (S**2,1)=  0.60000D+01
 E(PUHF)=      -0.10174494770D+03        E(PMP2)=      -0.10264421498D+03
 Leave Link  804 at Mon Mar 12 14:11:19 2018, MaxMem= 10737418240 cpu:            2085.0 elap:             130.6
 (Enter /home1/apps/gaussian/16rA.03/g16/l913.exe)
 CIDS:  MDV= 10737418240.
 IFCWin=0 IBDFC=1 NFBD=     0     0 NFCmp=     0     0 NFFFC=     0     0
 Using original routines for 1st iteration.
 Using DD4UQ or CC4UQ for 2nd and later iterations.
 Keep R2 and R3 ints in memory in symmetry-blocked form, NReq=734616993.
 FoFCou: FMM=F IPFlag=           8 FMFlag=           0 FMFlg1=           0
         NFxFlg=           0 DoJE=F BraDBF=F KetDBF=F FulRan=T
         wScrn=  0.000000 ICntrl=       600 IOpCl=  0 I1Cent=           0 NGrid=           0
         NMat0=    1 NMatS0=  34191 NMatT0=    0 NMatD0=    1 NMtDS0=    0 NMtDT0=    0
 Petite list used in FoFCou.
 CIDS: In Core Option IDoMem=           1.
 CCSD(T)
 =======
 Iterations= 150 Convergence= 0.100D-06
 Produce multiple copies of IABC intergrals
 Iteration Nr.   1
 **********************
 DD1Dir will call FoFMem   1 times, MxPair=       286
 NAB=    96 NAA=    66 NBB=    28.
 DD1Dir will call FoFMem   1 times, MxPair=       286
 NAB=    96 NAA=    66 NBB=    28.
 MP4(R+Q)= -0.41580956D-01
 Maximum subspace dimension=  5
 A-vector RMS=  2.8683400D-04 Max=  2.9907518D-03 conv= 1.00D-05.
 RLE energy=       -0.8832078143
 E3=        0.57532000D-01        EROMP3=      -0.10258668298D+03
 E4(SDQ)=  -0.39427476D-01        ROMP4(SDQ)=  -0.10262611046D+03
 VARIATIONAL ENERGIES WITH THE FIRST-ORDER WAVEFUNCTION:
 DE(Corr)= -0.88291188     E(Corr)=     -102.62785958    
 NORM(A)=   0.10823332D+01
 Iteration Nr.   2
 **********************
 DD1Dir will call FoFMem   1 times, MxPair=       286
 NAB=    96 NAA=    66 NBB=    28.
 A-vector RMS=  3.9556366D-03 Max=  4.8020493D-02 conv= 1.00D-05.
 RLE energy=       -0.8691072862
 DE(Corr)= -0.82440982     E(CORR)=     -102.56935752     Delta= 5.85D-02
 NORM(A)=   0.10786140D+01
 Iteration Nr.   3
 **********************
 DD1Dir will call FoFMem   1 times, MxPair=       286
 NAB=    96 NAA=    66 NBB=    28.
 A-vector RMS=  2.7741485D-03 Max=  3.3685231D-02 conv= 1.00D-05.
 RLE energy=       -0.8686576649
 DE(Corr)= -0.83591229     E(CORR)=     -102.58085998     Delta=-1.15D-02
 NORM(A)=   0.10812221D+01
 Iteration Nr.   4
 **********************
 DD1Dir will call FoFMem   1 times, MxPair=       286
 NAB=    96 NAA=    66 NBB=    28.
 A-vector RMS=  2.0121858D-03 Max=  2.5464788D-02 conv= 1.00D-05.
 RLE energy=       -0.8621391558
 DE(Corr)= -0.84712283     E(CORR)=     -102.59207053     Delta=-1.12D-02
 NORM(A)=   0.10959155D+01
 Iteration Nr.   5
 **********************
 DD1Dir will call FoFMem   1 times, MxPair=       286
 NAB=    96 NAA=    66 NBB=    28.
 A-vector RMS=  6.7135181D-04 Max=  8.0644990D-03 conv= 1.00D-05.
 RLE energy=       -0.8661641033
 DE(Corr)= -0.87189239     E(CORR)=     -102.61684009     Delta=-2.48D-02
 NORM(A)=   0.11006218D+01
 Iteration Nr.   6
 **********************
 DD1Dir will call FoFMem   1 times, MxPair=       286
 NAB=    96 NAA=    66 NBB=    28.
 A-vector RMS=  2.4576851D-04 Max=  2.5285626D-03 conv= 1.00D-05.
 RLE energy=       -0.8668105856
 DE(Corr)= -0.86956616     E(CORR)=     -102.61451386     Delta= 2.33D-03
 NORM(A)=   0.10996153D+01
 Iteration Nr.   7
 **********************
 DD1Dir will call FoFMem   1 times, MxPair=       286
 NAB=    96 NAA=    66 NBB=    28.
 A-vector RMS=  8.7597709D-05 Max=  2.1918278D-03 conv= 1.00D-05.
 RLE energy=       -0.8666456473
 DE(Corr)= -0.86666069     E(CORR)=     -102.61160838     Delta= 2.91D-03
 NORM(A)=   0.11002997D+01
 Iteration Nr.   8
 **********************
 DD1Dir will call FoFMem   1 times, MxPair=       286
 NAB=    96 NAA=    66 NBB=    28.
 A-vector RMS=  4.4876542D-05 Max=  6.6045620D-04 conv= 1.00D-05.
 RLE energy=       -0.8667454749
 DE(Corr)= -0.86684482     E(CORR)=     -102.61179252     Delta=-1.84D-04
 NORM(A)=   0.11006174D+01
 Iteration Nr.   9
 **********************
 DD1Dir will call FoFMem   1 times, MxPair=       286
 NAB=    96 NAA=    66 NBB=    28.
 A-vector RMS=  2.2093463D-05 Max=  6.4182475D-04 conv= 1.00D-05.
 RLE energy=       -0.8667979308
 DE(Corr)= -0.86672521     E(CORR)=     -102.61167290     Delta= 1.20D-04
 NORM(A)=   0.11008434D+01
 Iteration Nr.  10
 **********************
 DD1Dir will call FoFMem   1 times, MxPair=       286
 NAB=    96 NAA=    66 NBB=    28.
 A-vector RMS=  8.8935814D-06 Max=  1.1274333D-04 conv= 1.00D-05.
 RLE energy=       -0.8667790122
 DE(Corr)= -0.86676271     E(CORR)=     -102.61171041     Delta=-3.75D-05
 NORM(A)=   0.11008543D+01
 Iteration Nr.  11
 **********************
 DD1Dir will call FoFMem   1 times, MxPair=       286
 NAB=    96 NAA=    66 NBB=    28.
 A-vector RMS=  4.4238362D-06 Max=  6.6071786D-05 conv= 1.00D-05.
 RLE energy=       -0.8667711632
 DE(Corr)= -0.86676948     E(CORR)=     -102.61171718     Delta=-6.78D-06
 NORM(A)=   0.11008538D+01
 Iteration Nr.  12
 **********************
 DD1Dir will call FoFMem   1 times, MxPair=       286
 NAB=    96 NAA=    66 NBB=    28.
 A-vector RMS=  1.5294282D-06 Max=  1.7740866D-05 conv= 1.00D-05.
 RLE energy=       -0.8667698101
 DE(Corr)= -0.86676953     E(CORR)=     -102.61171722     Delta=-4.19D-08
 NORM(A)=   0.11008536D+01
 Iteration Nr.  13
 **********************
 DD1Dir will call FoFMem   1 times, MxPair=       286
 NAB=    96 NAA=    66 NBB=    28.
 A-vector RMS=  8.2404569D-07 Max=  1.3872571D-05 conv= 1.00D-05.
 RLE energy=       -0.8667677950
 DE(Corr)= -0.86676853     E(CORR)=     -102.61171623     Delta= 9.95D-07
 NORM(A)=   0.11008549D+01
 Iteration Nr.  14
 **********************
 DD1Dir will call FoFMem   1 times, MxPair=       286
 NAB=    96 NAA=    66 NBB=    28.
 A-vector RMS=  4.2779238D-07 Max=  1.0223955D-05 conv= 1.00D-05.
 RLE energy=       -0.8667682937
 DE(Corr)= -0.86676863     E(CORR)=     -102.61171633     Delta=-1.04D-07
 NORM(A)=   0.11008569D+01
 Iteration Nr.  15
 **********************
 DD1Dir will call FoFMem   1 times, MxPair=       286
 NAB=    96 NAA=    66 NBB=    28.
 A-vector RMS=  1.7899313D-07 Max=  3.7317323D-06 conv= 1.00D-05.
 RLE energy=       -0.8667690813
 DE(Corr)= -0.86676901     E(CORR)=     -102.61171670     Delta=-3.72D-07
 NORM(A)=   0.11008583D+01
 Iteration Nr.  16
 **********************
 DD1Dir will call FoFMem   1 times, MxPair=       286
 NAB=    96 NAA=    66 NBB=    28.
 A-vector RMS=  1.2483068D-07 Max=  3.8159778D-06 conv= 1.00D-05.
 RLE energy=       -0.8667690547
 DE(Corr)= -0.86676898     E(CORR)=     -102.61171668     Delta= 2.37D-08
 NORM(A)=   0.11008596D+01
 CI/CC converged in   16 iterations to DelEn= 2.37D-08 Conv= 1.00D-07 ErrA1= 1.25D-07 Conv= 1.00D-05
 Wavefunction amplitudes converged. E(Corr)=     -102.61171668    
 Largest amplitude= 8.70D-02
 Time for triples=    13577.06 seconds.
 T4(CCSD)= -0.44974767D-01
 T5(CCSD)=  0.52625492D-02
 CCSD(T)= -0.10265142890D+03
 Discarding MO integrals.
 Leave Link  913 at Mon Mar 12 14:30:51 2018, MaxMem= 10737418240 cpu:           18724.2 elap:            1171.6
 (Enter /home1/apps/gaussian/16rA.03/g16/l601.exe)
 Copying SCF densities to generalized density rwf, IOpCl= 0 IROHF=1.

 **********************************************************************

            Population analysis using the SCF density.

 **********************************************************************

 Orbital symmetries:
       Occupied  (SG) (SG) (PI) (PI) (SG) (PI) (PI) (SG) (?A) (?A)
                 (?A) (?B)
       Virtual   (?B) (SG) (SG) (?B) (?B) (?C) (?B) (?B) (?C) (?C)
                 (SG) (?B) (?C) (?B) (SG) (?B) (?B) (SG) (?B) (?C)
                 (?C) (PI) (PI) (?C) (?B) (?C) (?C) (?C) (?C) (PHI)
                 (PHI) (?B) (?B) (?C) (?B) (?B) (?C) (?C) (?C)
                 (PI) (PI) (?C) (?D) (?D) (PI) (PI) (?D) (SG) (PI)
                 (PI) (SG) (DLTA) (DLTA) (PHI) (PHI) (?E) (?E)
                 (?E) (?E) (?C) (?C) (?C) (?C) (PI) (?F) (?F) (PI)
                 (?G) (PI) (PI) (?G) (?G) (PHI) (PHI) (?C) (?C)
                 (?C) (?C) (PI) (PI) (PI) (PI) (SG) (PI) (PI) (DLTA)
                 (DLTA) (SG) (SG) (PI) (PI) (?E) (?E) (DLTA) (DLTA)
                 (?E) (?E) (SG) (?H) (?H) (?H) (PI) (PI) (PHI)
                 (PHI) (SG) (PI) (PI) (SG) (?F) (?F) (PHI) (PHI)
                 (DLTA) (DLTA) (SG) (DLTA) (PI) (DLTA) (PI) (SG)
                 (DLTA) (DLTA) (PI) (PI) (PI) (PI) (SG) (SG) (PHI)
                 (PHI) (DLTA) (DLTA) (PI) (PI) (PI) (PI) (SG) (SG)
                 (PI) (PI) (SG) (SG) (SG) (DLTA) (DLTA) (PI) (PI)
                 (?F) (?F) (PHI) (PHI) (DLTA) (DLTA) (PI) (PI)
                 (SG) (SG) (PI) (PI) (SG) (SG) (SG) (DLTA) (DLTA)
                 (PI) (PI) (SG) (DLTA) (DLTA) (PI) (PI) (SG) (PI)
                 (PI) (SG) (PI) (PI) (SG) (SG) (SG) (DLTA) (DLTA)
                 (PI) (PI) (SG) (PI) (PI) (SG) (PI) (PI) (SG) (SG)
                 (SG) (PI) (PI) (SG) (SG) (SG) (PI) (PI) (SG) (DLTA)
                 (DLTA) (PI) (PI) (SG) (PI) (PI) (SG) (SG) (SG)
                 (PI) (PI) (SG) (SG) (SG) (PI) (PI) (SG) (SG) (SG)
                 (PI) (PI) (SG) (SG) (SG) (PI) (PI) (SG) (SG) (SG)
                 (PI) (PI) (SG) (SG) (SG) (SG) (SG) (SG)
 Unable to determine electronic state:  an orbital has unidentified symmetry.
 Alpha  occ. eigenvalues --   -3.68231  -2.47305  -2.43375  -2.39557  -1.26919
 Alpha  occ. eigenvalues --   -0.74626  -0.68889  -0.65505  -0.50276  -0.50182
 Alpha  occ. eigenvalues --   -0.30336  -0.26586
 Alpha virt. eigenvalues --    0.01419   0.02446   0.02809   0.02810   0.05350
 Alpha virt. eigenvalues --    0.06978   0.07673   0.07743   0.07795   0.07797
 Alpha virt. eigenvalues --    0.09751   0.09939   0.12165   0.17746   0.20412
 Alpha virt. eigenvalues --    0.23434   0.23517   0.25160   0.25205   0.26978
 Alpha virt. eigenvalues --    0.26986   0.30981   0.31279   0.31963   0.32190
 Alpha virt. eigenvalues --    0.35460   0.59755   0.61792   0.61825   0.63323
 Alpha virt. eigenvalues --    0.63325   0.67982   0.68214   0.70105   0.75329
 Alpha virt. eigenvalues --    0.76141   0.76516   0.82814   0.82839   0.87135
 Alpha virt. eigenvalues --    0.87149   0.89249   0.97652   0.97653   1.01461
 Alpha virt. eigenvalues --    1.01914   1.13337   1.31218   1.38946   1.40245
 Alpha virt. eigenvalues --    1.43737   1.79951   1.79961   1.89853   1.89853
 Alpha virt. eigenvalues --    2.00387   2.01381   2.05105   2.05108   2.17578
 Alpha virt. eigenvalues --    2.23922   2.23925   2.27778   2.29032   2.30296
 Alpha virt. eigenvalues --    2.30563   2.30563   2.38489   2.39515   2.39656
 Alpha virt. eigenvalues --    2.49889   2.49900   2.63075   2.63075   2.74945
 Alpha virt. eigenvalues --    2.78533   2.78664   2.88387   2.93403   2.95044
 Alpha virt. eigenvalues --    3.05433   3.05938   3.07337   3.26555   3.26865
 Alpha virt. eigenvalues --    3.37659   3.37668   4.06808   4.66745   5.15404
 Alpha virt. eigenvalues --    5.15504   5.33998   5.34001   5.40838   5.40838
 Alpha virt. eigenvalues --    5.43627   5.44609   5.53928   6.22515   6.23594
 Alpha virt. eigenvalues --    6.23793   6.30033   6.31078   6.36928   6.36928
 Alpha virt. eigenvalues --    6.51503   6.70359   6.70985   6.82712   6.90660
 Alpha virt. eigenvalues --    6.90660   7.02910   7.02910   7.13423   7.13424
 Alpha virt. eigenvalues --    7.31009   7.56765   7.56782   7.57983   7.58350
 Alpha virt. eigenvalues --    7.66269   7.85481   7.85524   8.21833   8.21835
 Alpha virt. eigenvalues --    8.52956   8.53069   9.02077  10.23714  14.18006
 Alpha virt. eigenvalues --   14.18006  14.28584  14.28589  14.59902  14.60165
 Alpha virt. eigenvalues --   14.89086  14.90837  15.04050  15.37676  15.49384
 Alpha virt. eigenvalues --   15.50051  15.78754  16.75641  17.39388  17.98429
 Alpha virt. eigenvalues --   17.98469  18.28350  18.29440  18.47057  18.47057
 Alpha virt. eigenvalues --   18.48325  18.48325  18.58276  18.58284  18.83938
 Alpha virt. eigenvalues --   18.84884  19.07719  20.02407  30.14165  30.16388
 Alpha virt. eigenvalues --   30.46915  36.14132  38.46843  38.78373  38.78382
 Alpha virt. eigenvalues --   38.96010  38.97802  39.88390  43.66400  43.66400
 Alpha virt. eigenvalues --   43.82265  43.82504  44.61125  46.05211  46.05720
 Alpha virt. eigenvalues --   47.12768  56.32409  56.34610  56.61155  68.79461
 Alpha virt. eigenvalues --   74.85416 103.00359 103.00365 103.11483 103.12887
 Alpha virt. eigenvalues --  103.17878 104.72115 104.73870 105.41407 119.31640
 Alpha virt. eigenvalues --  119.32063 120.05899 124.28353 137.11272 200.20216
 Alpha virt. eigenvalues --  200.21548 200.35711 231.26798 257.82991 286.55228
 Alpha virt. eigenvalues --  286.55488 287.30808 359.13068 359.13068 359.24330
 Alpha virt. eigenvalues --  359.24819 359.60815 398.41563 398.42381 398.57817
 Alpha virt. eigenvalues --  449.11445 555.34036 833.10370 833.10807 833.25104
 Alpha virt. eigenvalues --  906.321211529.848081859.226441859.228491859.36203
 Alpha virt. eigenvalues -- 1902.263934167.257004545.130124545.130954545.25466
 Alpha virt. eigenvalues -- 5659.973219581.79581******************************
 Alpha virt. eigenvalues -- **************************************************
 Alpha virt. eigenvalues -- **************************************************
     Molecular Orbital Coefficients:
                           4         5         6         7         8
                           O         O         O         O         O
     Eigenvalues --    -2.39557  -1.26919  -0.74626  -0.68889  -0.65505
   1 1   Cr 1S          0.00000  -0.00000   0.00000   0.00000  -0.00000
   2        2S          0.00000   0.00000   0.00000   0.00000   0.00000
   3        3S          0.00000  -0.00000   0.00000   0.00000  -0.00000
   4        4S          0.00000   0.00000   0.00000   0.00000   0.00000
   5        5S          0.00000  -0.00000   0.00000   0.00000  -0.00000
   6        6S          0.00000   0.00000   0.00000   0.00000   0.00000
   7        7S          0.00000  -0.00001   0.00000   0.00000  -0.00001
   8        8S          0.00000   0.00004   0.00000   0.00000   0.00004
   9        9S          0.00000  -0.00011   0.00000   0.00000  -0.00011
  10       10S          0.00000   0.00031   0.00000   0.00000   0.00030
  11       11S          0.00000  -0.00082   0.00000   0.00000  -0.00080
  12       12S          0.00000   0.00211   0.00000   0.00000   0.00202
  13       13S          0.00000  -0.00657   0.00000   0.00000  -0.00643
  14       14S          0.00000  -0.00854   0.00000   0.00000   0.00189
  15       15S          0.00000   0.26495   0.00000   0.00000   0.07588
  16       16S          0.00000  -0.04375   0.00000   0.00000  -0.07489
  17       17S          0.00000  -0.15290   0.00000   0.00000  -0.04789
  18       18S          0.00000  -0.09609   0.00000   0.00000  -0.13047
  19       19S          0.00000  -0.00424   0.00000   0.00000   0.05049
  20       20S          0.00000  -0.00180   0.00000   0.00000   0.01231
  21       21S          0.00000  -0.18688   0.00000   0.00000  -0.00772
  22       22S          0.00000  -0.00963   0.00000   0.00000  -0.02058
  23       23S          0.00000  -0.00013   0.00000   0.00000   0.00008
  24       24PX        -0.00000   0.00000   0.00000   0.00000   0.00000
  25       24PY         0.00000   0.00000   0.00000   0.00000   0.00000
  26       24PZ         0.00000  -0.00000   0.00000   0.00000  -0.00000
  27       25PX         0.00000   0.00000  -0.00000   0.00000   0.00000
  28       25PY         0.00000   0.00000   0.00000  -0.00000   0.00000
  29       25PZ         0.00000   0.00000   0.00000   0.00000   0.00000
  30       26PX        -0.00001   0.00000   0.00000   0.00000   0.00000
  31       26PY         0.00000   0.00000   0.00000   0.00000   0.00000
  32       26PZ         0.00000  -0.00000   0.00000   0.00000  -0.00000
  33       27PX         0.00003   0.00000  -0.00001   0.00000   0.00000
  34       27PY         0.00000   0.00000   0.00000  -0.00001   0.00000
  35       27PZ         0.00000   0.00001   0.00000   0.00000   0.00001
  36       28PX        -0.00010   0.00000   0.00003   0.00000   0.00000
  37       28PY         0.00000   0.00000   0.00000   0.00003   0.00000
  38       28PZ         0.00000  -0.00005   0.00000   0.00000  -0.00005
  39       29PX         0.00036   0.00000  -0.00009   0.00000   0.00000
  40       29PY         0.00000   0.00000   0.00000  -0.00009   0.00000
  41       29PZ         0.00000   0.00017   0.00000   0.00000   0.00016
  42       30PX        -0.00128   0.00000   0.00032   0.00000   0.00000
  43       30PY         0.00000   0.00000   0.00000   0.00031   0.00000
  44       30PZ         0.00000  -0.00062   0.00000   0.00000  -0.00055
  45       31PX         0.00660   0.00000  -0.00150   0.00000   0.00000
  46       31PY         0.00000   0.00000   0.00000  -0.00146   0.00000
  47       31PZ         0.00000   0.00303   0.00000   0.00000   0.00240
  48       32PX        -0.04302   0.00000   0.00967   0.00000   0.00000
  49       32PY         0.00000   0.00000   0.00000   0.00946   0.00000
  50       32PZ         0.00000  -0.01978   0.00000   0.00000  -0.01471
  51       33PX         0.54384   0.00000  -0.06172   0.00000   0.00000
  52       33PY         0.00000   0.00000   0.00000  -0.06223   0.00000
  53       33PZ         0.00000   0.17765   0.00000   0.00000  -0.02691
  54       34PX         0.30961   0.00000  -0.06378   0.00000   0.00000
  55       34PY         0.00000   0.00000   0.00000  -0.06295   0.00000
  56       34PZ         0.00000   0.13603   0.00000   0.00000   0.10093
  57       35PX         0.32315   0.00000  -0.05427   0.00000   0.00000
  58       35PY         0.00000   0.00000   0.00000  -0.05414   0.00000
  59       35PZ         0.00000   0.12090   0.00000   0.00000   0.03029
  60       36PX         0.25763   0.00000  -0.05380   0.00000   0.00000
  61       36PY         0.00000   0.00000   0.00000  -0.04824   0.00000
  62       36PZ         0.00000   0.12161   0.00000   0.00000   0.11486
  63       37PX         0.02989   0.00000  -0.03124   0.00000   0.00000
  64       37PY         0.00000   0.00000   0.00000  -0.02973   0.00000
  65       37PZ         0.00000   0.01571   0.00000   0.00000  -0.01336
  66       38PX        -0.00333   0.00000   0.01012   0.00000   0.00000
  67       38PY         0.00000   0.00000   0.00000  -0.00840   0.00000
  68       38PZ         0.00000  -0.00311   0.00000   0.00000  -0.01503
  69       39PX         0.00218   0.00000   0.00411   0.00000   0.00000
  70       39PY         0.00000   0.00000   0.00000  -0.00014   0.00000
  71       39PZ         0.00000   0.00066   0.00000   0.00000  -0.00240
  72       40PX        -0.49558   0.00000   0.05230   0.00000   0.00000
  73       40PY         0.00000   0.00000   0.00000   0.05284   0.00000
  74       40PZ         0.00000  -0.15654   0.00000   0.00000   0.03223
  75       41PX         0.13599   0.00000  -0.03418   0.00000   0.00000
  76       41PY         0.00000   0.00000   0.00000  -0.03384   0.00000
  77       41PZ         0.00000   0.07142   0.00000   0.00000   0.04162
  78       42PX        -0.00057   0.00000  -0.00077   0.00000   0.00000
  79       42PY         0.00000   0.00000   0.00000  -0.00101   0.00000
  80       42PZ         0.00000  -0.00027   0.00000   0.00000  -0.00007
  81       43D 0        0.00000   0.00005   0.00000   0.00000   0.00011
  82       43D+1       -0.00000   0.00000  -0.00006   0.00000   0.00000
  83       43D-1        0.00000   0.00000   0.00000  -0.00006   0.00000
  84       43D+2        0.00000   0.00000   0.00000   0.00000   0.00000
  85       43D-2        0.00000   0.00000   0.00000   0.00000   0.00000
  86       44D 0        0.00000  -0.00033   0.00000   0.00000  -0.00078
  87       44D+1        0.00000   0.00000   0.00043   0.00000   0.00000
  88       44D-1        0.00000   0.00000   0.00000   0.00045   0.00000
  89       44D+2        0.00000  -0.00001   0.00000   0.00000  -0.00003
  90       44D-2        0.00000   0.00000   0.00000   0.00000   0.00000
  91       45D 0        0.00000   0.01376   0.00000   0.00000   0.03606
  92       45D+1       -0.00179   0.00000  -0.01860   0.00000   0.00000
  93       45D-1        0.00000   0.00000   0.00000  -0.01954   0.00000
  94       45D+2        0.00000   0.00037   0.00000   0.00000   0.00127
  95       45D-2        0.00000   0.00000   0.00000   0.00000   0.00000
  96       46D 0        0.00000   0.10110   0.00000   0.00000   0.29268
  97       46D+1       -0.02413   0.00000  -0.13986   0.00000   0.00000
  98       46D-1        0.00000   0.00000   0.00000  -0.14782   0.00000
  99       46D+2        0.00000   0.00253   0.00000   0.00000   0.00880
 100       46D-2        0.00000   0.00000   0.00000   0.00000   0.00000
 101       47D 0        0.00000   0.07968   0.00000   0.00000   0.13555
 102       47D+1        0.00530   0.00000  -0.06935   0.00000   0.00000
 103       47D-1        0.00000   0.00000   0.00000  -0.07342   0.00000
 104       47D+2        0.00000   0.00136   0.00000   0.00000   0.00445
 105       47D-2        0.00000   0.00000   0.00000   0.00000   0.00000
 106       48D 0        0.00000   0.07857   0.00000   0.00000   0.19757
 107       48D+1       -0.00156   0.00000  -0.12208   0.00000   0.00000
 108       48D-1        0.00000   0.00000   0.00000  -0.13381   0.00000
 109       48D+2        0.00000   0.00196   0.00000   0.00000   0.00727
 110       48D-2        0.00000   0.00000   0.00000   0.00000   0.00000
 111       49D 0        0.00000   0.03324   0.00000   0.00000   0.13460
 112       49D+1        0.00963   0.00000  -0.03381   0.00000   0.00000
 113       49D-1        0.00000   0.00000   0.00000  -0.04714   0.00000
 114       49D+2        0.00000   0.00153   0.00000   0.00000   0.00300
 115       49D-2        0.00000   0.00000   0.00000   0.00000   0.00000
 116       50D 0        0.00000  -0.00100   0.00000   0.00000   0.01598
 117       50D+1        0.00235   0.00000   0.01404   0.00000   0.00000
 118       50D-1        0.00000   0.00000   0.00000   0.00843   0.00000
 119       50D+2        0.00000   0.00070   0.00000   0.00000  -0.00040
 120       50D-2        0.00000   0.00000   0.00000   0.00000   0.00000
 121       51D 0        0.00000  -0.04188   0.00000   0.00000  -0.14122
 122       51D+1        0.01614   0.00000   0.05959   0.00000   0.00000
 123       51D-1        0.00000   0.00000   0.00000   0.06329   0.00000
 124       51D+2        0.00000  -0.00078   0.00000   0.00000  -0.00320
 125       51D-2        0.00000   0.00000   0.00000   0.00000   0.00000
 126       52D 0        0.00000   0.00825   0.00000   0.00000   0.11360
 127       52D+1       -0.02321   0.00000  -0.05116   0.00000   0.00000
 128       52D-1        0.00000   0.00000   0.00000  -0.05432   0.00000
 129       52D+2        0.00000   0.00110   0.00000   0.00000   0.00352
 130       52D-2        0.00000   0.00000   0.00000   0.00000   0.00000
 131       53D 0        0.00000   0.00102   0.00000   0.00000   0.00008
 132       53D+1        0.00005   0.00000  -0.00112   0.00000   0.00000
 133       53D-1        0.00000   0.00000   0.00000  -0.00199   0.00000
 134       53D+2        0.00000  -0.00004   0.00000   0.00000   0.00005
 135       53D-2        0.00000   0.00000   0.00000   0.00000   0.00000
 136       54F 0        0.00000  -0.00177   0.00000   0.00000  -0.00383
 137       54F+1        0.00114   0.00000   0.00279   0.00000   0.00000
 138       54F-1        0.00000   0.00000   0.00000   0.00318   0.00000
 139       54F+2        0.00000   0.00020   0.00000   0.00000   0.00007
 140       54F-2        0.00000   0.00000   0.00000   0.00000   0.00000
 141       54F+3       -0.00066   0.00000   0.00013   0.00000   0.00000
 142       54F-3        0.00000   0.00000   0.00000   0.00012   0.00000
 143       55F 0        0.00000  -0.00712   0.00000   0.00000  -0.02007
 144       55F+1        0.00466   0.00000   0.01410   0.00000   0.00000
 145       55F-1        0.00000   0.00000   0.00000   0.01566   0.00000
 146       55F+2        0.00000   0.00058   0.00000   0.00000   0.00021
 147       55F-2        0.00000   0.00000   0.00000   0.00000   0.00000
 148       55F+3       -0.00155   0.00000   0.00027   0.00000   0.00000
 149       55F-3        0.00000   0.00000   0.00000   0.00026   0.00000
 150       56F 0        0.00000  -0.00875   0.00000   0.00000  -0.01065
 151       56F+1       -0.00150   0.00000   0.01679   0.00000   0.00000
 152       56F-1        0.00000   0.00000   0.00000   0.01940   0.00000
 153       56F+2        0.00000   0.00129   0.00000   0.00000   0.00045
 154       56F-2        0.00000   0.00000   0.00000   0.00000   0.00000
 155       56F+3       -0.00099   0.00000  -0.00018   0.00000   0.00000
 156       56F-3        0.00000   0.00000   0.00000  -0.00019   0.00000
 157       57F 0        0.00000  -0.00450   0.00000   0.00000  -0.01636
 158       57F+1       -0.00209   0.00000  -0.00515   0.00000   0.00000
 159       57F-1        0.00000   0.00000   0.00000  -0.00431   0.00000
 160       57F+2        0.00000   0.00037   0.00000   0.00000   0.00023
 161       57F-2        0.00000   0.00000   0.00000   0.00000   0.00000
 162       57F+3        0.00011   0.00000  -0.00049   0.00000   0.00000
 163       57F-3        0.00000   0.00000   0.00000  -0.00042   0.00000
 164       58G 0        0.00000   0.00050   0.00000   0.00000   0.00157
 165       58G+1       -0.00031   0.00000  -0.00074   0.00000   0.00000
 166       58G-1        0.00000   0.00000   0.00000  -0.00066   0.00000
 167       58G+2        0.00000  -0.00002   0.00000   0.00000  -0.00014
 168       58G-2        0.00000   0.00000   0.00000   0.00000   0.00000
 169       58G+3        0.00008   0.00000   0.00007   0.00000   0.00000
 170       58G-3        0.00000   0.00000   0.00000   0.00007   0.00000
 171       58G+4        0.00000  -0.00000   0.00000   0.00000  -0.00001
 172       58G-4        0.00000   0.00000   0.00000   0.00000   0.00000
 173       59G 0        0.00000   0.00213   0.00000   0.00000   0.00752
 174       59G+1       -0.00161   0.00000  -0.00605   0.00000   0.00000
 175       59G-1        0.00000   0.00000   0.00000  -0.00615   0.00000
 176       59G+2        0.00000  -0.00041   0.00000   0.00000  -0.00048
 177       59G-2        0.00000   0.00000   0.00000   0.00000   0.00000
 178       59G+3       -0.00010   0.00000   0.00034   0.00000   0.00000
 179       59G-3        0.00000   0.00000   0.00000   0.00035   0.00000
 180       59G+4        0.00000  -0.00001   0.00000   0.00000  -0.00002
 181       59G-4        0.00000   0.00000   0.00000   0.00000   0.00000
 182       60G 0        0.00000   0.00026   0.00000   0.00000  -0.00071
 183       60G+1        0.00145   0.00000  -0.00029   0.00000   0.00000
 184       60G-1        0.00000   0.00000   0.00000   0.00003   0.00000
 185       60G+2        0.00000  -0.00039   0.00000   0.00000  -0.00066
 186       60G-2        0.00000   0.00000   0.00000   0.00000   0.00000
 187       60G+3        0.00004   0.00000   0.00058   0.00000   0.00000
 188       60G-3        0.00000   0.00000   0.00000   0.00064   0.00000
 189       60G+4        0.00000  -0.00001   0.00000   0.00000  -0.00003
 190       60G-4        0.00000   0.00000   0.00000   0.00000   0.00000
 191 2   O  1S          0.00000  -0.00000   0.00000   0.00000   0.00000
 192        2S          0.00000   0.00001   0.00000   0.00000  -0.00000
 193        3S          0.00000  -0.00005   0.00000   0.00000   0.00000
 194        4S          0.00000   0.00030   0.00000   0.00000  -0.00001
 195        5S          0.00000  -0.00316   0.00000   0.00000   0.00013
 196        6S          0.00000  -0.04686   0.00000   0.00000   0.00071
 197        7S          0.00000  -0.15745   0.00000   0.00000   0.00373
 198        8S          0.00000   0.56845   0.00000   0.00000  -0.03204
 199        9S          0.00000   0.14590   0.00000   0.00000  -0.00825
 200       10S          0.00000   0.37078   0.00000   0.00000  -0.24059
 201       11S          0.00000  -0.00685   0.00000   0.00000   0.00702
 202       12S          0.00000   0.04589   0.00000   0.00000  -0.00161
 203       13S          0.00000   0.02328   0.00000   0.00000  -0.07640
 204       14PX         0.00046   0.00000   0.00778   0.00000   0.00000
 205       14PY         0.00000   0.00000   0.00000   0.00767   0.00000
 206       14PZ         0.00000  -0.00018   0.00000   0.00000   0.00677
 207       15PX         0.00531   0.00000   0.08138   0.00000   0.00000
 208       15PY         0.00000   0.00000   0.00000   0.08014   0.00000
 209       15PZ         0.00000  -0.00187   0.00000   0.00000   0.07420
 210       16PX         0.01818   0.00000   0.26275   0.00000   0.00000
 211       16PY         0.00000   0.00000   0.00000   0.25851   0.00000
 212       16PZ         0.00000  -0.00701   0.00000   0.00000   0.25370
 213       17PX         0.02898   0.00000   0.42956   0.00000   0.00000
 214       17PY         0.00000   0.00000   0.00000   0.42463   0.00000
 215       17PZ         0.00000   0.00795   0.00000   0.00000   0.38641
 216       18PX         0.01565   0.00000   0.31613   0.00000   0.00000
 217       18PY         0.00000   0.00000   0.00000   0.30647   0.00000
 218       18PZ         0.00000   0.02330   0.00000   0.00000   0.20351
 219       19PX         0.00054   0.00000   0.00481   0.00000   0.00000
 220       19PY         0.00000   0.00000   0.00000   0.00474   0.00000
 221       19PZ         0.00000  -0.00001   0.00000   0.00000   0.00585
 222       20PX        -0.00011   0.00000  -0.00204   0.00000   0.00000
 223       20PY         0.00000   0.00000   0.00000  -0.00201   0.00000
 224       20PZ         0.00000   0.00005   0.00000   0.00000  -0.00173
 225       21PX         0.00207   0.00000   0.03299   0.00000   0.00000
 226       21PY         0.00000   0.00000   0.00000   0.02237   0.00000
 227       21PZ         0.00000   0.00301   0.00000   0.00000   0.01390
 228       22D 0        0.00000  -0.00026   0.00000   0.00000   0.01559
 229       22D+1        0.00458   0.00000   0.01250   0.00000   0.00000
 230       22D-1        0.00000   0.00000   0.00000   0.01390   0.00000
 231       22D+2        0.00000   0.00001   0.00000   0.00000  -0.00016
 232       22D-2        0.00000   0.00000   0.00000   0.00000   0.00000
[...]
  44       30PZ        -0.00020  -0.00010  -0.00010  -0.00000
  45       31PX         0.00237   0.00119   0.00118   0.00002
  46       31PY         0.00236   0.00118   0.00118   0.00000
  47       31PZ         0.00235   0.00118   0.00117   0.00001
  48       32PX        -0.03191  -0.01615  -0.01576  -0.00038
  49       32PY        -0.03146  -0.01573  -0.01573   0.00000
  50       32PZ        -0.03124  -0.01566  -0.01558  -0.00008
  51       33PX         0.69332   0.35419   0.33913   0.01506
  52       33PY         0.67798   0.33899   0.33899   0.00000
  53       33PZ         0.70094   0.35064   0.35030   0.00035
  54       34PX         0.56281   0.28422   0.27859   0.00563
  55       34PY         0.55714   0.27857   0.27857   0.00000
  56       34PZ         0.54061   0.27076   0.26986   0.00090
  57       35PX         0.64811   0.32541   0.32269   0.00272
  58       35PY         0.64610   0.32305   0.32305   0.00000
  59       35PZ         0.64189   0.32111   0.32078   0.00033
  60       36PX         0.43112   0.21312   0.21800  -0.00488
  61       36PY         0.43902   0.21951   0.21951   0.00000
  62       36PZ         0.35856   0.17847   0.18009  -0.00162
  63       37PX         0.09472   0.08749   0.00723   0.08025
  64       37PY         0.01342   0.00671   0.00671   0.00000
  65       37PZ         0.05391   0.04108   0.01283   0.02824
  66       38PX         0.14081   0.13890   0.00190   0.13700
  67       38PY        -0.00698  -0.00349  -0.00349   0.00000
  68       38PZ         0.05633   0.06335  -0.00702   0.07036
  69       39PX         0.01478   0.01390   0.00088   0.01301
  70       39PY         0.00030   0.00015   0.00015   0.00000
  71       39PZ         0.02142   0.02195  -0.00053   0.02249
  72       40PX        -0.61000  -0.31165  -0.29835  -0.01329
  73       40PY        -0.59695  -0.29847  -0.29847   0.00000
  74       40PZ        -0.61673  -0.30848  -0.30825  -0.00023
  75       41PX         0.27451   0.13775   0.13676   0.00098
  76       41PY         0.27418   0.13709   0.13709   0.00000
  77       41PZ         0.28619   0.14317   0.14302   0.00014
  78       42PX         0.00043   0.00050  -0.00008   0.00058
  79       42PY        -0.00015  -0.00008  -0.00008   0.00000
  80       42PZ        -0.00096  -0.00097   0.00001  -0.00097
  81       43D 0        0.00000   0.00000   0.00000   0.00000
  82       43D+1        0.00000   0.00000   0.00000   0.00000
  83       43D-1        0.00000   0.00000   0.00000   0.00000
  84       43D+2        0.00001   0.00001   0.00000   0.00001
  85       43D-2        0.00001   0.00001   0.00000   0.00001
  86       44D 0       -0.00016  -0.00008  -0.00008  -0.00000
  87       44D+1       -0.00017  -0.00015  -0.00002  -0.00013
  88       44D-1       -0.00004  -0.00002  -0.00002   0.00000
  89       44D+2       -0.00020  -0.00020  -0.00000  -0.00020
  90       44D-2       -0.00021  -0.00021  -0.00000  -0.00021
  91       45D 0        0.02090   0.01070   0.01020   0.00050
  92       45D+1        0.02097   0.01857   0.00240   0.01617
  93       45D-1        0.00531   0.00266   0.00266   0.00000
  94       45D+2        0.02408   0.02407   0.00001   0.02406
  95       45D-2        0.02412   0.02412   0.00000   0.02412
  96       46D 0        0.31244   0.15972   0.15273   0.00699
  97       46D+1        0.28174   0.24739   0.03434   0.21305
  98       46D-1        0.07651   0.03825   0.03825   0.00000
  99       46D+2        0.29947   0.29931   0.00016   0.29915
 100       46D-2        0.29998   0.29998   0.00000   0.29998
 101       47D 0        0.20838   0.10494   0.10344   0.00150
 102       47D+1        0.17605   0.15025   0.02580   0.12445
 103       47D-1        0.05783   0.02892   0.02892   0.00000
 104       47D+2        0.18778   0.18767   0.00010   0.18757
 105       47D-2        0.18809   0.18809   0.00000   0.18809
 106       48D 0        0.32643   0.16805   0.15839   0.00966
 107       48D+1        0.31149   0.24411   0.06739   0.17672
 108       48D-1        0.15460   0.07730   0.07730   0.00000
 109       48D+2        0.31062   0.31047   0.00015   0.31033
 110       48D-2        0.31119   0.31119   0.00000   0.31119
 111       49D 0        0.09605   0.05634   0.03970   0.01664
 112       49D+1        0.10847   0.08872   0.01975   0.06896
 113       49D-1        0.05695   0.02848   0.02848   0.00000
 114       49D+2        0.13722   0.13718   0.00004   0.13714
 115       49D-2        0.13739   0.13739   0.00000   0.13739
 116       50D 0        0.00403   0.00609  -0.00206   0.00816
 117       50D+1       -0.00091   0.00349  -0.00440   0.00789
 118       50D-1       -0.00537  -0.00268  -0.00268   0.00000
 119       50D+2        0.01137   0.01137   0.00000   0.01137
 120       50D-2        0.01108   0.01108   0.00000   0.01108
 121       51D 0       -0.15852  -0.08090  -0.07762  -0.00328
 122       51D+1       -0.12720  -0.11148  -0.01572  -0.09576
 123       51D-1       -0.03511  -0.01756  -0.01756   0.00000
 124       51D+2       -0.12288  -0.12282  -0.00006  -0.12276
 125       51D-2       -0.12310  -0.12310  -0.00000  -0.12310
 126       52D 0        0.17298   0.08964   0.08334   0.00630
 127       52D+1        0.14273   0.12294   0.01978   0.10316
 128       52D-1        0.04417   0.02208   0.02208   0.00000
 129       52D+2        0.14675   0.14667   0.00008   0.14658
 130       52D-2        0.14699   0.14699   0.00000   0.14699
 131       53D 0        0.00025   0.00017   0.00008   0.00009
 132       53D+1        0.00034   0.00025   0.00010   0.00015
 133       53D-1        0.00035   0.00018   0.00018   0.00000
 134       53D+2       -0.00015  -0.00015  -0.00000  -0.00015
 135       53D-2       -0.00017  -0.00017  -0.00000  -0.00017
 136       54F 0        0.00039   0.00020   0.00020   0.00000
 137       54F+1        0.00015   0.00008   0.00008  -0.00000
 138       54F-1        0.00017   0.00009   0.00009   0.00000
 139       54F+2        0.00002   0.00002   0.00000   0.00001
 140       54F-2        0.00001   0.00001   0.00000   0.00001
 141       54F+3        0.00000   0.00000   0.00000   0.00000
 142       54F-3        0.00000   0.00000   0.00000   0.00000
 143       55F 0        0.00698   0.00349   0.00349   0.00001
 144       55F+1        0.00334   0.00161   0.00173  -0.00012
 145       55F-1        0.00383   0.00191   0.00191   0.00000
 146       55F+2        0.00008   0.00007   0.00000   0.00007
 147       55F-2        0.00006   0.00006   0.00000   0.00006
 148       55F+3        0.00001   0.00000   0.00000   0.00000
 149       55F-3        0.00001   0.00000   0.00000   0.00000
 150       56F 0        0.00583   0.00288   0.00294  -0.00006
 151       56F+1        0.01473   0.00847   0.00626   0.00222
 152       56F-1        0.01434   0.00717   0.00717   0.00000
 153       56F+2        0.00009   0.00009   0.00000   0.00009
 154       56F-2        0.00003   0.00003   0.00000   0.00003
 155       56F+3        0.00000   0.00000   0.00000   0.00000
 156       56F-3        0.00000   0.00000   0.00000   0.00000
 157       57F 0       -0.00502  -0.00278  -0.00223  -0.00055
 158       57F+1       -0.00181  -0.00004  -0.00177   0.00174
 159       57F-1       -0.00292  -0.00146  -0.00146   0.00000
 160       57F+2        0.00006   0.00006   0.00000   0.00006
 161       57F-2       -0.00002  -0.00002   0.00000  -0.00002
 162       57F+3        0.00000   0.00000   0.00000   0.00000
 163       57F-3        0.00000   0.00000   0.00000   0.00000
 164       58G 0        0.00007   0.00003   0.00003   0.00000
 165       58G+1        0.00002   0.00001   0.00001  -0.00000
 166       58G-1        0.00002   0.00001   0.00001   0.00000
 167       58G+2        0.00000   0.00000   0.00000   0.00000
 168       58G-2        0.00000   0.00000   0.00000   0.00000
 169       58G+3        0.00000   0.00000   0.00000   0.00000
 170       58G-3        0.00000   0.00000   0.00000   0.00000
 171       58G+4        0.00000   0.00000   0.00000   0.00000
 172       58G-4        0.00000   0.00000   0.00000   0.00000
 173       59G 0        0.00174   0.00087   0.00087   0.00001
 174       59G+1        0.00135   0.00065   0.00069  -0.00004
 175       59G-1        0.00141   0.00070   0.00070   0.00000
 176       59G+2        0.00001   0.00001   0.00000   0.00001
 177       59G-2        0.00001   0.00001   0.00000   0.00001
 178       59G+3        0.00000   0.00000   0.00000   0.00000
 179       59G-3        0.00000   0.00000   0.00000   0.00000
 180       59G+4        0.00000   0.00000   0.00000   0.00000
 181       59G-4        0.00000   0.00000   0.00000   0.00000
 182       60G 0        0.00020   0.00012   0.00008   0.00003
 183       60G+1        0.00087   0.00080   0.00006   0.00074
 184       60G-1       -0.00008  -0.00004  -0.00004   0.00000
 185       60G+2       -0.00000  -0.00000   0.00000  -0.00000
 186       60G-2       -0.00001  -0.00001   0.00000  -0.00001
 187       60G+3        0.00000   0.00000   0.00000   0.00000
 188       60G-3        0.00000   0.00000   0.00000   0.00000
 189       60G+4        0.00000   0.00000   0.00000   0.00000
 190       60G-4        0.00000   0.00000   0.00000   0.00000
 191 2   O  1S         -0.00000  -0.00000  -0.00000  -0.00000
 192        2S          0.00000   0.00000   0.00000   0.00000
 193        3S         -0.00000  -0.00000  -0.00000  -0.00000
 194        4S          0.00001   0.00000   0.00000   0.00000
 195        5S         -0.00024  -0.00012  -0.00012  -0.00000
 196        6S         -0.01138  -0.00571  -0.00567  -0.00004
 197        7S         -0.10509  -0.05271  -0.05238  -0.00032
 198        8S          1.11283   0.55727   0.55556   0.00171
 199        9S          0.22986   0.11528   0.11458   0.00070
 200       10S          0.73716   0.36860   0.36856   0.00004
 201       11S         -0.00191  -0.00095  -0.00096   0.00001
 202       12S          0.00858   0.00431   0.00428   0.00003
 203       13S          0.10829   0.06847   0.03982   0.02865
 204       14PX         0.00192   0.00100   0.00092   0.00008
 205       14PY         0.00179   0.00089   0.00089   0.00000
 206       14PZ         0.00160   0.00081   0.00079   0.00002
 207       15PX         0.06525   0.03398   0.03127   0.00272
 208       15PY         0.06083   0.03041   0.03041   0.00000
 209       15PZ         0.05756   0.02917   0.02839   0.00079
 210       16PX         0.38793   0.20107   0.18686   0.01422
 211       16PY         0.36429   0.18214   0.18214   0.00000
 212       16PZ         0.36581   0.18501   0.18081   0.00420
 213       17PX         0.79696   0.41004   0.38692   0.02312
 214       17PY         0.76093   0.38047   0.38047   0.00000
 215       17PZ         0.60998   0.31010   0.29988   0.01021
 216       18PX         0.50146   0.27799   0.22346   0.05453
 217       18PY         0.42501   0.21251   0.21251   0.00000
 218       18PZ         0.18091   0.11086   0.07005   0.04081
 219       19PX         0.00239   0.00123   0.00115   0.00008
 220       19PY         0.00224   0.00112   0.00112   0.00000
 221       19PZ         0.00293   0.00147   0.00145   0.00002
 222       20PX        -0.00031  -0.00016  -0.00015  -0.00001
 223       20PY        -0.00028  -0.00014  -0.00014   0.00000
 224       20PZ        -0.00025  -0.00013  -0.00012  -0.00000
 225       21PX         0.06176   0.05099   0.01077   0.04023
 226       21PY         0.01327   0.00664   0.00664   0.00000
 227       21PZ         0.03132   0.02911   0.00221   0.02690
 228       22D 0        0.00549   0.00283   0.00266   0.00017
 229       22D+1        0.00295   0.00194   0.00101   0.00092
 230       22D-1        0.00245   0.00122   0.00122   0.00000
 231       22D+2        0.00020   0.00020   0.00000   0.00020
 232       22D-2        0.00020   0.00020   0.00000   0.00020
 233       23D 0        0.01386   0.00739   0.00647   0.00092
 234       23D+1        0.02016   0.01332   0.00684   0.00647
 235       23D-1        0.01686   0.00843   0.00843   0.00000
 236       23D+2        0.00248   0.00248   0.00000   0.00248
 237       23D-2        0.00248   0.00248   0.00000   0.00248
 238       24D 0        0.00002   0.00001   0.00001   0.00000
 239       24D+1        0.00001   0.00001   0.00000   0.00000
 240       24D-1        0.00001   0.00000   0.00000   0.00000
 241       24D+2        0.00000   0.00000   0.00000   0.00000
 242       24D-2        0.00000   0.00000   0.00000   0.00000
 243       25D 0       -0.00340  -0.00187  -0.00154  -0.00033
 244       25D+1        0.00217   0.00109   0.00108   0.00002
 245       25D-1        0.00296   0.00148   0.00148   0.00000
 246       25D+2        0.00083   0.00083   0.00000   0.00082
 247       25D-2        0.00079   0.00079   0.00000   0.00079
 248       26F 0        0.00243   0.00126   0.00117   0.00009
 249       26F+1        0.00252   0.00170   0.00082   0.00088
 250       26F-1        0.00177   0.00088   0.00088   0.00000
 251       26F+2        0.00036   0.00036  -0.00000   0.00036
 252       26F-2        0.00036   0.00036  -0.00000   0.00036
 253       26F+3        0.00000   0.00000   0.00000  -0.00000
 254       26F-3        0.00000   0.00000   0.00000   0.00000
 255       27F 0        0.00066   0.00039   0.00027   0.00011
 256       27F+1        0.00176   0.00130   0.00046   0.00085
 257       27F-1        0.00110   0.00055   0.00055   0.00000
 258       27F+2        0.00071   0.00071   0.00000   0.00071
 259       27F-2        0.00070   0.00070   0.00000   0.00070
 260       27F+3        0.00000   0.00000   0.00000  -0.00000
 261       27F-3        0.00000   0.00000   0.00000   0.00000
          Condensed to atoms (all electrons):
               1          2
     1  Cr  13.038770   0.104938
     2  O    0.104938   6.751354
          Atomic-Atomic Spin Densities.
               1          2
     1  Cr   3.674500   0.057602
     2  O    0.057602   0.210295
 Mulliken charges and spin densities:
               1          2
     1  Cr   0.856292   3.732102
     2  O   -0.856292   0.267898
 Sum of Mulliken charges =  -0.00000   4.00000
 Mulliken charges and spin densities with hydrogens summed into heavy atoms:
               1          2
     1  Cr   0.856292   3.732102
     2  O   -0.856292   0.267898
 Electronic spatial extent (au):  <R**2>=             70.5000
 Charge=             -0.0000 electrons
 Dipole moment (field-independent basis, Debye):
    X=              0.0000    Y=              0.0000    Z=              0.2706  Tot=              0.2706
 Quadrupole moment (field-independent basis, Debye-Ang):
   XX=            -22.7923   YY=            -19.8528   ZZ=            -22.7843
   XY=              0.0000   XZ=              0.0000   YZ=              0.0000
 Traceless Quadrupole moment (field-independent basis, Debye-Ang):
   XX=             -0.9825   YY=              1.9570   ZZ=             -0.9745
   XY=              0.0000   XZ=              0.0000   YZ=              0.0000
 Octapole moment (field-independent basis, Debye-Ang**2):
  XXX=              0.0000  YYY=              0.0000  ZZZ=             -5.5872  XYY=              0.0000
  XXY=              0.0000  XXZ=             -3.5410  XZZ=              0.0000  YZZ=              0.0000
  YYZ=             -2.0671  XYZ=              0.0000
 Hexadecapole moment (field-independent basis, Debye-Ang**3):
 XXXX=            -45.3478 YYYY=            -32.5086 ZZZZ=            -76.1863 XXXY=              0.0000
 XXXZ=              0.0000 YYYX=              0.0000 YYYZ=              0.0000 ZZZX=              0.0000
 ZZZY=              0.0000 XXYY=            -12.9667 XXZZ=            -21.8689 YYZZ=            -18.0432
 XXYZ=              0.0000 YYXZ=              0.0000 ZZXY=              0.0000
 N-N= 3.704240476440D+01 E-N=-3.057788255563D+02  KE= 5.723720701873D+01
 Symmetry A1   KE= 2.554766418433D+01
 Symmetry A2   KE= 4.934074209947D+00
 Symmetry B1   KE= 1.518718320005D+01
 Symmetry B2   KE= 1.156828542458D+01
 Symmetry A1   SP= 2.000000000000D+00
 Symmetry A2   SP= 1.000000000000D+00
 Symmetry B1   SP= 1.000000000000D+00
 Symmetry B2   SP= 0.000000000000D+00
 Orbital energies and kinetic energies (alpha):
                                 1                 2
   4         O                -2.395575          3.151500
   5         O                -1.269190          1.750026
   6         O                -0.746264          2.600140
   7         O                -0.688889          2.629608
   8         O                -0.655046          3.779877
   9         O                -0.502758          0.708159
  10         O                -0.501822          4.934074
  11         O                -0.303360          4.713975
  12         O                -0.265856          3.683901
  13         V                 0.014194          0.084995
  14         V                 0.024459          0.039940
  15         V                 0.028091          0.053382
  16         V                 0.028098          0.081109
  17         V                 0.053498          0.296818
 Total kinetic energy from orbitals= 7.127731662871D+01
                          Isotropic Fermi Contact Couplings
        Atom                 a.u.       MegaHertz       Gauss      10(-4) cm-1
     1  Cr(53)             0.00045      -0.02846      -0.01015      -0.00949
     2  O(17)              0.00007      -0.01120      -0.00400      -0.00374
 --------------------------------------------------------
       Center         ----  Spin Dipole Couplings  ----
                      3XX-RR        3YY-RR        3ZZ-RR
 --------------------------------------------------------
     1   Atom        1.841474      0.280443     -2.121917
     2   Atom        0.055741     -0.300836      0.245094
 --------------------------------------------------------
                        XY            XZ            YZ
 --------------------------------------------------------
     1   Atom        0.000000      0.000000      0.000000
     2   Atom        0.000000      0.000000      0.000000
 --------------------------------------------------------


 ---------------------------------------------------------------------------------
              Anisotropic Spin Dipole Couplings in Principal Axis System
 ---------------------------------------------------------------------------------

       Atom             a.u.   MegaHertz   Gauss  10(-4) cm-1        Axes

              Baa    -2.1219    64.122    22.880    21.389  0.0000  0.0000  1.0000
     1 Cr(53) Bbb     0.2804    -8.475    -3.024    -2.827 -0.0000  1.0000  0.0000
              Bcc     1.8415   -55.648   -19.856   -18.562  1.0000  0.0000  0.0000
 
              Baa    -0.3008    21.768     7.767     7.261 -0.0000  1.0000  0.0000
     2 O(17)  Bbb     0.0557    -4.033    -1.439    -1.345  1.0000  0.0000  0.0000
              Bcc     0.2451   -17.735    -6.328    -5.916  0.0000  0.0000  1.0000
 

 ---------------------------------------------------------------------------------

 No NMR shielding tensors so no spin-rotation constants.
 Leave Link  601 at Mon Mar 12 14:30:55 2018, MaxMem= 10737418240 cpu:              53.5 elap:               3.7
 (Enter /home1/apps/gaussian/16rA.03/g16/l9999.exe)

 Test job not archived.
 1\1\GINC-C439-043\SP\ROCCSD(T)-Full\Gen\Cr1O1(5)\AANNABE\12-Mar-2018\0
 \\#P ROCCSD(T)=(maxcyc=150, Full, SaveAmplitudes, ReadAmplitudes)/Gen 
 5d 7f SCF=(maxcycles=300) Integral(NoXCTest) MaxDisk=500GB Pop=Regular
  Pseudo=Read Guess=Read IOp(5/15=2)\\CrO\\0,5\Cr,0,0.,0.,0.\O,0,0.,0.,
 1.2\\Version=ES64L-G16RevA.03\HF=-101.7449477\MP2=-102.644215\MP3=-102
 .586683\PUHF=-101.7449477\PMP2-0=-102.644215\MP4SDQ=-102.6261105\CCSD=
 -102.6117167\CCSD(T)=-102.6514289\RMSD=3.848e-09\PG=C*V [C*(O1Cr1)]\\@


 JUST WHEN YOU THINK YOU'VE GOT THE WORLD ON A STRING,
 YOU FIND OUT IT'S YOUR LEASH.
 Job cpu time:       0 days  5 hours 57 minutes 38.2 seconds.
 Elapsed time:       0 days  0 hours 22 minutes 28.9 seconds.
 File lengths (MBytes):  RWF=   4097 Int=      0 D2E=      0 Chk=     24 Scr=      1
 Normal termination of Gaussian 16 at Mon Mar 12 14:30:56 2018.
