 Entering Gaussian System, Link 0=g16
 Initial command:
 /home1/apps/gaussian/16rA.03/g16/l1.exe "/tmp/Gau-99563.inp" -scrdir="/tmp/"
 Entering Link 1 = /home1/apps/gaussian/16rA.03/g16/l1.exe PID=     99564.
  
 Copyright (c) 1988,1990,1992,1993,1995,1998,2003,2009,2016,
            Gaussian, Inc.  All Rights Reserved.
  
 This is part of the Gaussian(R) 16 program.  It is based on
 the Gaussian(R) 09 system (copyright 2009, Gaussian, Inc.),
 the Gaussian(R) 03 system (copyright 2003, Gaussian, Inc.),
 the Gaussian(R) 98 system (copyright 1998, Gaussian, Inc.),
 the Gaussian(R) 94 system (copyright 1995, Gaussian, Inc.),
 the Gaussian 92(TM) system (copyright 1992, Gaussian, Inc.),
 the Gaussian 90(TM) system (copyright 1990, Gaussian, Inc.),
 the Gaussian 88(TM) system (copyright 1988, Gaussian, Inc.),
 the Gaussian 86(TM) system (copyright 1986, Carnegie Mellon
 University), and the Gaussian 82(TM) system (copyright 1983,
 Carnegie Mellon University). Gaussian is a federally registered
 trademark of Gaussian, Inc.
  
 This software contains proprietary and confidential information,
 including trade secrets, belonging to Gaussian, Inc.
  
 This software is provided under written license and may be
 used, copied, transmitted, or stored only in accord with that
 written license.
  
 The following legend is applicable only to US Government
 contracts under FAR:
  
                    RESTRICTED RIGHTS LEGEND
  
 Use, reproduction and disclosure by the US Government is
 subject to restrictions as set forth in subparagraphs (a)
 and (c) of the Commercial Computer Software - Restricted
 Rights clause in FAR 52.227-19.
  
 Gaussian, Inc.
 340 Quinnipiac St., Bldg. 40, Wallingford CT 06492
  
  
 ---------------------------------------------------------------
 Warning -- This program may not be used in any manner that
 competes with the business of Gaussian, Inc. or will provide
 assistance to any competitor of Gaussian, Inc.  The licensee
 of this program is prohibited from giving any competitor of
 Gaussian, Inc. access to this program.  By using this program,
 the user acknowledges that Gaussian, Inc. is engaged in the
 business of creating and licensing software in the field of
 computational chemistry and represents and warrants to the
 licensee that it is not a competitor of Gaussian, Inc. and that
 it will not use this program in any manner prohibited above.
 ---------------------------------------------------------------
  

 Cite this work as:
 Gaussian 16, Revision A.03,
 M. J. Frisch, G. W. Trucks, H. B. Schlegel, G. E. Scuseria, 
 M. A. Robb, J. R. Cheeseman, G. Scalmani, V. Barone, 
 G. A. Petersson, H. Nakatsuji, X. Li, M. Caricato, A. V. Marenich, 
 J. Bloino, B. G. Janesko, R. Gomperts, B. Mennucci, H. P. Hratchian, 
 J. V. Ortiz, A. F. Izmaylov, J. L. Sonnenberg, D. Williams-Young, 
 F. Ding, F. Lipparini, F. Egidi, J. Goings, B. Peng, A. Petrone, 
 T. Henderson, D. Ranasinghe, V. G. Zakrzewski, J. Gao, N. Rega, 
 G. Zheng, W. Liang, M. Hada, M. Ehara, K. Toyota, R. Fukuda, 
 J. Hasegawa, M. Ishida, T. Nakajima, Y. Honda, O. Kitao, H. Nakai, 
 T. Vreven, K. Throssell, J. A. Montgomery, Jr., J. E. Peralta, 
 F. Ogliaro, M. J. Bearpark, J. J. Heyd, E. N. Brothers, K. N. Kudin, 
 V. N. Staroverov, T. A. Keith, R. Kobayashi, J. Normand, 
 K. Raghavachari, A. P. Rendell, J. C. Burant, S. S. Iyengar, 
 J. Tomasi, M. Cossi, J. M. Millam, M. Klene, C. Adamo, R. Cammi, 
 J. W. Ochterski, R. L. Martin, K. Morokuma, O. Farkas, 
 J. B. Foresman, and D. J. Fox, Gaussian, Inc., Wallingford CT, 2016.
 
 ******************************************
 Gaussian 16:  ES64L-G16RevA.03 25-Dec-2016
                21-Apr-2018 
 ******************************************
 %mem=160GB
 %cpu=0-31
 SetSPE:  set environment variable "MP_BIND" = "yes"
 SetSPE:  set environment variable "MP_BLIST" = "0,1,2,3,4,5,6,7,8,9,10,11,12,13,14,15,16,17,18,19,20,21,22,23,24,25,26,27,28,29,30,31"
 Will use up to   32 processors via shared memory.
 %chk=qz.chk
 %rwf=/scratch/04843/gwang18/znh/
 ----------------------------------------------------------------------
 #P ROCCSD(T)=(MaxCyc=150, FrzINGC)/Gen SCF=(maxcycle=400, vshift=200) 
 Integral(DKHSO, NoXCTest) Pop=Regular MaxDisk=500GB Guess=Read IOp(5/1
 5=2)
 ----------------------------------------------------------------------
 1/38=1,172=1/1;
 2/12=2,17=6,18=5,40=1/2;
 3/5=7,11=2,25=1,30=1,47=8,91=5,116=101/1,2,3;
 4/5=1/1;
 5/5=2,7=400,10=200,15=2,38=6/2;
 8/5=-1,6=4,9=120000,10=3/1,4;
 9/5=7,6=150,14=2/13;
 6//1;
 99/5=1,9=1/99;
 Leave Link    1 at Sat Apr 21 10:32:38 2018, MaxMem= 21474836480 cpu:               1.6 elap:               0.1
 (Enter /home1/apps/gaussian/16rA.03/g16/l101.exe)
 ---
 ZnH
 ---
 Symbolic Z-matrix:
 Charge =  0 Multiplicity = 2
 Zn                    0.        0.        0. 
 H                     0.        0.        1.4 
 
 ITRead=  0  0
 MicOpt= -1 -1
 NAtoms=      2 NQM=        2 NQMF=       0 NMMI=      0 NMMIF=      0
                NMic=       0 NMicF=      0.
                    Isotopes and Nuclear Properties:
 (Nuclear quadrupole moments (NQMom) in fm**2, nuclear magnetic moments (NMagM)
  in nuclear magnetons)

  Atom         1           2
 IAtWgt=          64           1
 AtmWgt=  63.9291454   1.0078250
 NucSpn=           0           1
 AtZEff=  -0.0000000  -0.0000000
 NQMom=    0.0000000   0.0000000
 NMagM=    0.0000000   2.7928460
 AtZNuc=  30.0000000   1.0000000
 Leave Link  101 at Sat Apr 21 10:32:38 2018, MaxMem= 21474836480 cpu:               2.7 elap:               0.1
 (Enter /home1/apps/gaussian/16rA.03/g16/l202.exe)
                          Input orientation:                          
 ---------------------------------------------------------------------
 Center     Atomic      Atomic             Coordinates (Angstroms)
 Number     Number       Type             X           Y           Z
 ---------------------------------------------------------------------
      1         30           0        0.000000    0.000000    0.000000
      2          1           0        0.000000    0.000000    1.400000
 ---------------------------------------------------------------------
 Stoichiometry    HZn(2)
 Framework group  C*V[C*(HZn)]
 Deg. of freedom     1
 Full point group                 C*V     NOp   4
 Largest Abelian subgroup         C2V     NOp   4
 Largest concise Abelian subgroup C1      NOp   1
                         Standard orientation:                         
 ---------------------------------------------------------------------
 Center     Atomic      Atomic             Coordinates (Angstroms)
 Number     Number       Type             X           Y           Z
 ---------------------------------------------------------------------
      1         30           0        0.000000    0.000000    0.045161
      2          1           0        0.000000    0.000000   -1.354839
 ---------------------------------------------------------------------
 Rotational constants (GHZ):           0.0000000         259.8777569         259.8777569
 Leave Link  202 at Sat Apr 21 10:32:38 2018, MaxMem= 21474836480 cpu:               0.5 elap:               0.0
 (Enter /home1/apps/gaussian/16rA.03/g16/l301.exe)
 General basis read from cards:  (5D, 7F)
 Centers:       1
 S 1 1.00
     Exponent=  1.7852930000D+07 Coefficients=  1.0000000000D+00
 S 1 1.00
     Exponent=  2.6730380000D+06 Coefficients=  1.0000000000D+00
 S 1 1.00
     Exponent=  6.0832440000D+05 Coefficients=  1.0000000000D+00
 S 1 1.00
     Exponent=  1.7231760000D+05 Coefficients=  1.0000000000D+00
 S 1 1.00
     Exponent=  5.6222690000D+04 Coefficients=  1.0000000000D+00
 S 1 1.00
     Exponent=  2.0299850000D+04 Coefficients=  1.0000000000D+00
 S 1 1.00
     Exponent=  7.9188710000D+03 Coefficients=  1.0000000000D+00
 S 1 1.00
     Exponent=  3.2853400000D+03 Coefficients=  1.0000000000D+00
 S 1 1.00
     Exponent=  1.4335240000D+03 Coefficients=  1.0000000000D+00
 S 1 1.00
     Exponent=  6.5228890000D+02 Coefficients=  1.0000000000D+00
 S 1 1.00
     Exponent=  3.0743600000D+02 Coefficients=  1.0000000000D+00
 S 1 1.00
     Exponent=  1.4914660000D+02 Coefficients=  1.0000000000D+00
 S 1 1.00
     Exponent=  7.3451080000D+01 Coefficients=  1.0000000000D+00
 S 1 1.00
     Exponent=  3.3925620000D+01 Coefficients=  1.0000000000D+00
 S 1 1.00
     Exponent=  1.7189470000D+01 Coefficients=  1.0000000000D+00
 S 1 1.00
     Exponent=  8.6665950000D+00 Coefficients=  1.0000000000D+00
 S 1 1.00
     Exponent=  3.9725050000D+00 Coefficients=  1.0000000000D+00
 S 1 1.00
     Exponent=  1.8946650000D+00 Coefficients=  1.0000000000D+00
 S 1 1.00
     Exponent=  8.5938500000D-01 Coefficients=  1.0000000000D+00
 S 1 1.00
     Exponent=  1.9525600000D-01 Coefficients=  1.0000000000D+00
 S 1 1.00
     Exponent=  8.5854000000D-02 Coefficients=  1.0000000000D+00
 S 1 1.00
     Exponent=  3.6781000000D-02 Coefficients=  1.0000000000D+00
 S 1 1.00
     Exponent=  8.3276000000D+00 Coefficients=  1.0000000000D+00
 S 1 1.00
     Exponent=  3.4194000000D+00 Coefficients=  1.0000000000D+00
 S 1 1.00
     Exponent=  1.5760000000D-02 Coefficients=  1.0000000000D+00
 P 1 1.00
     Exponent=  5.2867930000D+04 Coefficients=  1.0000000000D+00
 P 1 1.00
     Exponent=  1.2511790000D+04 Coefficients=  1.0000000000D+00
 P 1 1.00
     Exponent=  4.0652860000D+03 Coefficients=  1.0000000000D+00
 P 1 1.00
     Exponent=  1.5575950000D+03 Coefficients=  1.0000000000D+00
 P 1 1.00
     Exponent=  6.6328920000D+02 Coefficients=  1.0000000000D+00
 P 1 1.00
     Exponent=  3.0415610000D+02 Coefficients=  1.0000000000D+00
 P 1 1.00
     Exponent=  1.4736800000D+02 Coefficients=  1.0000000000D+00
 P 1 1.00
     Exponent=  7.4454690000D+01 Coefficients=  1.0000000000D+00
 P 1 1.00
     Exponent=  3.8714930000D+01 Coefficients=  1.0000000000D+00
 P 1 1.00
     Exponent=  2.0570220000D+01 Coefficients=  1.0000000000D+00
 P 1 1.00
     Exponent=  1.1054250000D+01 Coefficients=  1.0000000000D+00
 P 1 1.00
     Exponent=  5.8746610000D+00 Coefficients=  1.0000000000D+00
 P 1 1.00
     Exponent=  3.0529360000D+00 Coefficients=  1.0000000000D+00
 P 1 1.00
     Exponent=  1.5472250000D+00 Coefficients=  1.0000000000D+00
 P 1 1.00
     Exponent=  7.5415100000D-01 Coefficients=  1.0000000000D+00
 P 1 1.00
     Exponent=  2.6534900000D-01 Coefficients=  1.0000000000D+00
 P 1 1.00
     Exponent=  1.0206700000D-01 Coefficients=  1.0000000000D+00
 P 1 1.00
     Exponent=  3.8755000000D-02 Coefficients=  1.0000000000D+00
 P 1 1.00
     Exponent=  1.2535700000D+01 Coefficients=  1.0000000000D+00
 P 1 1.00
     Exponent=  3.4227000000D+00 Coefficients=  1.0000000000D+00
 P 1 1.00
     Exponent=  1.4720000000D-02 Coefficients=  1.0000000000D+00
 D 1 1.00
     Exponent=  6.3978060000D+02 Coefficients=  1.0000000000D+00
 D 1 1.00
     Exponent=  1.9267420000D+02 Coefficients=  1.0000000000D+00
 D 1 1.00
     Exponent=  7.4843680000D+01 Coefficients=  1.0000000000D+00
 D 1 1.00
     Exponent=  3.2860480000D+01 Coefficients=  1.0000000000D+00
 D 1 1.00
     Exponent=  1.5393530000D+01 Coefficients=  1.0000000000D+00
 D 1 1.00
     Exponent=  7.5255120000D+00 Coefficients=  1.0000000000D+00
 D 1 1.00
     Exponent=  3.7154290000D+00 Coefficients=  1.0000000000D+00
 D 1 1.00
     Exponent=  1.8064590000D+00 Coefficients=  1.0000000000D+00
 D 1 1.00
     Exponent=  8.5297300000D-01 Coefficients=  1.0000000000D+00
 D 1 1.00
     Exponent=  3.8478000000D-01 Coefficients=  1.0000000000D+00
 D 1 1.00
     Exponent=  1.5933700000D-01 Coefficients=  1.0000000000D+00
 D 1 1.00
     Exponent=  9.2094000000D+00 Coefficients=  1.0000000000D+00
 D 1 1.00
     Exponent=  5.2262000000D+00 Coefficients=  1.0000000000D+00
 D 1 1.00
     Exponent=  6.5980000000D-02 Coefficients=  1.0000000000D+00
 F 1 1.00
     Exponent=  1.3235500000D+01 Coefficients=  1.0000000000D+00
 F 1 1.00
     Exponent=  5.6706000000D+00 Coefficients=  1.0000000000D+00
 F 1 1.00
     Exponent=  2.4295000000D+00 Coefficients=  1.0000000000D+00
 F 1 1.00
     Exponent=  8.5300000000D-01 Coefficients=  1.0000000000D+00
 F 1 1.00
     Exponent=  2.9949000000D-01 Coefficients=  1.0000000000D+00
 G 1 1.00
     Exponent=  1.0790200000D+01 Coefficients=  1.0000000000D+00
 G 1 1.00
     Exponent=  4.9368000000D+00 Coefficients=  1.0000000000D+00
 G 1 1.00
     Exponent=  2.0693000000D+00 Coefficients=  1.0000000000D+00
 G 1 1.00
     Exponent=  8.6736000000D-01 Coefficients=  1.0000000000D+00
 H 1 1.00
     Exponent=  9.6086000000D+00 Coefficients=  1.0000000000D+00
 H 1 1.00
     Exponent=  4.4136000000D+00 Coefficients=  1.0000000000D+00
 H 1 1.00
     Exponent=  2.0273400000D+00 Coefficients=  1.0000000000D+00
 ****
 Centers:       2
 S 1 1.00
     Exponent=  8.2640000000D+01 Coefficients=  1.0000000000D+00
 S 1 1.00
     Exponent=  1.2410000000D+01 Coefficients=  1.0000000000D+00
 S 1 1.00
     Exponent=  2.8240000000D+00 Coefficients=  1.0000000000D+00
 S 1 1.00
     Exponent=  7.9770000000D-01 Coefficients=  1.0000000000D+00
 S 1 1.00
     Exponent=  2.5810000000D-01 Coefficients=  1.0000000000D+00
 S 1 1.00
     Exponent=  8.9890000000D-02 Coefficients=  1.0000000000D+00
 S 1 1.00
     Exponent=  2.3630000000D-02 Coefficients=  1.0000000000D+00
 P 1 1.00
     Exponent=  2.2920000000D+00 Coefficients=  1.0000000000D+00
 P 1 1.00
     Exponent=  8.3800000000D-01 Coefficients=  1.0000000000D+00
 P 1 1.00
     Exponent=  2.9200000000D-01 Coefficients=  1.0000000000D+00
 P 1 1.00
     Exponent=  8.4800000000D-02 Coefficients=  1.0000000000D+00
 D 1 1.00
     Exponent=  2.0620000000D+00 Coefficients=  1.0000000000D+00
 D 1 1.00
     Exponent=  6.6200000000D-01 Coefficients=  1.0000000000D+00
 D 1 1.00
     Exponent=  1.9000000000D-01 Coefficients=  1.0000000000D+00
 F 1 1.00
     Exponent=  1.3970000000D+00 Coefficients=  1.0000000000D+00
 F 1 1.00
     Exponent=  3.6000000000D-01 Coefficients=  1.0000000000D+00
 ****
 Ernie: Thresh=  0.10000D-02 Tol=  0.10000D-05 Strict=F.
 There are   171 symmetry adapted cartesian basis functions of A1  symmetry.
 There are    45 symmetry adapted cartesian basis functions of A2  symmetry.
 There are    93 symmetry adapted cartesian basis functions of B1  symmetry.
 There are    93 symmetry adapted cartesian basis functions of B2  symmetry.
 There are   126 symmetry adapted basis functions of A1  symmetry.
 There are    38 symmetry adapted basis functions of A2  symmetry.
 There are    73 symmetry adapted basis functions of B1  symmetry.
 There are    73 symmetry adapted basis functions of B2  symmetry.
   310 basis functions,   402 primitive gaussians,   402 cartesian basis functions
    16 alpha electrons       15 beta electrons
       nuclear repulsion energy        11.3395116626 Hartrees.
 IExCor=    0 DFT=F Ex=HF Corr=None ExCW=0 ScaHFX=  1.000000
 ScaDFX=  1.000000  1.000000  1.000000  1.000000 ScalE2=  1.000000  1.000000
 IRadAn=      5 IRanWt=     -1 IRanGd=            0 ICorTp=0 IEmpDi=  4
 NAtoms=    2 NActive=    2 NUniq=    2 SFac= 1.00D+00 NAtFMM=   60 NAOKFM=F Big=F
 Integral buffers will be    131072 words long.
 Raffenetti 2 integral format.
 Two-electron integral symmetry is turned on.
 FoFCou: FMM=F IPFlag=           8 FMFlag=           0 FMFlg1=           0
         NFxFlg=           0 DoJE=F BraDBF=T KetDBF=T FulRan=T
         wScrn=  0.000000 ICntrl=       600 IOpCl=  3 I1Cent=           6 NGrid=           0
         NMat0=    1 NMatS0=      2 NMatT0=    0 NMatD0=    1 NMtDS0=    0 NMtDT0=    0
 Symmetry not used in FoFCou.
 Finite nuclear repulsion energy        11.3395116626.
 Leave Link  301 at Sat Apr 21 10:32:39 2018, MaxMem= 21474836480 cpu:               4.7 elap:               0.2
 (Enter /home1/apps/gaussian/16rA.03/g16/l302.exe)
 Using DK4 one-electron Hamiltonian with SO, DoBoet=T.
 NPDir=0 NMtPBC=     1 NCelOv=     1 NCel=       1 NClECP=     1 NCelD=      1
         NCelK=      1 NCelE2=     1 NClLst=     1 CellRange=     0.0.
 One-electron integrals computed using PRISM.
 One-electron integral symmetry used in STVInt
 FoFCou: FMM=F IPFlag=           8 FMFlag=      100000 FMFlg1=           0
         NFxFlg=           0 DoJE=T BraDBF=F KetDBF=T FulRan=T
         wScrn=  0.000000 ICntrl=       500 IOpCl=  0 I1Cent=           4 NGrid=           0
         NMat0=    1 NMatS0=      1 NMatT0=    0 NMatD0=    1 NMtDS0=    0 NMtDT0=    0
 Symmetry not used in FoFCou.
 UnConB:  Uncontracting AO basis from    310 functions to    310 functions (excluding duplicates).
 RelInt: Using uncontracted basis, NUnBas=   310 NBsUse=   310 0.100E-13 EigKep=  5.64D-08 EigRej= -1.00D+00
 NBasis=   310 RedAO= T EigKep=  5.53D-06  NBF=   126    38    73    73
 NBsUse=   306 1.00D-06 EigRej=  9.72D-07 NBFU=   124    38    72    72
 Leave Link  302 at Sat Apr 21 10:32:42 2018, MaxMem= 21474836480 cpu:              76.1 elap:               3.0
 (Enter /home1/apps/gaussian/16rA.03/g16/l303.exe)
 DipDrv:  MaxL=1.
 Leave Link  303 at Sat Apr 21 10:32:42 2018, MaxMem= 21474836480 cpu:               1.3 elap:               0.1
 (Enter /home1/apps/gaussian/16rA.03/g16/l401.exe)
 Initial guess from the checkpoint file:  "qz.chk"
 B after Tr=     0.000000    0.000000    0.000000
         Rot=    1.000000    0.000000    0.000000    0.000000 Ang=   0.00 deg.
 Guess basis will be translated and rotated to current coordinates.
 JPrj=2 DoOrth=T DoCkMO=T.
 Initial guess orbital symmetries:
       Occupied  (SG) (SG) (PI) (PI) (SG) (SG) (PI) (PI) (SG) (SG)
                 (DLTA) (DLTA) (PI) (PI) (SG) (SG)
       Virtual   (PI) (PI) (SG) (SG) (PI) (PI) (SG) (SG) (SG) (PI)
                 (PI) (DLTA) (DLTA) (SG) (PI) (PI) (SG) (PI) (PI)
                 (SG) (SG) (SG) (PI) (PI) (DLTA) (DLTA) (DLTA)
                 (DLTA) (SG) (PI) (PI) (PI) (PI) (SG) (PI) (PI)
                 (SG) (SG) (PHI) (PHI) (DLTA) (DLTA) (PI) (PI)
                 (SG) (SG) (SG) (PI) (PI) (DLTA) (DLTA) (SG) (PI)
                 (PI) (DLTA) (DLTA) (SG) (PI) (PI) (PI) (PI) (SG)
                 (SG) (PHI) (PHI) (DLTA) (DLTA) (PI) (PI) (SG)
                 (DLTA) (DLTA) (PI) (PI) (SG) (?A) (?A) (PHI) (PHI)
                 (DLTA) (DLTA) (SG) (PI) (PI) (SG) (PI) (PI) (SG)
                 (SG) (PHI) (PHI) (DLTA) (DLTA) (PI) (PI) (SG)
                 (DLTA) (DLTA) (PI) (PI) (SG) (PI) (PI) (SG) (SG)
                 (?A) (?A) (PHI) (PHI) (DLTA) (DLTA) (PI) (PI)
                 (SG) (DLTA) (DLTA) (PI) (PI) (SG) (PHI) (PHI)
                 (DLTA) (DLTA) (PI) (PI) (SG) (PI) (PI) (SG) (SG)
                 (?A) (?A) (PHI) (PHI) (DLTA) (DLTA) (PI) (PI)
                 (SG) (DLTA) (DLTA) (PI) (PI) (SG) (SG) (PI) (PI)
                 (SG) (SG) (DLTA) (DLTA) (PI) (PI) (SG) (PI) (PI)
                 (SG) (SG) (DLTA) (DLTA) (PI) (PI) (SG) (PI) (PI)
                 (SG) (SG) (PI) (PI) (SG) (DLTA) (DLTA) (PI) (PI)
                 (SG) (PI) (PI) (SG) (SG) (PI) (PI) (SG) (SG) (PI)
                 (PI) (SG) (SG) (SG) (PI) (PI) (SG) (SG) (PI) (PI)
                 (SG) (SG) (SG) (SG) (SG) (DLTA) (DLTA) (SG) (SG)
                 (SG) (SG) (DLTA) (SG) (SG) (DLTA) (SG) (DLTA)
                 (?A) (SG) (SG) (SG) (DLTA) (?A) (SG) (DLTA) (SG)
                 (DLTA) (SG) (SG) (DLTA) (SG) (DLTA) (?A) (DLTA)
                 (?A) (DLTA) (DLTA) (DLTA) (DLTA) (DLTA) (?A) (DLTA)
                 (?A) (DLTA) (DLTA) (DLTA) (DLTA) (?A) (DLTA) (?A)
                 (PI) (PI) (PI) (PI) (PI) (PHI) (PI) (PHI) (PI)
                 (PI) (PHI) (?B) (PI) (PI) (PHI) (PI) (PHI) (PI)
                 (PI) (?B) (PHI) (?B) (PHI) (PI) (PI) (PI) (PI)
                 (PI) (PHI) (PI) (PHI) (PI) (PI) (PHI) (?B) (PI)
                 (PI) (PHI) (PI) (PHI) (PI) (PI) (?B) (PHI) (?B)
                 (PHI)
 The electronic state of the initial guess is 2-SG.
 Leave Link  401 at Sat Apr 21 10:32:42 2018, MaxMem= 21474836480 cpu:               6.0 elap:               0.2
 (Enter /home1/apps/gaussian/16rA.03/g16/l502.exe)
 Keep R1 and R2 ints in memory in symmetry-blocked form, NReq=1456552531.
 FoFCou: FMM=F IPFlag=           8 FMFlag=           0 FMFlg1=           0
         NFxFlg=           0 DoJE=F BraDBF=F KetDBF=F FulRan=T
         wScrn=  0.000000 ICntrl=       600 IOpCl=  0 I1Cent=           0 NGrid=           0
         NMat0=    1 NMatS0=  48205 NMatT0=    0 NMatD0=    1 NMtDS0=    0 NMtDT0=    0
 Petite list used in FoFCou.
 Restricted open shell SCF:
 Using DIIS extrapolation, IDIIS=  1040.
 NGot= 21474836480 LenX= 20885275506 LenY= 20885113461
 Requested convergence on RMS density matrix=1.00D-08 within 400 cycles.
 Requested convergence on MAX density matrix=1.00D-06.
 Requested convergence on             energy=1.00D-06.
 Virtual orbitals will be shifted by   0.200 hartree.
 No special actions if energy rises.

 Cycle   1  Pass 1  IDiag  1:
 E= -1794.79336034928    
 DIIS: error= 1.73D+00 at cycle   1 NSaved=   1.
 NSaved= 1 IEnMin= 1 EnMin= -1794.79336034928     IErMin= 1 ErrMin= 1.73D+00
 ErrMax= 1.73D+00  0.00D+00 EMaxC= 1.00D-01 BMatC= 2.43D+02 BMatP= 2.43D+02
 IDIUse=3 WtCom= 0.00D+00 WtEn= 1.00D+00
 Coeff-Com:  0.100D+01
 Coeff-En:   0.100D+01
 Coeff:      0.100D+01
 Fock symm off for IB=3 I1=   38 I=  200 J=   98 Cut=1.00D-07 Err=1.05D-07
 Fock matrix is not symmetric: symmetry in diagonalization turned off.
 Gap=     0.079 Goal=   None    Shift=    0.200
 GapD=    0.079 DampG=0.500 DampE=0.125 DampFc=0.1250 IDamp=-1.
 Damping current iteration by 1.25D-01
 RMSDP=5.24D-04 MaxDP=3.31D-02              OVMax= 1.00D+00

 Cycle   2  Pass 1  IDiag  1:
 E= -1794.79346399962     Delta-E=       -0.000103650339 Rises=F Damp=T
 DIIS: error= 1.52D+00 at cycle   2 NSaved=   2.
 NSaved= 2 IEnMin= 2 EnMin= -1794.79346399962     IErMin= 2 ErrMin= 1.52D+00
 ErrMax= 1.52D+00  0.00D+00 EMaxC= 1.00D-01 BMatC= 1.86D+02 BMatP= 2.43D+02
 IDIUse=3 WtCom= 0.00D+00 WtEn= 1.00D+00
 Coeff-Com: -0.700D+01 0.800D+01
 Coeff-En:   0.000D+00 0.100D+01
 Coeff:      0.000D+00 0.100D+01
 Gap=     0.097 Goal=   None    Shift=    0.200
 RMSDP=4.66D-04 MaxDP=2.93D-02 DE=-1.04D-04 OVMax= 3.51D-04

 Cycle   3  Pass 1  IDiag  1:
 E= -1794.79419681369     Delta-E=       -0.000732814073 Rises=F Damp=F
 DIIS: error= 9.46D-05 at cycle   3 NSaved=   3.
 NSaved= 3 IEnMin= 3 EnMin= -1794.79419681369     IErMin= 3 ErrMin= 9.46D-05
 ErrMax= 9.46D-05  0.00D+00 EMaxC= 1.00D-01 BMatC= 1.36D-06 BMatP= 1.86D+02
 IDIUse=1 WtCom= 1.00D+00 WtEn= 0.00D+00
 Coeff-Com:  0.138D+00-0.157D+00 0.102D+01
 Coeff:      0.138D+00-0.157D+00 0.102D+01
 Gap=     0.093 Goal=   None    Shift=    0.200
 DSYEVD-2 returned Info=       70916 IAlg= 4 N=   306 NDim=   306 NE2=    68252003 trying  DSYEV.
 RMSDP=2.30D-05 MaxDP=2.23D-03 DE=-7.33D-04 OVMax= 2.05D-04

 Cycle   4  Pass 1  IDiag  1:
 E= -1794.79419755151     Delta-E=       -0.000000737816 Rises=F Damp=F
 DIIS: error= 1.64D-05 at cycle   4 NSaved=   4.
 NSaved= 4 IEnMin= 4 EnMin= -1794.79419755151     IErMin= 4 ErrMin= 1.64D-05
 ErrMax= 1.64D-05  0.00D+00 EMaxC= 1.00D-01 BMatC= 3.35D-08 BMatP= 1.36D-06
 IDIUse=1 WtCom= 1.00D+00 WtEn= 0.00D+00
 Coeff-Com:  0.133D+00-0.153D+00-0.784D-01 0.110D+01
 Coeff:      0.133D+00-0.153D+00-0.784D-01 0.110D+01
 Gap=     0.093 Goal=   None    Shift=    0.200
 RMSDP=3.95D-06 MaxDP=2.78D-04 DE=-7.38D-07 OVMax= 5.69D-05

 Cycle   5  Pass 1  IDiag  1:
 E= -1794.79419758764     Delta-E=       -0.000000036132 Rises=F Damp=F
 DIIS: error= 1.14D-05 at cycle   5 NSaved=   5.
 NSaved= 5 IEnMin= 5 EnMin= -1794.79419758764     IErMin= 5 ErrMin= 1.14D-05
 ErrMax= 1.14D-05  0.00D+00 EMaxC= 1.00D-01 BMatC= 1.33D-08 BMatP= 3.35D-08
 IDIUse=1 WtCom= 1.00D+00 WtEn= 0.00D+00
 Coeff-Com:  0.131D+00-0.150D+00-0.373D-01 0.431D+00 0.625D+00
 Coeff:      0.131D+00-0.150D+00-0.373D-01 0.431D+00 0.625D+00
 Gap=     0.093 Goal=   None    Shift=    0.200
 RMSDP=8.57D-07 MaxDP=6.01D-05 DE=-3.61D-08 OVMax= 2.66D-05

 Cycle   6  Pass 1  IDiag  1:
 E= -1794.79419759123     Delta-E=       -0.000000003590 Rises=F Damp=F
 DIIS: error= 4.29D-06 at cycle   6 NSaved=   6.
 NSaved= 6 IEnMin= 6 EnMin= -1794.79419759123     IErMin= 6 ErrMin= 4.29D-06
 ErrMax= 4.29D-06  0.00D+00 EMaxC= 1.00D-01 BMatC= 1.60D-09 BMatP= 1.33D-08
 IDIUse=1 WtCom= 1.00D+00 WtEn= 0.00D+00
 Coeff-Com:  0.122D+00-0.140D+00 0.311D-01-0.107D+00 0.704D-01 0.102D+01
 Coeff:      0.122D+00-0.140D+00 0.311D-01-0.107D+00 0.704D-01 0.102D+01
 Gap=     0.093 Goal=   None    Shift=    0.200
 RMSDP=4.04D-07 MaxDP=3.80D-05 DE=-3.59D-09 OVMax= 1.45D-05

 Cycle   7  Pass 1  IDiag  1:
 E= -1794.79419759184     Delta-E=       -0.000000000612 Rises=F Damp=F
 DIIS: error= 4.24D-06 at cycle   7 NSaved=   7.
 NSaved= 7 IEnMin= 7 EnMin= -1794.79419759184     IErMin= 7 ErrMin= 4.24D-06
 ErrMax= 4.24D-06  0.00D+00 EMaxC= 1.00D-01 BMatC= 1.04D-09 BMatP= 1.60D-09
 IDIUse=1 WtCom= 1.00D+00 WtEn= 0.00D+00
 Coeff-Com:  0.112D+00-0.128D+00 0.198D-01 0.302D-01-0.494D-01-0.402D+00
 Coeff-Com:  0.142D+01
 Coeff:      0.112D+00-0.128D+00 0.198D-01 0.302D-01-0.494D-01-0.402D+00
 Coeff:      0.142D+01
 Gap=     0.093 Goal=   None    Shift=    0.200
 RMSDP=2.12D-07 MaxDP=2.63D-05 DE=-6.12D-10 OVMax= 8.86D-06

 Cycle   8  Pass 1  IDiag  1:
 E= -1794.79419759213     Delta-E=       -0.000000000284 Rises=F Damp=F
 DIIS: error= 4.02D-06 at cycle   8 NSaved=   8.
 NSaved= 8 IEnMin= 8 EnMin= -1794.79419759213     IErMin= 8 ErrMin= 4.02D-06
 ErrMax= 4.02D-06  0.00D+00 EMaxC= 1.00D-01 BMatC= 8.85D-10 BMatP= 1.04D-09
 IDIUse=1 WtCom= 1.00D+00 WtEn= 0.00D+00
 Coeff-Com:  0.102D+00-0.117D+00 0.177D-01 0.255D-01-0.179D-01-0.153D+00
 Coeff-Com: -0.315D+00 0.146D+01
 Coeff:      0.102D+00-0.117D+00 0.177D-01 0.255D-01-0.179D-01-0.153D+00
 Coeff:     -0.315D+00 0.146D+01
 Gap=     0.093 Goal=   None    Shift=    0.200
 RMSDP=1.97D-07 MaxDP=2.64D-05 DE=-2.84D-10 OVMax= 6.86D-06

 Cycle   9  Pass 1  IDiag  1:
 E= -1794.79419759239     Delta-E=       -0.000000000263 Rises=F Damp=F
 DIIS: error= 3.72D-06 at cycle   9 NSaved=   9.
 NSaved= 9 IEnMin= 9 EnMin= -1794.79419759239     IErMin= 9 ErrMin= 3.72D-06
 ErrMax= 3.72D-06  0.00D+00 EMaxC= 1.00D-01 BMatC= 7.41D-10 BMatP= 8.85D-10
 IDIUse=1 WtCom= 1.00D+00 WtEn= 0.00D+00
 Coeff-Com:  0.796D-01-0.910D-01 0.155D-01-0.116D-01 0.498D-01 0.218D+00
 Coeff-Com: -0.563D+00-0.169D+01 0.299D+01
 Coeff:      0.796D-01-0.910D-01 0.155D-01-0.116D-01 0.498D-01 0.218D+00
 Coeff:     -0.563D+00-0.169D+01 0.299D+01
 Gap=     0.093 Goal=   None    Shift=    0.200
 RMSDP=3.99D-07 MaxDP=5.63D-05 DE=-2.63D-10 OVMax= 1.00D-05

 Cycle  10  Pass 1  IDiag  1:
 E= -1794.79419759280     Delta-E=       -0.000000000408 Rises=F Damp=F
 DIIS: error= 3.11D-06 at cycle  10 NSaved=  10.
 NSaved=10 IEnMin=10 EnMin= -1794.79419759280     IErMin=10 ErrMin= 3.11D-06
 ErrMax= 3.11D-06  0.00D+00 EMaxC= 1.00D-01 BMatC= 5.03D-10 BMatP= 7.41D-10
 IDIUse=1 WtCom= 1.00D+00 WtEn= 0.00D+00
 Coeff-Com:  0.530D-01-0.606D-01 0.933D-02 0.635D-02 0.819D-02-0.551D-01
 Coeff-Com:  0.356D+00-0.821D+00-0.972D+00 0.248D+01
 Coeff:      0.530D-01-0.606D-01 0.933D-02 0.635D-02 0.819D-02-0.551D-01
 Coeff:      0.356D+00-0.821D+00-0.972D+00 0.248D+01
 Gap=     0.093 Goal=   None    Shift=    0.200
 RMSDP=5.00D-07 MaxDP=6.59D-05 DE=-4.08D-10 OVMax= 1.37D-05

 Cycle  11  Pass 1  IDiag  1:
 E= -1794.79419759325     Delta-E=       -0.000000000452 Rises=F Damp=F
 DIIS: error= 2.27D-06 at cycle  11 NSaved=  11.
 NSaved=11 IEnMin=11 EnMin= -1794.79419759325     IErMin=11 ErrMin= 2.27D-06
 ErrMax= 2.27D-06  0.00D+00 EMaxC= 1.00D-01 BMatC= 2.62D-10 BMatP= 5.03D-10
 IDIUse=1 WtCom= 1.00D+00 WtEn= 0.00D+00
 Coeff-Com:  0.234D-01-0.268D-01 0.457D-02-0.641D-02 0.819D-02 0.195D+00
 Coeff-Com: -0.744D+00 0.151D+00 0.286D+01-0.560D+01 0.413D+01
 Coeff:      0.234D-01-0.268D-01 0.457D-02-0.641D-02 0.819D-02 0.195D+00
 Coeff:     -0.744D+00 0.151D+00 0.286D+01-0.560D+01 0.413D+01
 Gap=     0.093 Goal=   None    Shift=    0.200
 RMSDP=5.77D-07 MaxDP=7.88D-05 DE=-4.52D-10 OVMax= 1.50D-05

 Cycle  12  Pass 1  IDiag  1:
 E= -1794.79419759359     Delta-E=       -0.000000000338 Rises=F Damp=F
 DIIS: error= 1.33D-06 at cycle  12 NSaved=  12.
 NSaved=12 IEnMin=12 EnMin= -1794.79419759359     IErMin=12 ErrMin= 1.33D-06
 ErrMax= 1.33D-06  0.00D+00 EMaxC= 1.00D-01 BMatC= 8.83D-11 BMatP= 2.62D-10
 IDIUse=1 WtCom= 1.00D+00 WtEn= 0.00D+00
 Coeff-Com:  0.153D-01-0.175D-01 0.310D-02-0.113D-01 0.318D-01 0.232D+00
 Coeff-Com: -0.924D+00-0.379D+00 0.451D+01-0.567D+01 0.164D+01 0.158D+01
 Coeff:      0.153D-01-0.175D-01 0.310D-02-0.113D-01 0.318D-01 0.232D+00
 Coeff:     -0.924D+00-0.379D+00 0.451D+01-0.567D+01 0.164D+01 0.158D+01
 Gap=     0.093 Goal=   None    Shift=    0.200
 RMSDP=2.46D-07 MaxDP=2.61D-05 DE=-3.38D-10 OVMax= 9.83D-06

 Cycle  13  Pass 1  IDiag  1:
 E= -1794.79419759372     Delta-E=       -0.000000000137 Rises=F Damp=F
 DIIS: error= 8.24D-07 at cycle  13 NSaved=  13.
 NSaved=13 IEnMin=13 EnMin= -1794.79419759372     IErMin=13 ErrMin= 8.24D-07
 ErrMax= 8.24D-07  0.00D+00 EMaxC= 1.00D-01 BMatC= 3.54D-11 BMatP= 8.83D-11
 IDIUse=1 WtCom= 1.00D+00 WtEn= 0.00D+00
 Coeff-Com:  0.197D-02-0.225D-02 0.574D-03-0.829D-03-0.694D-02 0.734D-02
 Coeff-Com:  0.780D-01-0.138D-01-0.884D+00 0.620D+00 0.116D+01-0.304D+01
 Coeff-Com:  0.308D+01
 Coeff:      0.197D-02-0.225D-02 0.574D-03-0.829D-03-0.694D-02 0.734D-02
 Coeff:      0.780D-01-0.138D-01-0.884D+00 0.620D+00 0.116D+01-0.304D+01
 Coeff:      0.308D+01
 Gap=     0.093 Goal=   None    Shift=    0.200
 RMSDP=2.66D-07 MaxDP=3.47D-05 DE=-1.37D-10 OVMax= 8.17D-06

 Cycle  14  Pass 1  IDiag  1:
 E= -1794.79419759379     Delta-E=       -0.000000000070 Rises=F Damp=F
 DIIS: error= 3.63D-07 at cycle  14 NSaved=  14.
 NSaved=14 IEnMin=14 EnMin= -1794.79419759379     IErMin=14 ErrMin= 3.63D-07
 ErrMax= 3.63D-07  0.00D+00 EMaxC= 1.00D-01 BMatC= 7.85D-12 BMatP= 3.54D-11
 IDIUse=1 WtCom= 1.00D+00 WtEn= 0.00D+00
 Coeff-Com:  0.159D-02-0.182D-02 0.467D-03-0.843D-03-0.490D-02 0.966D-02
 Coeff-Com:  0.377D-01 0.400D-01-0.694D+00 0.891D+00 0.433D+00-0.244D+01
 Coeff-Com:  0.169D+01 0.104D+01
 Coeff:      0.159D-02-0.182D-02 0.467D-03-0.843D-03-0.490D-02 0.966D-02
 Coeff:      0.377D-01 0.400D-01-0.694D+00 0.891D+00 0.433D+00-0.244D+01
 Coeff:      0.169D+01 0.104D+01
 Gap=     0.093 Goal=   None    Shift=    0.200
 RMSDP=6.90D-08 MaxDP=6.40D-06 DE=-6.98D-11 OVMax= 4.41D-06

 Cycle  15  Pass 1  IDiag  1:
 E= -1794.79419759381     Delta-E=       -0.000000000017 Rises=F Damp=F
 DIIS: error= 1.90D-07 at cycle  15 NSaved=  15.
 NSaved=15 IEnMin=15 EnMin= -1794.79419759381     IErMin=15 ErrMin= 1.90D-07
 ErrMax= 1.90D-07  0.00D+00 EMaxC= 1.00D-01 BMatC= 2.48D-12 BMatP= 7.85D-12
 IDIUse=1 WtCom= 1.00D+00 WtEn= 0.00D+00
 Coeff-Com:  0.896D-03-0.102D-02 0.177D-03 0.339D-03-0.658D-03-0.902D-02
 Coeff-Com:  0.755D-02 0.136D+00-0.167D+00-0.331D+00 0.418D+00 0.243D+00
 Coeff-Com:  0.223D+00-0.241D+01 0.289D+01
 Coeff:      0.896D-03-0.102D-02 0.177D-03 0.339D-03-0.658D-03-0.902D-02
 Coeff:      0.755D-02 0.136D+00-0.167D+00-0.331D+00 0.418D+00 0.243D+00
 Coeff:      0.223D+00-0.241D+01 0.289D+01
 Gap=     0.093 Goal=   None    Shift=    0.200
 RMSDP=3.44D-08 MaxDP=3.21D-06 DE=-1.66D-11 OVMax= 2.46D-06

 Cycle  16  Pass 1  IDiag  1:
 E= -1794.79419759382     Delta-E=       -0.000000000006 Rises=F Damp=F
 DIIS: error= 1.03D-07 at cycle  16 NSaved=  16.
 NSaved=16 IEnMin=16 EnMin= -1794.79419759382     IErMin=16 ErrMin= 1.03D-07
 ErrMax= 1.03D-07  0.00D+00 EMaxC= 1.00D-01 BMatC= 8.37D-13 BMatP= 2.48D-12
 IDIUse=1 WtCom= 1.00D+00 WtEn= 0.00D+00
 Large coefficients: NSaved= 16 BigCof=    0.00 CofMax=   10.00 Det=-4.23D-15
 Inversion failed.  Reducing to 15 matrices.
 Coeff-Com: -0.880D-09 0.268D-04-0.330D-03-0.460D-03 0.876D-02-0.371D-01
 Coeff-Com:  0.275D-01 0.174D+00-0.295D+00 0.758D-01 0.276D+00-0.262D+00
 Coeff-Com: -0.439D+00-0.508D+00 0.198D+01
 Coeff:     -0.880D-09 0.268D-04-0.330D-03-0.460D-03 0.876D-02-0.371D-01
 Coeff:      0.275D-01 0.174D+00-0.295D+00 0.758D-01 0.276D+00-0.262D+00
 Coeff:     -0.439D+00-0.508D+00 0.198D+01
 Gap=     0.093 Goal=   None    Shift=    0.200
 RMSDP=2.47D-08 MaxDP=2.23D-06 DE=-6.37D-12 OVMax= 1.60D-06

 Cycle  17  Pass 1  IDiag  1:
 E= -1794.79419759382     Delta-E=       -0.000000000003 Rises=F Damp=F
 DIIS: error= 4.65D-08 at cycle  17 NSaved=  16.
 NSaved=16 IEnMin=16 EnMin= -1794.79419759382     IErMin=16 ErrMin= 4.65D-08
 ErrMax= 4.65D-08  0.00D+00 EMaxC= 1.00D-01 BMatC= 2.47D-13 BMatP= 8.37D-13
 IDIUse=1 WtCom= 1.00D+00 WtEn= 0.00D+00
 Large coefficients: NSaved= 16 BigCof=    0.00 CofMax=   10.00 Det=-2.02D-15
 Inversion failed.  Reducing to 15 matrices.
 Coeff-Com:  0.835D-05-0.202D-03 0.521D-03 0.139D-02-0.387D-02 0.223D-02
 Coeff-Com: -0.115D-01 0.908D-01-0.876D-01-0.131D+00 0.234D+00 0.174D+00
 Coeff-Com: -0.374D+00-0.186D+01 0.297D+01
 Coeff:      0.835D-05-0.202D-03 0.521D-03 0.139D-02-0.387D-02 0.223D-02
 Coeff:     -0.115D-01 0.908D-01-0.876D-01-0.131D+00 0.234D+00 0.174D+00
 Coeff:     -0.374D+00-0.186D+01 0.297D+01
 Gap=     0.093 Goal=   None    Shift=    0.200
 RMSDP=9.79D-09 MaxDP=1.13D-06 DE=-2.96D-12 OVMax= 8.61D-07

 Cycle  18  Pass 1  IDiag  1:
 E= -1794.79419759382     Delta-E=       -0.000000000000 Rises=F Damp=F
 DIIS: error= 2.34D-08 at cycle  18 NSaved=  16.
 NSaved=16 IEnMin=16 EnMin= -1794.79419759382     IErMin=16 ErrMin= 2.34D-08
 ErrMax= 2.34D-08  0.00D+00 EMaxC= 1.00D-01 BMatC= 8.83D-14 BMatP= 2.47D-13
 IDIUse=1 WtCom= 1.00D+00 WtEn= 0.00D+00
 Large coefficients: NSaved= 16 BigCof=    0.00 CofMax=   10.00 Det=-2.98D-16
 Inversion failed.  Reducing to 15 matrices.
 Coeff-Com:  0.120D-03-0.626D-03-0.306D-02 0.207D-01-0.274D-01 0.130D-01
 Coeff-Com:  0.206D-01 0.761D-03-0.188D-01-0.914D-01 0.234D+00-0.192D-01
 Coeff-Com: -0.650D+00-0.117D+01 0.269D+01
 Coeff:      0.120D-03-0.626D-03-0.306D-02 0.207D-01-0.274D-01 0.130D-01
 Coeff:      0.206D-01 0.761D-03-0.188D-01-0.914D-01 0.234D+00-0.192D-01
 Coeff:     -0.650D+00-0.117D+01 0.269D+01
 Gap=     0.093 Goal=   None    Shift=    0.200
 RMSDP=5.74D-09 MaxDP=7.06D-07 DE=-2.27D-13 OVMax= 5.20D-07

 SCF Done:  E(ROHF) =  -1794.79419759     A.U. after   18 cycles
            NFock= 18  Conv=0.57D-08     -V/T= 1.9477
 <Sx>= 0.0000 <Sy>= 0.0000 <Sz>= 0.5000 <S**2>= 0.7500 S= 0.5000
 <L.S>=  0.00000000000    
 KE= 1.893932221452D+03 PE=-4.421065884722D+03 EE= 7.209999540135D+02
 Annihilation of the first spin contaminant:
 S**2 before annihilation     0.7500,   after     0.7500
 Leave Link  502 at Sat Apr 21 10:32:59 2018, MaxMem= 21474836480 cpu:             364.2 elap:              16.8
 (Enter /home1/apps/gaussian/16rA.03/g16/l801.exe)
 Windowed orbitals will be sorted by symmetry type.
 An orbital has undefined symmetry, so N**3 symmetry is turned off.
 GenMOA:  NOpAll=  4 NOp2=4 NOpUse=  4 JSym2X=1
 FoFJK:  IHMeth= 1 ICntrl=       0 DoSepK=F KAlg= 0 I1Cent=           0 FoldK=F
 IRaf=         0 NMat=       1 IRICut=       1 DoRegI=T DoRafI=F ISym2E= 1 IDoP0=0 IntGTp=1.
 FoFCou: FMM=F IPFlag=           8 FMFlag=      100000 FMFlg1=           0
         NFxFlg=           0 DoJE=F BraDBF=F KetDBF=F FulRan=T
         wScrn=  0.000000 ICntrl=         0 IOpCl=  1 I1Cent=           0 NGrid=           0
         NMat0=    1 NMatS0=      1 NMatT0=    0 NMatD0=    1 NMtDS0=    0 NMtDT0=    0
 Petite list used in FoFCou.
 <Sx>= 0.0000 <Sy>= 0.0000 <Sz>= 0.5000 <S**2>= 0.7500 S= 0.5000
 ExpMin= 1.47D-02 ExpMax= 1.79D+07 ExpMxC= 1.79D+07 IAcc=4 IRadAn=    399590 AccDes= 0.00D+00
 HarFok:  IExCor=  205 AccDes= 0.00D+00 IRadAn=    399590 IDoV=-2 UseB2=F ITyADJ=14
 ICtDFT= 12500011 ScaDFX=  1.000000  1.000000  1.000000  1.000000
 Largest valence mixing into a core orbital is  7.57D-05
 Largest core mixing into a valence orbital is  2.13D-05
 Largest valence mixing into a core orbital is  7.57D-05
 Largest core mixing into a valence orbital is  2.13D-05
 Range of M.O.s used for correlation:     6   306
 NBasis=   310 NAE=    16 NBE=    15 NFC=     5 NFV=     0
 NROrb=    301 NOA=    11 NOB=    10 NVA=   290 NVB=   291

 **** Warning!!: The largest alpha MO coefficient is  0.16200748D+03


 **** Warning!!: The largest beta MO coefficient is  0.16201197D+03

 Singles contribution to E2=   -0.8891594482D-03
 Leave Link  801 at Sat Apr 21 10:33:03 2018, MaxMem= 21474836480 cpu:             127.5 elap:               4.0
 (Enter /home1/apps/gaussian/16rA.03/g16/l804.exe)
 Open-shell transformation, MDV= 21474836480 ITran=4 ISComp=1.
 Unit  1 TFree=       2914888 TCopy=       2276583.
 Semi-Direct transformation.
 ModeAB=           2 MOrb=            11 LenV=   21472013098
 LASXX=    146334815 LTotXX=   146334815 LenRXX=   146334815
 LTotAB=   147988456 MaxLAS=   268200933 LenRXY=   268200933
 NonZer=   292669630 LenScr=   440726528 LnRSAI=           0
 LnScr1=           0 LExtra=    15878559 Total=    871140835
 MaxDsk= 67108864000 SrtSym=           F ITran=            4
 DoSDTr:  NPSUse= 32
 JobTyp=1 Pass  1:  I=   1 to  11.
 (rs|ai) integrals will be sorted in core.
 Complete sort for first half transformation.
 First half transformation complete.
 Begin second half transformation for I=  10.
 Begin second half transformation for I=  10.
 Complete sort for second half transformation.
 Second half transformation complete.
 ModeAB=           2 MOrb=            10 LenV=   21472013098
 LASXX=    133286310 LTotXX=   133286310 LenRXX=   243819030
 LTotAB=   125108175 MaxLAS=   243819030 LenRXY=   125108175
 NonZer=   266572620 LenScr=   401427456 LnRSAI=           0
 LnScr1=           0 LExtra=   430414307 Total=   1200768968
 MaxDsk= 67108864000 SrtSym=           F ITran=            4
 DoSDTr:  NPSUse= 32
 JobTyp=2 Pass  1:  I=   1 to  10.
 (rs|ai) integrals will be sorted in core.
 Complete sort for first half transformation.
 First half transformation complete.
 Begin second half transformation for I=  10.
 Begin second half transformation for I=  10.
 Complete sort for second half transformation.
 Second half transformation complete.
 SymMOI:  orbitals are not symmetric.
 Spin components of T(2) and E(2):
     alpha-alpha T2 =       0.1930703164D-01 E2=     -0.1783587421D+00
     alpha-beta  T2 =       0.7807443865D-01 E2=     -0.7462212200D+00
     beta-beta   T2 =       0.1666649970D-01 E2=     -0.1696229128D+00
 ANorm=    0.1055893583D+01
 E2 =    -0.1095092034D+01 EUMP2 =    -0.17958892896281D+04
 (S**2,0)=  0.75000D+00           (S**2,1)=  0.75000D+00
 E(PUHF)=      -0.17947941976D+04        E(PMP2)=      -0.17958892896D+04
 Leave Link  804 at Sat Apr 21 10:35:50 2018, MaxMem= 21474836480 cpu:            5305.8 elap:             166.7
 (Enter /home1/apps/gaussian/16rA.03/g16/l913.exe)
 CIDS:  MDV= 21474836480.
 Frozen-core window:  NFC=   5 NFV=   0.
 IFCWin=0 IBDFC=1 NFBD=     0     0 NFCmp=     0     0 NFFFC=     0     0
 Using original routines for 1st iteration.
 Using DD4UQ or CC4UQ for 2nd and later iterations.
 Keep R2 and R3 ints in memory in symmetry-blocked form, NReq=1456574125.
 FoFCou: FMM=F IPFlag=           8 FMFlag=           0 FMFlg1=           0
         NFxFlg=           0 DoJE=F BraDBF=F KetDBF=F FulRan=T
         wScrn=  0.000000 ICntrl=       600 IOpCl=  0 I1Cent=           0 NGrid=           0
         NMat0=    1 NMatS0=  48205 NMatT0=    0 NMatD0=    1 NMtDS0=    0 NMtDT0=    0
 Petite list used in FoFCou.
 CIDS: In Core Option IDoMem=           1.
 CCSD(T)
 =======
 Iterations= 150 Convergence= 0.100D-06
 Produce multiple copies of IABC intergrals
 Iteration Nr.   1
 **********************
 DD1Dir will call FoFMem   1 times, MxPair=       320
 NAB=   110 NAA=    55 NBB=    45.
 DD1Dir will call FoFMem   1 times, MxPair=       320
 NAB=   110 NAA=    55 NBB=    45.
 MP4(R+Q)= -0.16850828D+00
 Maximum subspace dimension=  5
 A-vector RMS=  9.0881413D-05 Max=  1.0995709D-03 conv= 1.00D-05.
 RLE energy=       -1.1056510211
 E3=        0.15800210D+00        EROMP3=      -0.17957312875D+04
 E4(SDQ)=  -0.98136933D-01        ROMP4(SDQ)=  -0.17958294245D+04
 VARIATIONAL ENERGIES WITH THE FIRST-ORDER WAVEFUNCTION:
 DE(Corr)=  -1.1055507     E(Corr)=     -1795.8997483    
 NORM(A)=   0.10566709D+01
 Iteration Nr.   2
 **********************
 DD1Dir will call FoFMem   1 times, MxPair=       320
 NAB=   110 NAA=    55 NBB=    45.
 A-vector RMS=  2.8391860D-03 Max=  2.5848178D-02 conv= 1.00D-05.
 RLE energy=       -1.0809303266
 DE(Corr)= -0.94033827     E(CORR)=     -1795.7345359     Delta= 1.65D-01
 NORM(A)=   0.10537372D+01
 Iteration Nr.   3
 **********************
 DD1Dir will call FoFMem   1 times, MxPair=       320
 NAB=   110 NAA=    55 NBB=    45.
 A-vector RMS=  2.2881150D-03 Max=  2.3307242D-02 conv= 1.00D-05.
 RLE energy=       -1.0271517518
 DE(Corr)= -0.95051016     E(CORR)=     -1795.7447078     Delta=-1.02D-02
 NORM(A)=   0.10517570D+01
 Iteration Nr.   4
 **********************
 DD1Dir will call FoFMem   1 times, MxPair=       320
 NAB=   110 NAA=    55 NBB=    45.
 A-vector RMS=  1.2839313D-03 Max=  1.5259203D-02 conv= 1.00D-05.
 RLE energy=       -0.9059307780
 DE(Corr)= -0.97619431     E(CORR)=     -1795.7703919     Delta=-2.57D-02
 NORM(A)=   0.10725140D+01
 Iteration Nr.   5
 **********************
 DD1Dir will call FoFMem   1 times, MxPair=       320
 NAB=   110 NAA=    55 NBB=    45.
 A-vector RMS=  2.3161706D-03 Max=  1.8242212D-02 conv= 1.00D-05.
 RLE energy=       -0.9899501389
 DE(Corr)=  -1.0474859     E(CORR)=     -1795.8416835     Delta=-7.13D-02
 NORM(A)=   0.10625730D+01
 Iteration Nr.   6
 **********************
 DD1Dir will call FoFMem   1 times, MxPair=       320
 NAB=   110 NAA=    55 NBB=    45.
 A-vector RMS=  2.0621478D-04 Max=  1.8793696D-03 conv= 1.00D-05.
 RLE energy=       -0.9975291129
 DE(Corr)=  -1.0013720     E(CORR)=     -1795.7955696     Delta= 4.61D-02
 NORM(A)=   0.10605373D+01
 Iteration Nr.   7
 **********************
 DD1Dir will call FoFMem   1 times, MxPair=       320
 NAB=   110 NAA=    55 NBB=    45.
 A-vector RMS=  6.8310336D-05 Max=  1.5902747D-03 conv= 1.00D-05.
 RLE energy=       -0.9965327328
 DE(Corr)= -0.99656184     E(CORR)=     -1795.7907594     Delta= 4.81D-03
 NORM(A)=   0.10610527D+01
 Iteration Nr.   8
 **********************
 DD1Dir will call FoFMem   1 times, MxPair=       320
 NAB=   110 NAA=    55 NBB=    45.
 A-vector RMS=  4.1402950D-05 Max=  5.8471438D-04 conv= 1.00D-05.
 RLE energy=       -0.9968318662
 DE(Corr)= -0.99701419     E(CORR)=     -1795.7912118     Delta=-4.52D-04
 NORM(A)=   0.10612549D+01
 Iteration Nr.   9
 **********************
 DD1Dir will call FoFMem   1 times, MxPair=       320
 NAB=   110 NAA=    55 NBB=    45.
 A-vector RMS=  1.8900753D-05 Max=  1.9180287D-04 conv= 1.00D-05.
 RLE energy=       -0.9968845597
 DE(Corr)= -0.99686949     E(CORR)=     -1795.7910671     Delta= 1.45D-04
 NORM(A)=   0.10613697D+01
 Iteration Nr.  10
 **********************
 DD1Dir will call FoFMem   1 times, MxPair=       320
 NAB=   110 NAA=    55 NBB=    45.
 A-vector RMS=  6.7801669D-06 Max=  1.1584856D-04 conv= 1.00D-05.
 RLE energy=       -0.9968795729
 DE(Corr)= -0.99689108     E(CORR)=     -1795.7910887     Delta=-2.16D-05
 NORM(A)=   0.10613642D+01
 Iteration Nr.  11
 **********************
 DD1Dir will call FoFMem   1 times, MxPair=       320
 NAB=   110 NAA=    55 NBB=    45.
 A-vector RMS=  3.5098024D-06 Max=  5.7704598D-05 conv= 1.00D-05.
 RLE energy=       -0.9968781920
 DE(Corr)= -0.99688881     E(CORR)=     -1795.7910864     Delta= 2.26D-06
 NORM(A)=   0.10613477D+01
 Iteration Nr.  12
 **********************
 DD1Dir will call FoFMem   1 times, MxPair=       320
 NAB=   110 NAA=    55 NBB=    45.
 A-vector RMS=  1.5853541D-06 Max=  3.3171412D-05 conv= 1.00D-05.
 RLE energy=       -0.9968851627
 DE(Corr)= -0.99688462     E(CORR)=     -1795.7910822     Delta= 4.20D-06
 NORM(A)=   0.10613416D+01
 Iteration Nr.  13
 **********************
 DD1Dir will call FoFMem   1 times, MxPair=       320
 NAB=   110 NAA=    55 NBB=    45.
 A-vector RMS=  6.4287949D-07 Max=  1.2941949D-05 conv= 1.00D-05.
 RLE energy=       -0.9968788197
 DE(Corr)= -0.99687906     E(CORR)=     -1795.7910766     Delta= 5.56D-06
 NORM(A)=   0.10613392D+01
 Iteration Nr.  14
 **********************
 DD1Dir will call FoFMem   1 times, MxPair=       320
 NAB=   110 NAA=    55 NBB=    45.
 A-vector RMS=  2.6592704D-07 Max=  3.9341872D-06 conv= 1.00D-05.
 RLE energy=       -0.9968801039
 DE(Corr)= -0.99688095     E(CORR)=     -1795.7910785     Delta=-1.89D-06
 NORM(A)=   0.10613387D+01
 Iteration Nr.  15
 **********************
 DD1Dir will call FoFMem   1 times, MxPair=       320
 NAB=   110 NAA=    55 NBB=    45.
 A-vector RMS=  1.4025817D-07 Max=  2.1187241D-06 conv= 1.00D-05.
 RLE energy=       -0.9968800002
 DE(Corr)= -0.99687990     E(CORR)=     -1795.7910775     Delta= 1.05D-06
 NORM(A)=   0.10613392D+01
 Iteration Nr.  16
 **********************
 DD1Dir will call FoFMem   1 times, MxPair=       320
 NAB=   110 NAA=    55 NBB=    45.
 A-vector RMS=  8.0425301D-08 Max=  1.3340352D-06 conv= 1.00D-05.
 RLE energy=       -0.9968802309
 DE(Corr)= -0.99688027     E(CORR)=     -1795.7910779     Delta=-3.71D-07
 NORM(A)=   0.10613397D+01
 Iteration Nr.  17
 **********************
 DD1Dir will call FoFMem   1 times, MxPair=       320
 NAB=   110 NAA=    55 NBB=    45.
 A-vector RMS=  4.8575911D-08 Max=  9.0514206D-07 conv= 1.00D-05.
 RLE energy=       -0.9968803037
 DE(Corr)= -0.99688023     E(CORR)=     -1795.7910778     Delta= 3.96D-08
 NORM(A)=   0.10613402D+01
 CI/CC converged in   17 iterations to DelEn= 3.96D-08 Conv= 1.00D-07 ErrA1= 4.86D-08 Conv= 1.00D-05
 Wavefunction amplitudes converged. E(Corr)=     -1795.7910778    
 Largest amplitude= 6.73D-02
 Time for triples=    32679.78 seconds.
 T4(CCSD)= -0.31615028D-01
 T5(CCSD)=  0.31884945D-02
 CCSD(T)= -0.17958195044D+04
 Discarding MO integrals.
 Leave Link  913 at Sat Apr 21 11:03:04 2018, MaxMem= 21474836480 cpu:           51932.1 elap:            1633.9
 (Enter /home1/apps/gaussian/16rA.03/g16/l601.exe)
 Copying SCF densities to generalized density rwf, IOpCl= 0 IROHF=1.

 **********************************************************************

            Population analysis using the SCF density.

 **********************************************************************

 Orbital symmetries:
       Occupied  (SG) (SG) (PI) (PI) (SG) (SG) (PI) (PI) (SG) (SG)
                 (DLTA) (DLTA) (PI) (PI) (SG) (SG)
       Virtual   (PI) (PI) (SG) (SG) (PI) (PI) (SG) (SG) (SG) (PI)
                 (PI) (DLTA) (DLTA) (SG) (PI) (PI) (SG) (PI) (PI)
                 (SG) (SG) (PI) (PI) (DLTA) (DLTA) (SG) (DLTA)
                 (DLTA) (SG) (SG) (PI) (PI) (PI) (PI) (SG) (PI)
                 (PI) (PHI) (PHI) (DLTA) (DLTA) (SG) (PI) (PI)
                 (SG) (DLTA) (DLTA) (PHI) (PHI) (PI) (PI) (SG)
                 (SG) (DLTA) (DLTA) (PI) (PI) (SG) (DLTA) (DLTA)
                 (PI) (PI) (SG) (PI) (PI) (SG) (SG) (PI) (PI) (PHI)
                 (PHI) (DLTA) (DLTA) (SG) (PI) (PI) (DLTA) (DLTA)
                 (PI) (PI) (?A) (?A) (PHI) (PHI) (SG) (DLTA) (DLTA)
                 (SG) (PI) (PI) (SG) (SG) (PHI) (PHI) (DLTA) (DLTA)
                 (PI) (PI) (PI) (PI) (SG) (SG) (PI) (PI) (PHI)
                 (PHI) (SG) (DLTA) (DLTA) (PI) (PI) (DLTA) (DLTA)
                 (DLTA) (DLTA) (SG) (PI) (PI) (PI) (PI) (SG) (SG)
                 (SG) (?A) (?A) (PHI) (PHI) (DLTA) (DLTA) (PI)
                 (PI) (?B) (?B) (?A) (?A) (PHI) (PHI) (DLTA) (DLTA)
                 (SG) (PI) (PI) (SG) (PI) (PI) (DLTA) (DLTA) (SG)
                 (PI) (PI) (SG) (PHI) (PHI) (DLTA) (DLTA) (PI)
                 (PI) (SG) (SG) (?A) (?A) (PHI) (PHI) (DLTA) (DLTA)
                 (PI) (PI) (SG) (SG) (?B) (?B) (?A) (?A) (PHI)
                 (PHI) (DLTA) (DLTA) (PI) (PI) (SG) (DLTA) (DLTA)
                 (PI) (PI) (SG) (PI) (PI) (SG) (PHI) (PHI) (DLTA)
                 (DLTA) (PI) (PI) (SG) (SG) (DLTA) (DLTA) (PI)
                 (PI) (SG) (?A) (?A) (PHI) (PHI) (DLTA) (DLTA)
                 (PI) (PI) (SG) (?B) (?B) (?A) (?A) (PHI) (PHI)
                 (DLTA) (DLTA) (PI) (PI) (SG) (PI) (PI) (SG) (DLTA)
                 (DLTA) (PI) (PI) (SG) (SG) (PI) (PI) (SG) (SG)
                 (DLTA) (DLTA) (PI) (PI) (SG) (PI) (PI) (SG) (SG)
                 (DLTA) (DLTA) (PI) (PI) (SG) (PI) (PI) (SG) (SG)
                 (DLTA) (DLTA) (PI) (PI) (SG) (PI) (PI) (SG) (SG)
                 (DLTA) (DLTA) (PI) (PI) (SG) (PI) (PI) (SG) (SG)
                 (PI) (PI) (SG) (SG) (PI) (PI) (SG) (SG) (PI) (PI)
                 (SG) (SG) (PI) (PI) (SG) (SG) (SG) (SG) (SG) (SG)
 The electronic state is 2-SG.
 Alpha  occ. eigenvalues -- -357.59286 -45.36219 -39.16487 -39.16487 -39.16411
 Alpha  occ. eigenvalues --   -5.83227  -3.91231  -3.91018  -3.91018  -0.80599
 Alpha  occ. eigenvalues --   -0.79818  -0.79818  -0.79472  -0.79472  -0.47647
 Alpha  occ. eigenvalues --   -0.27186
 Alpha virt. eigenvalues --    0.02010   0.02010   0.02613   0.03687   0.06809
 Alpha virt. eigenvalues --    0.06809   0.07931   0.14282   0.17531   0.17880
 Alpha virt. eigenvalues --    0.17880   0.18171   0.18171   0.21515   0.23334
 Alpha virt. eigenvalues --    0.23334   0.27988   0.31025   0.31025   0.43440
 Alpha virt. eigenvalues --    0.50539   0.53833   0.53833   0.57389   0.57389
 Alpha virt. eigenvalues --    0.62789   0.68352   0.68352   0.72748   0.74887
 Alpha virt. eigenvalues --    0.76710   0.76710   0.79895   0.79895   0.99968
 Alpha virt. eigenvalues --    1.04464   1.04464   1.08127   1.08127   1.25480
 Alpha virt. eigenvalues --    1.25480   1.32052   1.43678   1.43678   1.51596
 Alpha virt. eigenvalues --    1.54638   1.54638   1.63742   1.63742   1.69771
 Alpha virt. eigenvalues --    1.69771   1.86653   1.93519   1.97325   1.97325
 Alpha virt. eigenvalues --    1.97659   1.97659   2.07876   2.50954   2.50954
 Alpha virt. eigenvalues --    2.58760   2.58760   2.60135   2.71586   2.71586
 Alpha virt. eigenvalues --    2.94529   3.19766   3.22308   3.22308   3.25418
 Alpha virt. eigenvalues --    3.25418   3.34667   3.34667   3.76196   3.77170
 Alpha virt. eigenvalues --    3.77170   3.81088   3.81088   3.88589   3.88589
 Alpha virt. eigenvalues --    3.89946   3.89946   3.99101   3.99101   4.02983
 Alpha virt. eigenvalues --    4.37392   4.37392   4.67745   4.96446   4.96446
 Alpha virt. eigenvalues --    5.07223   6.56214   6.61152   6.61152   6.78983
 Alpha virt. eigenvalues --    6.78983   7.21907   7.21907   7.42416   7.42416
 Alpha virt. eigenvalues --    7.44685   7.66668   8.27751   8.27751   8.36535
 Alpha virt. eigenvalues --    8.36535   8.43253   8.43831   8.43831   8.50083
 Alpha virt. eigenvalues --    8.50083   8.51192   8.51192   8.56152   8.56152
 Alpha virt. eigenvalues --    8.80255   9.04658   9.04658   9.21627   9.21627
 Alpha virt. eigenvalues --    9.41555   9.83613  10.37021  10.42647  10.42647
 Alpha virt. eigenvalues --   10.47413  10.47413  10.65868  10.65868  10.79899
 Alpha virt. eigenvalues --   10.79899  10.96031  10.96031  10.96520  10.96520
 Alpha virt. eigenvalues --   10.97892  10.97892  11.18594  11.18594  11.62086
 Alpha virt. eigenvalues --   12.04026  12.04026  13.21294  17.21654  17.21654
 Alpha virt. eigenvalues --   17.24796  17.24796  17.30999  17.37067  17.37067
 Alpha virt. eigenvalues --   18.10472  20.57212  20.57212  20.62908  20.62908
 Alpha virt. eigenvalues --   20.93757  20.93757  21.28772  23.63930  24.58659
 Alpha virt. eigenvalues --   24.58659  24.61720  24.61720  24.75411  24.75411
 Alpha virt. eigenvalues --   24.90512  24.90512  25.08326  26.86119  27.18074
 Alpha virt. eigenvalues --   27.18074  27.18420  27.18420  27.19087  27.19087
 Alpha virt. eigenvalues --   27.25592  27.25592  27.54382  27.54382  28.34909
 Alpha virt. eigenvalues --   31.92970  31.92970  32.00064  32.00064  32.25673
 Alpha virt. eigenvalues --   35.35218  35.35218  36.16062  50.28078  50.28078
 Alpha virt. eigenvalues --   50.32148  50.32148  50.53402  50.53402  50.81024
 Alpha virt. eigenvalues --   52.28890  55.30065  55.30065  55.36539  55.36539
 Alpha virt. eigenvalues --   55.65966  56.06217  56.06217  56.08405  56.08405
 Alpha virt. eigenvalues --   56.17745  56.17745  56.29153  56.29153  56.38588
 Alpha virt. eigenvalues --   61.48203  61.48203  61.48648  61.48648  61.49170
 Alpha virt. eigenvalues --   61.49170  61.52625  61.52625  61.67829  61.67829
 Alpha virt. eigenvalues --   61.82937  67.65288  67.65288  68.66500  92.18922
 Alpha virt. eigenvalues --   92.18922  92.25039  92.25039  92.50148 120.45689
 Alpha virt. eigenvalues --  128.91858 128.91858 130.11959 157.19130 158.02541
 Alpha virt. eigenvalues --  158.02541 158.08105 158.08105 158.32239 253.14258
 Alpha virt. eigenvalues --  253.14258 254.27249 292.74900 307.62062 307.62062
 Alpha virt. eigenvalues --  307.66650 307.66650 307.87096 514.28479 514.28479
 Alpha virt. eigenvalues --  515.39989 707.58602 722.06986 722.06986 722.10402
 Alpha virt. eigenvalues --  722.10402 722.256431073.415831073.415831074.43889
 Alpha virt. eigenvalues -- 1643.113482146.406862146.406862146.427892146.42789
 Alpha virt. eigenvalues -- 2146.516952288.056222288.056222288.947513650.55138
 Alpha virt. eigenvalues -- 4953.649284953.649284954.375107750.65577**********
 Alpha virt. eigenvalues -- **************************************************
 Alpha virt. eigenvalues -- **************************************************
 Alpha virt. eigenvalues -- **************************************************
     Molecular Orbital Coefficients:
                          11        12        13        14        15
                           O         O         O         O         O
     Eigenvalues --    -0.79818  -0.79818  -0.79472  -0.79472  -0.47647
   1 1   Zn 1S          0.00000   0.00000   0.00000   0.00000  -0.00000
   2        2S          0.00000   0.00000   0.00000   0.00000  -0.00000
   3        3S          0.00000   0.00000   0.00000   0.00000  -0.00001
   4        4S          0.00000   0.00000   0.00000   0.00000  -0.00003
   5        5S          0.00000   0.00000   0.00000  -0.00000  -0.00006
   6        6S          0.00000   0.00000   0.00000   0.00000  -0.00014
   7        7S          0.00000   0.00000  -0.00000   0.00000  -0.00033
   8        8S          0.00000   0.00000   0.00000   0.00000  -0.00079
   9        9S          0.00000   0.00000  -0.00000   0.00000  -0.00184
  10       10S          0.00000   0.00000   0.00000   0.00000  -0.00404
  11       11S          0.00000   0.00000  -0.00000   0.00000  -0.00777
  12       12S          0.00000   0.00000   0.00000   0.00000  -0.01175
  13       13S          0.00000   0.00000  -0.00000  -0.00000  -0.00835
  14       14S         -0.00000  -0.00000   0.00000  -0.00000   0.01871
  15       15S         -0.00000  -0.00000  -0.00000  -0.00000   0.06588
  16       16S          0.00000   0.00000   0.00000  -0.00000   0.05776
  17       17S         -0.00000  -0.00000  -0.00000   0.00000  -0.12397
  18       18S         -0.00000  -0.00000   0.00000   0.00000  -0.19466
  19       19S          0.00000   0.00000  -0.00000  -0.00000  -0.11943
  20       20S          0.00000   0.00000  -0.00000  -0.00000   0.26159
  21       21S         -0.00000  -0.00000   0.00000   0.00000   0.21571
  22       22S          0.00000   0.00000  -0.00000  -0.00000   0.02514
  23       23S         -0.00000  -0.00000  -0.00000   0.00000   0.00499
  24       24S          0.00000   0.00000   0.00000  -0.00000   0.06881
  25       25S          0.00000   0.00000  -0.00000   0.00000  -0.00552
  26       26PX        -0.00000   0.00000  -0.00000   0.00000   0.00000
  27       26PY         0.00000  -0.00000   0.00000   0.00000  -0.00000
  28       26PZ         0.00000   0.00000  -0.00000  -0.00000  -0.00000
  29       27PX         0.00000   0.00000  -0.00000   0.00000   0.00000
  30       27PY        -0.00000   0.00000   0.00000   0.00000  -0.00000
  31       27PZ         0.00000   0.00000  -0.00000  -0.00000  -0.00001
  32       28PX        -0.00000   0.00000  -0.00000   0.00000   0.00000
  33       28PY        -0.00000  -0.00000   0.00000   0.00000  -0.00000
  34       28PZ         0.00000   0.00000  -0.00000  -0.00000  -0.00003
  35       29PX        -0.00000   0.00000  -0.00000   0.00000   0.00000
  36       29PY        -0.00000   0.00000   0.00000   0.00000   0.00000
  37       29PZ         0.00000   0.00000  -0.00000  -0.00000  -0.00011
  38       30PX        -0.00000   0.00000  -0.00000   0.00000   0.00000
  39       30PY        -0.00000  -0.00000   0.00000   0.00000  -0.00000
  40       30PZ         0.00000   0.00000  -0.00000  -0.00000  -0.00039
  41       31PX        -0.00000   0.00000  -0.00000   0.00001   0.00000
  42       31PY        -0.00000   0.00000   0.00001   0.00000  -0.00000
  43       31PZ         0.00000   0.00000  -0.00000  -0.00000  -0.00117
  44       32PX        -0.00000   0.00000  -0.00001   0.00003   0.00000
  45       32PY        -0.00000   0.00000   0.00003   0.00001  -0.00000
  46       32PZ         0.00000   0.00000  -0.00000  -0.00000  -0.00314
  47       33PX        -0.00000   0.00000  -0.00003   0.00007   0.00000
  48       33PY        -0.00000   0.00000   0.00007   0.00003  -0.00000
  49       33PZ         0.00000   0.00000  -0.00000  -0.00000  -0.00686
  50       34PX        -0.00000   0.00000  -0.00005   0.00012   0.00000
  51       34PY        -0.00000   0.00000   0.00012   0.00005  -0.00000
  52       34PZ         0.00000   0.00000  -0.00000  -0.00000  -0.01201
  53       35PX         0.00000   0.00000  -0.00005   0.00012   0.00000
  54       35PY        -0.00000   0.00000   0.00012   0.00005  -0.00000
  55       35PZ         0.00000   0.00000  -0.00000  -0.00000  -0.01335
  56       36PX         0.00000   0.00000   0.00008  -0.00018   0.00000
  57       36PY        -0.00000  -0.00000  -0.00018  -0.00008   0.00000
  58       36PZ         0.00000   0.00000  -0.00000  -0.00000   0.00230
  59       37PX        -0.00000  -0.00000   0.00003  -0.00007  -0.00000
  60       37PY         0.00000  -0.00000  -0.00007  -0.00003   0.00000
  61       37PZ        -0.00000  -0.00000   0.00000   0.00000   0.02066
  62       38PX        -0.00000  -0.00000   0.00001  -0.00002   0.00000
  63       38PY        -0.00000  -0.00000  -0.00002  -0.00001   0.00000
  64       38PZ        -0.00000  -0.00000  -0.00000  -0.00000   0.03268
  65       39PX        -0.00000  -0.00000   0.00020  -0.00049  -0.00000
  66       39PY         0.00000   0.00000  -0.00049  -0.00020   0.00000
  67       39PZ        -0.00000  -0.00000   0.00000   0.00000   0.04918
  68       40PX        -0.00000  -0.00000  -0.00013   0.00031  -0.00000
  69       40PY         0.00000  -0.00000   0.00031   0.00013   0.00000
  70       40PZ        -0.00000  -0.00000  -0.00000  -0.00000   0.00764
  71       41PX         0.00000   0.00000   0.00018  -0.00043  -0.00000
  72       41PY         0.00000   0.00000  -0.00043  -0.00018   0.00000
  73       41PZ         0.00000   0.00000   0.00000  -0.00000  -0.08597
  74       42PX         0.00000   0.00000  -0.00006   0.00014  -0.00000
  75       42PY         0.00000   0.00000   0.00014   0.00006   0.00000
  76       42PZ         0.00000   0.00000  -0.00000  -0.00000  -0.08389
  77       43PX         0.00000   0.00000  -0.00020   0.00047  -0.00000
  78       43PY        -0.00000   0.00000   0.00047   0.00020   0.00000
  79       43PZ         0.00000   0.00000  -0.00000  -0.00000  -0.00787
  80       44PX        -0.00000   0.00000  -0.00008   0.00019  -0.00000
  81       44PY         0.00000   0.00000   0.00019   0.00008  -0.00000
  82       44PZ        -0.00000  -0.00000   0.00000   0.00000  -0.00500
  83       45PX         0.00000  -0.00000   0.00021  -0.00051  -0.00000
  84       45PY         0.00000   0.00000  -0.00051  -0.00021   0.00000
  85       45PZ        -0.00000  -0.00000   0.00000   0.00000   0.01299
  86       46PX         0.00000   0.00000   0.00003  -0.00008   0.00000
  87       46PY        -0.00000  -0.00000  -0.00008  -0.00003   0.00000
  88       46PZ         0.00000   0.00000   0.00000  -0.00000  -0.00005
  89       47D 0       -0.00000  -0.00000   0.00000   0.00000  -0.00005
  90       47D+1       -0.00000  -0.00000  -0.00009   0.00022   0.00000
  91       47D-1       -0.00000  -0.00000   0.00022   0.00009   0.00000
  92       47D+2        0.00002   0.00024   0.00000   0.00000   0.00000
  93       47D-2        0.00024  -0.00002  -0.00000   0.00000   0.00000
  94       48D 0       -0.00000  -0.00000   0.00000   0.00000  -0.00042
  95       48D+1       -0.00000  -0.00000  -0.00079   0.00188   0.00000
  96       48D-1       -0.00000  -0.00000   0.00188   0.00079   0.00000
  97       48D+2        0.00014   0.00204   0.00000   0.00000   0.00000
  98       48D-2        0.00204  -0.00014  -0.00000   0.00000   0.00000
  99       49D 0       -0.00000  -0.00000   0.00000   0.00000  -0.00222
 100       49D+1       -0.00000  -0.00000  -0.00418   0.01000   0.00000
 101       49D-1       -0.00000  -0.00000   0.01000   0.00418   0.00000
 102       49D+2        0.00073   0.01083   0.00000   0.00000   0.00000
 103       49D-2        0.01083  -0.00073  -0.00000   0.00000   0.00000
 104       50D 0       -0.00000  -0.00000   0.00000   0.00000  -0.00798
 105       50D+1       -0.00000  -0.00000  -0.01505   0.03601   0.00000
 106       50D-1       -0.00000  -0.00000   0.03601   0.01505   0.00000
 107       50D+2        0.00262   0.03899   0.00000   0.00000   0.00000
 108       50D-2        0.03899  -0.00262  -0.00000   0.00000   0.00000
 109       51D 0       -0.00000  -0.00000   0.00000   0.00000  -0.02138
 110       51D+1       -0.00000  -0.00000  -0.04020   0.09617   0.00000
 111       51D-1       -0.00000  -0.00000   0.09617   0.04020   0.00000
 112       51D+2        0.00701   0.10411   0.00000   0.00000   0.00000
 113       51D-2        0.10411  -0.00701  -0.00000   0.00000   0.00000
 114       52D 0       -0.00000  -0.00000   0.00000   0.00000  -0.04160
 115       52D+1       -0.00000  -0.00000  -0.07784   0.18622   0.00000
 116       52D-1       -0.00000  -0.00000   0.18622   0.07784   0.00000
 117       52D+2        0.01356   0.20143   0.00000   0.00000   0.00000
 118       52D-2        0.20143  -0.01356  -0.00000   0.00000   0.00000
 119       53D 0       -0.00000  -0.00000   0.00000   0.00000  -0.05786
 120       53D+1       -0.00000  -0.00000  -0.10932   0.26154   0.00000
 121       53D-1       -0.00000  -0.00000   0.26154   0.10932   0.00000
 122       53D+2        0.01905   0.28295   0.00000   0.00000   0.00000
 123       53D-2        0.28295  -0.01905  -0.00000   0.00000   0.00000
 124       54D 0       -0.00000  -0.00000   0.00000   0.00000  -0.06109
 125       54D+1       -0.00000  -0.00000  -0.11618   0.27795   0.00000
 126       54D-1       -0.00000  -0.00000   0.27795   0.11618   0.00000
 127       54D+2        0.02026   0.30101   0.00000   0.00000   0.00000
 128       54D-2        0.30101  -0.02026  -0.00000   0.00000   0.00000
 129       55D 0       -0.00000  -0.00000   0.00000   0.00000  -0.04714
 130       55D+1       -0.00000  -0.00000  -0.09510   0.22751   0.00000
 131       55D-1       -0.00000  -0.00000   0.22751   0.09510   0.00000
 132       55D+2        0.01661   0.24673   0.00000   0.00000   0.00000
 133       55D-2        0.24673  -0.01661  -0.00000   0.00000   0.00000
 134       56D 0       -0.00000  -0.00000   0.00000   0.00000  -0.01938
 135       56D+1       -0.00000  -0.00000  -0.05403   0.12926   0.00000
 136       56D-1       -0.00000  -0.00000   0.12926   0.05403   0.00000
 137       56D+2        0.00947   0.14062   0.00000   0.00000  -0.00000
 138       56D-2        0.14062  -0.00947  -0.00000   0.00000   0.00000
 139       57D 0       -0.00000  -0.00000   0.00000   0.00000   0.00364
 140       57D+1       -0.00000  -0.00000  -0.01411   0.03377   0.00000
 141       57D-1       -0.00000  -0.00000   0.03377   0.01411  -0.00000
 142       57D+2        0.00237   0.03515   0.00000   0.00000  -0.00000
 143       57D-2        0.03515  -0.00237  -0.00000   0.00000   0.00000
 144       58D 0       -0.00000  -0.00000  -0.00000  -0.00000  -0.00003
 145       58D+1       -0.00000  -0.00000  -0.00041   0.00097  -0.00000
 146       58D-1       -0.00000  -0.00000   0.00097   0.00041  -0.00000
 147       58D+2        0.00008   0.00114   0.00000   0.00000   0.00000
 148       58D-2        0.00114  -0.00008  -0.00000  -0.00000  -0.00000
 149       59D 0       -0.00000  -0.00000  -0.00000  -0.00000  -0.00002
 150       59D+1       -0.00000  -0.00000  -0.00045   0.00108  -0.00000
 151       59D-1       -0.00000  -0.00000   0.00108   0.00045  -0.00000
 152       59D+2        0.00009   0.00137   0.00000   0.00000   0.00000
 153       59D-2        0.00137  -0.00009  -0.00000  -0.00000  -0.00000
 154       60D 0       -0.00000   0.00000   0.00000   0.00000   0.00482
 155       60D+1       -0.00000  -0.00000  -0.00023   0.00054   0.00000
 156       60D-1        0.00000   0.00000   0.00054   0.00023  -0.00000
 157       60D+2        0.00002   0.00025  -0.00000  -0.00000  -0.00000
 158       60D-2        0.00025  -0.00002   0.00000   0.00000   0.00000
 159       61F 0       -0.00000  -0.00000  -0.00000   0.00000  -0.00008
 160       61F+1       -0.00000  -0.00000  -0.00003   0.00007   0.00000
 161       61F-1       -0.00000  -0.00000   0.00007   0.00003  -0.00000
 162       61F+2        0.00000   0.00006   0.00000   0.00000  -0.00000
 163       61F-2        0.00006  -0.00000  -0.00000  -0.00000   0.00000
 164       61F+3       -0.00000  -0.00000  -0.00000   0.00000  -0.00000
 165       61F-3       -0.00000  -0.00000  -0.00000   0.00000  -0.00000
 166       62F 0       -0.00000  -0.00000  -0.00000  -0.00000  -0.00027
 167       62F+1       -0.00000  -0.00000  -0.00006   0.00014   0.00000
 168       62F-1       -0.00000  -0.00000   0.00014   0.00006  -0.00000
 169       62F+2        0.00001   0.00014   0.00000   0.00000  -0.00000
 170       62F-2        0.00014  -0.00001  -0.00000   0.00000   0.00000
 171       62F+3       -0.00000  -0.00000  -0.00000   0.00000  -0.00000
 172       62F-3       -0.00000  -0.00000  -0.00000  -0.00000  -0.00000
 173       63F 0       -0.00000  -0.00000   0.00000   0.00000  -0.00093
 174       63F+1       -0.00000  -0.00000  -0.00019   0.00046   0.00000
 175       63F-1       -0.00000  -0.00000   0.00046   0.00019  -0.00000
 176       63F+2        0.00003   0.00038   0.00000   0.00000  -0.00000
 177       63F-2        0.00038  -0.00003  -0.00000   0.00000   0.00000
 178       63F+3       -0.00000  -0.00000  -0.00000   0.00000  -0.00000
 179       63F-3       -0.00000  -0.00000  -0.00000   0.00000  -0.00000
 180       64F 0        0.00000   0.00000  -0.00000  -0.00000  -0.00383
 181       64F+1       -0.00000  -0.00000  -0.00023   0.00055   0.00000
 182       64F-1       -0.00000  -0.00000   0.00055   0.00023  -0.00000
 183       64F+2        0.00006   0.00083   0.00000   0.00000  -0.00000
 184       64F-2        0.00083  -0.00006  -0.00000   0.00000   0.00000
 185       64F+3       -0.00000  -0.00000  -0.00000   0.00000  -0.00000
 186       64F-3       -0.00000  -0.00000  -0.00000   0.00000  -0.00000
 187       65F 0        0.00000  -0.00000  -0.00000  -0.00000  -0.00432
 188       65F+1       -0.00000  -0.00000   0.00012  -0.00028   0.00000
 189       65F-1       -0.00000  -0.00000  -0.00028  -0.00012  -0.00000
 190       65F+2        0.00000   0.00001  -0.00000   0.00000  -0.00000
 191       65F-2        0.00001  -0.00000  -0.00000  -0.00000   0.00000
 192       65F+3       -0.00000  -0.00000  -0.00000   0.00000  -0.00000
 193       65F-3       -0.00000   0.00000  -0.00000   0.00000  -0.00000
 194       66G 0       -0.00000   0.00000  -0.00000   0.00000   0.00001
 195       66G+1        0.00000   0.00000   0.00001  -0.00003  -0.00000
 196       66G-1        0.00000   0.00000  -0.00003  -0.00001   0.00000
 197       66G+2       -0.00000  -0.00002  -0.00000  -0.00000   0.00000
 198       66G-2       -0.00002   0.00000   0.00000  -0.00000  -0.00000
 199       66G+3        0.00000   0.00000   0.00000  -0.00000   0.00000
 200       66G-3        0.00000   0.00000   0.00000   0.00000  -0.00000
 201       66G+4       -0.00000  -0.00000   0.00000  -0.00000  -0.00000
 202       66G-4       -0.00000  -0.00000   0.00000  -0.00000  -0.00000
 203       67G 0        0.00000   0.00000  -0.00000  -0.00000   0.00007
 204       67G+1        0.00000   0.00000   0.00004  -0.00010  -0.00000
 205       67G-1        0.00000   0.00000  -0.00010  -0.00004   0.00000
 206       67G+2       -0.00000  -0.00007  -0.00000  -0.00000   0.00000
 207       67G-2       -0.00007   0.00000   0.00000  -0.00000  -0.00000
 208       67G+3        0.00000   0.00000   0.00000  -0.00000   0.00000
 209       67G-3        0.00000   0.00000   0.00000   0.00000   0.00000
 210       67G+4        0.00000   0.00000   0.00000   0.00000   0.00000
 211       67G-4        0.00000   0.00000  -0.00000   0.00000   0.00000
 212       68G 0       -0.00000  -0.00000  -0.00000   0.00000   0.00012
 213       68G+1        0.00000   0.00000   0.00002  -0.00005  -0.00000
 214       68G-1        0.00000  -0.00000  -0.00005  -0.00002   0.00000
 215       68G+2       -0.00000  -0.00005  -0.00000  -0.00000   0.00000
 216       68G-2       -0.00005   0.00000   0.00000  -0.00000  -0.00000
 217       68G+3        0.00000   0.00000   0.00000  -0.00000   0.00000
 218       68G-3        0.00000   0.00000   0.00000   0.00000   0.00000
 219       68G+4       -0.00000  -0.00000  -0.00000  -0.00000   0.00000
 220       68G-4       -0.00000  -0.00000   0.00000  -0.00000  -0.00000
 221       69G 0        0.00000   0.00000  -0.00000   0.00000   0.00086
 222       69G+1        0.00000   0.00000   0.00025  -0.00061  -0.00000
 223       69G-1        0.00000   0.00000  -0.00061  -0.00025   0.00000
 224       69G+2       -0.00004  -0.00065  -0.00000  -0.00000   0.00000
 225       69G-2       -0.00065   0.00004   0.00000  -0.00000  -0.00000
 226       69G+3        0.00000   0.00000   0.00000   0.00000   0.00000
 227       69G-3        0.00000   0.00000  -0.00000  -0.00000   0.00000
 228       69G+4        0.00000   0.00000   0.00000   0.00000   0.00000
 229       69G-4        0.00000   0.00000  -0.00000   0.00000  -0.00000
 230       70H 0        0.00000   0.00000  -0.00000  -0.00000   0.00000
 231       70H+1        0.00000   0.00000   0.00000  -0.00001   0.00000
 232       70H-1        0.00000   0.00000  -0.00001  -0.00000  -0.00000
 233       70H+2       -0.00000  -0.00000  -0.00000  -0.00000   0.00000
 234       70H-2       -0.00000   0.00000  -0.00000   0.00000   0.00000
 235       70H+3       -0.00000  -0.00000   0.00000  -0.00000  -0.00000
 236       70H-3       -0.00000   0.00000  -0.00000  -0.00000  -0.00000
 237       70H+4       -0.00000  -0.00000   0.00000   0.00000   0.00000
 238       70H-4       -0.00000   0.00000  -0.00000   0.00000  -0.00000
 239       70H+5        0.00000  -0.00000   0.00000  -0.00000  -0.00000
 240       70H-5       -0.00000   0.00000   0.00000   0.00000   0.00000
 241       71H 0       -0.00000  -0.00000   0.00000   0.00000  -0.00002
 242       71H+1       -0.00000  -0.00000  -0.00002   0.00005   0.00000
 243       71H-1       -0.00000  -0.00000   0.00005   0.00002  -0.00000
 244       71H+2        0.00000   0.00002   0.00000   0.00000   0.00000
 245       71H-2        0.00002  -0.00000  -0.00000   0.00000   0.00000
 246       71H+3       -0.00000   0.00000  -0.00000   0.00000  -0.00000
 247       71H-3       -0.00000  -0.00000  -0.00000  -0.00000  -0.00000
 248       71H+4        0.00000   0.00000   0.00000  -0.00000   0.00000
 249       71H-4       -0.00000  -0.00000   0.00000   0.00000   0.00000
 250       71H+5        0.00000   0.00000  -0.00000   0.00000   0.00000
 251       71H-5        0.00000  -0.00000  -0.00000  -0.00000  -0.00000
 252       72H 0        0.00000   0.00000  -0.00000  -0.00000   0.00001
 253       72H+1        0.00000   0.00000   0.00006  -0.00014   0.00000
 254       72H-1        0.00000   0.00000  -0.00014  -0.00006  -0.00000
 255       72H+2       -0.00000  -0.00005  -0.00000  -0.00000  -0.00000
 256       72H-2       -0.00005   0.00000  -0.00000  -0.00000   0.00000
 257       72H+3       -0.00000  -0.00000  -0.00000   0.00000  -0.00000
 258       72H-3       -0.00000   0.00000   0.00000   0.00000  -0.00000
 259       72H+4        0.00000   0.00000  -0.00000   0.00000  -0.00000
 260       72H-4        0.00000   0.00000  -0.00000  -0.00000  -0.00000
 261       72H+5        0.00000  -0.00000   0.00000  -0.00000  -0.00000
 262       72H-5        0.00000   0.00000   0.00000  -0.00000   0.00000
 263 2   H  1S         -0.00000  -0.00000   0.00000   0.00000   0.00151
 264        2S         -0.00000  -0.00000   0.00000   0.00000   0.01153
 265        3S         -0.00000  -0.00000   0.00000   0.00000   0.05382
 266        4S         -0.00000  -0.00000   0.00000   0.00000   0.16743
 267        5S         -0.00000  -0.00000   0.00000   0.00000   0.30028
 268        6S         -0.00000  -0.00000   0.00000   0.00000   0.17464
 269        7S         -0.00000  -0.00000   0.00000   0.00000   0.01047
 270        8PX         0.00000   0.00000   0.00035  -0.00084   0.00000
 271        8PY         0.00000   0.00000  -0.00084  -0.00035  -0.00000
 272        8PZ        -0.00000  -0.00000   0.00000   0.00000   0.00139
 273        9PX         0.00000   0.00000   0.00130  -0.00310   0.00000
 274        9PY         0.00000   0.00000  -0.00310  -0.00130  -0.00000
 275        9PZ        -0.00000  -0.00000   0.00000   0.00000   0.01030
 276       10PX         0.00000   0.00000   0.00123  -0.00294   0.00000
 277       10PY        -0.00000  -0.00000  -0.00294  -0.00123  -0.00000
 278       10PZ        -0.00000  -0.00000   0.00000   0.00000   0.02109
 279       11PX         0.00000  -0.00000   0.00040  -0.00096  -0.00000
 280       11PY        -0.00000  -0.00000  -0.00096  -0.00040  -0.00000
 281       11PZ         0.00000   0.00000   0.00000   0.00000   0.00385
 282       12D 0       -0.00000  -0.00000   0.00000   0.00000   0.00034
 283       12D+1        0.00000   0.00000   0.00025  -0.00059   0.00000
 284       12D-1        0.00000   0.00000  -0.00059  -0.00025  -0.00000
 285       12D+2        0.00001   0.00012   0.00000   0.00000  -0.00000
 286       12D-2        0.00012  -0.00001   0.00000   0.00000  -0.00000
 287       13D 0       -0.00000  -0.00000   0.00000   0.00000   0.00315
 288       13D+1        0.00000   0.00000   0.00046  -0.00111   0.00000
 289       13D-1        0.00000   0.00000  -0.00111  -0.00046  -0.00000
 290       13D+2        0.00002   0.00033   0.00000   0.00000   0.00000
 291       13D-2        0.00033  -0.00002   0.00000   0.00000  -0.00000
 292       14D 0       -0.00000  -0.00000   0.00000   0.00000   0.00078
 293       14D+1        0.00000   0.00000   0.00017  -0.00040   0.00000
 294       14D-1       -0.00000  -0.00000  -0.00040  -0.00017  -0.00000
 295       14D+2       -0.00003  -0.00048  -0.00000  -0.00000  -0.00000
 296       14D-2       -0.00048   0.00003   0.00000   0.00000  -0.00000
 297       15F 0       -0.00000  -0.00000   0.00000   0.00000   0.00021
 298       15F+1        0.00000   0.00000   0.00018  -0.00044   0.00000
 299       15F-1        0.00000   0.00000  -0.00044  -0.00018  -0.00000
 300       15F+2        0.00001   0.00020   0.00000   0.00000   0.00000
 301       15F-2        0.00020  -0.00001   0.00000   0.00000  -0.00000
 302       15F+3       -0.00000  -0.00000  -0.00000   0.00000  -0.00000
 303       15F-3       -0.00000   0.00000  -0.00000  -0.00000  -0.00000
 304       16F 0        0.00000  -0.00000  -0.00000  -0.00000   0.00104
 305       16F+1        0.00000   0.00000   0.00004  -0.00009   0.00000
 306       16F-1        0.00000  -0.00000  -0.00009  -0.00004  -0.00000
 307       16F+2       -0.00002  -0.00033  -0.00000  -0.00000  -0.00000
 308       16F-2       -0.00033   0.00002   0.00000   0.00000  -0.00000
 309       16F+3       -0.00000  -0.00000  -0.00000  -0.00000  -0.00000
 310       16F-3       -0.00000  -0.00000   0.00000   0.00000  -0.00000
                          16        17        18        19        20
                           O         V         V         V         V
     Eigenvalues --    -0.27186   0.02010   0.02010   0.02613   0.03687
   1 1   Zn 1S         -0.00000  -0.00000  -0.00000   0.00000   0.00000
   2        2S         -0.00000  -0.00000  -0.00000   0.00000   0.00000
   3        3S         -0.00001  -0.00000  -0.00000   0.00000   0.00000
   4        4S         -0.00002  -0.00000  -0.00000   0.00000   0.00000
   5        5S         -0.00005  -0.00000  -0.00000   0.00001   0.00001
   6        6S         -0.00011  -0.00000  -0.00000   0.00002   0.00002
   7        7S         -0.00027  -0.00000  -0.00000   0.00006   0.00005
   8        8S         -0.00064  -0.00000  -0.00000   0.00014   0.00014
   9        9S         -0.00149  -0.00000  -0.00000   0.00031   0.00028
  10       10S         -0.00331  -0.00000  -0.00000   0.00073   0.00072
  11       11S         -0.00628  -0.00000  -0.00000   0.00127   0.00113
  12       12S         -0.00970  -0.00000  -0.00000   0.00223   0.00230
  13       13S         -0.00651  -0.00000  -0.00000   0.00102   0.00056
  14       14S          0.01447   0.00000   0.00000  -0.00212  -0.00092
  15       15S          0.05583   0.00000   0.00000  -0.01447  -0.01667
  16       16S          0.03205  -0.00000  -0.00000   0.00903   0.02950
  17       17S         -0.05208   0.00000   0.00000  -0.04273  -0.10807
  18       18S         -0.13319   0.00000  -0.00000   0.00712  -0.02954
  19       19S         -0.12763  -0.00000  -0.00000   0.03670   0.07085
  20       20S          0.21865   0.00000   0.00000  -0.13575  -0.29394
  21       21S          0.50860  -0.00000  -0.00000   1.19558   0.42810
  22       22S          0.22083   0.00000  -0.00000   0.00036  -1.62425
  23       23S          0.01488   0.00000   0.00000  -0.01366  -0.02783
  24       24S         -0.00588  -0.00000  -0.00000   0.06626   0.14750
  25       25S          0.00431  -0.00000  -0.00000   3.92072   0.15037
  26       26PX         0.00000   0.00000  -0.00000  -0.00000   0.00000
  27       26PY         0.00000   0.00000   0.00000   0.00000  -0.00000
  28       26PZ         0.00000   0.00000  -0.00000  -0.00000  -0.00000
  29       27PX         0.00000   0.00000  -0.00000  -0.00000   0.00000
  30       27PY        -0.00000   0.00000   0.00000   0.00000  -0.00000
  31       27PZ         0.00001   0.00000  -0.00000   0.00000  -0.00000
  32       28PX         0.00000   0.00001  -0.00001  -0.00000  -0.00000
  33       28PY         0.00000   0.00001   0.00001   0.00000  -0.00000
  34       28PZ         0.00004   0.00000  -0.00000  -0.00000  -0.00001
  35       29PX         0.00000   0.00005  -0.00002  -0.00000   0.00000
  36       29PY         0.00000   0.00002   0.00005   0.00000  -0.00000
  37       29PZ         0.00015   0.00000  -0.00000   0.00000  -0.00001
  38       30PX         0.00000   0.00016  -0.00006  -0.00000  -0.00000
  39       30PY         0.00000   0.00006   0.00016   0.00000  -0.00000
  40       30PZ         0.00052   0.00000  -0.00000  -0.00001  -0.00012
  41       31PX         0.00000   0.00058  -0.00023  -0.00000   0.00000
  42       31PY         0.00000   0.00023   0.00058   0.00000  -0.00000
  43       31PZ         0.00156   0.00000  -0.00000   0.00002  -0.00013
  44       32PX         0.00000   0.00127  -0.00050  -0.00000   0.00000
  45       32PY         0.00000   0.00050   0.00127   0.00000  -0.00000
  46       32PZ         0.00424   0.00000  -0.00000  -0.00007  -0.00102
  47       33PX         0.00000   0.00354  -0.00141  -0.00000   0.00000
  48       33PY         0.00000   0.00141   0.00354   0.00000  -0.00000
  49       33PZ         0.00916  -0.00000  -0.00000   0.00020  -0.00044
  50       34PX         0.00000   0.00413  -0.00164  -0.00000  -0.00000
  51       34PY         0.00000   0.00164   0.00413   0.00000  -0.00000
  52       34PZ         0.01631   0.00000  -0.00000  -0.00058  -0.00558
  53       35PX         0.00000   0.01098  -0.00436  -0.00000   0.00000
  54       35PY         0.00000   0.00436   0.01098   0.00000  -0.00000
  55       35PZ         0.01718  -0.00000  -0.00000   0.00223   0.00879
  56       36PX        -0.00000   0.02613  -0.01038  -0.00000   0.00000
  57       36PY        -0.00000   0.01038   0.02613   0.00000  -0.00000
[...]
  95       48D+1        0.00018   0.00009   0.00009   0.00000
  96       48D-1        0.00018   0.00009   0.00009   0.00000
  97       48D+2        0.00018   0.00009   0.00009   0.00000
  98       48D-2        0.00018   0.00009   0.00009   0.00000
  99       49D 0        0.00276   0.00139   0.00137   0.00001
 100       49D+1        0.00281   0.00141   0.00141   0.00000
 101       49D-1        0.00281   0.00141   0.00141   0.00000
 102       49D+2        0.00282   0.00141   0.00141   0.00000
 103       49D-2        0.00282   0.00141   0.00141   0.00000
 104       50D 0        0.02188   0.01098   0.01090   0.00009
 105       50D+1        0.02228   0.01114   0.01114   0.00000
 106       50D-1        0.02228   0.01114   0.01114   0.00000
 107       50D+2        0.02234   0.01117   0.01117   0.00000
 108       50D-2        0.02234   0.01117   0.01117   0.00000
 109       51D 0        0.10222   0.05131   0.05092   0.00039
 110       51D+1        0.10406   0.05203   0.05203   0.00000
 111       51D-1        0.10406   0.05203   0.05203   0.00000
 112       51D+2        0.10429   0.05215   0.05215   0.00000
 113       51D-2        0.10429   0.05215   0.05215   0.00000
 114       52D 0        0.28512   0.14307   0.14205   0.00102
 115       52D+1        0.28939   0.14469   0.14469   0.00000
 116       52D-1        0.28939   0.14469   0.14469   0.00000
 117       52D+2        0.28980   0.14490   0.14490   0.00000
 118       52D-2        0.28980   0.14490   0.14490   0.00000
 119       53D 0        0.48518   0.24346   0.24172   0.00173
 120       53D+1        0.49244   0.24622   0.24622   0.00000
 121       53D-1        0.49244   0.24622   0.24622   0.00000
 122       53D+2        0.49322   0.24661   0.24661   0.00000
 123       53D-2        0.49322   0.24661   0.24661   0.00000
 124       54D 0        0.52880   0.26527   0.26353   0.00174
 125       54D+1        0.53726   0.26863   0.26863   0.00000
 126       54D-1        0.53726   0.26863   0.26863   0.00000
 127       54D+2        0.53851   0.26926   0.26926   0.00000
 128       54D-2        0.53851   0.26926   0.26926   0.00000
 129       55D 0        0.37627   0.18845   0.18782   0.00063
 130       55D+1        0.37713   0.18857   0.18857   0.00000
 131       55D-1        0.37713   0.18857   0.18857   0.00000
 132       55D+2        0.37796   0.18898   0.18898   0.00000
 133       55D-2        0.37796   0.18898   0.18898   0.00000
 134       56D 0        0.15144   0.07541   0.07603  -0.00062
 135       56D+1        0.14836   0.07418   0.07418   0.00000
 136       56D-1        0.14836   0.07418   0.07418   0.00000
 137       56D+2        0.14837   0.07419   0.07419   0.00000
 138       56D-2        0.14837   0.07419   0.07419   0.00000
 139       57D 0        0.02426   0.01107   0.01319  -0.00211
 140       57D+1        0.02000   0.01000   0.01000   0.00000
 141       57D-1        0.02000   0.01000   0.01000   0.00000
 142       57D+2        0.01891   0.00946   0.00946   0.00000
 143       57D-2        0.01891   0.00946   0.00946   0.00000
 144       58D 0        0.00096   0.00050   0.00046   0.00004
 145       58D+1        0.00138   0.00069   0.00069   0.00000
 146       58D-1        0.00138   0.00069   0.00069   0.00000
 147       58D+2        0.00150   0.00075   0.00075   0.00000
 148       58D-2        0.00150   0.00075   0.00075   0.00000
 149       59D 0        0.00082   0.00045   0.00037   0.00008
 150       59D+1        0.00189   0.00094   0.00094   0.00000
 151       59D-1        0.00189   0.00094   0.00094   0.00000
 152       59D+2        0.00223   0.00111   0.00111   0.00000
 153       59D-2        0.00223   0.00111   0.00111   0.00000
 154       60D 0        0.00078  -0.00026   0.00103  -0.00129
 155       60D+1        0.00013   0.00006   0.00006   0.00000
 156       60D-1        0.00013   0.00006   0.00006   0.00000
 157       60D+2        0.00005   0.00003   0.00003   0.00000
 158       60D-2        0.00005   0.00003   0.00003   0.00000
 159       61F 0        0.00000   0.00000   0.00000   0.00000
 160       61F+1        0.00000   0.00000   0.00000   0.00000
 161       61F-1        0.00000   0.00000   0.00000   0.00000
 162       61F+2        0.00000   0.00000   0.00000   0.00000
 163       61F-2        0.00000   0.00000   0.00000   0.00000
 164       61F+3        0.00000   0.00000   0.00000   0.00000
 165       61F-3        0.00000   0.00000   0.00000   0.00000
 166       62F 0        0.00000   0.00000   0.00000   0.00000
 167       62F+1        0.00000   0.00000   0.00000   0.00000
 168       62F-1        0.00000   0.00000   0.00000   0.00000
 169       62F+2        0.00000   0.00000   0.00000   0.00000
 170       62F-2        0.00000   0.00000   0.00000   0.00000
 171       62F+3        0.00000   0.00000   0.00000   0.00000
 172       62F-3        0.00000   0.00000   0.00000   0.00000
 173       63F 0        0.00003   0.00001   0.00001   0.00000
 174       63F+1        0.00000   0.00000   0.00000   0.00000
 175       63F-1        0.00000   0.00000   0.00000   0.00000
 176       63F+2        0.00000   0.00000   0.00000   0.00000
 177       63F-2        0.00000   0.00000   0.00000   0.00000
 178       63F+3        0.00000   0.00000   0.00000   0.00000
 179       63F-3        0.00000   0.00000   0.00000   0.00000
 180       64F 0        0.00064   0.00036   0.00029   0.00007
 181       64F+1       -0.00000  -0.00000  -0.00000   0.00000
 182       64F-1       -0.00000  -0.00000  -0.00000   0.00000
 183       64F+2        0.00000   0.00000   0.00000   0.00000
 184       64F-2        0.00000   0.00000   0.00000   0.00000
 185       64F+3        0.00000   0.00000   0.00000   0.00000
 186       64F-3        0.00000   0.00000   0.00000   0.00000
 187       65F 0        0.00175   0.00096   0.00079   0.00017
 188       65F+1        0.00000   0.00000   0.00000   0.00000
 189       65F-1        0.00000   0.00000   0.00000   0.00000
 190       65F+2        0.00000   0.00000   0.00000   0.00000
 191       65F-2        0.00000   0.00000   0.00000   0.00000
 192       65F+3        0.00000   0.00000   0.00000   0.00000
 193       65F-3        0.00000   0.00000   0.00000   0.00000
 194       66G 0        0.00000   0.00000   0.00000   0.00000
 195       66G+1        0.00000   0.00000   0.00000   0.00000
 196       66G-1        0.00000   0.00000   0.00000   0.00000
 197       66G+2        0.00000   0.00000   0.00000   0.00000
 198       66G-2        0.00000   0.00000   0.00000   0.00000
 199       66G+3        0.00000   0.00000   0.00000   0.00000
 200       66G-3        0.00000   0.00000   0.00000  -0.00000
 201       66G+4        0.00000   0.00000   0.00000   0.00000
 202       66G-4       -0.00000  -0.00000  -0.00000   0.00000
 203       67G 0        0.00000   0.00000   0.00000   0.00000
 204       67G+1        0.00000   0.00000   0.00000   0.00000
 205       67G-1        0.00000   0.00000   0.00000   0.00000
 206       67G+2        0.00000   0.00000   0.00000   0.00000
 207       67G-2        0.00000   0.00000   0.00000   0.00000
 208       67G+3        0.00000   0.00000   0.00000  -0.00000
 209       67G-3        0.00000   0.00000   0.00000  -0.00000
 210       67G+4        0.00000   0.00000   0.00000   0.00000
 211       67G-4        0.00000   0.00000   0.00000  -0.00000
 212       68G 0        0.00000   0.00000   0.00000   0.00000
 213       68G+1        0.00000   0.00000   0.00000   0.00000
 214       68G-1        0.00000   0.00000   0.00000   0.00000
 215       68G+2        0.00000   0.00000   0.00000   0.00000
 216       68G-2        0.00000   0.00000   0.00000   0.00000
 217       68G+3        0.00000   0.00000   0.00000  -0.00000
 218       68G-3       -0.00000  -0.00000  -0.00000   0.00000
 219       68G+4        0.00000   0.00000   0.00000   0.00000
 220       68G-4       -0.00000  -0.00000  -0.00000   0.00000
 221       69G 0        0.00007   0.00004   0.00003   0.00000
 222       69G+1       -0.00000  -0.00000  -0.00000   0.00000
 223       69G-1       -0.00000  -0.00000  -0.00000   0.00000
 224       69G+2        0.00000   0.00000   0.00000   0.00000
 225       69G-2        0.00000   0.00000   0.00000   0.00000
 226       69G+3        0.00000   0.00000   0.00000  -0.00000
 227       69G-3        0.00000  -0.00000   0.00000  -0.00000
 228       69G+4        0.00000   0.00000   0.00000   0.00000
 229       69G-4       -0.00000  -0.00000  -0.00000   0.00000
 230       70H 0        0.00000   0.00000   0.00000  -0.00000
 231       70H+1        0.00000   0.00000   0.00000  -0.00000
 232       70H-1        0.00000   0.00000   0.00000  -0.00000
 233       70H+2       -0.00000  -0.00000  -0.00000  -0.00000
 234       70H-2       -0.00000  -0.00000  -0.00000  -0.00000
 235       70H+3        0.00000   0.00000   0.00000  -0.00000
 236       70H-3        0.00000   0.00000   0.00000  -0.00000
 237       70H+4        0.00000   0.00000   0.00000   0.00000
 238       70H-4       -0.00000  -0.00000  -0.00000   0.00000
 239       70H+5        0.00000   0.00000   0.00000   0.00000
 240       70H-5        0.00000   0.00000   0.00000   0.00000
 241       71H 0       -0.00000  -0.00000  -0.00000   0.00000
 242       71H+1       -0.00000  -0.00000  -0.00000  -0.00000
 243       71H-1       -0.00000  -0.00000  -0.00000  -0.00000
 244       71H+2       -0.00000  -0.00000  -0.00000   0.00000
 245       71H-2       -0.00000  -0.00000  -0.00000   0.00000
 246       71H+3        0.00000   0.00000   0.00000   0.00000
 247       71H-3       -0.00000  -0.00000  -0.00000   0.00000
 248       71H+4       -0.00000  -0.00000  -0.00000   0.00000
 249       71H-4        0.00000   0.00000   0.00000   0.00000
 250       71H+5        0.00000   0.00000   0.00000   0.00000
 251       71H-5        0.00000   0.00000   0.00000   0.00000
 252       72H 0        0.00000   0.00000   0.00000  -0.00000
 253       72H+1        0.00000   0.00000   0.00000   0.00000
 254       72H-1        0.00000   0.00000   0.00000   0.00000
 255       72H+2        0.00000   0.00000   0.00000   0.00000
 256       72H-2        0.00000   0.00000   0.00000   0.00000
 257       72H+3       -0.00000  -0.00000  -0.00000   0.00000
 258       72H-3       -0.00000  -0.00000  -0.00000  -0.00000
 259       72H+4        0.00000   0.00000   0.00000   0.00000
 260       72H-4       -0.00000  -0.00000  -0.00000  -0.00000
 261       72H+5        0.00000   0.00000   0.00000  -0.00000
 262       72H-5       -0.00000  -0.00000  -0.00000  -0.00000
 263 2   H  1S          0.00020   0.00011   0.00009   0.00001
 264        2S          0.00525   0.00282   0.00243   0.00039
 265        3S          0.05539   0.02974   0.02565   0.00409
 266        4S          0.28312   0.15130   0.13182   0.01948
 267        5S          0.60073   0.32002   0.28070   0.03932
 268        6S          0.30744   0.15488   0.15256   0.00232
 269        7S          0.00991   0.00400   0.00591  -0.00191
 270        8PX         0.00006   0.00003   0.00003   0.00000
 271        8PY         0.00006   0.00003   0.00003   0.00000
 272        8PZ         0.00049   0.00025   0.00024   0.00000
 273        9PX         0.00072   0.00036   0.00036   0.00000
 274        9PY         0.00072   0.00036   0.00036   0.00000
 275        9PZ         0.00423   0.00208   0.00215  -0.00007
 276       10PX         0.00098   0.00049   0.00049   0.00000
 277       10PY         0.00098   0.00049   0.00049   0.00000
 278       10PZ         0.00580   0.00210   0.00370  -0.00160
 279       11PX         0.00014   0.00007   0.00007   0.00000
 280       11PY         0.00014   0.00007   0.00007   0.00000
 281       11PZ         0.00379   0.00275   0.00105   0.00170
 282       12D 0        0.00013   0.00007   0.00007  -0.00000
 283       12D+1        0.00006   0.00003   0.00003   0.00000
 284       12D-1        0.00006   0.00003   0.00003   0.00000
 285       12D+2        0.00000   0.00000   0.00000   0.00000
 286       12D-2        0.00000   0.00000   0.00000   0.00000
 287       13D 0        0.00052   0.00023   0.00030  -0.00007
 288       13D+1        0.00050   0.00025   0.00025   0.00000
 289       13D-1        0.00050   0.00025   0.00025   0.00000
 290       13D+2        0.00004   0.00002   0.00002   0.00000
 291       13D-2        0.00004   0.00002   0.00002   0.00000
 292       14D 0        0.00026   0.00019   0.00007   0.00013
 293       14D+1       -0.00007  -0.00003  -0.00003  -0.00000
 294       14D-1       -0.00007  -0.00003  -0.00003  -0.00000
 295       14D+2       -0.00011  -0.00006  -0.00006  -0.00000
 296       14D-2       -0.00011  -0.00006  -0.00006  -0.00000
 297       15F 0        0.00012   0.00006   0.00006  -0.00000
 298       15F+1        0.00009   0.00005   0.00005   0.00000
 299       15F-1        0.00009   0.00005   0.00005   0.00000
 300       15F+2        0.00001   0.00001   0.00001   0.00000
 301       15F-2        0.00001   0.00001   0.00001   0.00000
 302       15F+3        0.00000   0.00000   0.00000  -0.00000
 303       15F-3        0.00000   0.00000   0.00000   0.00000
 304       16F 0       -0.00014  -0.00007  -0.00007   0.00000
 305       16F+1        0.00006   0.00003   0.00003   0.00000
 306       16F-1        0.00006   0.00003   0.00003   0.00000
 307       16F+2       -0.00013  -0.00006  -0.00006  -0.00000
 308       16F-2       -0.00013  -0.00006  -0.00006  -0.00000
 309       16F+3        0.00000   0.00000   0.00000   0.00000
 310       16F-3        0.00000   0.00000   0.00000   0.00000
          Condensed to atoms (all electrons):
               1          2
     1  Zn  29.386827   0.331224
     2  H    0.331224   0.950724
          Atomic-Atomic Spin Densities.
               1          2
     1  Zn   1.010862  -0.074645
     2  H   -0.074645   0.138428
 Mulliken charges and spin densities:
               1          2
     1  Zn   0.281948   0.936217
     2  H   -0.281948   0.063783
 Sum of Mulliken charges =  -0.00000   1.00000
 Mulliken charges and spin densities with hydrogens summed into heavy atoms:
               1          2
     1  Zn  -0.000000   1.000000
 Electronic spatial extent (au):  <R**2>=             44.1554
 Charge=             -0.0000 electrons
 Dipole moment (field-independent basis, Debye):
    X=              0.0000    Y=             -0.0000    Z=              0.2122  Tot=              0.2122
 Quadrupole moment (field-independent basis, Debye-Ang):
   XX=            -14.6705   YY=            -14.6705   ZZ=            -20.9390
   XY=              0.0000   XZ=              0.0000   YZ=              0.0000
 Traceless Quadrupole moment (field-independent basis, Debye-Ang):
   XX=              2.0895   YY=              2.0895   ZZ=             -4.1790
   XY=              0.0000   XZ=              0.0000   YZ=              0.0000
 Octapole moment (field-independent basis, Debye-Ang**2):
  XXX=              0.0000  YYY=             -0.0000  ZZZ=              0.4460  XYY=              0.0000
  XXY=             -0.0000  XXZ=             -0.4078  XZZ=              0.0000  YZZ=             -0.0000
  YYZ=             -0.4078  XYZ=              0.0000
 Hexadecapole moment (field-independent basis, Debye-Ang**3):
 XXXX=            -20.0673 YYYY=            -20.0673 ZZZZ=            -62.3460 XXXY=              0.0000
 XXXZ=              0.0000 YYYX=              0.0000 YYYZ=             -0.0000 ZZZX=              0.0000
 ZZZY=              0.0000 XXYY=             -6.6891 XXZZ=            -13.3815 YYZZ=            -13.3815
 XXYZ=             -0.0000 YYXZ=              0.0000 ZZXY=              0.0000
 N-N= 1.133951166257D+01 E-N=-4.421065885005D+03  KE= 1.893932221452D+03
 Orbital energies and kinetic energies (alpha):
                                 1                 2
  11         O                -0.798185         11.159553
  12         O                -0.798185         11.159553
  13         O                -0.794720         11.134094
  14         O                -0.794720         11.134094
  15         O                -0.476467          1.499710
  16         O                -0.271855          0.977439
  17         V                 0.020099          0.083578
  18         V                 0.020099          0.083578
  19         V                 0.026132          0.050735
  20         V                 0.036873          0.069985
  21         V                 0.068085          0.287885
 Total kinetic energy from orbitals= 1.894909660233D+03
 FoFCou: FMM=F IPFlag=           8 FMFlag=           0 FMFlg1=           0
         NFxFlg=           0 DoJE=F BraDBF=T KetDBF=F FulRan=T
         wScrn=  0.000000 ICntrl=   2000500 IOpCl=  0 I1Cent=           5 NGrid=           0
         NMat0=    1 NMatS0=      1 NMatT0=    0 NMatD0=    1 NMtDS0=    0 NMtDT0=    0
 Symmetry not used in FoFCou.
                          Isotropic Fermi Contact Couplings
        Atom                 a.u.       MegaHertz       Gauss      10(-4) cm-1
     1  Zn(67)             4.49282    1259.05099     449.26070     419.97420
     2  H(1)               0.03060     136.76704      48.80188      45.62057
 --------------------------------------------------------
       Center         ----  Spin Dipole Couplings  ----
                      3XX-RR        3YY-RR        3ZZ-RR
 --------------------------------------------------------
     1   Atom       -0.671951     -0.671951      1.343903
     2   Atom       -0.004917     -0.004917      0.009833
 --------------------------------------------------------
                        XY            XZ            YZ
 --------------------------------------------------------
     1   Atom        0.000000      0.000000      0.000000
     2   Atom        0.000000      0.000000      0.000000
 --------------------------------------------------------


 ---------------------------------------------------------------------------------
              Anisotropic Spin Dipole Couplings in Principal Axis System
 ---------------------------------------------------------------------------------

       Atom             a.u.   MegaHertz   Gauss  10(-4) cm-1        Axes

              Baa    -0.6720   -22.477    -8.020    -7.498 -0.0000  1.0000  0.0000
     1 Zn(67) Bbb    -0.6720   -22.477    -8.020    -7.498  1.0000  0.0000  0.0000
              Bcc     1.3439    44.955    16.041    14.995  0.0000  0.0000  1.0000
 
              Baa    -0.0049    -2.623    -0.936    -0.875  1.0000  0.0000  0.0000
     2 H(1)   Bbb    -0.0049    -2.623    -0.936    -0.875 -0.0000  1.0000  0.0000
              Bcc     0.0098     5.247     1.872     1.750  0.0000  0.0000  1.0000
 

 ---------------------------------------------------------------------------------

 No NMR shielding tensors so no spin-rotation constants.
 Leave Link  601 at Sat Apr 21 11:03:05 2018, MaxMem= 21474836480 cpu:              35.3 elap:               1.2
 (Enter /home1/apps/gaussian/16rA.03/g16/l9999.exe)

 Test job not archived.
 1\1\GINC-C500-104\SP\ROCCSD(T)-FC1\Gen\H1Zn1(2)\GWANG18\21-Apr-2018\0\
 \#P ROCCSD(T)=(MaxCyc=150, FrzINGC)/Gen SCF=(maxcycle=400, vshift=200)
  Integral(DKHSO, NoXCTest) Pop=Regular MaxDisk=500GB Guess=Read IOp(5/
 15=2)\\ZnH\\0,2\Zn,0,0.,0.,0.\H,0,0.,0.,1.4\\Version=ES64L-G16RevA.03\
 State=2-SG\HF=-1794.7941976\MP2=-1795.8892896\MP3=-1795.7312875\PUHF=-
 1794.7941976\PMP2-0=-1795.8892896\MP4SDQ=-1795.8294245\CCSD=-1795.7910
 778\CCSD(T)=-1795.8195044\RMSD=5.740e-09\PG=C*V [C*(H1Zn1)]\\@


 ADAM SMITH SAID, "THE REAL PRICE OF ANYTHING IS THE TOIL AND TROUBLE
 OF ACQUIRING IT."  BUT IN ALL UNDERTAKINGS WITH NATURE WE SHOULD FIRST
 READ CAREFULLY THE SMALL PRINT IN THE CONTRACT. THIS MIGHT DISCLOSE
 THAT THE REAL PRICE IS TO BE PAID BY THOSE WHO INHERIT THE DEPLETION
 AND DESPOILATION THAT FOLLOWS.
                               -- E. R. HARRISON IN "COSMOLOGY" (1980)
 Job cpu time:       0 days 16 hours  4 minutes 20.3 seconds.
 Elapsed time:       0 days  0 hours 30 minutes 26.4 seconds.
 File lengths (MBytes):  RWF=  35509 Int=      0 D2E=      0 Chk=     12 Scr=      1
 Normal termination of Gaussian 16 at Sat Apr 21 11:03:06 2018.
