 Entering Gaussian System, Link 0=g16
 Initial command:
 /home1/apps/gaussian/16rA.03/g16/l1.exe "/tmp/Gau-4078.inp" -scrdir="/tmp/"
 Entering Link 1 = /home1/apps/gaussian/16rA.03/g16/l1.exe PID=      4079.
  
 Copyright (c) 1988,1990,1992,1993,1995,1998,2003,2009,2016,
            Gaussian, Inc.  All Rights Reserved.
  
 This is part of the Gaussian(R) 16 program.  It is based on
 the Gaussian(R) 09 system (copyright 2009, Gaussian, Inc.),
 the Gaussian(R) 03 system (copyright 2003, Gaussian, Inc.),
 the Gaussian(R) 98 system (copyright 1998, Gaussian, Inc.),
 the Gaussian(R) 94 system (copyright 1995, Gaussian, Inc.),
 the Gaussian 92(TM) system (copyright 1992, Gaussian, Inc.),
 the Gaussian 90(TM) system (copyright 1990, Gaussian, Inc.),
 the Gaussian 88(TM) system (copyright 1988, Gaussian, Inc.),
 the Gaussian 86(TM) system (copyright 1986, Carnegie Mellon
 University), and the Gaussian 82(TM) system (copyright 1983,
 Carnegie Mellon University). Gaussian is a federally registered
 trademark of Gaussian, Inc.
  
 This software contains proprietary and confidential information,
 including trade secrets, belonging to Gaussian, Inc.
  
 This software is provided under written license and may be
 used, copied, transmitted, or stored only in accord with that
 written license.
  
 The following legend is applicable only to US Government
 contracts under FAR:
  
                    RESTRICTED RIGHTS LEGEND
  
 Use, reproduction and disclosure by the US Government is
 subject to restrictions as set forth in subparagraphs (a)
 and (c) of the Commercial Computer Software - Restricted
 Rights clause in FAR 52.227-19.
  
 Gaussian, Inc.
 340 Quinnipiac St., Bldg. 40, Wallingford CT 06492
  
  
 ---------------------------------------------------------------
 Warning -- This program may not be used in any manner that
 competes with the business of Gaussian, Inc. or will provide
 assistance to any competitor of Gaussian, Inc.  The licensee
 of this program is prohibited from giving any competitor of
 Gaussian, Inc. access to this program.  By using this program,
 the user acknowledges that Gaussian, Inc. is engaged in the
 business of creating and licensing software in the field of
 computational chemistry and represents and warrants to the
 licensee that it is not a competitor of Gaussian, Inc. and that
 it will not use this program in any manner prohibited above.
 ---------------------------------------------------------------
  

 Cite this work as:
 Gaussian 16, Revision A.03,
 M. J. Frisch, G. W. Trucks, H. B. Schlegel, G. E. Scuseria, 
 M. A. Robb, J. R. Cheeseman, G. Scalmani, V. Barone, 
 G. A. Petersson, H. Nakatsuji, X. Li, M. Caricato, A. V. Marenich, 
 J. Bloino, B. G. Janesko, R. Gomperts, B. Mennucci, H. P. Hratchian, 
 J. V. Ortiz, A. F. Izmaylov, J. L. Sonnenberg, D. Williams-Young, 
 F. Ding, F. Lipparini, F. Egidi, J. Goings, B. Peng, A. Petrone, 
 T. Henderson, D. Ranasinghe, V. G. Zakrzewski, J. Gao, N. Rega, 
 G. Zheng, W. Liang, M. Hada, M. Ehara, K. Toyota, R. Fukuda, 
 J. Hasegawa, M. Ishida, T. Nakajima, Y. Honda, O. Kitao, H. Nakai, 
 T. Vreven, K. Throssell, J. A. Montgomery, Jr., J. E. Peralta, 
 F. Ogliaro, M. J. Bearpark, J. J. Heyd, E. N. Brothers, K. N. Kudin, 
 V. N. Staroverov, T. A. Keith, R. Kobayashi, J. Normand, 
 K. Raghavachari, A. P. Rendell, J. C. Burant, S. S. Iyengar, 
 J. Tomasi, M. Cossi, J. M. Millam, M. Klene, C. Adamo, R. Cammi, 
 J. W. Ochterski, R. L. Martin, K. Morokuma, O. Farkas, 
 J. B. Foresman, and D. J. Fox, Gaussian, Inc., Wallingford CT, 2016.
 
 ******************************************
 Gaussian 16:  ES64L-G16RevA.03 25-Dec-2016
                 5-May-2018 
 ******************************************
 %mem=80GB
 %cpu=0-31
 SetSPE:  set environment variable "MP_BIND" = "yes"
 SetSPE:  set environment variable "MP_BLIST" = "0,1,2,3,4,5,6,7,8,9,10,11,12,13,14,15,16,17,18,19,20,21,22,23,24,25,26,27,28,29,30,31"
 Will use up to   32 processors via shared memory.
 %chk=qz.chk
 %rwf=/scratch/04843/gwang18/cuh/
 ----------------------------------------------------------------------
 #P ROCCSD(T)=(MaxCyc=150, Full)/Gen SCF=(maxcycle=400, vshift=200) Pse
 udo=Read Integral(NoXCTest) Pop=Regular MaxDisk=500GB Guess=Read IOp(5
 /15=2)
 ----------------------------------------------------------------------
 1/38=1,172=1/1;
 2/12=2,17=6,18=5,40=1/2;
 3/5=7,11=2,16=1,17=8,25=1,30=1,47=8,116=101/1,2,3;
 4/5=1/1;
 5/5=2,7=400,10=200,15=2,38=6/2;
 8/5=-1,6=4,9=120000,10=90/1,4;
 9/5=7,6=150,14=2/13;
 6//1;
 99/5=1,9=1/99;
 Leave Link    1 at Sat May  5 21:02:01 2018, MaxMem= 10737418240 cpu:               7.0 elap:               0.2
 (Enter /home1/apps/gaussian/16rA.03/g16/l101.exe)
 ---
 CuH
 ---
 Symbolic Z-matrix:
 Charge =  0 Multiplicity = 1
 Cu                    0.        0.        0. 
 H                     0.        0.        1.1 
 
 ITRead=  0  0
 MicOpt= -1 -1
 NAtoms=      2 NQM=        2 NQMF=       0 NMMI=      0 NMMIF=      0
                NMic=       0 NMicF=      0.
                    Isotopes and Nuclear Properties:
 (Nuclear quadrupole moments (NQMom) in fm**2, nuclear magnetic moments (NMagM)
  in nuclear magnetons)

  Atom         1           2
 IAtWgt=          63           1
 AtmWgt=  62.9295992   1.0078250
 NucSpn=           3           1
 AtZEff=  -0.0000000  -0.0000000
 NQMom=  -22.0000000   0.0000000
 NMagM=    2.2233000   2.7928460
 AtZNuc=  29.0000000   1.0000000
 Leave Link  101 at Sat May  5 21:02:01 2018, MaxMem= 10737418240 cpu:               3.0 elap:               0.1
 (Enter /home1/apps/gaussian/16rA.03/g16/l202.exe)
                          Input orientation:                          
 ---------------------------------------------------------------------
 Center     Atomic      Atomic             Coordinates (Angstroms)
 Number     Number       Type             X           Y           Z
 ---------------------------------------------------------------------
      1         29           0        0.000000    0.000000    0.000000
      2          1           0        0.000000    0.000000    1.100000
 ---------------------------------------------------------------------
 Stoichiometry    CuH
 Framework group  C*V[C*(HCu)]
 Deg. of freedom     1
 Full point group                 C*V     NOp   4
 Largest Abelian subgroup         C2V     NOp   4
 Largest concise Abelian subgroup C1      NOp   1
                         Standard orientation:                         
 ---------------------------------------------------------------------
 Center     Atomic      Atomic             Coordinates (Angstroms)
 Number     Number       Type             X           Y           Z
 ---------------------------------------------------------------------
      1         29           0        0.000000    0.000000    0.036667
      2          1           0        0.000000    0.000000   -1.063333
 ---------------------------------------------------------------------
 Rotational constants (GHZ):           0.0000000         421.0627833         421.0627833
 Leave Link  202 at Sat May  5 21:02:01 2018, MaxMem= 10737418240 cpu:               0.7 elap:               0.1
 (Enter /home1/apps/gaussian/16rA.03/g16/l301.exe)
 General basis read from cards:  (5D, 7F)
 Centers:       1
 S 1 1.00
     Exponent=  1.6665490000D+07 Coefficients=  1.0000000000D+00
 S 1 1.00
     Exponent=  2.4952130000D+06 Coefficients=  1.0000000000D+00
 S 1 1.00
     Exponent=  5.6785070000D+05 Coefficients=  1.0000000000D+00
 S 1 1.00
     Exponent=  1.6085310000D+05 Coefficients=  1.0000000000D+00
 S 1 1.00
     Exponent=  5.2481860000D+04 Coefficients=  1.0000000000D+00
 S 1 1.00
     Exponent=  1.8948850000D+04 Coefficients=  1.0000000000D+00
 S 1 1.00
     Exponent=  7.3916550000D+03 Coefficients=  1.0000000000D+00
 S 1 1.00
     Exponent=  3.0665170000D+03 Coefficients=  1.0000000000D+00
 S 1 1.00
     Exponent=  1.3379940000D+03 Coefficients=  1.0000000000D+00
 S 1 1.00
     Exponent=  6.0878300000D+02 Coefficients=  1.0000000000D+00
 S 1 1.00
     Exponent=  2.8689800000D+02 Coefficients=  1.0000000000D+00
 S 1 1.00
     Exponent=  1.3915300000D+02 Coefficients=  1.0000000000D+00
 S 1 1.00
     Exponent=  6.8494550000D+01 Coefficients=  1.0000000000D+00
 S 1 1.00
     Exponent=  3.1601080000D+01 Coefficients=  1.0000000000D+00
 S 1 1.00
     Exponent=  1.5991580000D+01 Coefficients=  1.0000000000D+00
 S 1 1.00
     Exponent=  8.0565100000D+00 Coefficients=  1.0000000000D+00
 S 1 1.00
     Exponent=  3.6903290000D+00 Coefficients=  1.0000000000D+00
 S 1 1.00
     Exponent=  1.7629020000D+00 Coefficients=  1.0000000000D+00
 S 1 1.00
     Exponent=  8.0126900000D-01 Coefficients=  1.0000000000D+00
 S 1 1.00
     Exponent=  1.8424300000D-01 Coefficients=  1.0000000000D+00
 S 1 1.00
     Exponent=  8.1793000000D-02 Coefficients=  1.0000000000D+00
 S 1 1.00
     Exponent=  3.5303000000D-02 Coefficients=  1.0000000000D+00
 S 1 1.00
     Exponent=  7.2310000000D+00 Coefficients=  1.0000000000D+00
 S 1 1.00
     Exponent=  1.9080000000D+00 Coefficients=  1.0000000000D+00
 S 1 1.00
     Exponent=  1.5240000000D-02 Coefficients=  1.0000000000D+00
 P 1 1.00
     Exponent=  4.8218410000D+04 Coefficients=  1.0000000000D+00
 P 1 1.00
     Exponent=  1.1420550000D+04 Coefficients=  1.0000000000D+00
 P 1 1.00
     Exponent=  3.7135690000D+03 Coefficients=  1.0000000000D+00
 P 1 1.00
     Exponent=  1.4237620000D+03 Coefficients=  1.0000000000D+00
 P 1 1.00
     Exponent=  6.0660410000D+02 Coefficients=  1.0000000000D+00
 P 1 1.00
     Exponent=  2.7825640000D+02 Coefficients=  1.0000000000D+00
 P 1 1.00
     Exponent=  1.3484490000D+02 Coefficients=  1.0000000000D+00
 P 1 1.00
     Exponent=  6.8122540000D+01 Coefficients=  1.0000000000D+00
 P 1 1.00
     Exponent=  3.5400880000D+01 Coefficients=  1.0000000000D+00
 P 1 1.00
     Exponent=  1.8790290000D+01 Coefficients=  1.0000000000D+00
 P 1 1.00
     Exponent=  1.0083560000D+01 Coefficients=  1.0000000000D+00
 P 1 1.00
     Exponent=  5.3461200000D+00 Coefficients=  1.0000000000D+00
 P 1 1.00
     Exponent=  2.7752280000D+00 Coefficients=  1.0000000000D+00
 P 1 1.00
     Exponent=  1.4075640000D+00 Coefficients=  1.0000000000D+00
 P 1 1.00
     Exponent=  6.8721300000D-01 Coefficients=  1.0000000000D+00
 P 1 1.00
     Exponent=  2.4682200000D-01 Coefficients=  1.0000000000D+00
 P 1 1.00
     Exponent=  9.6220000000D-02 Coefficients=  1.0000000000D+00
 P 1 1.00
     Exponent=  3.7037000000D-02 Coefficients=  1.0000000000D+00
 P 1 1.00
     Exponent=  1.1921800000D+01 Coefficients=  1.0000000000D+00
 P 1 1.00
     Exponent=  3.2325000000D+00 Coefficients=  1.0000000000D+00
 P 1 1.00
     Exponent=  1.4260000000D-02 Coefficients=  1.0000000000D+00
 D 1 1.00
     Exponent=  5.2788600000D+02 Coefficients=  1.0000000000D+00
 D 1 1.00
     Exponent=  1.5873300000D+02 Coefficients=  1.0000000000D+00
 D 1 1.00
     Exponent=  6.1555600000D+01 Coefficients=  1.0000000000D+00
 D 1 1.00
     Exponent=  2.6883400000D+01 Coefficients=  1.0000000000D+00
 D 1 1.00
     Exponent=  1.2517500000D+01 Coefficients=  1.0000000000D+00
 D 1 1.00
     Exponent=  6.0697700000D+00 Coefficients=  1.0000000000D+00
 D 1 1.00
     Exponent=  2.9583190000D+00 Coefficients=  1.0000000000D+00
 D 1 1.00
     Exponent=  1.4141220000D+00 Coefficients=  1.0000000000D+00
 D 1 1.00
     Exponent=  6.5332900000D-01 Coefficients=  1.0000000000D+00
 D 1 1.00
     Exponent=  2.8669200000D-01 Coefficients=  1.0000000000D+00
 D 1 1.00
     Exponent=  1.1501400000D-01 Coefficients=  1.0000000000D+00
 D 1 1.00
     Exponent=  8.4804000000D+00 Coefficients=  1.0000000000D+00
 D 1 1.00
     Exponent=  4.4553000000D+00 Coefficients=  1.0000000000D+00
 D 1 1.00
     Exponent=  4.6140000000D-02 Coefficients=  1.0000000000D+00
 F 1 1.00
     Exponent=  1.1946300000D+01 Coefficients=  1.0000000000D+00
 F 1 1.00
     Exponent=  5.0345000000D+00 Coefficients=  1.0000000000D+00
 F 1 1.00
     Exponent=  2.1217000000D+00 Coefficients=  1.0000000000D+00
 F 1 1.00
     Exponent=  7.3910000000D-01 Coefficients=  1.0000000000D+00
 F 1 1.00
     Exponent=  2.5747000000D-01 Coefficients=  1.0000000000D+00
 G 1 1.00
     Exponent=  9.5934000000D+00 Coefficients=  1.0000000000D+00
 G 1 1.00
     Exponent=  4.3083000000D+00 Coefficients=  1.0000000000D+00
 G 1 1.00
     Exponent=  1.7760000000D+00 Coefficients=  1.0000000000D+00
 G 1 1.00
     Exponent=  7.3212000000D-01 Coefficients=  1.0000000000D+00
 H 1 1.00
     Exponent=  8.5704000000D+00 Coefficients=  1.0000000000D+00
 H 1 1.00
     Exponent=  3.7909000000D+00 Coefficients=  1.0000000000D+00
 H 1 1.00
     Exponent=  1.6768100000D+00 Coefficients=  1.0000000000D+00
 ****
 Centers:       2
 S 1 1.00
     Exponent=  8.2640000000D+01 Coefficients=  1.0000000000D+00
 S 1 1.00
     Exponent=  1.2410000000D+01 Coefficients=  1.0000000000D+00
 S 1 1.00
     Exponent=  2.8240000000D+00 Coefficients=  1.0000000000D+00
 S 1 1.00
     Exponent=  7.9770000000D-01 Coefficients=  1.0000000000D+00
 S 1 1.00
     Exponent=  2.5810000000D-01 Coefficients=  1.0000000000D+00
 S 1 1.00
     Exponent=  8.9890000000D-02 Coefficients=  1.0000000000D+00
 S 1 1.00
     Exponent=  2.3630000000D-02 Coefficients=  1.0000000000D+00
 P 1 1.00
     Exponent=  2.2920000000D+00 Coefficients=  1.0000000000D+00
 P 1 1.00
     Exponent=  8.3800000000D-01 Coefficients=  1.0000000000D+00
 P 1 1.00
     Exponent=  2.9200000000D-01 Coefficients=  1.0000000000D+00
 P 1 1.00
     Exponent=  8.4800000000D-02 Coefficients=  1.0000000000D+00
 D 1 1.00
     Exponent=  2.0620000000D+00 Coefficients=  1.0000000000D+00
 D 1 1.00
     Exponent=  6.6200000000D-01 Coefficients=  1.0000000000D+00
 D 1 1.00
     Exponent=  1.9000000000D-01 Coefficients=  1.0000000000D+00
 F 1 1.00
     Exponent=  1.3970000000D+00 Coefficients=  1.0000000000D+00
 F 1 1.00
     Exponent=  3.6000000000D-01 Coefficients=  1.0000000000D+00
 ****
 ======================================================================================================
                                       Pseudopotential Parameters
 ======================================================================================================
  Center     Atomic      Valence      Angular      Power
  Number     Number     Electrons     Momentum     of R      Exponent        Coefficient   SO-Coeffient
 ======================================================================================================
    1         29           19
                                      D and up 
                                                     1       31.5381126       19.00000000    0.00000000
                                                     3       31.0692553      599.22413998    0.00000000
                                                     2       30.5903587     -244.68915484    0.00000000
                                                     2       14.0514106       -1.29349526    0.00000000
                                      S - D
                                                     2       12.7723592       66.27560813    0.00000000
                                                     2       29.3556224      370.71371825    0.00000000
                                      P - D
                                                     2       12.5247148       49.76265057    0.00000000
                                                     2       33.5169454      271.66281028    0.00000000
    2          1            1
                                      P and up 
                                                     2       21.7769666      -10.85192405    0.00000000
                                                     1       21.2435951        1.00000000    0.00000000
                                                     3       21.2435951       21.24359508    0.00000000
                                      S - P
                                                     2        1.0000000        0.00000000    0.00000000
 ======================================================================================================
 Ernie: Thresh=  0.10000D-02 Tol=  0.10000D-05 Strict=F.
 There are   171 symmetry adapted cartesian basis functions of A1  symmetry.
 There are    45 symmetry adapted cartesian basis functions of A2  symmetry.
 There are    93 symmetry adapted cartesian basis functions of B1  symmetry.
 There are    93 symmetry adapted cartesian basis functions of B2  symmetry.
 There are   126 symmetry adapted basis functions of A1  symmetry.
 There are    38 symmetry adapted basis functions of A2  symmetry.
 There are    73 symmetry adapted basis functions of B1  symmetry.
 There are    73 symmetry adapted basis functions of B2  symmetry.
   310 basis functions,   402 primitive gaussians,   402 cartesian basis functions
    10 alpha electrons       10 beta electrons
       nuclear repulsion energy         9.1403336432 Hartrees.
 IExCor=    0 DFT=F Ex=HF Corr=None ExCW=0 ScaHFX=  1.000000
 ScaDFX=  1.000000  1.000000  1.000000  1.000000 ScalE2=  1.000000  1.000000
 IRadAn=      5 IRanWt=     -1 IRanGd=            0 ICorTp=0 IEmpDi=  4
 NAtoms=    2 NActive=    2 NUniq=    2 SFac= 1.00D+00 NAtFMM=   60 NAOKFM=F Big=F
 Integral buffers will be    131072 words long.
 Raffenetti 2 integral format.
 Two-electron integral symmetry is turned on.
 Leave Link  301 at Sat May  5 21:02:01 2018, MaxMem= 10737418240 cpu:               8.1 elap:               0.3
 (Enter /home1/apps/gaussian/16rA.03/g16/l302.exe)
 NPDir=0 NMtPBC=     1 NCelOv=     1 NCel=       1 NClECP=     1 NCelD=      1
         NCelK=      1 NCelE2=     1 NClLst=     1 CellRange=     0.0.
 One-electron integrals computed using PRISM.
 One-electron integral symmetry used in STVInt
   4 Symmetry operations used in ECPInt.
 ECPInt:  NShTT=    3916 NPrTT=    3916 LenC2=    3890 LenP2D=    3889.
 LDataN:  DoStor=T MaxTD1=10 Len=  848
 NBasis=   310 RedAO= T EigKep=  1.42D-06  NBF=   126    38    73    73
 NBsUse=   309 1.00D-06 EigRej=  3.64D-07 NBFU=   125    38    73    73
 Leave Link  302 at Sat May  5 21:02:04 2018, MaxMem= 10737418240 cpu:              75.3 elap:               2.4
 (Enter /home1/apps/gaussian/16rA.03/g16/l303.exe)
 DipDrv:  MaxL=1.
 Leave Link  303 at Sat May  5 21:02:04 2018, MaxMem= 10737418240 cpu:               3.0 elap:               0.2
 (Enter /home1/apps/gaussian/16rA.03/g16/l401.exe)
 Initial guess from the checkpoint file:  "qz.chk"
 B after Tr=     0.000000    0.000000    0.000000
         Rot=    1.000000    0.000000    0.000000    0.000000 Ang=   0.00 deg.
 Guess basis will be translated and rotated to current coordinates.
 JPrj=2 DoOrth=T DoCkMO=T.
 Initial guess orbital symmetries:
       Occupied  (SG) (SG) (PI) (PI) (SG) (PI) (PI) (DLTA) (DLTA)
                 (SG)
       Virtual   (SG) (PI) (PI) (SG) (SG) (SG) (PI) (PI) (SG) (PI)
                 (PI) (DLTA) (DLTA) (SG) (SG) (PI) (PI) (SG) (PI)
                 (PI) (SG) (SG) (SG) (PI) (PI) (DLTA) (DLTA) (DLTA)
                 (DLTA) (SG) (PI) (PI) (PI) (PI) (SG) (SG) (PI)
                 (PI) (SG) (PHI) (PHI) (DLTA) (DLTA) (PI) (PI)
                 (SG) (DLTA) (DLTA) (SG) (PI) (PI) (SG) (SG) (PI)
                 (PI) (SG) (DLTA) (DLTA) (PI) (PI) (SG) (PI) (PI)
                 (PHI) (PHI) (DLTA) (DLTA) (SG) (PI) (PI) (SG)
                 (DLTA) (DLTA) (PHI) (PHI) (?A) (?A) (PI) (PI)
                 (DLTA) (DLTA) (SG) (PI) (PI) (SG) (SG) (PI) (PI)
                 (SG) (SG) (PHI) (PHI) (DLTA) (DLTA) (PI) (PI)
                 (SG) (DLTA) (DLTA) (PI) (PI) (SG) (PHI) (PHI)
                 (?A) (?A) (DLTA) (DLTA) (PI) (PI) (SG) (PI) (PI)
                 (SG) (SG) (PHI) (PHI) (DLTA) (DLTA) (PI) (PI)
                 (SG) (PI) (PI) (SG) (DLTA) (DLTA) (PI) (PI) (SG)
                 (SG) (PHI) (PHI) (?A) (?A) (DLTA) (DLTA) (PI)
                 (PI) (SG) (PI) (PI) (SG) (SG) (DLTA) (DLTA) (PI)
                 (PI) (SG) (SG) (PI) (PI) (SG) (SG) (DLTA) (DLTA)
                 (PI) (PI) (SG) (PI) (PI) (SG) (SG) (PI) (PI) (SG)
                 (SG) (DLTA) (DLTA) (PI) (PI) (SG) (PI) (PI) (SG)
                 (SG) (PI) (PI) (SG) (SG) (PI) (PI) (SG) (SG) (PI)
                 (PI) (SG) (SG) (PI) (PI) (SG) (SG) (SG) (PI) (PI)
                 (SG) (SG) (SG) (SG) (SG) (DLTA) (SG) (SG) (DLTA)
                 (SG) (SG) (DLTA) (SG) (SG) (DLTA) (SG) (SG) (DLTA)
                 (SG) (?A) (SG) (DLTA) (SG) (?A) (DLTA) (SG) (DLTA)
                 (SG) (DLTA) (SG) (SG) (DLTA) (SG) (DLTA) (SG)
                 (?A) (DLTA) (?A) (DLTA) (DLTA) (DLTA) (DLTA) (DLTA)
                 (?A) (DLTA) (?A) (DLTA) (DLTA) (DLTA) (DLTA) (DLTA)
                 (?A) (DLTA) (?A) (PI) (PI) (PI) (PI) (PI) (PHI)
                 (PI) (PI) (PHI) (PI) (PI) (PHI) (?B) (PI) (PHI)
                 (PI) (PI) (PI) (PHI) (PI) (PHI) (?B) (PI) (PHI)
                 (?B) (PI) (PI) (PI) (PI) (PI) (PHI) (PI) (PI)
                 (PHI) (PI) (PI) (PHI) (?B) (PI) (PHI) (PI) (PI)
                 (PI) (PHI) (PI) (PHI) (?B) (PI) (PHI) (?B)
 The electronic state of the initial guess is 1-SG.
 Leave Link  401 at Sat May  5 21:02:04 2018, MaxMem= 10737418240 cpu:              16.7 elap:               0.6
 (Enter /home1/apps/gaussian/16rA.03/g16/l502.exe)
 Keep R1 and R2 ints in memory in symmetry-blocked form, NReq=1456552531.
 FoFCou: FMM=F IPFlag=           8 FMFlag=           0 FMFlg1=           0
         NFxFlg=           0 DoJE=F BraDBF=F KetDBF=F FulRan=T
         wScrn=  0.000000 ICntrl=       600 IOpCl=  0 I1Cent=           0 NGrid=           0
         NMat0=    1 NMatS0=  48205 NMatT0=    0 NMatD0=    1 NMtDS0=    0 NMtDT0=    0
 Petite list used in FoFCou.
 Restricted open shell SCF:
 Using DIIS extrapolation, IDIIS=  1040.
 NGot= 10737418240 LenX= 10147857266 LenY= 10147695221
 Requested convergence on RMS density matrix=1.00D-08 within 400 cycles.
 Requested convergence on MAX density matrix=1.00D-06.
 Requested convergence on             energy=1.00D-06.
 Virtual orbitals will be shifted by   0.200 hartree.
 No special actions if energy rises.

 Cycle   1  Pass 1  IDiag  1:
 E= -195.814830877971    
 DIIS: error= 6.56D-01 at cycle   1 NSaved=   1.
 NSaved= 1 IEnMin= 1 EnMin= -195.814830877971     IErMin= 1 ErrMin= 6.56D-01
 ErrMax= 6.56D-01  0.00D+00 EMaxC= 1.00D-01 BMatC= 4.01D+01 BMatP= 4.01D+01
 IDIUse=3 WtCom= 0.00D+00 WtEn= 1.00D+00
 Coeff-Com:  0.100D+01
 Coeff-En:   0.100D+01
 Coeff:      0.100D+01
 Gap=     0.340 Goal=   None    Shift=    0.200
 GapD=    0.340 DampG=1.000 DampE=0.125 DampFc=0.1250 IDamp=-1.
 Damping current iteration by 1.25D-01
 RMSDP=1.69D-03 MaxDP=6.62D-02              OVMax= 2.65D-03

 Cycle   2  Pass 1  IDiag  1:
 E= -195.814965761718     Delta-E=       -0.000134883747 Rises=F Damp=T
 DIIS: error= 5.74D-01 at cycle   2 NSaved=   2.
 NSaved= 2 IEnMin= 2 EnMin= -195.814965761718     IErMin= 2 ErrMin= 5.74D-01
 ErrMax= 5.74D-01  0.00D+00 EMaxC= 1.00D-01 BMatC= 3.07D+01 BMatP= 4.01D+01
 IDIUse=3 WtCom= 0.00D+00 WtEn= 1.00D+00
 Coeff-Com: -0.700D+01 0.800D+01
 Coeff-En:   0.000D+00 0.100D+01
 Coeff:      0.000D+00 0.100D+01
 Gap=     0.338 Goal=   None    Shift=    0.200
 RMSDP=1.50D-03 MaxDP=5.80D-02 DE=-1.35D-04 OVMax= 2.89D-04

 Cycle   3  Pass 1  IDiag  1:
 E= -195.815931898209     Delta-E=       -0.000966136491 Rises=F Damp=F
 DIIS: error= 2.26D-04 at cycle   3 NSaved=   3.
 NSaved= 3 IEnMin= 3 EnMin= -195.815931898209     IErMin= 3 ErrMin= 2.26D-04
 ErrMax= 2.26D-04  0.00D+00 EMaxC= 1.00D-01 BMatC= 5.47D-06 BMatP= 3.07D+01
 IDIUse=3 WtCom= 9.98D-01 WtEn= 2.26D-03
 Large coefficients: NSaved=  3 BigCof=   15.24 CofMax=   10.00 Det=-2.03D-08
 Inversion failed.  Reducing to  2 matrices.
 Coeff-Com: -0.128D-04 0.100D+01
 Coeff-En:   0.000D+00 0.100D+01
 Coeff:     -0.128D-04 0.100D+01
 Gap=     0.338 Goal=   None    Shift=    0.200
 RMSDP=4.97D-05 MaxDP=3.44D-03 DE=-9.66D-04 OVMax= 3.03D-04

 Cycle   4  Pass 1  IDiag  1:
 E= -195.815933949013     Delta-E=       -0.000002050804 Rises=F Damp=F
 DIIS: error= 2.82D-05 at cycle   4 NSaved=   3.
 NSaved= 3 IEnMin= 3 EnMin= -195.815933949013     IErMin= 3 ErrMin= 2.82D-05
 ErrMax= 2.82D-05  0.00D+00 EMaxC= 1.00D-01 BMatC= 1.38D-07 BMatP= 5.47D-06
 IDIUse=1 WtCom= 1.00D+00 WtEn= 0.00D+00
 Coeff-Com:  0.537D-06-0.575D-01 0.106D+01
 Coeff:      0.537D-06-0.575D-01 0.106D+01
 Gap=     0.338 Goal=   None    Shift=    0.200
 RMSDP=1.49D-05 MaxDP=1.51D-03 DE=-2.05D-06 OVMax= 9.72D-05

 Cycle   5  Pass 1  IDiag  1:
 E= -195.815934064842     Delta-E=       -0.000000115829 Rises=F Damp=F
 DIIS: error= 3.71D-05 at cycle   5 NSaved=   4.
 NSaved= 4 IEnMin= 4 EnMin= -195.815934064842     IErMin= 3 ErrMin= 2.82D-05
 ErrMax= 3.71D-05  0.00D+00 EMaxC= 1.00D-01 BMatC= 9.81D-08 BMatP= 1.38D-07
 IDIUse=1 WtCom= 1.00D+00 WtEn= 0.00D+00
 Coeff-Com:  0.496D-06-0.461D-01 0.500D+00 0.547D+00
 Coeff:      0.496D-06-0.461D-01 0.500D+00 0.547D+00
 Gap=     0.338 Goal=   None    Shift=    0.200
 RMSDP=3.98D-06 MaxDP=4.56D-04 DE=-1.16D-07 OVMax= 3.30D-05

 Cycle   6  Pass 1  IDiag  1:
 E= -195.815934096101     Delta-E=       -0.000000031259 Rises=F Damp=F
 DIIS: error= 4.29D-06 at cycle   6 NSaved=   5.
 NSaved= 5 IEnMin= 5 EnMin= -195.815934096101     IErMin= 5 ErrMin= 4.29D-06
 ErrMax= 4.29D-06  0.00D+00 EMaxC= 1.00D-01 BMatC= 2.08D-09 BMatP= 9.81D-08
 IDIUse=1 WtCom= 1.00D+00 WtEn= 0.00D+00
 Coeff-Com: -0.380D-07 0.495D-02-0.124D+00 0.115D-01 0.111D+01
 Coeff:     -0.380D-07 0.495D-02-0.124D+00 0.115D-01 0.111D+01
 Gap=     0.338 Goal=   None    Shift=    0.200
 RMSDP=2.55D-06 MaxDP=3.22D-04 DE=-3.13D-08 OVMax= 2.81D-05

 Cycle   7  Pass 1  IDiag  1:
 E= -195.815934099556     Delta-E=       -0.000000003455 Rises=F Damp=F
 DIIS: error= 1.75D-06 at cycle   7 NSaved=   6.
 NSaved= 6 IEnMin= 6 EnMin= -195.815934099556     IErMin= 6 ErrMin= 1.75D-06
 ErrMax= 1.75D-06  0.00D+00 EMaxC= 1.00D-01 BMatC= 1.78D-10 BMatP= 2.08D-09
 IDIUse=1 WtCom= 1.00D+00 WtEn= 0.00D+00
 Coeff-Com:  0.257D-08-0.709D-03 0.256D-01-0.773D-02-0.476D+00 0.146D+01
 Coeff:      0.257D-08-0.709D-03 0.256D-01-0.773D-02-0.476D+00 0.146D+01
 Gap=     0.338 Goal=   None    Shift=    0.200
 RMSDP=7.84D-07 MaxDP=1.10D-04 DE=-3.45D-09 OVMax= 1.96D-05

 Cycle   8  Pass 1  IDiag  1:
 E= -195.815934100344     Delta-E=       -0.000000000788 Rises=F Damp=F
 DIIS: error= 8.74D-07 at cycle   8 NSaved=   7.
 NSaved= 7 IEnMin= 7 EnMin= -195.815934100344     IErMin= 7 ErrMin= 8.74D-07
 ErrMax= 8.74D-07  0.00D+00 EMaxC= 1.00D-01 BMatC= 8.04D-11 BMatP= 1.78D-10
 IDIUse=1 WtCom= 1.00D+00 WtEn= 0.00D+00
 Coeff-Com:  0.611D-08-0.788D-03 0.207D-01-0.247D-01-0.125D+00-0.276D+00
 Coeff-Com:  0.141D+01
 Coeff:      0.611D-08-0.788D-03 0.207D-01-0.247D-01-0.125D+00-0.276D+00
 Coeff:      0.141D+01
 Gap=     0.338 Goal=   None    Shift=    0.200
 RMSDP=2.52D-07 MaxDP=3.72D-05 DE=-7.88D-10 OVMax= 1.36D-05

 Cycle   9  Pass 1  IDiag  1:
 E= -195.815934100665     Delta-E=       -0.000000000321 Rises=F Damp=F
 DIIS: error= 8.62D-07 at cycle   9 NSaved=   8.
 NSaved= 8 IEnMin= 8 EnMin= -195.815934100665     IErMin= 8 ErrMin= 8.62D-07
 ErrMax= 8.62D-07  0.00D+00 EMaxC= 1.00D-01 BMatC= 2.23D-11 BMatP= 8.04D-11
 IDIUse=1 WtCom= 1.00D+00 WtEn= 0.00D+00
 Coeff-Com: -0.195D-08 0.318D-03-0.981D-02 0.908D-02 0.998D-01-0.959D-01
 Coeff-Com: -0.106D+01 0.205D+01
 Coeff:     -0.195D-08 0.318D-03-0.981D-02 0.908D-02 0.998D-01-0.959D-01
 Coeff:     -0.106D+01 0.205D+01
 Gap=     0.338 Goal=   None    Shift=    0.200
 RMSDP=6.28D-08 MaxDP=9.10D-06 DE=-3.21D-10 OVMax= 1.13D-05

 Cycle  10  Pass 1  IDiag  1:
 E= -195.815934100833     Delta-E=       -0.000000000168 Rises=F Damp=F
 DIIS: error= 6.52D-07 at cycle  10 NSaved=   9.
 NSaved= 9 IEnMin= 9 EnMin= -195.815934100833     IErMin= 9 ErrMin= 6.52D-07
 ErrMax= 6.52D-07  0.00D+00 EMaxC= 1.00D-01 BMatC= 7.44D-12 BMatP= 2.23D-11
 IDIUse=1 WtCom= 1.00D+00 WtEn= 0.00D+00
 Coeff-Com: -0.137D-08 0.172D-03-0.444D-02 0.119D-01 0.884D-02 0.843D-01
 Coeff-Com: -0.166D+00-0.109D+01 0.215D+01
 Coeff:     -0.137D-08 0.172D-03-0.444D-02 0.119D-01 0.884D-02 0.843D-01
 Coeff:     -0.166D+00-0.109D+01 0.215D+01
 Gap=     0.338 Goal=   None    Shift=    0.200
 RMSDP=2.16D-08 MaxDP=1.19D-06 DE=-1.68D-10 OVMax= 8.81D-06

 Cycle  11  Pass 1  IDiag  1:
 E= -195.815934100906     Delta-E=       -0.000000000073 Rises=F Damp=F
 DIIS: error= 2.51D-07 at cycle  11 NSaved=  10.
 NSaved=10 IEnMin=10 EnMin= -195.815934100906     IErMin=10 ErrMin= 2.51D-07
 ErrMax= 2.51D-07  0.00D+00 EMaxC= 1.00D-01 BMatC= 1.93D-12 BMatP= 7.44D-12
 IDIUse=1 WtCom= 1.00D+00 WtEn= 0.00D+00
 Coeff-Com: -0.165D-09 0.762D-05 0.918D-04-0.150D-02 0.119D-01-0.104D+00
 Coeff-Com:  0.345D+00-0.571D+00 0.212D-01 0.130D+01
 Coeff:     -0.165D-09 0.762D-05 0.918D-04-0.150D-02 0.119D-01-0.104D+00
 Coeff:      0.345D+00-0.571D+00 0.212D-01 0.130D+01
 Gap=     0.338 Goal=   None    Shift=    0.200
 RMSDP=1.06D-08 MaxDP=1.09D-06 DE=-7.27D-11 OVMax= 3.81D-06

 Cycle  12  Pass 1  IDiag  1:
 E= -195.815934100921     Delta-E=       -0.000000000015 Rises=F Damp=F
 DIIS: error= 1.12D-07 at cycle  12 NSaved=  11.
 NSaved=11 IEnMin=11 EnMin= -195.815934100921     IErMin=11 ErrMin= 1.12D-07
 ErrMax= 1.12D-07  0.00D+00 EMaxC= 1.00D-01 BMatC= 5.59D-13 BMatP= 1.93D-12
 IDIUse=1 WtCom= 1.00D+00 WtEn= 0.00D+00
 Coeff-Com:  0.870D-10 0.185D-04-0.921D-03 0.276D-02 0.286D-02 0.320D-01
 Coeff-Com: -0.259D+00 0.426D+00-0.104D+00-0.120D+01 0.210D+01
 Coeff:      0.870D-10 0.185D-04-0.921D-03 0.276D-02 0.286D-02 0.320D-01
 Coeff:     -0.259D+00 0.426D+00-0.104D+00-0.120D+01 0.210D+01
 Gap=     0.338 Goal=   None    Shift=    0.200
 RMSDP=7.44D-09 MaxDP=1.01D-06 DE=-1.51D-11 OVMax= 2.29D-06

 Cycle  13  Pass 1  IDiag  1:
 E= -195.815934100925     Delta-E=       -0.000000000004 Rises=F Damp=F
 DIIS: error= 4.82D-08 at cycle  13 NSaved=  12.
 NSaved=12 IEnMin=12 EnMin= -195.815934100925     IErMin=12 ErrMin= 4.82D-08
 ErrMax= 4.82D-08  0.00D+00 EMaxC= 1.00D-01 BMatC= 1.90D-13 BMatP= 5.59D-13
 IDIUse=1 WtCom= 1.00D+00 WtEn= 0.00D+00
 Coeff-Com: -0.852D-10 0.188D-04-0.590D-03 0.105D-02 0.309D-02 0.580D-02
 Coeff-Com: -0.680D-01 0.112D+00 0.706D-01-0.584D+00 0.139D+00 0.132D+01
 Coeff:     -0.852D-10 0.188D-04-0.590D-03 0.105D-02 0.309D-02 0.580D-02
 Coeff:     -0.680D-01 0.112D+00 0.706D-01-0.584D+00 0.139D+00 0.132D+01
 Gap=     0.338 Goal=   None    Shift=    0.200
 RMSDP=2.49D-09 MaxDP=1.99D-07 DE=-4.04D-12 OVMax= 9.88D-07

 SCF Done:  E(ROHF) =  -195.815934101     A.U. after   13 cycles
            NFock= 13  Conv=0.25D-08     -V/T= 2.5052
 <Sx>= 0.0000 <Sy>= 0.0000 <Sz>= 0.0000 <S**2>=-0.0000 S=-0.0000
 <L.S>=  0.00000000000    
 KE= 1.300932007595D+02 PE=-5.026878148260D+02 EE= 1.676383463224D+02
 Annihilation of the first spin contaminant:
 S**2 before annihilation    -0.0000,   after     0.0000
 Leave Link  502 at Sat May  5 21:02:42 2018, MaxMem= 10737418240 cpu:            1131.9 elap:              37.8
 (Enter /home1/apps/gaussian/16rA.03/g16/l801.exe)
 Windowed orbitals will be sorted by symmetry type.
 GenMOA:  NOpAll=  4 NOp2=4 NOpUse=  4 JSym2X=1
 FoFJK:  IHMeth= 1 ICntrl=       0 DoSepK=F KAlg= 0 I1Cent=           0 FoldK=F
 IRaf=         0 NMat=       1 IRICut=       1 DoRegI=T DoRafI=F ISym2E= 1 IDoP0=0 IntGTp=1.
 FoFCou: FMM=F IPFlag=           8 FMFlag=      100000 FMFlg1=           0
         NFxFlg=           0 DoJE=F BraDBF=F KetDBF=F FulRan=T
         wScrn=  0.000000 ICntrl=         0 IOpCl=  1 I1Cent=           0 NGrid=           0
         NMat0=    1 NMatS0=      1 NMatT0=    0 NMatD0=    1 NMtDS0=    0 NMtDT0=    0
 Petite list used in FoFCou.
 <Sx>= 0.0000 <Sy>= 0.0000 <Sz>= 0.0000 <S**2>=-0.0000 S=-0.0000
 Range of M.O.s used for correlation:     1   309
 NBasis=   310 NAE=    10 NBE=    10 NFC=     0 NFV=     0
 NROrb=    309 NOA=    10 NOB=    10 NVA=   299 NVB=   299

 **** Warning!!: The largest alpha MO coefficient is  0.24459861D+03


 **** Warning!!: The largest beta MO coefficient is  0.24459861D+03

 Singles contribution to E2=   -0.1128859743D-12
 Leave Link  801 at Sat May  5 21:02:56 2018, MaxMem= 10737418240 cpu:             426.6 elap:              13.4
 (Enter /home1/apps/gaussian/16rA.03/g16/l804.exe)
 Open-shell transformation, MDV= 10737418240 ITran=4 ISComp=2.
 Unit  1 TFree=       2908994 TCopy=       2147844.
 Semi-Direct transformation.
 ModeAB=           2 MOrb=            10 LenV=   10734471580
 LASXX=     36679488 LTotXX=    36679488 LenRXX=    36679488
 LTotAB=    37142312 MaxLAS=   250299270 LenRXY=   250299270
 NonZer=   255240180 LenScr=   384362496 LnRSAI=           0
 LnScr1=           0 LExtra=    15212821 Total=    686554075
 MaxDsk= 67108864000 SrtSym=           F ITran=            4
 DoSDTr:  NPSUse= 32
 JobTyp=1 Pass  1:  I=   1 to  10.
 (rs|ai) integrals will be sorted in core.
 Complete sort for first half transformation.
 First half transformation complete.
 Begin second half transformation for I=  10.
 Begin second half transformation for I=  10.
 Complete sort for second half transformation.
 Second half transformation complete.
 ModeAB=           2 MOrb=            10 LenV=   10734471580
 LASXX=     36679488 LTotXX=    36679488 LenRXX=   250299270
 LTotAB=    34764451 MaxLAS=   250299270 LenRXY=    34764451
 NonZer=   255240180 LenScr=   384362496 LnRSAI=           0
 LnScr1=           0 LExtra=   302191579 Total=    971617796
 MaxDsk= 67108864000 SrtSym=           F ITran=            4
 DoSDTr:  NPSUse= 32
 JobTyp=2 Pass  1:  I=   1 to  10.
 (rs|ai) integrals will be sorted in core.
 Complete sort for first half transformation.
 First half transformation complete.
 Begin second half transformation for I=  10.
 Begin second half transformation for I=  10.
 Complete sort for second half transformation.
 Second half transformation complete.
 Spin components of T(2) and E(2):
     alpha-alpha T2 =       0.2522068939D-01 E2=     -0.1783625044D+00
     alpha-beta  T2 =       0.1086954140D+00 E2=     -0.8010925861D+00
     beta-beta   T2 =       0.2522068939D-01 E2=     -0.1783625044D+00
 ANorm=    0.1076632153D+01
 E2 =    -0.1157817595D+01 EUMP2 =    -0.19697375169582D+03
 (S**2,0)=  0.00000D+00           (S**2,1)=  0.00000D+00
 E(PUHF)=      -0.19581593410D+03        E(PMP2)=      -0.19697375170D+03
 Leave Link  804 at Sat May  5 21:12:08 2018, MaxMem= 10737418240 cpu:           17668.7 elap:             552.5
 (Enter /home1/apps/gaussian/16rA.03/g16/l913.exe)
 CIDS:  MDV= 10737418240.
 IFCWin=0 IBDFC=1 NFBD=     0     0 NFCmp=     0     0 NFFFC=     0     0
 Using original routines for 1st iteration.
 Using DD4UQ or CC4UQ for 2nd and later iterations.
 Keep R2 and R3 ints in memory in symmetry-blocked form, NReq=1456569633.
 FoFCou: FMM=F IPFlag=           8 FMFlag=           0 FMFlg1=           0
         NFxFlg=           0 DoJE=F BraDBF=F KetDBF=F FulRan=T
         wScrn=  0.000000 ICntrl=       600 IOpCl=  0 I1Cent=           0 NGrid=           0
         NMat0=    1 NMatS0=  48205 NMatT0=    0 NMatD0=    1 NMtDS0=    0 NMtDT0=    0
 Petite list used in FoFCou.
 CIDS: In Core Option IDoMem=           1.
 CCSD(T)
 =======
 Iterations= 150 Convergence= 0.100D-06
 Produce multiple copies of IABC intergrals
 Iteration Nr.   1
 **********************
 DD1Dir will call FoFMem   1 times, MxPair=       290
 NAB=   100 NAA=    45 NBB=    45.
 DD1Dir will call FoFMem   1 times, MxPair=       290
 NAB=   100 NAA=    45 NBB=    45.
 MP4(R+Q)= -0.22478749D+00
 Maximum subspace dimension=  5
 A-vector RMS=  2.5002543D-05 Max=  3.2553856D-03 conv= 1.00D-05.
 RLE energy=       -1.1713909420
 E3=        0.21137142D+00        EROMP3=      -0.19676238028D+03
 E4(SDQ)=  -0.15773290D+00        ROMP4(SDQ)=  -0.19692011318D+03
 VARIATIONAL ENERGIES WITH THE FIRST-ORDER WAVEFUNCTION:
 DE(Corr)=  -1.1712337     E(Corr)=     -196.98716776    
 NORM(A)=   0.10783165D+01
 Iteration Nr.   2
 **********************
 DD1Dir will call FoFMem   1 times, MxPair=       290
 NAB=   100 NAA=    45 NBB=    45.
 A-vector RMS=  4.4099998D-03 Max=  3.5731302D-02 conv= 1.00D-05.
 RLE energy=       -1.1329039478
 DE(Corr)= -0.94632200     E(CORR)=     -196.76225610     Delta= 2.25D-01
 NORM(A)=   0.10711004D+01
 Iteration Nr.   3
 **********************
 DD1Dir will call FoFMem   1 times, MxPair=       290
 NAB=   100 NAA=    45 NBB=    45.
 A-vector RMS=  3.1607421D-03 Max=  2.4936266D-02 conv= 1.00D-05.
 RLE energy=       -1.0806997159
 DE(Corr)= -0.96543717     E(CORR)=     -196.78137127     Delta=-1.91D-02
 NORM(A)=   0.10654080D+01
 Iteration Nr.   4
 **********************
 DD1Dir will call FoFMem   1 times, MxPair=       290
 NAB=   100 NAA=    45 NBB=    45.
 A-vector RMS=  2.2122224D-03 Max=  1.7550602D-02 conv= 1.00D-05.
 RLE energy=       -0.9833622873
 DE(Corr)= -0.99341009     E(CORR)=     -196.80934419     Delta=-2.80D-02
 NORM(A)=   0.10684410D+01
 Iteration Nr.   5
 **********************
 DD1Dir will call FoFMem   1 times, MxPair=       290
 NAB=   100 NAA=    45 NBB=    45.
 A-vector RMS=  1.4364252D-03 Max=  1.1604555D-02 conv= 1.00D-05.
 RLE energy=       -1.0155058664
 DE(Corr)=  -1.0578405     E(CORR)=     -196.87377458     Delta=-6.44D-02
 NORM(A)=   0.10731010D+01
 Iteration Nr.   6
 **********************
 DD1Dir will call FoFMem   1 times, MxPair=       290
 NAB=   100 NAA=    45 NBB=    45.
 A-vector RMS=  4.2433548D-04 Max=  3.3918100D-03 conv= 1.00D-05.
 RLE energy=       -1.0315757788
 DE(Corr)=  -1.0391672     E(CORR)=     -196.85510125     Delta= 1.87D-02
 NORM(A)=   0.10718826D+01
 Iteration Nr.   7
 **********************
 DD1Dir will call FoFMem   1 times, MxPair=       290
 NAB=   100 NAA=    45 NBB=    45.
 A-vector RMS=  1.4905534D-04 Max=  2.2859979D-03 conv= 1.00D-05.
 RLE energy=       -1.0294751423
 DE(Corr)=  -1.0286739     E(CORR)=     -196.84460795     Delta= 1.05D-02
 NORM(A)=   0.10723762D+01
 Iteration Nr.   8
 **********************
 DD1Dir will call FoFMem   1 times, MxPair=       290
 NAB=   100 NAA=    45 NBB=    45.
 A-vector RMS=  1.1649452D-04 Max=  1.7083472D-03 conv= 1.00D-05.
 RLE energy=       -1.0294984826
 DE(Corr)=  -1.0298046     E(CORR)=     -196.84573873     Delta=-1.13D-03
 NORM(A)=   0.10729651D+01
 Iteration Nr.   9
 **********************
 DD1Dir will call FoFMem   1 times, MxPair=       290
 NAB=   100 NAA=    45 NBB=    45.
 A-vector RMS=  5.9531606D-05 Max=  7.8821001D-04 conv= 1.00D-05.
 RLE energy=       -1.0296471312
 DE(Corr)=  -1.0296190     E(CORR)=     -196.84555306     Delta= 1.86D-04
 NORM(A)=   0.10735460D+01
 Iteration Nr.  10
 **********************
 DD1Dir will call FoFMem   1 times, MxPair=       290
 NAB=   100 NAA=    45 NBB=    45.
 A-vector RMS=  2.4600020D-05 Max=  3.2255322D-04 conv= 1.00D-05.
 RLE energy=       -1.0296639612
 DE(Corr)=  -1.0296439     E(CORR)=     -196.84557803     Delta=-2.50D-05
 NORM(A)=   0.10736371D+01
 Iteration Nr.  11
 **********************
 DD1Dir will call FoFMem   1 times, MxPair=       290
 NAB=   100 NAA=    45 NBB=    45.
 A-vector RMS=  1.7218966D-05 Max=  3.0502847D-04 conv= 1.00D-05.
 RLE energy=       -1.0295804957
 DE(Corr)=  -1.0296177     E(CORR)=     -196.84555185     Delta= 2.62D-05
 NORM(A)=   0.10736462D+01
 Iteration Nr.  12
 **********************
 DD1Dir will call FoFMem   1 times, MxPair=       290
 NAB=   100 NAA=    45 NBB=    45.
 A-vector RMS=  9.1193982D-06 Max=  1.0322943D-04 conv= 1.00D-05.
 RLE energy=       -1.0296687778
 DE(Corr)=  -1.0296683     E(CORR)=     -196.84560242     Delta=-5.06D-05
 NORM(A)=   0.10736287D+01
 Iteration Nr.  13
 **********************
 DD1Dir will call FoFMem   1 times, MxPair=       290
 NAB=   100 NAA=    45 NBB=    45.
 A-vector RMS=  3.9409500D-06 Max=  3.2122034D-05 conv= 1.00D-05.
 RLE energy=       -1.0296217543
 DE(Corr)=  -1.0296047     E(CORR)=     -196.84553880     Delta= 6.36D-05
 NORM(A)=   0.10736203D+01
 Iteration Nr.  14
 **********************
 DD1Dir will call FoFMem   1 times, MxPair=       290
 NAB=   100 NAA=    45 NBB=    45.
 A-vector RMS=  1.9399062D-06 Max=  1.6889862D-05 conv= 1.00D-05.
 RLE energy=       -1.0296282995
 DE(Corr)=  -1.0296346     E(CORR)=     -196.84556873     Delta=-2.99D-05
 NORM(A)=   0.10736151D+01
 Iteration Nr.  15
 **********************
 DD1Dir will call FoFMem   1 times, MxPair=       290
 NAB=   100 NAA=    45 NBB=    45.
 A-vector RMS=  1.1051933D-06 Max=  1.5638955D-05 conv= 1.00D-05.
 RLE energy=       -1.0296261588
 DE(Corr)=  -1.0296254     E(CORR)=     -196.84555954     Delta= 9.18D-06
 NORM(A)=   0.10736120D+01
 Iteration Nr.  16
 **********************
 DD1Dir will call FoFMem   1 times, MxPair=       290
 NAB=   100 NAA=    45 NBB=    45.
 A-vector RMS=  5.9275157D-07 Max=  1.0143670D-05 conv= 1.00D-05.
 RLE energy=       -1.0296263011
 DE(Corr)=  -1.0296266     E(CORR)=     -196.84556069     Delta=-1.15D-06
 NORM(A)=   0.10736094D+01
 Iteration Nr.  17
 **********************
 DD1Dir will call FoFMem   1 times, MxPair=       290
 NAB=   100 NAA=    45 NBB=    45.
 A-vector RMS=  3.9657741D-07 Max=  6.7087374D-06 conv= 1.00D-05.
 RLE energy=       -1.0296255142
 DE(Corr)=  -1.0296259     E(CORR)=     -196.84555999     Delta= 7.03D-07
 NORM(A)=   0.10736070D+01
 Iteration Nr.  18
 **********************
 DD1Dir will call FoFMem   1 times, MxPair=       290
 NAB=   100 NAA=    45 NBB=    45.
 A-vector RMS=  3.0655042D-07 Max=  4.5920922D-06 conv= 1.00D-05.
 RLE energy=       -1.0296260583
 DE(Corr)=  -1.0296260     E(CORR)=     -196.84556011     Delta=-1.24D-07
 NORM(A)=   0.10736047D+01
 Iteration Nr.  19
 **********************
 DD1Dir will call FoFMem   1 times, MxPair=       290
 NAB=   100 NAA=    45 NBB=    45.
 A-vector RMS=  1.8801194D-07 Max=  1.8719891D-06 conv= 1.00D-05.
 RLE energy=       -1.0296251355
 DE(Corr)=  -1.0296252     E(CORR)=     -196.84555935     Delta= 7.61D-07
 NORM(A)=   0.10736039D+01
 Iteration Nr.  20
 **********************
 DD1Dir will call FoFMem   1 times, MxPair=       290
 NAB=   100 NAA=    45 NBB=    45.
 A-vector RMS=  1.2509446D-07 Max=  1.2599722D-06 conv= 1.00D-05.
 RLE energy=       -1.0296258971
 DE(Corr)=  -1.0296261     E(CORR)=     -196.84556020     Delta=-8.55D-07
 NORM(A)=   0.10736034D+01
 Iteration Nr.  21
 **********************
 DD1Dir will call FoFMem   1 times, MxPair=       290
 NAB=   100 NAA=    45 NBB=    45.
 A-vector RMS=  7.1366500D-08 Max=  7.4110075D-07 conv= 1.00D-05.
 RLE energy=       -1.0296256096
 DE(Corr)=  -1.0296254     E(CORR)=     -196.84555954     Delta= 6.68D-07
 NORM(A)=   0.10736032D+01
 Iteration Nr.  22
 **********************
 DD1Dir will call FoFMem   1 times, MxPair=       290
 NAB=   100 NAA=    45 NBB=    45.
 A-vector RMS=  4.8937438D-08 Max=  5.8575086D-07 conv= 1.00D-05.
 RLE energy=       -1.0296256436
 DE(Corr)=  -1.0296257     E(CORR)=     -196.84555979     Delta=-2.51D-07
 NORM(A)=   0.10736031D+01
 Iteration Nr.  23
 **********************
 DD1Dir will call FoFMem   1 times, MxPair=       290
 NAB=   100 NAA=    45 NBB=    45.
 A-vector RMS=  3.4043120D-08 Max=  4.3998794D-07 conv= 1.00D-05.
 RLE energy=       -1.0296256615
 DE(Corr)=  -1.0296257     E(CORR)=     -196.84555978     Delta= 5.24D-09
 NORM(A)=   0.10736031D+01
 CI/CC converged in   23 iterations to DelEn= 5.24D-09 Conv= 1.00D-07 ErrA1= 3.40D-08 Conv= 1.00D-05
 Wavefunction amplitudes converged. E(Corr)=     -196.84555978    
 Largest amplitude= 5.74D-02
 Time for triples=    57754.64 seconds.
 T4(CCSD)= -0.47072564D-01
 T5(CCSD)=  0.67012778D-02
 CCSD(T)= -0.19688593107D+03
 Discarding MO integrals.
 Leave Link  913 at Sat May  5 21:54:22 2018, MaxMem= 10737418240 cpu:           80925.8 elap:            2532.9
 (Enter /home1/apps/gaussian/16rA.03/g16/l601.exe)
 Copying SCF densities to generalized density rwf, IOpCl= 0 IROHF=1.

 **********************************************************************

            Population analysis using the SCF density.

 **********************************************************************

 Orbital symmetries:
       Occupied  (SG) (SG) (PI) (PI) (SG) (PI) (PI) (DLTA) (DLTA)
                 (SG)
       Virtual   (SG) (PI) (PI) (SG) (SG) (PI) (PI) (SG) (PI) (PI)
                 (SG) (DLTA) (DLTA) (SG) (SG) (PI) (PI) (SG) (PI)
                 (PI) (SG) (DLTA) (DLTA) (PI) (PI) (SG) (SG) (SG)
                 (DLTA) (DLTA) (PI) (PI) (PI) (PI) (SG) (PHI) (PHI)
                 (SG) (PI) (PI) (DLTA) (DLTA) (PI) (PI) (SG) (DLTA)
                 (DLTA) (SG) (SG) (PI) (PI) (PHI) (PHI) (PI) (PI)
                 (DLTA) (DLTA) (SG) (SG) (PI) (PI) (SG) (DLTA)
                 (DLTA) (SG) (PI) (PI) (PHI) (PHI) (DLTA) (DLTA)
                 (PI) (PI) (SG) (DLTA) (DLTA) (PI) (PI) (SG) (?A)
                 (?A) (PHI) (PHI) (SG) (PI) (PI) (DLTA) (DLTA)
                 (SG) (PI) (PI) (SG) (SG) (PI) (PI) (PHI) (PHI)
                 (DLTA) (DLTA) (PI) (PI) (SG) (SG) (DLTA) (DLTA)
                 (SG) (PI) (PI) (PHI) (PHI) (DLTA) (DLTA) (SG)
                 (PI) (PI) (DLTA) (DLTA) (PI) (PI) (SG) (?A) (?A)
                 (PI) (PI) (PHI) (PHI) (?A) (?A) (?B) (?B) (PHI)
                 (PHI) (DLTA) (DLTA) (SG) (PI) (PI) (DLTA) (DLTA)
                 (SG) (SG) (PI) (PI) (SG) (DLTA) (DLTA) (PI) (PI)
                 (SG) (PI) (PI) (SG) (PHI) (PHI) (DLTA) (DLTA)
                 (PI) (PI) (SG) (?A) (?A) (PHI) (PHI) (DLTA) (DLTA)
                 (PI) (PI) (SG) (?A) (?A) (?B) (?B) (PHI) (PHI)
                 (DLTA) (DLTA) (SG) (PI) (PI) (SG) (DLTA) (DLTA)
                 (PI) (PI) (SG) (PI) (PI) (SG) (SG) (PHI) (PHI)
                 (DLTA) (DLTA) (PI) (PI) (DLTA) (DLTA) (SG) (PI)
                 (PI) (SG) (PI) (PI) (SG) (?A) (?A) (PHI) (PHI)
                 (DLTA) (DLTA) (PI) (PI) (SG) (?A) (?A) (?B) (?B)
                 (PHI) (PHI) (SG) (DLTA) (DLTA) (PI) (PI) (SG)
                 (DLTA) (DLTA) (PI) (PI) (SG) (PI) (PI) (SG) (SG)
                 (DLTA) (DLTA) (PI) (PI) (SG) (PI) (PI) (SG) (SG)
                 (SG) (PI) (PI) (SG) (DLTA) (DLTA) (PI) (PI) (SG)
                 (SG) (PI) (PI) (SG) (DLTA) (DLTA) (PI) (PI) (SG)
                 (SG) (PI) (PI) (SG) (SG) (PI) (PI) (SG) (DLTA)
                 (DLTA) (PI) (PI) (SG) (SG) (PI) (PI) (SG) (SG)
                 (PI) (PI) (SG) (SG) (PI) (PI) (SG) (SG) (PI) (PI)
                 (SG) (SG) (PI) (PI) (SG) (SG) (SG) (SG) (SG) (SG)
 The electronic state is 1-SG.
 Alpha  occ. eigenvalues --   -5.27179  -3.45234  -3.42954  -3.42954  -0.59473
 Alpha  occ. eigenvalues --   -0.54747  -0.54747  -0.52799  -0.52799  -0.33011
 Alpha virt. eigenvalues --    0.00836   0.02678   0.02678   0.02925   0.05747
 Alpha virt. eigenvalues --    0.08894   0.08894   0.09170   0.13275   0.13275
 Alpha virt. eigenvalues --    0.13358   0.14063   0.14063   0.20142   0.23031
 Alpha virt. eigenvalues --    0.25501   0.25501   0.28604   0.32619   0.32619
 Alpha virt. eigenvalues --    0.41024   0.44835   0.44835   0.45467   0.45467
 Alpha virt. eigenvalues --    0.53061   0.58458   0.68148   0.71761   0.71761
 Alpha virt. eigenvalues --    0.75551   0.75551   0.80630   0.80630   0.82600
 Alpha virt. eigenvalues --    0.99891   0.99891   1.06094   1.13520   1.13520
 Alpha virt. eigenvalues --    1.14738   1.14738   1.15296   1.15296   1.21595
 Alpha virt. eigenvalues --    1.23549   1.23549   1.40569   1.57094   1.64126
 Alpha virt. eigenvalues --    1.64126   1.70958   1.70958   1.98436   1.98436
 Alpha virt. eigenvalues --    2.01117   2.01117   2.02969   2.31183   2.44273
 Alpha virt. eigenvalues --    2.44273   2.47527   2.57283   2.57283   2.59950
 Alpha virt. eigenvalues --    2.69121   2.69121   2.95859   2.95859   2.97757
 Alpha virt. eigenvalues --    2.97757   3.01933   3.01933   3.02598   3.23261
 Alpha virt. eigenvalues --    3.23261   3.33753   3.33753   3.34096   3.43289
 Alpha virt. eigenvalues --    3.43289   3.65090   3.65090   4.03365   4.08426
 Alpha virt. eigenvalues --    4.08426   4.28134   4.28134   4.74009   4.89706
 Alpha virt. eigenvalues --    4.89706   4.93491   6.47188   6.47706   6.47706
 Alpha virt. eigenvalues --    6.61422   6.61422   6.73601   6.73601   6.82734
 Alpha virt. eigenvalues --    6.82734   6.90921   7.05851   7.24317   7.24317
 Alpha virt. eigenvalues --    7.47736   7.52183   7.52183   7.53366   7.53366
 Alpha virt. eigenvalues --    7.66391   7.66391   8.27555   8.27957   8.27957
 Alpha virt. eigenvalues --    8.46420   8.46420   8.65729   8.65729   8.89581
 Alpha virt. eigenvalues --    9.14853   9.14853   9.16308   9.16308   9.25371
 Alpha virt. eigenvalues --    9.25371   9.33686   9.33686   9.34625   9.34625
 Alpha virt. eigenvalues --    9.55694   9.55694   9.61303   9.61303   9.73418
 Alpha virt. eigenvalues --   10.25970  10.25970  10.69026  10.69026  11.19763
 Alpha virt. eigenvalues --   12.31680  12.84251  12.84251  13.04770  13.82265
 Alpha virt. eigenvalues --   13.82265  13.97859  13.97859  14.15419  14.31858
 Alpha virt. eigenvalues --   14.31858  15.29713  18.39722  18.39722  18.52091
 Alpha virt. eigenvalues --   18.52091  18.87862  18.87862  20.27463  21.62534
 Alpha virt. eigenvalues --   21.62534  21.69305  21.69305  21.84865  21.84865
 Alpha virt. eigenvalues --   22.23126  22.23126  22.44731  23.47386  23.47386
 Alpha virt. eigenvalues --   23.47989  23.47989  23.54015  23.54015  23.94594
 Alpha virt. eigenvalues --   23.94594  24.03916  24.52342  24.52342  25.84484
 Alpha virt. eigenvalues --   25.91844  25.91844  26.07711  26.07711  26.55006
 Alpha virt. eigenvalues --   27.38883  27.38883  27.81945  28.63596  45.03664
 Alpha virt. eigenvalues --   45.03664  45.12626  45.12626  45.29680  45.29680
 Alpha virt. eigenvalues --   45.43613  45.43613  45.66483  45.66799  45.66799
 Alpha virt. eigenvalues --   46.42275  49.35810  49.35810  49.47285  49.70807
 Alpha virt. eigenvalues --   49.70807  49.75441  49.75441  49.85340  49.85340
 Alpha virt. eigenvalues --   50.09085  50.09085  50.37512  54.30863  54.30863
 Alpha virt. eigenvalues --   54.31016  54.31016  54.34281  54.34281  54.47218
 Alpha virt. eigenvalues --   54.57062  54.57062  54.89107  54.89107  55.50284
 Alpha virt. eigenvalues --   76.86369  76.86369  77.01456  77.01456  77.27707
 Alpha virt. eigenvalues --   85.31469  85.31469  85.59494 115.83259 133.03153
 Alpha virt. eigenvalues --  133.03153 133.17504 133.17504 133.42389 143.88134
 Alpha virt. eigenvalues --  143.88134 144.14966 163.94144 220.67229 243.80446
 Alpha virt. eigenvalues --  243.80446 244.03467 264.45816 264.45816 264.58561
 Alpha virt. eigenvalues --  264.58561 264.82279 383.80472 423.86537 423.86537
 Alpha virt. eigenvalues --  424.05539 664.71245 664.71245 664.81108 664.81108
 Alpha virt. eigenvalues --  664.99489 689.75153 765.26296 765.26296 765.43036
 Alpha virt. eigenvalues -- 1295.380471450.084601450.084601450.234862176.55051
 Alpha virt. eigenvalues -- 2176.550512176.616042176.616042176.739382543.46002
 Alpha virt. eigenvalues -- 2922.688122922.688122922.823985241.397966366.07708
 Alpha virt. eigenvalues -- 6366.077086366.19862******************************
 Alpha virt. eigenvalues -- **************************************************
 Alpha virt. eigenvalues -- **************************************************
 Alpha virt. eigenvalues -- ****************************************
     Molecular Orbital Coefficients:
                           6         7         8         9        10
                           O         O         O         O         O
     Eigenvalues --    -0.54747  -0.54747  -0.52799  -0.52799  -0.33011
   1 1   Cu 1S          0.00000   0.00000   0.00000   0.00000   0.00000
   2        2S          0.00000   0.00000   0.00000   0.00000  -0.00000
   3        3S          0.00000   0.00000   0.00000   0.00000   0.00000
   4        4S          0.00000   0.00000  -0.00000   0.00000  -0.00000
   5        5S          0.00000   0.00000   0.00000   0.00000   0.00000
   6        6S          0.00000   0.00000  -0.00000   0.00000  -0.00000
   7        7S          0.00000   0.00000   0.00000   0.00000   0.00000
   8        8S          0.00000   0.00000  -0.00000   0.00000  -0.00001
   9        9S          0.00000   0.00000   0.00000   0.00000   0.00002
  10       10S          0.00000   0.00000  -0.00000   0.00000  -0.00006
  11       11S          0.00000   0.00000   0.00000   0.00000   0.00017
  12       12S          0.00000   0.00000  -0.00000   0.00000  -0.00056
  13       13S          0.00000   0.00000   0.00000   0.00000   0.00251
  14       14S          0.00000   0.00000   0.00000   0.00000  -0.01867
  15       15S          0.00000   0.00000  -0.00000   0.00000   0.03318
  16       16S          0.00000   0.00000  -0.00000   0.00000   0.14243
  17       17S          0.00000   0.00000   0.00000   0.00000  -0.06246
  18       18S          0.00000   0.00000   0.00000   0.00000  -0.18260
  19       19S          0.00000   0.00000   0.00000   0.00000  -0.15463
  20       20S          0.00000   0.00000  -0.00000   0.00000   0.20947
  21       21S          0.00000   0.00000  -0.00000   0.00000   0.32680
  22       22S          0.00000   0.00000  -0.00000   0.00000   0.10159
  23       23S          0.00000   0.00000   0.00000   0.00000  -0.07326
  24       24S          0.00000   0.00000  -0.00000   0.00000  -0.00982
  25       25S          0.00000   0.00000   0.00000   0.00000  -0.00781
  26       26PX         0.00000   0.00000   0.00000   0.00000   0.00000
  27       26PY         0.00000   0.00000   0.00000   0.00000   0.00000
  28       26PZ         0.00000   0.00000   0.00000   0.00000  -0.00000
  29       27PX         0.00000  -0.00000   0.00000   0.00000   0.00000
  30       27PY        -0.00000   0.00000   0.00000   0.00000   0.00000
  31       27PZ         0.00000   0.00000  -0.00000   0.00000   0.00000
  32       28PX         0.00000   0.00000   0.00000   0.00000   0.00000
  33       28PY         0.00000   0.00000   0.00000   0.00000   0.00000
  34       28PZ         0.00000   0.00000   0.00000   0.00000  -0.00000
  35       29PX         0.00000  -0.00000   0.00000   0.00000   0.00000
  36       29PY        -0.00000   0.00000   0.00000   0.00000   0.00000
  37       29PZ         0.00000   0.00000  -0.00000   0.00000   0.00000
  38       30PX         0.00000   0.00000   0.00000   0.00000   0.00000
  39       30PY         0.00000   0.00000   0.00000   0.00000   0.00000
  40       30PZ         0.00000   0.00000   0.00000   0.00000  -0.00000
  41       31PX         0.00000  -0.00000   0.00000   0.00000   0.00000
  42       31PY        -0.00000   0.00000   0.00000   0.00000   0.00000
  43       31PZ         0.00000   0.00000  -0.00000   0.00000   0.00002
  44       32PX         0.00000   0.00000   0.00000   0.00000   0.00000
  45       32PY         0.00000   0.00000   0.00000   0.00000   0.00000
  46       32PZ         0.00000   0.00000   0.00000   0.00000  -0.00006
  47       33PX         0.00000  -0.00002   0.00000   0.00000   0.00000
  48       33PY        -0.00002   0.00000   0.00000   0.00000   0.00000
  49       33PZ         0.00000   0.00000  -0.00000   0.00000   0.00024
  50       34PX         0.00000   0.00003   0.00000   0.00000   0.00000
  51       34PY         0.00003   0.00000   0.00000   0.00000   0.00000
  52       34PZ         0.00000   0.00000   0.00000   0.00000  -0.00004
  53       35PX         0.00000   0.00005   0.00000   0.00000   0.00000
  54       35PY         0.00005   0.00000   0.00000   0.00000   0.00000
  55       35PZ         0.00000   0.00000  -0.00000   0.00000  -0.00542
  56       36PX         0.00000  -0.00123   0.00000   0.00000   0.00000
  57       36PY        -0.00123   0.00000   0.00000   0.00000   0.00000
  58       36PZ         0.00000   0.00000  -0.00000   0.00000  -0.00030
  59       37PX         0.00000   0.00035   0.00000   0.00000   0.00000
  60       37PY         0.00035   0.00000   0.00000   0.00000   0.00000
  61       37PZ         0.00000   0.00000   0.00000   0.00000   0.01771
  62       38PX         0.00000   0.00357   0.00000   0.00000   0.00000
  63       38PY         0.00357   0.00000   0.00000   0.00000   0.00000
  64       38PZ         0.00000   0.00000   0.00000   0.00000   0.02611
  65       39PX         0.00000  -0.00287   0.00000   0.00000   0.00000
  66       39PY        -0.00287   0.00000   0.00000   0.00000   0.00000
  67       39PZ         0.00000   0.00000  -0.00000   0.00000   0.04489
  68       40PX         0.00000   0.00297   0.00000   0.00000   0.00000
  69       40PY         0.00297   0.00000   0.00000   0.00000   0.00000
  70       40PZ         0.00000   0.00000  -0.00000   0.00000   0.00670
  71       41PX         0.00000   0.01157   0.00000   0.00000   0.00000
  72       41PY         0.01157   0.00000   0.00000   0.00000   0.00000
  73       41PZ         0.00000   0.00000  -0.00000   0.00000  -0.03960
  74       42PX         0.00000   0.00091   0.00000   0.00000   0.00000
  75       42PY         0.00091   0.00000   0.00000   0.00000   0.00000
  76       42PZ         0.00000   0.00000  -0.00000   0.00000  -0.03566
  77       43PX         0.00000  -0.00116   0.00000   0.00000   0.00000
  78       43PY        -0.00116   0.00000   0.00000   0.00000   0.00000
  79       43PZ         0.00000   0.00000   0.00000   0.00000  -0.00724
  80       44PX         0.00000   0.00112   0.00000   0.00000   0.00000
  81       44PY         0.00112   0.00000   0.00000   0.00000   0.00000
  82       44PZ         0.00000   0.00000   0.00000   0.00000  -0.00235
  83       45PX         0.00000  -0.00523   0.00000   0.00000   0.00000
  84       45PY        -0.00523   0.00000   0.00000   0.00000   0.00000
  85       45PZ         0.00000   0.00000  -0.00000   0.00000   0.01329
  86       46PX         0.00000   0.00029   0.00000   0.00000   0.00000
  87       46PY         0.00029   0.00000   0.00000   0.00000   0.00000
  88       46PZ         0.00000   0.00000  -0.00000   0.00000   0.00122
  89       47D 0        0.00000   0.00000  -0.00000   0.00000  -0.00002
  90       47D+1        0.00000   0.00003   0.00000   0.00000   0.00000
  91       47D-1        0.00003   0.00000   0.00000   0.00000   0.00000
  92       47D+2        0.00000   0.00000   0.00003   0.00000  -0.00000
  93       47D-2        0.00000   0.00000   0.00000   0.00003   0.00000
  94       48D 0        0.00000   0.00000   0.00000   0.00000   0.00009
  95       48D+1        0.00000  -0.00021   0.00000   0.00000   0.00000
  96       48D-1       -0.00021   0.00000   0.00000   0.00000   0.00000
  97       48D+2        0.00000   0.00000  -0.00021   0.00000   0.00000
  98       48D-2        0.00000   0.00000   0.00000  -0.00021   0.00000
  99       49D 0        0.00000   0.00000  -0.00000   0.00000  -0.00499
 100       49D+1        0.00000   0.01105   0.00000   0.00000   0.00000
 101       49D-1        0.01105   0.00000   0.00000   0.00000   0.00000
 102       49D+2        0.00000   0.00000   0.01113   0.00000   0.00000
 103       49D-2        0.00000   0.00000   0.00000   0.01113   0.00000
 104       50D 0        0.00000   0.00000  -0.00000   0.00000  -0.02347
 105       50D+1        0.00000   0.05196   0.00000   0.00000   0.00000
 106       50D-1        0.05196   0.00000   0.00000   0.00000   0.00000
 107       50D+2        0.00000   0.00000   0.05235   0.00000   0.00000
 108       50D-2        0.00000   0.00000   0.00000   0.05235   0.00000
 109       51D 0        0.00000   0.00000  -0.00000   0.00000  -0.04291
 110       51D+1        0.00000   0.09527   0.00000   0.00000   0.00000
 111       51D-1        0.09527   0.00000   0.00000   0.00000   0.00000
 112       51D+2        0.00000   0.00000   0.09591   0.00000  -0.00000
 113       51D-2        0.00000   0.00000   0.00000   0.09591   0.00000
 114       52D 0        0.00000   0.00000  -0.00000   0.00000  -0.06941
 115       52D+1        0.00000   0.15560   0.00000   0.00000   0.00000
 116       52D-1        0.15560   0.00000   0.00000   0.00000   0.00000
 117       52D+2        0.00000   0.00000   0.15633   0.00000  -0.00000
 118       52D-2        0.00000   0.00000   0.00000   0.15633   0.00000
 119       53D 0        0.00000   0.00000  -0.00000   0.00000  -0.12235
 120       53D+1        0.00000   0.27170   0.00000   0.00000   0.00000
 121       53D-1        0.27170   0.00000   0.00000   0.00000   0.00000
 122       53D+2        0.00000   0.00000   0.27350   0.00000  -0.00000
 123       53D-2        0.00000   0.00000   0.00000   0.27350   0.00000
 124       54D 0        0.00000   0.00000  -0.00000   0.00000  -0.13585
 125       54D+1        0.00000   0.29728   0.00000   0.00000   0.00000
 126       54D-1        0.29728   0.00000   0.00000   0.00000   0.00000
 127       54D+2        0.00000   0.00000   0.29835   0.00000   0.00000
 128       54D-2        0.00000   0.00000   0.00000   0.29835   0.00000
 129       55D 0        0.00000   0.00000  -0.00000   0.00000  -0.10647
 130       55D+1        0.00000   0.23692   0.00000   0.00000   0.00000
 131       55D-1        0.23692   0.00000   0.00000   0.00000   0.00000
 132       55D+2        0.00000   0.00000   0.23696   0.00000  -0.00000
 133       55D-2        0.00000   0.00000   0.00000   0.23696   0.00000
 134       56D 0        0.00000   0.00000  -0.00000   0.00000  -0.07077
 135       56D+1        0.00000   0.13908   0.00000   0.00000   0.00000
 136       56D-1        0.13908   0.00000   0.00000   0.00000   0.00000
 137       56D+2        0.00000   0.00000   0.14296   0.00000   0.00000
 138       56D-2        0.00000   0.00000   0.00000   0.14296   0.00000
 139       57D 0        0.00000   0.00000  -0.00000   0.00000  -0.03114
 140       57D+1        0.00000   0.03855   0.00000   0.00000   0.00000
 141       57D-1        0.03855   0.00000   0.00000   0.00000   0.00000
 142       57D+2        0.00000   0.00000   0.04006   0.00000  -0.00000
 143       57D-2        0.00000   0.00000   0.00000   0.04006   0.00000
 144       58D 0        0.00000   0.00000  -0.00000   0.00000  -0.01984
 145       58D+1        0.00000   0.04294   0.00000   0.00000   0.00000
 146       58D-1        0.04294   0.00000   0.00000   0.00000   0.00000
 147       58D+2        0.00000   0.00000   0.04348   0.00000   0.00000
 148       58D-2        0.00000   0.00000   0.00000   0.04348   0.00000
 149       59D 0        0.00000   0.00000   0.00000   0.00000  -0.01928
 150       59D+1        0.00000   0.04071   0.00000   0.00000   0.00000
 151       59D-1        0.04071   0.00000   0.00000   0.00000   0.00000
 152       59D+2        0.00000   0.00000   0.04120   0.00000   0.00000
 153       59D-2        0.00000   0.00000   0.00000   0.04120   0.00000
 154       60D 0        0.00000   0.00000   0.00000   0.00000  -0.00476
 155       60D+1        0.00000   0.00129   0.00000   0.00000   0.00000
 156       60D-1        0.00129   0.00000   0.00000   0.00000   0.00000
 157       60D+2        0.00000   0.00000   0.00069   0.00000   0.00000
 158       60D-2        0.00000   0.00000   0.00000   0.00069   0.00000
 159       61F 0        0.00000   0.00000  -0.00000   0.00000  -0.00013
 160       61F+1        0.00000  -0.00003   0.00000   0.00000   0.00000
 161       61F-1       -0.00003   0.00000   0.00000   0.00000   0.00000
 162       61F+2        0.00000   0.00000   0.00002   0.00000   0.00000
 163       61F-2        0.00000   0.00000   0.00000   0.00002   0.00000
 164       61F+3        0.00000   0.00000   0.00000   0.00000   0.00000
 165       61F-3        0.00000   0.00000   0.00000   0.00000   0.00000
 166       62F 0        0.00000   0.00000  -0.00000   0.00000  -0.00037
 167       62F+1        0.00000   0.00009   0.00000   0.00000   0.00000
 168       62F-1        0.00009   0.00000   0.00000   0.00000   0.00000
 169       62F+2        0.00000   0.00000   0.00007   0.00000   0.00000
 170       62F-2        0.00000   0.00000   0.00000   0.00007   0.00000
 171       62F+3        0.00000   0.00000   0.00000   0.00000   0.00000
 172       62F-3       -0.00000   0.00000   0.00000   0.00000   0.00000
 173       63F 0        0.00000   0.00000  -0.00000   0.00000  -0.00145
 174       63F+1        0.00000  -0.00010   0.00000   0.00000   0.00000
 175       63F-1       -0.00010   0.00000   0.00000   0.00000   0.00000
 176       63F+2        0.00000   0.00000   0.00049   0.00000   0.00000
 177       63F-2        0.00000   0.00000   0.00000   0.00049   0.00000
 178       63F+3        0.00000   0.00000   0.00000   0.00000   0.00000
 179       63F-3        0.00000   0.00000   0.00000   0.00000   0.00000
 180       64F 0        0.00000   0.00000  -0.00000   0.00000  -0.00560
 181       64F+1        0.00000   0.00220   0.00000   0.00000   0.00000
 182       64F-1        0.00220   0.00000   0.00000   0.00000   0.00000
 183       64F+2        0.00000   0.00000   0.00297   0.00000   0.00000
 184       64F-2        0.00000   0.00000   0.00000   0.00297   0.00000
 185       64F+3        0.00000  -0.00000   0.00000   0.00000   0.00000
 186       64F-3        0.00000   0.00000   0.00000   0.00000   0.00000
 187       65F 0        0.00000   0.00000  -0.00000   0.00000  -0.00657
 188       65F+1        0.00000   0.00575   0.00000   0.00000   0.00000
 189       65F-1        0.00575   0.00000   0.00000   0.00000   0.00000
 190       65F+2        0.00000   0.00000   0.00480   0.00000   0.00000
 191       65F-2        0.00000   0.00000   0.00000   0.00480   0.00000
 192       65F+3        0.00000  -0.00000   0.00000   0.00000   0.00000
 193       65F-3       -0.00000   0.00000   0.00000   0.00000   0.00000
 194       66G 0        0.00000   0.00000  -0.00000   0.00000  -0.00001
 195       66G+1        0.00000   0.00007   0.00000   0.00000   0.00000
 196       66G-1        0.00007   0.00000   0.00000   0.00000   0.00000
 197       66G+2        0.00000   0.00000   0.00006   0.00000   0.00000
 198       66G-2        0.00000   0.00000   0.00000   0.00006   0.00000
 199       66G+3        0.00000   0.00000   0.00000   0.00000   0.00000
 200       66G-3        0.00000   0.00000   0.00000   0.00000   0.00000
 201       66G+4        0.00000   0.00000  -0.00000   0.00000   0.00000
 202       66G-4        0.00000   0.00000   0.00000  -0.00000   0.00000
 203       67G 0        0.00000   0.00000  -0.00000   0.00000  -0.00010
 204       67G+1        0.00000   0.00018   0.00000   0.00000   0.00000
 205       67G-1        0.00018   0.00000   0.00000   0.00000   0.00000
 206       67G+2        0.00000   0.00000   0.00017   0.00000  -0.00000
 207       67G-2        0.00000   0.00000   0.00000   0.00017   0.00000
 208       67G+3        0.00000  -0.00000   0.00000   0.00000   0.00000
 209       67G-3       -0.00000   0.00000   0.00000   0.00000   0.00000
 210       67G+4        0.00000   0.00000  -0.00000   0.00000  -0.00000
 211       67G-4        0.00000   0.00000   0.00000  -0.00000   0.00000
 212       68G 0        0.00000   0.00000  -0.00000   0.00000  -0.00012
 213       68G+1        0.00000   0.00128   0.00000   0.00000   0.00000
 214       68G-1        0.00128   0.00000   0.00000   0.00000   0.00000
 215       68G+2        0.00000   0.00000   0.00069   0.00000   0.00000
 216       68G-2        0.00000   0.00000   0.00000   0.00069   0.00000
 217       68G+3        0.00000  -0.00000   0.00000   0.00000   0.00000
 218       68G-3       -0.00000   0.00000   0.00000   0.00000   0.00000
 219       68G+4        0.00000   0.00000  -0.00000   0.00000  -0.00000
 220       68G-4        0.00000   0.00000   0.00000  -0.00000   0.00000
 221       69G 0        0.00000   0.00000   0.00000   0.00000  -0.00013
 222       69G+1        0.00000   0.00146   0.00000   0.00000   0.00000
 223       69G-1        0.00146   0.00000   0.00000   0.00000   0.00000
 224       69G+2        0.00000   0.00000   0.00099   0.00000  -0.00000
 225       69G-2        0.00000   0.00000   0.00000   0.00099   0.00000
 226       69G+3        0.00000  -0.00000   0.00000   0.00000   0.00000
 227       69G-3       -0.00000   0.00000   0.00000   0.00000   0.00000
 228       69G+4        0.00000   0.00000  -0.00000   0.00000  -0.00000
 229       69G-4        0.00000   0.00000   0.00000  -0.00000   0.00000
 230       70H 0        0.00000   0.00000   0.00000   0.00000   0.00002
 231       70H+1        0.00000  -0.00004   0.00000   0.00000   0.00000
 232       70H-1       -0.00004   0.00000   0.00000   0.00000   0.00000
 233       70H+2        0.00000   0.00000  -0.00003   0.00000  -0.00000
 234       70H-2        0.00000   0.00000   0.00000  -0.00003   0.00000
 235       70H+3        0.00000  -0.00000   0.00000   0.00000   0.00000
 236       70H-3       -0.00000   0.00000   0.00000   0.00000   0.00000
 237       70H+4        0.00000   0.00000   0.00000   0.00000   0.00000
 238       70H-4        0.00000   0.00000   0.00000   0.00000   0.00000
 239       70H+5        0.00000  -0.00000   0.00000   0.00000   0.00000
 240       70H-5       -0.00000   0.00000   0.00000   0.00000   0.00000
 241       71H 0        0.00000   0.00000   0.00000   0.00000   0.00004
 242       71H+1        0.00000  -0.00005   0.00000   0.00000   0.00000
 243       71H-1       -0.00005   0.00000   0.00000   0.00000   0.00000
 244       71H+2        0.00000   0.00000  -0.00001   0.00000   0.00000
 245       71H-2        0.00000   0.00000   0.00000  -0.00001   0.00000
 246       71H+3        0.00000   0.00000   0.00000   0.00000   0.00000
 247       71H-3        0.00000   0.00000   0.00000   0.00000   0.00000
 248       71H+4        0.00000   0.00000   0.00000   0.00000  -0.00000
 249       71H-4        0.00000   0.00000   0.00000   0.00000   0.00000
 250       71H+5        0.00000  -0.00000   0.00000   0.00000   0.00000
 251       71H-5        0.00000   0.00000   0.00000   0.00000   0.00000
 252       72H 0        0.00000   0.00000   0.00000   0.00000  -0.00009
 253       72H+1        0.00000  -0.00036   0.00000   0.00000   0.00000
 254       72H-1       -0.00036   0.00000   0.00000   0.00000   0.00000
 255       72H+2        0.00000   0.00000  -0.00018   0.00000   0.00000
 256       72H-2        0.00000   0.00000   0.00000  -0.00018   0.00000
 257       72H+3        0.00000  -0.00000   0.00000   0.00000   0.00000
 258       72H-3       -0.00000   0.00000   0.00000   0.00000   0.00000
 259       72H+4        0.00000   0.00000   0.00000   0.00000   0.00000
 260       72H-4        0.00000   0.00000   0.00000   0.00000   0.00000
 261       72H+5        0.00000  -0.00000   0.00000   0.00000   0.00000
 262       72H-5       -0.00000   0.00000   0.00000   0.00000   0.00000
 263 2   H  1S          0.00000   0.00000  -0.00000   0.00000   0.00020
 264        2S          0.00000   0.00000  -0.00000   0.00000   0.00761
 265        3S          0.00000   0.00000  -0.00000   0.00000   0.03406
 266        4S          0.00000   0.00000  -0.00000   0.00000   0.10945
 267        5S          0.00000   0.00000  -0.00000   0.00000   0.20616
 268        6S          0.00000   0.00000  -0.00000   0.00000   0.16319
 269        7S          0.00000   0.00000  -0.00000   0.00000   0.01989
 270        8PX         0.00000  -0.00367   0.00000   0.00000   0.00000
 271        8PY        -0.00367   0.00000   0.00000   0.00000   0.00000
 272        8PZ         0.00000   0.00000  -0.00000   0.00000  -0.00188
 273        9PX         0.00000  -0.00919   0.00000   0.00000   0.00000
 274        9PY        -0.00919   0.00000   0.00000   0.00000   0.00000
 275        9PZ         0.00000   0.00000  -0.00000   0.00000  -0.00006
 276       10PX         0.00000  -0.01263   0.00000   0.00000   0.00000
 277       10PY        -0.01263   0.00000   0.00000   0.00000   0.00000
 278       10PZ         0.00000   0.00000  -0.00000   0.00000   0.00014
 279       11PX         0.00000   0.00107   0.00000   0.00000   0.00000
 280       11PY         0.00107   0.00000   0.00000   0.00000   0.00000
 281       11PZ         0.00000   0.00000  -0.00000   0.00000  -0.00728
 282       12D 0        0.00000   0.00000  -0.00000   0.00000  -0.00094
 283       12D+1        0.00000  -0.00190   0.00000   0.00000   0.00000
 284       12D-1       -0.00190   0.00000   0.00000   0.00000   0.00000
 285       12D+2        0.00000   0.00000   0.00046   0.00000  -0.00000
 286       12D-2        0.00000   0.00000   0.00000   0.00046   0.00000
 287       13D 0        0.00000   0.00000  -0.00000   0.00000  -0.00111
 288       13D+1        0.00000  -0.00284   0.00000   0.00000   0.00000
 289       13D-1       -0.00284   0.00000   0.00000   0.00000   0.00000
 290       13D+2        0.00000   0.00000   0.00147   0.00000   0.00000
 291       13D-2        0.00000   0.00000   0.00000   0.00147   0.00000
 292       14D 0        0.00000   0.00000  -0.00000   0.00000  -0.00248
 293       14D+1        0.00000  -0.00040   0.00000   0.00000   0.00000
 294       14D-1       -0.00040   0.00000   0.00000   0.00000   0.00000
 295       14D+2        0.00000   0.00000   0.00065   0.00000   0.00000
 296       14D-2        0.00000   0.00000   0.00000   0.00065   0.00000
 297       15F 0        0.00000   0.00000  -0.00000   0.00000  -0.00040
 298       15F+1        0.00000  -0.00085   0.00000   0.00000   0.00000
 299       15F-1       -0.00085   0.00000   0.00000   0.00000   0.00000
 300       15F+2        0.00000   0.00000   0.00049   0.00000  -0.00000
 301       15F-2        0.00000   0.00000   0.00000   0.00049   0.00000
 302       15F+3        0.00000  -0.00000   0.00000   0.00000   0.00000
 303       15F-3       -0.00000   0.00000   0.00000   0.00000   0.00000
 304       16F 0        0.00000   0.00000  -0.00000   0.00000  -0.00024
 305       16F+1        0.00000   0.00017   0.00000   0.00000   0.00000
 306       16F-1        0.00017   0.00000   0.00000   0.00000   0.00000
 307       16F+2        0.00000   0.00000   0.00010   0.00000   0.00000
 308       16F-2        0.00000   0.00000   0.00000   0.00010   0.00000
 309       16F+3        0.00000   0.00000   0.00000   0.00000   0.00000
 310       16F-3        0.00000   0.00000   0.00000   0.00000   0.00000
                          11        12        13        14        15
                           V         V         V         V         V
     Eigenvalues --     0.00836   0.02678   0.02678   0.02925   0.05747
   1 1   Cu 1S          0.00000   0.00000   0.00000  -0.00000  -0.00000
   2        2S         -0.00000   0.00000   0.00000   0.00000   0.00000
   3        3S          0.00000   0.00000   0.00000  -0.00000  -0.00000
   4        4S         -0.00000   0.00000   0.00000   0.00000   0.00000
   5        5S          0.00000   0.00000   0.00000  -0.00000  -0.00000
   6        6S         -0.00000   0.00000   0.00000   0.00000   0.00000
   7        7S          0.00000   0.00000   0.00000  -0.00000  -0.00000
   8        8S         -0.00000   0.00000   0.00000   0.00000   0.00000
   9        9S          0.00001   0.00000   0.00000  -0.00000  -0.00000
  10       10S         -0.00001   0.00000   0.00000   0.00001   0.00000
  11       11S          0.00004   0.00000   0.00000  -0.00003  -0.00001
  12       12S         -0.00010   0.00000   0.00000   0.00007   0.00004
  13       13S          0.00031   0.00000   0.00000   0.00001  -0.00036
  14       14S         -0.00156   0.00000   0.00000  -0.00145   0.00344
  15       15S          0.00369   0.00000   0.00000   0.00112  -0.00459
  16       16S         -0.01604   0.00000   0.00000   0.05348  -0.07193
  17       17S         -0.01175   0.00000   0.00000   0.00304  -0.00581
  18       18S          0.00984   0.00000   0.00000  -0.01866   0.04154
  19       19S         -0.00128   0.00000   0.00000  -0.01604   0.06237
  20       20S         -0.74206   0.00000   0.00000  -0.24812  -1.93635
  21       21S          1.53736   0.00000   0.00000  -2.47626   4.34948
  22       22S         -0.42187   0.00000   0.00000  -2.64553  -2.42399
  23       23S          0.02287   0.00000   0.00000  -0.04827   0.06347
  24       24S         -0.00970   0.00000   0.00000  -0.01363   0.02117
  25       25S          1.37185   0.00000   0.00000  -4.95476   1.10446
  26       26PX         0.00000   0.00000   0.00000   0.00000   0.00000
  27       26PY         0.00000   0.00000   0.00000   0.00000   0.00000
  28       26PZ         0.00000   0.00000   0.00000   0.00000   0.00000
  29       27PX         0.00000   0.00000  -0.00000   0.00000   0.00000
  30       27PY         0.00000  -0.00000   0.00000   0.00000   0.00000
  31       27PZ        -0.00000   0.00000   0.00000  -0.00000  -0.00000
  32       28PX         0.00000   0.00000   0.00000   0.00000   0.00000
  33       28PY         0.00000   0.00000   0.00000   0.00000   0.00000
  34       28PZ         0.00000   0.00000   0.00000   0.00000   0.00000
  35       29PX         0.00000   0.00000  -0.00000   0.00000   0.00000
  36       29PY         0.00000  -0.00000   0.00000   0.00000   0.00000
  37       29PZ        -0.00000   0.00000   0.00000  -0.00000  -0.00000
  38       30PX         0.00000   0.00000   0.00001   0.00000   0.00000
  39       30PY         0.00000   0.00001   0.00000   0.00000   0.00000
  40       30PZ         0.00000   0.00000   0.00000   0.00001   0.00001
  41       31PX         0.00000   0.00000  -0.00004   0.00000   0.00000
  42       31PY         0.00000  -0.00004   0.00000   0.00000   0.00000
  43       31PZ        -0.00001   0.00000   0.00000  -0.00003  -0.00002
  44       32PX         0.00000   0.00000   0.00014   0.00000   0.00000
  45       32PY         0.00000   0.00014   0.00000   0.00000   0.00000
  46       32PZ         0.00004   0.00000   0.00000   0.00008   0.00007
  47       33PX         0.00000   0.00000  -0.00047   0.00000   0.00000
  48       33PY         0.00000  -0.00047   0.00000   0.00000   0.00000
  49       33PZ        -0.00016   0.00000   0.00000  -0.00026  -0.00016
  50       34PX         0.00000   0.00000   0.00140   0.00000   0.00000
  51       34PY         0.00000   0.00140   0.00000   0.00000   0.00000
  52       34PZ        -0.00004   0.00000   0.00000   0.00088   0.00138
  53       35PX         0.00000   0.00000  -0.00564   0.00000   0.00000
  54       35PY         0.00000  -0.00564   0.00000   0.00000   0.00000
  55       35PZ         0.00435   0.00000   0.00000  -0.00449  -0.01335
  56       36PX         0.00000   0.00000  -0.05054   0.00000   0.00000
  57       36PY         0.00000  -0.05054   0.00000   0.00000   0.00000
  58       36PZ         0.00268   0.00000   0.00000  -0.03173  -0.05364
  59       37PX         0.00000   0.00000   0.03440   0.00000   0.00000
  60       37PY         0.00000   0.03440   0.00000   0.00000   0.00000
  61       37PZ        -0.01467   0.00000   0.00000   0.02445   0.06273
  62       38PX         0.00000   0.00000   0.12464   0.00000   0.00000
  63       38PY         0.00000   0.12464   0.00000   0.00000   0.00000
  64       38PZ        -0.01845   0.00000   0.00000   0.08072   0.20128
  65       39PX         0.00000   0.00000  -0.04607   0.00000   0.00000
  66       39PY         0.00000  -0.04607   0.00000   0.00000   0.00000
  67       39PZ        -0.04211   0.00000   0.00000  -0.01943  -0.02845
  68       40PX         0.00000   0.00000   0.01987   0.00000   0.00000
  69       40PY         0.00000   0.01987   0.00000   0.00000   0.00000
  70       40PZ         0.01658   0.00000   0.00000   0.01365   0.11969
  71       41PX         0.00000   0.00000  -0.07882   0.00000   0.00000
  72       41PY         0.00000  -0.07882   0.00000   0.00000   0.00000
  73       41PZ         0.39046   0.00000   0.00000   0.08069   0.79347
  74       42PX         0.00000   0.00000   0.07909   0.00000   0.00000
  75       42PY         0.00000   0.07909   0.00000   0.00000   0.00000
  76       42PZ        -0.33232   0.00000   0.00000   1.03733  -1.23707
  77       43PX         0.00000   0.00000  -0.42299   0.00000   0.00000
  78       43PY         0.00000  -0.42299   0.00000   0.00000   0.00000
  79       43PZ        -0.12256   0.00000   0.00000   0.98333  -1.21354
  80       44PX         0.00000   0.00000   0.04459   0.00000   0.00000
  81       44PY         0.00000   0.04459   0.00000   0.00000   0.00000
  82       44PZ        -0.00046   0.00000   0.00000   0.02760   0.04352
  83       45PX         0.00000   0.00000  -0.14547   0.00000   0.00000
  84       45PY         0.00000  -0.14547   0.00000   0.00000   0.00000
  85       45PZ        -0.00765   0.00000   0.00000  -0.08744  -0.15957
  86       46PX         0.00000   0.00000   1.20494   0.00000   0.00000
[...]
  88       46PZ        -0.00032  -0.00016  -0.00016   0.00000
  89       47D 0        0.00000   0.00000   0.00000   0.00000
  90       47D+1        0.00000   0.00000   0.00000   0.00000
  91       47D-1        0.00000   0.00000   0.00000   0.00000
  92       47D+2        0.00000   0.00000   0.00000   0.00000
  93       47D-2        0.00000   0.00000   0.00000   0.00000
  94       48D 0       -0.00002  -0.00001  -0.00001   0.00000
  95       48D+1       -0.00002  -0.00001  -0.00001   0.00000
  96       48D-1       -0.00002  -0.00001  -0.00001   0.00000
  97       48D+2       -0.00002  -0.00001  -0.00001   0.00000
  98       48D-2       -0.00002  -0.00001  -0.00001   0.00000
  99       49D 0        0.00258   0.00129   0.00129   0.00000
 100       49D+1        0.00305   0.00152   0.00152   0.00000
 101       49D-1        0.00305   0.00152   0.00152   0.00000
 102       49D+2        0.00309   0.00154   0.00154   0.00000
 103       49D-2        0.00309   0.00154   0.00154   0.00000
 104       50D 0        0.02637   0.01318   0.01318   0.00000
 105       50D+1        0.03117   0.01558   0.01558   0.00000
 106       50D-1        0.03117   0.01558   0.01558   0.00000
 107       50D+2        0.03161   0.01581   0.01581   0.00000
 108       50D-2        0.03161   0.01581   0.01581   0.00000
 109       51D 0        0.08352   0.04176   0.04176   0.00000
 110       51D+1        0.09783   0.04892   0.04892   0.00000
 111       51D-1        0.09783   0.04892   0.04892   0.00000
 112       51D+2        0.09911   0.04956   0.04956   0.00000
 113       51D-2        0.09911   0.04956   0.04956   0.00000
 114       52D 0        0.19851   0.09925   0.09925   0.00000
 115       52D+1        0.22527   0.11263   0.11263   0.00000
 116       52D-1        0.22527   0.11263   0.11263   0.00000
 117       52D+2        0.22755   0.11377   0.11377   0.00000
 118       52D-2        0.22755   0.11377   0.11377   0.00000
 119       53D 0        0.41025   0.20513   0.20513   0.00000
 120       53D+1        0.46953   0.23476   0.23476   0.00000
 121       53D-1        0.46953   0.23476   0.23476   0.00000
 122       53D+2        0.47441   0.23720   0.23720   0.00000
 123       53D-2        0.47441   0.23720   0.23720   0.00000
 124       54D 0        0.47128   0.23564   0.23564   0.00000
 125       54D+1        0.52154   0.26077   0.26077   0.00000
 126       54D-1        0.52154   0.26077   0.26077   0.00000
 127       54D+2        0.52350   0.26175   0.26175   0.00000
 128       54D-2        0.52350   0.26175   0.26175   0.00000
 129       55D 0        0.34037   0.17019   0.17019   0.00000
 130       55D+1        0.35432   0.17716   0.17716   0.00000
 131       55D-1        0.35432   0.17716   0.17716   0.00000
 132       55D+2        0.35225   0.17612   0.17612   0.00000
 133       55D-2        0.35225   0.17612   0.17612   0.00000
 134       56D 0        0.15154   0.07577   0.07577   0.00000
 135       56D+1        0.14340   0.07170   0.07170   0.00000
 136       56D-1        0.14340   0.07170   0.07170   0.00000
 137       56D+2        0.14549   0.07274   0.07274   0.00000
 138       56D-2        0.14549   0.07274   0.07274   0.00000
 139       57D 0        0.02109   0.01054   0.01054   0.00000
 140       57D+1        0.02025   0.01013   0.01013   0.00000
 141       57D-1        0.02025   0.01013   0.01013   0.00000
 142       57D+2        0.02070   0.01035   0.01035   0.00000
 143       57D-2        0.02070   0.01035   0.01035   0.00000
 144       58D 0        0.04341   0.02170   0.02170   0.00000
 145       58D+1        0.05414   0.02707   0.02707   0.00000
 146       58D-1        0.05414   0.02707   0.02707   0.00000
 147       58D+2        0.05514   0.02757   0.02757   0.00000
 148       58D-2        0.05514   0.02757   0.02757   0.00000
 149       59D 0        0.04903   0.02452   0.02452   0.00000
 150       59D+1        0.06489   0.03244   0.03244   0.00000
 151       59D-1        0.06489   0.03244   0.03244   0.00000
 152       59D+2        0.06598   0.03299   0.03299   0.00000
 153       59D-2        0.06598   0.03299   0.03299   0.00000
 154       60D 0        0.00003   0.00001   0.00001   0.00000
 155       60D+1        0.00026   0.00013   0.00013   0.00000
 156       60D-1        0.00026   0.00013   0.00013   0.00000
 157       60D+2        0.00014   0.00007   0.00007   0.00000
 158       60D-2        0.00014   0.00007   0.00007   0.00000
 159       61F 0        0.00000   0.00000   0.00000   0.00000
 160       61F+1        0.00000   0.00000   0.00000   0.00000
 161       61F-1        0.00000   0.00000   0.00000   0.00000
 162       61F+2        0.00000   0.00000   0.00000   0.00000
 163       61F-2        0.00000   0.00000   0.00000   0.00000
 164       61F+3        0.00000   0.00000   0.00000   0.00000
 165       61F-3       -0.00000  -0.00000  -0.00000   0.00000
 166       62F 0        0.00001   0.00000   0.00000   0.00000
 167       62F+1        0.00000   0.00000   0.00000   0.00000
 168       62F-1        0.00000   0.00000   0.00000   0.00000
 169       62F+2        0.00000   0.00000   0.00000   0.00000
 170       62F-2        0.00000   0.00000   0.00000   0.00000
 171       62F+3       -0.00000  -0.00000  -0.00000   0.00000
 172       62F-3       -0.00000  -0.00000  -0.00000   0.00000
 173       63F 0        0.00022   0.00011   0.00011   0.00000
 174       63F+1        0.00001   0.00000   0.00000   0.00000
 175       63F-1        0.00001   0.00000   0.00000   0.00000
 176       63F+2        0.00000   0.00000   0.00000   0.00000
 177       63F-2        0.00000   0.00000   0.00000   0.00000
 178       63F+3        0.00000   0.00000   0.00000   0.00000
 179       63F-3       -0.00000  -0.00000  -0.00000   0.00000
 180       64F 0        0.00115   0.00058   0.00058   0.00000
 181       64F+1       -0.00001  -0.00001  -0.00001   0.00000
 182       64F-1       -0.00001  -0.00001  -0.00001   0.00000
 183       64F+2        0.00003   0.00001   0.00001   0.00000
 184       64F-2        0.00003   0.00001   0.00001   0.00000
 185       64F+3        0.00000   0.00000   0.00000   0.00000
 186       64F-3       -0.00000  -0.00000  -0.00000   0.00000
 187       65F 0        0.00106   0.00053   0.00053   0.00000
 188       65F+1       -0.00004  -0.00002  -0.00002   0.00000
 189       65F-1       -0.00004  -0.00002  -0.00002   0.00000
 190       65F+2        0.00005   0.00003   0.00003   0.00000
 191       65F-2        0.00005   0.00003   0.00003   0.00000
 192       65F+3       -0.00000  -0.00000  -0.00000   0.00000
 193       65F-3       -0.00000  -0.00000  -0.00000   0.00000
 194       66G 0        0.00000   0.00000   0.00000   0.00000
 195       66G+1        0.00000   0.00000   0.00000   0.00000
 196       66G-1        0.00000   0.00000   0.00000   0.00000
 197       66G+2        0.00000   0.00000   0.00000   0.00000
 198       66G-2        0.00000   0.00000   0.00000   0.00000
 199       66G+3        0.00000   0.00000   0.00000   0.00000
 200       66G-3       -0.00000  -0.00000  -0.00000   0.00000
 201       66G+4        0.00000   0.00000   0.00000   0.00000
 202       66G-4       -0.00000  -0.00000  -0.00000   0.00000
 203       67G 0        0.00000   0.00000   0.00000   0.00000
 204       67G+1        0.00000   0.00000   0.00000   0.00000
 205       67G-1        0.00000   0.00000   0.00000   0.00000
 206       67G+2        0.00000   0.00000   0.00000   0.00000
 207       67G-2        0.00000   0.00000   0.00000   0.00000
 208       67G+3       -0.00000  -0.00000  -0.00000   0.00000
 209       67G-3       -0.00000  -0.00000  -0.00000   0.00000
 210       67G+4       -0.00000  -0.00000  -0.00000   0.00000
 211       67G-4        0.00000   0.00000   0.00000   0.00000
 212       68G 0        0.00009   0.00004   0.00004   0.00000
 213       68G+1        0.00001   0.00001   0.00001   0.00000
 214       68G-1        0.00001   0.00001   0.00001   0.00000
 215       68G+2        0.00000   0.00000   0.00000   0.00000
 216       68G-2        0.00000   0.00000   0.00000   0.00000
 217       68G+3       -0.00000  -0.00000  -0.00000   0.00000
 218       68G-3       -0.00000  -0.00000  -0.00000   0.00000
 219       68G+4        0.00000   0.00000   0.00000   0.00000
 220       68G-4       -0.00000  -0.00000  -0.00000   0.00000
 221       69G 0        0.00015   0.00007   0.00007   0.00000
 222       69G+1        0.00003   0.00001   0.00001   0.00000
 223       69G-1        0.00003   0.00001   0.00001   0.00000
 224       69G+2        0.00000   0.00000   0.00000   0.00000
 225       69G-2        0.00000   0.00000   0.00000   0.00000
 226       69G+3        0.00000   0.00000   0.00000   0.00000
 227       69G-3       -0.00000  -0.00000  -0.00000   0.00000
 228       69G+4        0.00000   0.00000   0.00000   0.00000
 229       69G-4        0.00000   0.00000   0.00000   0.00000
 230       70H 0        0.00000   0.00000   0.00000   0.00000
 231       70H+1        0.00000   0.00000   0.00000   0.00000
 232       70H-1        0.00000   0.00000   0.00000   0.00000
 233       70H+2        0.00000   0.00000   0.00000   0.00000
 234       70H-2        0.00000   0.00000   0.00000   0.00000
 235       70H+3       -0.00000  -0.00000  -0.00000   0.00000
 236       70H-3       -0.00000  -0.00000  -0.00000   0.00000
 237       70H+4       -0.00000  -0.00000  -0.00000   0.00000
 238       70H-4       -0.00000  -0.00000  -0.00000   0.00000
 239       70H+5       -0.00000  -0.00000  -0.00000   0.00000
 240       70H-5       -0.00000  -0.00000  -0.00000   0.00000
 241       71H 0        0.00000   0.00000   0.00000   0.00000
 242       71H+1        0.00000   0.00000   0.00000   0.00000
 243       71H-1        0.00000   0.00000   0.00000   0.00000
 244       71H+2        0.00000   0.00000   0.00000   0.00000
 245       71H-2        0.00000   0.00000   0.00000   0.00000
 246       71H+3       -0.00000  -0.00000  -0.00000   0.00000
 247       71H-3       -0.00000  -0.00000  -0.00000   0.00000
 248       71H+4       -0.00000  -0.00000  -0.00000   0.00000
 249       71H-4        0.00000   0.00000   0.00000   0.00000
 250       71H+5        0.00000   0.00000   0.00000   0.00000
 251       71H-5        0.00000   0.00000   0.00000   0.00000
 252       72H 0        0.00002   0.00001   0.00001   0.00000
 253       72H+1        0.00000   0.00000   0.00000   0.00000
 254       72H-1        0.00000   0.00000   0.00000   0.00000
 255       72H+2        0.00000   0.00000   0.00000   0.00000
 256       72H-2        0.00000   0.00000   0.00000   0.00000
 257       72H+3       -0.00000  -0.00000  -0.00000   0.00000
 258       72H-3        0.00000   0.00000   0.00000   0.00000
 259       72H+4        0.00000   0.00000   0.00000   0.00000
 260       72H-4       -0.00000  -0.00000  -0.00000   0.00000
 261       72H+5        0.00000   0.00000   0.00000   0.00000
 262       72H-5       -0.00000  -0.00000  -0.00000   0.00000
 263 2   H  1S          0.00005   0.00003   0.00003   0.00000
 264        2S          0.00631   0.00315   0.00315   0.00000
 265        3S          0.06401   0.03201   0.03201   0.00000
 266        4S          0.30901   0.15450   0.15450   0.00000
 267        5S          0.49012   0.24506   0.24506   0.00000
 268        6S          0.30610   0.15305   0.15305   0.00000
 269        7S          0.02631   0.01316   0.01316   0.00000
 270        8PX         0.00083   0.00042   0.00042   0.00000
 271        8PY         0.00083   0.00042   0.00042   0.00000
 272        8PZ         0.00263   0.00132   0.00132   0.00000
 273        9PX         0.00482   0.00241   0.00241   0.00000
 274        9PY         0.00482   0.00241   0.00241   0.00000
 275        9PZ         0.00798   0.00399   0.00399   0.00000
 276       10PX         0.00650   0.00325   0.00325   0.00000
 277       10PY         0.00650   0.00325   0.00325   0.00000
 278       10PZ         0.00554   0.00277   0.00277   0.00000
 279       11PX        -0.00017  -0.00008  -0.00008   0.00000
 280       11PY        -0.00017  -0.00008  -0.00008   0.00000
 281       11PZ        -0.00280  -0.00140  -0.00140   0.00000
 282       12D 0        0.00112   0.00056   0.00056   0.00000
 283       12D+1        0.00053   0.00027   0.00027   0.00000
 284       12D-1        0.00053   0.00027   0.00027   0.00000
 285       12D+2        0.00004   0.00002   0.00002   0.00000
 286       12D-2        0.00004   0.00002   0.00002   0.00000
 287       13D 0        0.00171   0.00085   0.00085   0.00000
 288       13D+1        0.00182   0.00091   0.00091   0.00000
 289       13D-1        0.00182   0.00091   0.00091   0.00000
 290       13D+2        0.00046   0.00023   0.00023   0.00000
 291       13D-2        0.00046   0.00023   0.00023   0.00000
 292       14D 0        0.00089   0.00045   0.00045   0.00000
 293       14D+1       -0.00011  -0.00005  -0.00005   0.00000
 294       14D-1       -0.00011  -0.00005  -0.00005   0.00000
 295       14D+2        0.00028   0.00014   0.00014   0.00000
 296       14D-2        0.00028   0.00014   0.00014   0.00000
 297       15F 0        0.00063   0.00032   0.00032   0.00000
 298       15F+1        0.00042   0.00021   0.00021   0.00000
 299       15F-1        0.00042   0.00021   0.00021   0.00000
 300       15F+2        0.00011   0.00005   0.00005   0.00000
 301       15F-2        0.00011   0.00005   0.00005   0.00000
 302       15F+3        0.00000   0.00000   0.00000   0.00000
 303       15F-3        0.00000   0.00000   0.00000   0.00000
 304       16F 0       -0.00003  -0.00002  -0.00002   0.00000
 305       16F+1        0.00005   0.00003   0.00003   0.00000
 306       16F-1        0.00005   0.00003   0.00003   0.00000
 307       16F+2        0.00007   0.00003   0.00003   0.00000
 308       16F-2        0.00007   0.00003   0.00003   0.00000
 309       16F+3       -0.00000  -0.00000  -0.00000   0.00000
 310       16F-3       -0.00000  -0.00000  -0.00000   0.00000
          Condensed to atoms (all electrons):
               1          2
     1  Cu  18.278383   0.470748
     2  H    0.470748   0.780122
          Atomic-Atomic Spin Densities.
               1          2
     1  Cu   0.000000   0.000000
     2  H    0.000000   0.000000
 Mulliken charges and spin densities:
               1          2
     1  Cu   0.250870   0.000000
     2  H   -0.250870   0.000000
 Sum of Mulliken charges =  -0.00000   0.00000
 Mulliken charges and spin densities with hydrogens summed into heavy atoms:
               1          2
     1  Cu  -0.000000   0.000000
 Electronic spatial extent (au):  <R**2>=             36.0553
 Charge=             -0.0000 electrons
 Dipole moment (field-independent basis, Debye):
    X=              0.0000    Y=              0.0000    Z=              3.0865  Tot=              3.0865
 Quadrupole moment (field-independent basis, Debye-Ang):
   XX=            -14.2598   YY=            -14.2598   ZZ=            -14.4225
   XY=              0.0000   XZ=              0.0000   YZ=              0.0000
 Traceless Quadrupole moment (field-independent basis, Debye-Ang):
   XX=              0.0542   YY=              0.0542   ZZ=             -0.1085
   XY=              0.0000   XZ=              0.0000   YZ=              0.0000
 Octapole moment (field-independent basis, Debye-Ang**2):
  XXX=              0.0000  YYY=              0.0000  ZZZ=              9.0444  XYY=              0.0000
  XXY=              0.0000  XXZ=              2.6505  XZZ=              0.0000  YZZ=              0.0000
  YYZ=              2.6505  XYZ=              0.0000
 Hexadecapole moment (field-independent basis, Debye-Ang**3):
 XXXX=            -18.8686 YYYY=            -18.8686 ZZZZ=            -28.4044 XXXY=              0.0000
 XXXZ=              0.0000 YYYX=              0.0000 YYYZ=              0.0000 ZZZX=              0.0000
 ZZZY=              0.0000 XXYY=             -6.2895 XXZZ=             -7.8615 YYZZ=             -7.8615
 XXYZ=              0.0000 YYXZ=              0.0000 ZZXY=              0.0000
 N-N= 9.140333643164D+00 E-N=-5.026878177893D+02  KE= 1.300932007595D+02
 Symmetry A1   KE= 5.285981078915D+01
 Symmetry A2   KE= 1.910394865814D+01
 Symmetry B1   KE= 2.906472065441D+01
 Symmetry B2   KE= 2.906472065663D+01
 Symmetry A1   SP= 0.000000000000D+00
 Symmetry A2   SP= 0.000000000000D+00
 Symmetry B1   SP= 0.000000000000D+00
 Symmetry B2   SP= 0.000000000000D+00
 Orbital energies and kinetic energies (alpha):
                                 1                 2
   6         O                -0.547469          9.448125
   7         O                -0.547469          9.448125
   8         O                -0.527993          9.551974
   9         O                -0.527993          9.551974
  10         O                -0.330107          2.330546
  11         V                 0.008356          0.178116
  12         V                 0.026777          0.039210
  13         V                 0.026777          0.039210
  14         V                 0.029247          0.033516
  15         V                 0.057466          0.315413
 Total kinetic energy from orbitals= 1.300932007595D+02
                          Isotropic Fermi Contact Couplings
        Atom                 a.u.       MegaHertz       Gauss      10(-4) cm-1
     1  Cu(63)             0.00000       0.00000       0.00000       0.00000
     2  H(1)               0.00000       0.00000       0.00000       0.00000
 --------------------------------------------------------
       Center         ----  Spin Dipole Couplings  ----
                      3XX-RR        3YY-RR        3ZZ-RR
 --------------------------------------------------------
     1   Atom        0.000000      0.000000      0.000000
     2   Atom        0.000000      0.000000      0.000000
 --------------------------------------------------------
                        XY            XZ            YZ
 --------------------------------------------------------
     1   Atom        0.000000      0.000000      0.000000
     2   Atom        0.000000      0.000000      0.000000
 --------------------------------------------------------


 ---------------------------------------------------------------------------------
              Anisotropic Spin Dipole Couplings in Principal Axis System
 ---------------------------------------------------------------------------------

       Atom             a.u.   MegaHertz   Gauss  10(-4) cm-1        Axes

              Baa     0.0000     0.000     0.000     0.000  1.0000  0.0000  0.0000
     1 Cu(63) Bbb     0.0000     0.000     0.000     0.000 -0.0000  1.0000  0.0000
              Bcc     0.0000     0.000     0.000     0.000  0.0000  0.0000  1.0000
 
              Baa     0.0000     0.000     0.000     0.000  1.0000  0.0000  0.0000
     2 H(1)   Bbb     0.0000     0.000     0.000     0.000 -0.0000  1.0000  0.0000
              Bcc     0.0000     0.000     0.000     0.000  0.0000  0.0000  1.0000
 

 ---------------------------------------------------------------------------------

 No NMR shielding tensors so no spin-rotation constants.
 Leave Link  601 at Sat May  5 21:54:26 2018, MaxMem= 10737418240 cpu:             142.0 elap:               4.7
 (Enter /home1/apps/gaussian/16rA.03/g16/l9999.exe)

 Test job not archived.
 1\1\GINC-C426-053\SP\ROCCSD(T)-Full\Gen\Cu1H1\GWANG18\05-May-2018\0\\#
 P ROCCSD(T)=(MaxCyc=150, Full)/Gen SCF=(maxcycle=400, vshift=200) Pseu
 do=Read Integral(NoXCTest) Pop=Regular MaxDisk=500GB Guess=Read IOp(5/
 15=2)\\CuH\\0,1\Cu,0,0.,0.,0.\H,0,0.,0.,1.1\\Version=ES64L-G16RevA.03\
 State=1-SG\HF=-195.8159341\MP2=-196.9737517\MP3=-196.7623803\PUHF=-195
 .8159341\PMP2-0=-196.9737517\MP4SDQ=-196.9201132\CCSD=-196.8455598\CCS
 D(T)=-196.8859311\RMSD=2.488e-09\PG=C*V [C*(H1Cu1)]\\@


 LOGIC IS A SYSTEMATIC METHOD OF COMING TO THE
 WRONG CONCLUSION WITH CONFIDENCE.
 Job cpu time:       1 days  3 hours 53 minutes 32.4 seconds.
 Elapsed time:       0 days  0 hours 52 minutes 25.3 seconds.
 File lengths (MBytes):  RWF=  10153 Int=      0 D2E=      0 Chk=     13 Scr=      1
 Normal termination of Gaussian 16 at Sat May  5 21:54:27 2018.
