 Entering Gaussian System, Link 0=g16
 Initial command:
 /home1/apps/gaussian/16rA.03/g16/l1.exe "/tmp/Gau-235521.inp" -scrdir="/tmp/"
 Entering Link 1 = /home1/apps/gaussian/16rA.03/g16/l1.exe PID=    235522.
  
 Copyright (c) 1988,1990,1992,1993,1995,1998,2003,2009,2016,
            Gaussian, Inc.  All Rights Reserved.
  
 This is part of the Gaussian(R) 16 program.  It is based on
 the Gaussian(R) 09 system (copyright 2009, Gaussian, Inc.),
 the Gaussian(R) 03 system (copyright 2003, Gaussian, Inc.),
 the Gaussian(R) 98 system (copyright 1998, Gaussian, Inc.),
 the Gaussian(R) 94 system (copyright 1995, Gaussian, Inc.),
 the Gaussian 92(TM) system (copyright 1992, Gaussian, Inc.),
 the Gaussian 90(TM) system (copyright 1990, Gaussian, Inc.),
 the Gaussian 88(TM) system (copyright 1988, Gaussian, Inc.),
 the Gaussian 86(TM) system (copyright 1986, Carnegie Mellon
 University), and the Gaussian 82(TM) system (copyright 1983,
 Carnegie Mellon University). Gaussian is a federally registered
 trademark of Gaussian, Inc.
  
 This software contains proprietary and confidential information,
 including trade secrets, belonging to Gaussian, Inc.
  
 This software is provided under written license and may be
 used, copied, transmitted, or stored only in accord with that
 written license.
  
 The following legend is applicable only to US Government
 contracts under FAR:
  
                    RESTRICTED RIGHTS LEGEND
  
 Use, reproduction and disclosure by the US Government is
 subject to restrictions as set forth in subparagraphs (a)
 and (c) of the Commercial Computer Software - Restricted
 Rights clause in FAR 52.227-19.
  
 Gaussian, Inc.
 340 Quinnipiac St., Bldg. 40, Wallingford CT 06492
  
  
 ---------------------------------------------------------------
 Warning -- This program may not be used in any manner that
 competes with the business of Gaussian, Inc. or will provide
 assistance to any competitor of Gaussian, Inc.  The licensee
 of this program is prohibited from giving any competitor of
 Gaussian, Inc. access to this program.  By using this program,
 the user acknowledges that Gaussian, Inc. is engaged in the
 business of creating and licensing software in the field of
 computational chemistry and represents and warrants to the
 licensee that it is not a competitor of Gaussian, Inc. and that
 it will not use this program in any manner prohibited above.
 ---------------------------------------------------------------
  

 Cite this work as:
 Gaussian 16, Revision A.03,
 M. J. Frisch, G. W. Trucks, H. B. Schlegel, G. E. Scuseria, 
 M. A. Robb, J. R. Cheeseman, G. Scalmani, V. Barone, 
 G. A. Petersson, H. Nakatsuji, X. Li, M. Caricato, A. V. Marenich, 
 J. Bloino, B. G. Janesko, R. Gomperts, B. Mennucci, H. P. Hratchian, 
 J. V. Ortiz, A. F. Izmaylov, J. L. Sonnenberg, D. Williams-Young, 
 F. Ding, F. Lipparini, F. Egidi, J. Goings, B. Peng, A. Petrone, 
 T. Henderson, D. Ranasinghe, V. G. Zakrzewski, J. Gao, N. Rega, 
 G. Zheng, W. Liang, M. Hada, M. Ehara, K. Toyota, R. Fukuda, 
 J. Hasegawa, M. Ishida, T. Nakajima, Y. Honda, O. Kitao, H. Nakai, 
 T. Vreven, K. Throssell, J. A. Montgomery, Jr., J. E. Peralta, 
 F. Ogliaro, M. J. Bearpark, J. J. Heyd, E. N. Brothers, K. N. Kudin, 
 V. N. Staroverov, T. A. Keith, R. Kobayashi, J. Normand, 
 K. Raghavachari, A. P. Rendell, J. C. Burant, S. S. Iyengar, 
 J. Tomasi, M. Cossi, J. M. Millam, M. Klene, C. Adamo, R. Cammi, 
 J. W. Ochterski, R. L. Martin, K. Morokuma, O. Farkas, 
 J. B. Foresman, and D. J. Fox, Gaussian, Inc., Wallingford CT, 2016.
 
 ******************************************
 Gaussian 16:  ES64L-G16RevA.03 25-Dec-2016
                 5-Mar-2018 
 ******************************************
 %MEM=80GB
 %CPU=0-15
 SetSPE:  set environment variable "MP_BIND" = "yes"
 SetSPE:  set environment variable "MP_BLIST" = "0,1,2,3,4,5,6,7,8,9,10,11,12,13,14,15"
 Will use up to   16 processors via shared memory.
 %RWF=/scratch/04843/aannabe/gaussian/
 %Int=/scratch/04843/aannabe/gaussian/
 %D2E=/scratch/04843/aannabe/gaussian/
 %NoSave
 %CHK=ScO
 ----------------------------------------------------------------------
 #P ROCCSD(T)=(maxcyc=150, Full, SaveAmplitudes, ReadAmplitudes)/Gen 5d
  7f SCF=(maxcycles=300) Integral(NoXCTest) MaxDisk=500GB Pop=Regular P
 seudo=Read Guess=Read
 ----------------------------------------------------------------------
 1/38=1,172=1/1;
 2/12=2,17=6,18=5,40=1/2;
 3/5=7,8=11,11=2,16=1,17=8,25=1,30=1,47=8,116=101/1,2,3;
 4/5=1/1;
 5/5=2,7=300,38=6/2;
 8/5=-1,6=4,9=120000,10=90,24=1/1,4;
 9/5=7,6=150,14=2,77=1/13;
 6//1;
 99/5=1,9=1/99;
 Leave Link    1 at Mon Mar  5 18:28:47 2018, MaxMem= 10737418240 cpu:               4.0 elap:               0.3
 (Enter /home1/apps/gaussian/16rA.03/g16/l101.exe)
 ---
 ScO
 ---
 Symbolic Z-matrix:
 Charge =  0 Multiplicity = 2
 Sc                    0.        0.        0. 
 O                     0.        0.        1.9 
 
 ITRead=  0  0
 MicOpt= -1 -1
 NAtoms=      2 NQM=        2 NQMF=       0 NMMI=      0 NMMIF=      0
                NMic=       0 NMicF=      0.
                    Isotopes and Nuclear Properties:
 (Nuclear quadrupole moments (NQMom) in fm**2, nuclear magnetic moments (NMagM)
  in nuclear magnetons)

  Atom         1           2
 IAtWgt=          45          16
 AtmWgt=  44.9559136  15.9949146
 NucSpn=           7           0
 AtZEff=  -0.0000000  -0.0000000
 NQMom=  -22.0000000   0.0000000
 NMagM=    4.7564830   0.0000000
 AtZNuc=  21.0000000   8.0000000
 Leave Link  101 at Mon Mar  5 18:28:47 2018, MaxMem= 10737418240 cpu:               1.5 elap:               0.1
 (Enter /home1/apps/gaussian/16rA.03/g16/l202.exe)
                          Input orientation:                          
 ---------------------------------------------------------------------
 Center     Atomic      Atomic             Coordinates (Angstroms)
 Number     Number       Type             X           Y           Z
 ---------------------------------------------------------------------
      1         21           0        0.000000    0.000000    0.000000
      2          8           0        0.000000    0.000000    1.900000
 ---------------------------------------------------------------------
 Stoichiometry    OSc(2)
 Framework group  C*V[C*(OSc)]
 Deg. of freedom     1
 Full point group                 C*V     NOp   4
 Largest Abelian subgroup         C2V     NOp   4
 Largest concise Abelian subgroup C1      NOp   1
                         Standard orientation:                         
 ---------------------------------------------------------------------
 Center     Atomic      Atomic             Coordinates (Angstroms)
 Number     Number       Type             X           Y           Z
 ---------------------------------------------------------------------
      1         21           0        0.000000    0.000000    0.524138
      2          8           0        0.000000    0.000000   -1.375862
 ---------------------------------------------------------------------
 Rotational constants (GHZ):           0.0000000          11.8664511          11.8664511
 Leave Link  202 at Mon Mar  5 18:28:48 2018, MaxMem= 10737418240 cpu:               0.3 elap:               0.1
 (Enter /home1/apps/gaussian/16rA.03/g16/l301.exe)
 General basis read from cards:  (5D, 7F)
 Centers:       1
 S 1 1.00
     Exponent=  8.4179090000D+06 Coefficients=  1.0000000000D+00
 S 1 1.00
     Exponent=  1.2603120000D+06 Coefficients=  1.0000000000D+00
 S 1 1.00
     Exponent=  2.8679840000D+05 Coefficients=  1.0000000000D+00
 S 1 1.00
     Exponent=  8.1234690000D+04 Coefficients=  1.0000000000D+00
 S 1 1.00
     Exponent=  2.6503110000D+04 Coefficients=  1.0000000000D+00
 S 1 1.00
     Exponent=  9.5687010000D+03 Coefficients=  1.0000000000D+00
 S 1 1.00
     Exponent=  3.7324970000D+03 Coefficients=  1.0000000000D+00
 S 1 1.00
     Exponent=  1.5484220000D+03 Coefficients=  1.0000000000D+00
 S 1 1.00
     Exponent=  6.7554200000D+02 Coefficients=  1.0000000000D+00
 S 1 1.00
     Exponent=  3.0725220000D+02 Coefficients=  1.0000000000D+00
 S 1 1.00
     Exponent=  1.4466720000D+02 Coefficients=  1.0000000000D+00
 S 1 1.00
     Exponent=  7.0043870000D+01 Coefficients=  1.0000000000D+00
 S 1 1.00
     Exponent=  3.4322500000D+01 Coefficients=  1.0000000000D+00
 S 1 1.00
     Exponent=  1.5612240000D+01 Coefficients=  1.0000000000D+00
 S 1 1.00
     Exponent=  7.7437220000D+00 Coefficients=  1.0000000000D+00
 S 1 1.00
     Exponent=  3.8442600000D+00 Coefficients=  1.0000000000D+00
 S 1 1.00
     Exponent=  1.7197660000D+00 Coefficients=  1.0000000000D+00
 S 1 1.00
     Exponent=  8.3252300000D-01 Coefficients=  1.0000000000D+00
 S 1 1.00
     Exponent=  3.8556400000D-01 Coefficients=  1.0000000000D+00
 S 1 1.00
     Exponent=  9.6700000000D-02 Coefficients=  1.0000000000D+00
 S 1 1.00
     Exponent=  4.7778000000D-02 Coefficients=  1.0000000000D+00
 S 1 1.00
     Exponent=  2.2363000000D-02 Coefficients=  1.0000000000D+00
 S 1 1.00
     Exponent=  3.1672000000D+00 Coefficients=  1.0000000000D+00
 S 1 1.00
     Exponent=  1.6879000000D+00 Coefficients=  1.0000000000D+00
 S 1 1.00
     Exponent=  1.0470000000D-02 Coefficients=  1.0000000000D+00
 P 1 1.00
     Exponent=  2.2640970000D+04 Coefficients=  1.0000000000D+00
 P 1 1.00
     Exponent=  5.3575450000D+03 Coefficients=  1.0000000000D+00
 P 1 1.00
     Exponent=  1.7403730000D+03 Coefficients=  1.0000000000D+00
 P 1 1.00
     Exponent=  6.6661630000D+02 Coefficients=  1.0000000000D+00
 P 1 1.00
     Exponent=  2.8363840000D+02 Coefficients=  1.0000000000D+00
 P 1 1.00
     Exponent=  1.2979760000D+02 Coefficients=  1.0000000000D+00
 P 1 1.00
     Exponent=  6.2679560000D+01 Coefficients=  1.0000000000D+00
 P 1 1.00
     Exponent=  3.1504410000D+01 Coefficients=  1.0000000000D+00
 P 1 1.00
     Exponent=  1.6235250000D+01 Coefficients=  1.0000000000D+00
 P 1 1.00
     Exponent=  8.5183240000D+00 Coefficients=  1.0000000000D+00
 P 1 1.00
     Exponent=  4.5190050000D+00 Coefficients=  1.0000000000D+00
 P 1 1.00
     Exponent=  2.3665910000D+00 Coefficients=  1.0000000000D+00
 P 1 1.00
     Exponent=  1.2152350000D+00 Coefficients=  1.0000000000D+00
 P 1 1.00
     Exponent=  6.1434800000D-01 Coefficients=  1.0000000000D+00
 P 1 1.00
     Exponent=  3.0074500000D-01 Coefficients=  1.0000000000D+00
 P 1 1.00
     Exponent=  1.2583400000D-01 Coefficients=  1.0000000000D+00
 P 1 1.00
     Exponent=  5.4719000000D-02 Coefficients=  1.0000000000D+00
 P 1 1.00
     Exponent=  2.3488000000D-02 Coefficients=  1.0000000000D+00
 P 1 1.00
     Exponent=  4.0719000000D+00 Coefficients=  1.0000000000D+00
 P 1 1.00
     Exponent=  9.9940000000D-01 Coefficients=  1.0000000000D+00
 P 1 1.00
     Exponent=  1.0080000000D-02 Coefficients=  1.0000000000D+00
 D 1 1.00
     Exponent=  1.4802800000D+02 Coefficients=  1.0000000000D+00
 D 1 1.00
     Exponent=  4.3852800000D+01 Coefficients=  1.0000000000D+00
 D 1 1.00
     Exponent=  1.6664600000D+01 Coefficients=  1.0000000000D+00
 D 1 1.00
     Exponent=  6.9789300000D+00 Coefficients=  1.0000000000D+00
 D 1 1.00
     Exponent=  3.1236900000D+00 Coefficients=  1.0000000000D+00
 D 1 1.00
     Exponent=  1.4468700000D+00 Coefficients=  1.0000000000D+00
 D 1 1.00
     Exponent=  6.6740700000D-01 Coefficients=  1.0000000000D+00
 D 1 1.00
     Exponent=  3.0163300000D-01 Coefficients=  1.0000000000D+00
 D 1 1.00
     Exponent=  1.3267400000D-01 Coefficients=  1.0000000000D+00
 D 1 1.00
     Exponent=  5.6739000000D-02 Coefficients=  1.0000000000D+00
 D 1 1.00
     Exponent=  2.3175000000D-02 Coefficients=  1.0000000000D+00
 D 1 1.00
     Exponent=  2.1282000000D+00 Coefficients=  1.0000000000D+00
 D 1 1.00
     Exponent=  9.6910000000D-01 Coefficients=  1.0000000000D+00
 D 1 1.00
     Exponent=  9.4700000000D-03 Coefficients=  1.0000000000D+00
 F 1 1.00
     Exponent=  2.7590000000D+00 Coefficients=  1.0000000000D+00
 F 1 1.00
     Exponent=  1.0490000000D+00 Coefficients=  1.0000000000D+00
 F 1 1.00
     Exponent=  3.9890000000D-01 Coefficients=  1.0000000000D+00
 F 1 1.00
     Exponent=  1.1060000000D-01 Coefficients=  1.0000000000D+00
 F 1 1.00
     Exponent=  3.0670000000D-02 Coefficients=  1.0000000000D+00
 G 1 1.00
     Exponent=  2.4852000000D+00 Coefficients=  1.0000000000D+00
 G 1 1.00
     Exponent=  9.0670000000D-01 Coefficients=  1.0000000000D+00
 G 1 1.00
     Exponent=  2.5300000000D-01 Coefficients=  1.0000000000D+00
 G 1 1.00
     Exponent=  7.0600000000D-02 Coefficients=  1.0000000000D+00
 H 1 1.00
     Exponent=  2.0405000000D+00 Coefficients=  1.0000000000D+00
 H 1 1.00
     Exponent=  4.9340000000D-01 Coefficients=  1.0000000000D+00
 H 1 1.00
     Exponent=  1.1931000000D-01 Coefficients=  1.0000000000D+00
 ****
 Centers:       2
 S 1 1.00
     Exponent=  6.1420000000D+04 Coefficients=  1.0000000000D+00
 S 1 1.00
     Exponent=  9.1990000000D+03 Coefficients=  1.0000000000D+00
 S 1 1.00
     Exponent=  2.0910000000D+03 Coefficients=  1.0000000000D+00
 S 1 1.00
     Exponent=  5.9090000000D+02 Coefficients=  1.0000000000D+00
 S 1 1.00
     Exponent=  1.9230000000D+02 Coefficients=  1.0000000000D+00
 S 1 1.00
     Exponent=  6.9320000000D+01 Coefficients=  1.0000000000D+00
 S 1 1.00
     Exponent=  2.6970000000D+01 Coefficients=  1.0000000000D+00
 S 1 1.00
     Exponent=  1.1100000000D+01 Coefficients=  1.0000000000D+00
 S 1 1.00
     Exponent=  4.6820000000D+00 Coefficients=  1.0000000000D+00
 S 1 1.00
     Exponent=  1.4280000000D+00 Coefficients=  1.0000000000D+00
 S 1 1.00
     Exponent=  5.5470000000D-01 Coefficients=  1.0000000000D+00
 S 1 1.00
     Exponent=  2.0670000000D-01 Coefficients=  1.0000000000D+00
 S 1 1.00
     Exponent=  1.2974000000D+01 Coefficients=  1.0000000000D+00
 S 1 1.00
     Exponent=  3.4900000000D+01 Coefficients=  1.0000000000D+00
 S 1 1.00
     Exponent=  9.3881000000D+01 Coefficients=  1.0000000000D+00
 S 1 1.00
     Exponent=  6.9590000000D-02 Coefficients=  1.0000000000D+00
 P 1 1.00
     Exponent=  6.3420000000D+01 Coefficients=  1.0000000000D+00
 P 1 1.00
     Exponent=  1.4660000000D+01 Coefficients=  1.0000000000D+00
 P 1 1.00
     Exponent=  4.4590000000D+00 Coefficients=  1.0000000000D+00
 P 1 1.00
     Exponent=  1.5310000000D+00 Coefficients=  1.0000000000D+00
 P 1 1.00
     Exponent=  5.3020000000D-01 Coefficients=  1.0000000000D+00
 P 1 1.00
     Exponent=  1.7500000000D-01 Coefficients=  1.0000000000D+00
 P 1 1.00
     Exponent=  1.4475000000D+01 Coefficients=  1.0000000000D+00
 P 1 1.00
     Exponent=  4.2730000000D+01 Coefficients=  1.0000000000D+00
 P 1 1.00
     Exponent=  1.2614000000D+02 Coefficients=  1.0000000000D+00
 P 1 1.00
     Exponent=  5.3480000000D-02 Coefficients=  1.0000000000D+00
 D 1 1.00
     Exponent=  3.7750000000D+00 Coefficients=  1.0000000000D+00
 D 1 1.00
     Exponent=  1.3000000000D+00 Coefficients=  1.0000000000D+00
 D 1 1.00
     Exponent=  4.4400000000D-01 Coefficients=  1.0000000000D+00
 D 1 1.00
     Exponent=  1.4927000000D+01 Coefficients=  1.0000000000D+00
 D 1 1.00
     Exponent=  5.7544000000D+01 Coefficients=  1.0000000000D+00
 D 1 1.00
     Exponent=  1.5400000000D-01 Coefficients=  1.0000000000D+00
 F 1 1.00
     Exponent=  2.6660000000D+00 Coefficients=  1.0000000000D+00
 F 1 1.00
     Exponent=  8.5900000000D-01 Coefficients=  1.0000000000D+00
 F 1 1.00
     Exponent=  2.6483000000D+01 Coefficients=  1.0000000000D+00
 F 1 1.00
     Exponent=  3.2400000000D-01 Coefficients=  1.0000000000D+00
 G 1 1.00
     Exponent=  1.8460000000D+00 Coefficients=  1.0000000000D+00
 G 1 1.00
     Exponent=  7.1400000000D-01 Coefficients=  1.0000000000D+00
 ****
 ======================================================================================================
                                       Pseudopotential Parameters
 ======================================================================================================
  Center     Atomic      Valence      Angular      Power
  Number     Number     Electrons     Momentum     of R      Exponent        Coefficient   SO-Coeffient
 ======================================================================================================
    1         21           11
                                      D and up 
                                                     1       16.0329867       11.00000000    0.00000000
                                                     3       14.0886961      176.36285342    0.00000000
                                                     2       11.9069766      -83.68643284    0.00000000
                                                     2        3.6497651        0.44399753    0.00000000
                                      S - D
                                                     2       11.5075950      153.96296864    0.00000000
                                                     2        5.0410402       14.92860892    0.00000000
                                      P - D
                                                     2       11.4627925       97.21711637    0.00000000
                                                     2        4.7640754       10.84896441    0.00000000
    2          8            6
                                      P and up 
                                                     1       12.3099700        6.00000000    0.00000000
                                                     3       14.7696200       73.85984000    0.00000000
                                                     2       13.7141900      -47.87600000    0.00000000
                                      S - P
                                                     2       13.6551200       85.86406000    0.00000000
 ======================================================================================================
 Ernie: Thresh=  0.10000D-02 Tol=  0.10000D-05 Strict=F.
 There are   213 symmetry adapted cartesian basis functions of A1  symmetry.
 There are    56 symmetry adapted cartesian basis functions of A2  symmetry.
 There are   114 symmetry adapted cartesian basis functions of B1  symmetry.
 There are   114 symmetry adapted cartesian basis functions of B2  symmetry.
 There are   157 symmetry adapted basis functions of A1  symmetry.
 There are    47 symmetry adapted basis functions of A2  symmetry.
 There are    90 symmetry adapted basis functions of B1  symmetry.
 There are    90 symmetry adapted basis functions of B2  symmetry.
   384 basis functions,   497 primitive gaussians,   497 cartesian basis functions
     9 alpha electrons        8 beta electrons
       nuclear repulsion energy        18.3819452214 Hartrees.
 IExCor=    0 DFT=F Ex=HF Corr=None ExCW=0 ScaHFX=  1.000000
 ScaDFX=  1.000000  1.000000  1.000000  1.000000 ScalE2=  1.000000  1.000000
 IRadAn=      5 IRanWt=     -1 IRanGd=            0 ICorTp=0 IEmpDi=  4
 NAtoms=    2 NActive=    2 NUniq=    2 SFac= 1.00D+00 NAtFMM=   60 NAOKFM=F Big=F
 Integral buffers will be    131072 words long.
 Raffenetti 2 integral format.
 Two-electron integral symmetry is turned on.
 Leave Link  301 at Mon Mar  5 18:28:48 2018, MaxMem= 10737418240 cpu:               4.5 elap:               0.3
 (Enter /home1/apps/gaussian/16rA.03/g16/l302.exe)
 NPDir=0 NMtPBC=     1 NCelOv=     1 NCel=       1 NClECP=     1 NCelD=      1
         NCelK=      1 NCelE2=     1 NClLst=     1 CellRange=     0.0.
 One-electron integrals computed using PRISM.
 One-electron integral symmetry used in STVInt
   4 Symmetry operations used in ECPInt.
 ECPInt:  NShTT=    6105 NPrTT=    6105 LenC2=    5559 LenP2D=    5558.
 LDataN:  DoStor=T MaxTD1=10 Len=  848
 NBasis=   384 RedAO= T EigKep=  1.26D-06  NBF=   157    47    90    90
 NBsUse=   383 1.00D-06 EigRej=  9.13D-09 NBFU=   156    47    90    90
 Leave Link  302 at Mon Mar  5 18:28:50 2018, MaxMem= 10737418240 cpu:              40.3 elap:               2.6
 (Enter /home1/apps/gaussian/16rA.03/g16/l303.exe)
 DipDrv:  MaxL=1.
 Leave Link  303 at Mon Mar  5 18:28:51 2018, MaxMem= 10737418240 cpu:               1.9 elap:               0.2
 (Enter /home1/apps/gaussian/16rA.03/g16/l401.exe)
 Initial guess from the checkpoint file:  "ScO.chk"
 B after Tr=     0.000000    0.000000    0.000000
         Rot=    1.000000    0.000000    0.000000    0.000000 Ang=   0.00 deg.
 Guess basis will be translated and rotated to current coordinates.
 JPrj=2 DoOrth=T DoCkMO=T.
 Initial guess orbital symmetries:
       Occupied  (SG) (PI) (PI) (SG) (SG) (SG) (PI) (PI) (SG)
       Virtual   (PI) (PI) (SG) (SG) (DLTA) (DLTA) (PI) (PI) (PI)
                 (PI) (SG) (SG) (DLTA) (DLTA) (SG) (PI) (PI) (SG)
                 (DLTA) (DLTA) (PI) (PI) (SG) (PI) (PI) (PHI) (PHI)
                 (SG) (DLTA) (DLTA) (PI) (PI) (SG) (SG) (PI) (PI)
                 (SG) (SG) (DLTA) (DLTA) (PI) (PI) (?A) (?A) (DLTA)
                 (DLTA) (SG) (PHI) (PHI) (PI) (PI) (PI) (PI) (SG)
                 (PHI) (PHI) (DLTA) (DLTA) (SG) (PI) (PI) (SG)
                 (PI) (PI) (DLTA) (DLTA) (SG) (SG) (DLTA) (DLTA)
                 (PI) (PI) (SG) (SG) (PI) (PI) (PI) (PI) (SG) (DLTA)
                 (DLTA) (PHI) (PHI) (?A) (?A) (SG) (PI) (PI) (SG)
                 (PHI) (PHI) (DLTA) (DLTA) (PI) (PI) (PHI) (PHI)
                 (SG) (DLTA) (DLTA) (PI) (PI) (DLTA) (DLTA) (SG)
                 (DLTA) (DLTA) (PI) (PI) (SG) (PI) (PI) (SG) (SG)
                 (PI) (PI) (SG) (PI) (PI) (SG) (SG) (DLTA) (DLTA)
                 (PI) (PI) (SG) (PHI) (PHI) (DLTA) (DLTA) (PHI)
                 (PHI) (PI) (PI) (SG) (DLTA) (DLTA) (PI) (PI) (DLTA)
                 (DLTA) (SG) (PI) (PI) (?A) (?A) (PHI) (PHI) (DLTA)
                 (DLTA) (SG) (PI) (PI) (SG) (SG) (PI) (PI) (SG)
                 (DLTA) (DLTA) (PI) (PI) (SG) (PI) (PI) (SG) (SG)
                 (SG) (PI) (PI) (SG) (DLTA) (DLTA) (PI) (PI) (SG)
                 (SG) (PI) (PI) (SG) (SG) (DLTA) (DLTA) (PI) (PI)
                 (SG) (PI) (PI) (SG) (DLTA) (DLTA) (PI) (PI) (SG)
                 (SG) (SG) (PI) (PI) (SG) (PI) (PI) (SG) (SG) (SG)
                 (PI) (PI) (SG) (DLTA) (DLTA) (PI) (PI) (SG) (SG)
                 (SG) (PI) (PI) (SG) (PI) (PI) (SG) (SG) (SG) (PI)
                 (PI) (SG) (SG) (PI) (PI) (SG) (SG) (SG) (PI) (PI)
                 (SG) (SG) (SG) (PI) (PI) (SG) (SG) (SG) (SG) (PI)
                 (PI) (SG) (SG) (SG) (SG) (SG) (DLTA) (SG) (SG)
                 (SG) (DLTA) (SG) (SG) (SG) (SG) (DLTA) (SG) (DLTA)
                 (SG) (DLTA) (SG) (SG) (SG) (DLTA) (SG) (SG) (DLTA)
                 (SG) (?A) (SG) (DLTA) (DLTA) (?A) (SG) (DLTA)
                 (DLTA) (SG) (?A) (SG) (DLTA) (?A) (DLTA) (SG)
                 (SG) (DLTA) (SG) (?A) (SG) (?A) (DLTA) (DLTA)
                 (DLTA) (DLTA) (DLTA) (DLTA) (DLTA) (?A) (DLTA)
                 (DLTA) (?A) (DLTA) (DLTA) (?A) (DLTA) (?A) (DLTA)
                 (DLTA) (?A) (?A) (PI) (PI) (PI) (PI) (PI) (PI)
                 (PI) (PHI) (PI) (PI) (PHI) (PI) (PI) (PI) (PI)
                 (PHI) (PI) (PHI) (PI) (PI) (PHI) (PI) (?B) (PHI)
                 (PHI) (PI) (PI) (PHI) (?B) (PHI) (?B) (PI) (PI)
                 (PI) (PI) (PI) (PI) (PI) (PHI) (PI) (PI) (PHI)
                 (PI) (PI) (PI) (PI) (PHI) (PI) (PHI) (PI) (PI)
                 (PHI) (PI) (?B) (PHI) (PHI) (PI) (PI) (PHI) (?B)
                 (PHI) (?B)
 The electronic state of the initial guess is 2-SG.
 Leave Link  401 at Mon Mar  5 18:28:52 2018, MaxMem= 10737418240 cpu:              12.5 elap:               0.9
 (Enter /home1/apps/gaussian/16rA.03/g16/l502.exe)
 Keep R1 and R2 ints in memory in symmetry-blocked form, NReq=3425113631.
 FoFCou: FMM=F IPFlag=           8 FMFlag=           0 FMFlg1=           0
         NFxFlg=           0 DoJE=F BraDBF=F KetDBF=F FulRan=T
         wScrn=  0.000000 ICntrl=       600 IOpCl=  0 I1Cent=           0 NGrid=           0
         NMat0=    1 NMatS0=  73920 NMatT0=    0 NMatD0=    1 NMtDS0=    0 NMtDT0=    0
 Petite list used in FoFCou.
 Restricted open shell SCF:
 Using DIIS extrapolation, IDIIS=  1040.
 NGot= 10737418240 LenX=  9351093905 LenY=  9350846399
 Requested convergence on RMS density matrix=1.00D-08 within 300 cycles.
 Requested convergence on MAX density matrix=1.00D-06.
 Requested convergence on             energy=1.00D-06.
 No special actions if energy rises.

 Cycle   1  Pass 1  IDiag  1:
 E= -61.9260301096196    
 DIIS: error= 1.19D-01 at cycle   1 NSaved=   1.
 NSaved= 1 IEnMin= 1 EnMin= -61.9260301096196     IErMin= 1 ErrMin= 1.19D-01
 ErrMax= 1.19D-01  0.00D+00 EMaxC= 1.00D-01 BMatC= 2.68D+00 BMatP= 2.68D+00
 IDIUse=3 WtCom= 0.00D+00 WtEn= 1.00D+00
 Coeff-Com:  0.100D+01
 Coeff-En:   0.100D+01
 Coeff:      0.100D+01
 Gap=     0.095 Goal=   None    Shift=    0.000
 GapD=    0.095 DampG=0.500 DampE=0.125 DampFc=0.1250 IDamp=-1.
 Damping current iteration by 1.25D-01
 RMSDP=1.57D-03 MaxDP=9.53D-02              OVMax= 3.81D-03

 Cycle   2  Pass 1  IDiag  1:
 E= -61.9261162965019     Delta-E=       -0.000086186882 Rises=F Damp=T
 DIIS: error= 1.04D-01 at cycle   2 NSaved=   2.
 NSaved= 2 IEnMin= 2 EnMin= -61.9261162965019     IErMin= 2 ErrMin= 1.04D-01
 ErrMax= 1.04D-01  0.00D+00 EMaxC= 1.00D-01 BMatC= 2.05D+00 BMatP= 2.68D+00
 IDIUse=3 WtCom= 0.00D+00 WtEn= 1.00D+00
 Coeff-Com: -0.700D+01 0.800D+01
 Coeff-En:   0.000D+00 0.100D+01
 Coeff:      0.000D+00 0.100D+01
 Gap=     0.095 Goal=   None    Shift=    0.000
 RMSDP=1.38D-03 MaxDP=8.37D-02 DE=-8.62D-05 OVMax= 9.90D-04

 Cycle   3  Pass 1  IDiag  1:
 E= -61.9267399939059     Delta-E=       -0.000623697404 Rises=F Damp=F
 DIIS: error= 1.54D-04 at cycle   3 NSaved=   3.
 NSaved= 3 IEnMin= 3 EnMin= -61.9267399939059     IErMin= 3 ErrMin= 1.54D-04
 ErrMax= 1.54D-04  0.00D+00 EMaxC= 1.00D-01 BMatC= 3.74D-06 BMatP= 2.05D+00
 IDIUse=3 WtCom= 9.98D-01 WtEn= 1.54D-03
 Coeff-Com:  0.133D+00-0.152D+00 0.102D+01
 Coeff-En:   0.000D+00 0.000D+00 0.100D+01
 Coeff:      0.133D+00-0.152D+00 0.102D+01
 Gap=     0.095 Goal=   None    Shift=    0.000
 RMSDP=6.11D-05 MaxDP=7.58D-03 DE=-6.24D-04 OVMax= 1.27D-03

 Cycle   4  Pass 1  IDiag  1:
 E= -61.9267416916165     Delta-E=       -0.000001697711 Rises=F Damp=F
 DIIS: error= 8.45D-05 at cycle   4 NSaved=   4.
 NSaved= 4 IEnMin= 4 EnMin= -61.9267416916165     IErMin= 4 ErrMin= 8.45D-05
 ErrMax= 8.45D-05  0.00D+00 EMaxC= 1.00D-01 BMatC= 6.97D-07 BMatP= 3.74D-06
 IDIUse=1 WtCom= 1.00D+00 WtEn= 0.00D+00
 Coeff-Com:  0.117D+00-0.134D+00 0.212D+00 0.805D+00
 Coeff:      0.117D+00-0.134D+00 0.212D+00 0.805D+00
 Gap=     0.095 Goal=   None    Shift=    0.000
 RMSDP=1.14D-05 MaxDP=1.47D-03 DE=-1.70D-06 OVMax= 8.90D-04

 Cycle   5  Pass 1  IDiag  1:
 E= -61.9267419170309     Delta-E=       -0.000000225414 Rises=F Damp=F
 DIIS: error= 7.37D-05 at cycle   5 NSaved=   5.
 NSaved= 5 IEnMin= 5 EnMin= -61.9267419170309     IErMin= 5 ErrMin= 7.37D-05
 ErrMax= 7.37D-05  0.00D+00 EMaxC= 1.00D-01 BMatC= 5.21D-07 BMatP= 6.97D-07
 IDIUse=1 WtCom= 1.00D+00 WtEn= 0.00D+00
 Coeff-Com:  0.214D+00-0.244D+00-0.161D-01 0.467D+00 0.580D+00
 Coeff:      0.214D+00-0.244D+00-0.161D-01 0.467D+00 0.580D+00
 Gap=     0.095 Goal=   None    Shift=    0.000
 RMSDP=4.35D-06 MaxDP=8.15D-04 DE=-2.25D-07 OVMax= 2.95D-04

 Cycle   6  Pass 1  IDiag  1:
 E= -61.9267423322379     Delta-E=       -0.000000415207 Rises=F Damp=F
 DIIS: error= 4.74D-06 at cycle   6 NSaved=   6.
 NSaved= 6 IEnMin= 6 EnMin= -61.9267423322379     IErMin= 6 ErrMin= 4.74D-06
 ErrMax= 4.74D-06  0.00D+00 EMaxC= 1.00D-01 BMatC= 2.71D-09 BMatP= 5.21D-07
 IDIUse=1 WtCom= 1.00D+00 WtEn= 0.00D+00
 Coeff-Com:  0.158D+00-0.180D+00 0.182D-01 0.390D-01 0.648D-01 0.901D+00
 Coeff:      0.158D+00-0.180D+00 0.182D-01 0.390D-01 0.648D-01 0.901D+00
 Gap=     0.095 Goal=   None    Shift=    0.000
 RMSDP=1.57D-06 MaxDP=4.60D-04 DE=-4.15D-07 OVMax= 8.47D-05

 Cycle   7  Pass 1  IDiag  1:
 E= -61.9267423319305     Delta-E=        0.000000000307 Rises=F Damp=F
 DIIS: error= 4.13D-06 at cycle   7 NSaved=   7.
 NSaved= 7 IEnMin= 6 EnMin= -61.9267423322379     IErMin= 7 ErrMin= 4.13D-06
 ErrMax= 4.13D-06  0.00D+00 EMaxC= 1.00D-01 BMatC= 1.93D-09 BMatP= 2.71D-09
 IDIUse=1 WtCom= 1.00D+00 WtEn= 0.00D+00
 Coeff-Com:  0.143D+00-0.164D+00 0.256D-01-0.305D-01-0.336D-01 0.153D+00
 Coeff-Com:  0.906D+00
 Coeff:      0.143D+00-0.164D+00 0.256D-01-0.305D-01-0.336D-01 0.153D+00
 Coeff:      0.906D+00
 Gap=     0.095 Goal=   None    Shift=    0.000
 RMSDP=6.09D-07 MaxDP=1.12D-04 DE= 3.07D-10 OVMax= 5.61D-05

 Cycle   8  Pass 1  IDiag  1:
 E= -61.9267423344411     Delta-E=       -0.000000002511 Rises=F Damp=F
 DIIS: error= 3.52D-06 at cycle   8 NSaved=   8.
 NSaved= 8 IEnMin= 8 EnMin= -61.9267423344411     IErMin= 8 ErrMin= 3.52D-06
 ErrMax= 3.52D-06  0.00D+00 EMaxC= 1.00D-01 BMatC= 1.20D-09 BMatP= 1.93D-09
 IDIUse=1 WtCom= 1.00D+00 WtEn= 0.00D+00
 Coeff-Com:  0.116D+00-0.132D+00 0.197D-01-0.707D-02-0.682D-02-0.964D-01
 Coeff-Com:  0.123D+00 0.984D+00
 Coeff:      0.116D+00-0.132D+00 0.197D-01-0.707D-02-0.682D-02-0.964D-01
 Coeff:      0.123D+00 0.984D+00
 Gap=     0.095 Goal=   None    Shift=    0.000
 RMSDP=6.37D-07 MaxDP=2.16D-04 DE=-2.51D-09 OVMax= 1.54D-05

 Cycle   9  Pass 1  IDiag  1:
 E= -61.9267423351227     Delta-E=       -0.000000000682 Rises=F Damp=F
 DIIS: error= 2.91D-06 at cycle   9 NSaved=   9.
 NSaved= 9 IEnMin= 9 EnMin= -61.9267423351227     IErMin= 9 ErrMin= 2.91D-06
 ErrMax= 2.91D-06  0.00D+00 EMaxC= 1.00D-01 BMatC= 8.34D-10 BMatP= 1.20D-09
 IDIUse=1 WtCom= 1.00D+00 WtEn= 0.00D+00
 Coeff-Com:  0.725D-01-0.829D-01 0.106D-01 0.122D-01 0.161D-01-0.763D-01
 Coeff-Com: -0.369D+00-0.392D+00 0.181D+01
 Coeff:      0.725D-01-0.829D-01 0.106D-01 0.122D-01 0.161D-01-0.763D-01
 Coeff:     -0.369D+00-0.392D+00 0.181D+01
 Gap=     0.095 Goal=   None    Shift=    0.000
 RMSDP=1.15D-06 MaxDP=3.74D-04 DE=-6.82D-10 OVMax= 3.02D-05

 Cycle  10  Pass 1  IDiag  1:
 E= -61.9267423363230     Delta-E=       -0.000000001200 Rises=F Damp=F
 DIIS: error= 1.78D-06 at cycle  10 NSaved=  10.
 NSaved=10 IEnMin=10 EnMin= -61.9267423363230     IErMin=10 ErrMin= 1.78D-06
 ErrMax= 1.78D-06  0.00D+00 EMaxC= 1.00D-01 BMatC= 3.14D-10 BMatP= 8.34D-10
 IDIUse=1 WtCom= 1.00D+00 WtEn= 0.00D+00
 Coeff-Com:  0.479D-01-0.548D-01 0.788D-02-0.259D-02-0.165D-02 0.288D-01
 Coeff-Com:  0.778D-01-0.338D+00-0.606D-01 0.130D+01
 Coeff:      0.479D-01-0.548D-01 0.788D-02-0.259D-02-0.165D-02 0.288D-01
 Coeff:      0.778D-01-0.338D+00-0.606D-01 0.130D+01
 Gap=     0.095 Goal=   None    Shift=    0.000
 RMSDP=5.79D-07 MaxDP=1.90D-04 DE=-1.20D-09 OVMax= 1.56D-05

 Cycle  11  Pass 1  IDiag  1:
 E= -61.9267423366978     Delta-E=       -0.000000000375 Rises=F Damp=F
 DIIS: error= 1.20D-06 at cycle  11 NSaved=  11.
 NSaved=11 IEnMin=11 EnMin= -61.9267423366978     IErMin=11 ErrMin= 1.20D-06
 ErrMax= 1.20D-06  0.00D+00 EMaxC= 1.00D-01 BMatC= 1.37D-10 BMatP= 3.14D-10
 IDIUse=1 WtCom= 1.00D+00 WtEn= 0.00D+00
 Coeff-Com:  0.392D-01-0.448D-01 0.655D-02-0.287D-02-0.230D-02 0.170D-01
 Coeff-Com:  0.813D-01-0.155D+00-0.934D-01 0.332D+00 0.822D+00
 Coeff:      0.392D-01-0.448D-01 0.655D-02-0.287D-02-0.230D-02 0.170D-01
 Coeff:      0.813D-01-0.155D+00-0.934D-01 0.332D+00 0.822D+00
 Gap=     0.095 Goal=   None    Shift=    0.000
 RMSDP=2.38D-07 MaxDP=7.77D-05 DE=-3.75D-10 OVMax= 5.71D-06

 Cycle  12  Pass 1  IDiag  1:
 E= -61.9267423367900     Delta-E=       -0.000000000092 Rises=F Damp=F
 DIIS: error= 9.73D-07 at cycle  12 NSaved=  12.
 NSaved=12 IEnMin=12 EnMin= -61.9267423367900     IErMin=12 ErrMin= 9.73D-07
 ErrMax= 9.73D-07  0.00D+00 EMaxC= 1.00D-01 BMatC= 9.25D-11 BMatP= 1.37D-10
 IDIUse=1 WtCom= 1.00D+00 WtEn= 0.00D+00
 Coeff-Com:  0.288D-01-0.329D-01 0.465D-02 0.525D-04 0.839D-03-0.110D-01
 Coeff-Com: -0.956D-02-0.153D-01 0.208D+00-0.465D+00-0.204D+00 0.150D+01
 Coeff:      0.288D-01-0.329D-01 0.465D-02 0.525D-04 0.839D-03-0.110D-01
 Coeff:     -0.956D-02-0.153D-01 0.208D+00-0.465D+00-0.204D+00 0.150D+01
 Gap=     0.095 Goal=   None    Shift=    0.000
 RMSDP=2.58D-07 MaxDP=8.48D-05 DE=-9.22D-11 OVMax= 7.33D-06

 Cycle  13  Pass 1  IDiag  1:
 E= -61.9267423368824     Delta-E=       -0.000000000092 Rises=F Damp=F
 DIIS: error= 7.15D-07 at cycle  13 NSaved=  13.
 NSaved=13 IEnMin=13 EnMin= -61.9267423368824     IErMin=13 ErrMin= 7.15D-07
 ErrMax= 7.15D-07  0.00D+00 EMaxC= 1.00D-01 BMatC= 4.94D-11 BMatP= 9.25D-11
 IDIUse=1 WtCom= 1.00D+00 WtEn= 0.00D+00
 Coeff-Com:  0.168D-01-0.192D-01 0.265D-02 0.719D-03 0.136D-02-0.819D-02
 Coeff-Com: -0.264D-01-0.403D-01 0.181D+00-0.633D-01-0.708D+00 0.665D-01
 Coeff-Com:  0.160D+01
 Coeff:      0.168D-01-0.192D-01 0.265D-02 0.719D-03 0.136D-02-0.819D-02
 Coeff:     -0.264D-01-0.403D-01 0.181D+00-0.633D-01-0.708D+00 0.665D-01
 Coeff:      0.160D+01
 Gap=     0.095 Goal=   None    Shift=    0.000
 RMSDP=3.00D-07 MaxDP=9.80D-05 DE=-9.25D-11 OVMax= 8.15D-06

 Cycle  14  Pass 1  IDiag  1:
 E= -61.9267423369516     Delta-E=       -0.000000000069 Rises=F Damp=F
 DIIS: error= 4.19D-07 at cycle  14 NSaved=  14.
 NSaved=14 IEnMin=14 EnMin= -61.9267423369516     IErMin=14 ErrMin= 4.19D-07
 ErrMax= 4.19D-07  0.00D+00 EMaxC= 1.00D-01 BMatC= 1.69D-11 BMatP= 4.94D-11
 IDIUse=1 WtCom= 1.00D+00 WtEn= 0.00D+00
 Coeff-Com:  0.249D-02-0.284D-02 0.428D-03-0.423D-03-0.430D-03 0.502D-02
 Coeff-Com:  0.157D-01-0.351D-01-0.462D-01 0.212D+00 0.681D-01-0.519D+00
 Coeff-Com: -0.853D+00 0.215D+01
 Coeff:      0.249D-02-0.284D-02 0.428D-03-0.423D-03-0.430D-03 0.502D-02
 Coeff:      0.157D-01-0.351D-01-0.462D-01 0.212D+00 0.681D-01-0.519D+00
 Coeff:     -0.853D+00 0.215D+01
 Gap=     0.095 Goal=   None    Shift=    0.000
 RMSDP=3.62D-07 MaxDP=1.18D-04 DE=-6.92D-11 OVMax= 9.74D-06

 Cycle  15  Pass 1  IDiag  1:
 E= -61.9267423369866     Delta-E=       -0.000000000035 Rises=F Damp=F
 DIIS: error= 6.14D-08 at cycle  15 NSaved=  15.
 NSaved=15 IEnMin=15 EnMin= -61.9267423369866     IErMin=15 ErrMin= 6.14D-08
 ErrMax= 6.14D-08  0.00D+00 EMaxC= 1.00D-01 BMatC= 3.73D-13 BMatP= 1.69D-11
 IDIUse=1 WtCom= 1.00D+00 WtEn= 0.00D+00
 Coeff-Com:  0.156D-02-0.179D-02 0.262D-03-0.129D-03-0.113D-03 0.712D-03
 Coeff-Com:  0.421D-02-0.597D-02-0.664D-02 0.171D-01 0.447D-01 0.181D-03
 Coeff-Com: -0.224D+00 0.197D+00 0.974D+00
 Coeff:      0.156D-02-0.179D-02 0.262D-03-0.129D-03-0.113D-03 0.712D-03
 Coeff:      0.421D-02-0.597D-02-0.664D-02 0.171D-01 0.447D-01 0.181D-03
 Coeff:     -0.224D+00 0.197D+00 0.974D+00
 Gap=     0.095 Goal=   None    Shift=    0.000
 RMSDP=2.19D-08 MaxDP=7.17D-06 DE=-3.50D-11 OVMax= 6.41D-07

 Cycle  16  Pass 1  IDiag  1:
 E= -61.9267423369873     Delta-E=       -0.000000000001 Rises=F Damp=F
 DIIS: error= 3.94D-08 at cycle  16 NSaved=  16.
 NSaved=16 IEnMin=16 EnMin= -61.9267423369873     IErMin=16 ErrMin= 3.94D-08
 ErrMax= 3.94D-08  0.00D+00 EMaxC= 1.00D-01 BMatC= 1.46D-13 BMatP= 3.73D-13
 IDIUse=1 WtCom= 1.00D+00 WtEn= 0.00D+00
 Large coefficients: NSaved= 16 BigCof=    0.00 CofMax=   10.00 Det=-6.94D-16
 Inversion failed.  Reducing to 15 matrices.
 Coeff-Com:  0.270D-10-0.977D-06 0.246D-04 0.268D-04-0.511D-03-0.108D-02
 Coeff-Com:  0.341D-02 0.339D-02-0.233D-01-0.294D-02 0.665D-01 0.655D-01
 Coeff-Com: -0.326D+00 0.323D+00 0.891D+00
 Coeff:      0.270D-10-0.977D-06 0.246D-04 0.268D-04-0.511D-03-0.108D-02
 Coeff:      0.341D-02 0.339D-02-0.233D-01-0.294D-02 0.665D-01 0.655D-01
 Coeff:     -0.326D+00 0.323D+00 0.891D+00
 Gap=     0.095 Goal=   None    Shift=    0.000
 RMSDP=4.03D-08 MaxDP=1.32D-05 DE=-6.68D-13 OVMax= 1.05D-06

 Cycle  17  Pass 1  IDiag  1:
 E= -61.9267423369876     Delta-E=       -0.000000000000 Rises=F Damp=F
 DIIS: error= 6.80D-10 at cycle  17 NSaved=  16.
 NSaved=16 IEnMin=16 EnMin= -61.9267423369876     IErMin=16 ErrMin= 6.80D-10
 ErrMax= 6.80D-10  0.00D+00 EMaxC= 1.00D-01 BMatC= 4.73D-17 BMatP= 1.46D-13
 IDIUse=1 WtCom= 1.00D+00 WtEn= 0.00D+00
 Large coefficients: NSaved= 16 BigCof=    0.00 CofMax=   10.00 Det=-1.45D-16
 Inversion failed.  Reducing to 15 matrices.
 Coeff-Com: -0.182D-05 0.243D-04 0.302D-04-0.189D-03-0.854D-03 0.381D-03
 Coeff-Com:  0.268D-02-0.186D-02-0.159D-01 0.117D-02 0.681D-01-0.453D-01
 Coeff-Com: -0.198D+00-0.275D-01 0.122D+01
 Coeff:     -0.182D-05 0.243D-04 0.302D-04-0.189D-03-0.854D-03 0.381D-03
 Coeff:      0.268D-02-0.186D-02-0.159D-01 0.117D-02 0.681D-01-0.453D-01
 Coeff:     -0.198D+00-0.275D-01 0.122D+01
 Gap=     0.095 Goal=   None    Shift=    0.000
 RMSDP=2.07D-10 MaxDP=4.21D-08 DE=-3.55D-13 OVMax= 3.61D-08

 SCF Done:  E(ROHF) =  -61.9267423370     A.U. after   17 cycles
            NFock= 17  Conv=0.21D-09     -V/T= 3.0823
 <Sx>= 0.0000 <Sy>= 0.0000 <Sz>= 0.5000 <S**2>= 0.7500 S= 0.5000
 <L.S>=  0.00000000000    
 KE= 2.973941097467D+01 PE=-1.700849047626D+02 EE= 6.003680622949D+01
 Annihilation of the first spin contaminant:
 S**2 before annihilation     0.7500,   after     0.7500
 Leave Link  502 at Mon Mar  5 18:31:01 2018, MaxMem= 10737418240 cpu:            1828.2 elap:             128.8
 (Enter /home1/apps/gaussian/16rA.03/g16/l801.exe)
 Windowed orbitals will be sorted by symmetry type.
 GenMOA:  NOpAll=  4 NOp2=4 NOpUse=  4 JSym2X=1
 FoFJK:  IHMeth= 1 ICntrl=       0 DoSepK=F KAlg= 0 I1Cent=           0 FoldK=F
 IRaf=         0 NMat=       1 IRICut=       1 DoRegI=T DoRafI=F ISym2E= 1 IDoP0=0 IntGTp=1.
 FoFCou: FMM=F IPFlag=           8 FMFlag=      100000 FMFlg1=           0
         NFxFlg=           0 DoJE=F BraDBF=F KetDBF=F FulRan=T
         wScrn=  0.000000 ICntrl=         0 IOpCl=  1 I1Cent=           0 NGrid=           0
         NMat0=    1 NMatS0=      1 NMatT0=    0 NMatD0=    1 NMtDS0=    0 NMtDT0=    0
 Petite list used in FoFCou.
 <Sx>= 0.0000 <Sy>= 0.0000 <Sz>= 0.5000 <S**2>= 0.7500 S= 0.5000
 Range of M.O.s used for correlation:     1   383
 NBasis=   384 NAE=     9 NBE=     8 NFC=     0 NFV=     0
 NROrb=    383 NOA=     9 NOB=     8 NVA=   374 NVB=   375

 **** Warning!!: The largest alpha MO coefficient is  0.31140741D+03


 **** Warning!!: The largest beta MO coefficient is  0.31140574D+03

 Singles contribution to E2=   -0.2265239289D-03
 Leave Link  801 at Mon Mar  5 18:31:34 2018, MaxMem= 10737418240 cpu:             533.1 elap:              33.4
 (Enter /home1/apps/gaussian/16rA.03/g16/l804.exe)
 Open-shell transformation, MDV= 10737418240 ITran=4 ISComp=2.
 Unit  1 TFree=       4459698 TCopy=       3230129.
 Semi-Direct transformation.
 ModeAB=           4 MOrb=             9 LenV=   10733051627
 LASXX=     63702177 LTotXX=    63702177 LenRXX=   128059521
 LTotAB=    64357344 MaxLAS=   421140672 LenRXY=           0
 NonZer=   191761698 LenScr=   288771072 LnRSAI=   421140672
 LnScr1=   634188800 LExtra=    17918610 Total=   1490078675
 MaxDsk= 67108864000 SrtSym=           T ITran=            4
 DoSDTr:  NPSUse= 16
 JobTyp=1 Pass  1:  I=   1 to   9.
 (rs|ai) integrals will be sorted in core.
 Complete sort for first half transformation.
 First half transformation complete.
 Complete sort for second half transformation.
 Second half transformation complete.
 ModeAB=           4 MOrb=             8 LenV=   10733051627
 LASXX=     56573606 LTotXX=    56573606 LenRXX=   111007430
 LTotAB=    54433824 MaxLAS=   374347264 LenRXY=           0
 NonZer=   167581036 LenScr=   252357632 LnRSAI=   374347264
 LnScr1=   563723264 LExtra=   145978131 Total=   1447413721
 MaxDsk= 67108864000 SrtSym=           T ITran=            4
 DoSDTr:  NPSUse= 16
 JobTyp=2 Pass  1:  I=   1 to   8.
 (rs|ai) integrals will be sorted in core.
 Complete sort for first half transformation.
 First half transformation complete.
 Complete sort for second half transformation.
 Second half transformation complete.
 Spin components of T(2) and E(2):
     alpha-alpha T2 =       0.3456903503D-01 E2=     -0.9954277990D-01
     alpha-beta  T2 =       0.1477686241D+00 E2=     -0.5288403346D+00
     beta-beta   T2 =       0.3022892961D-01 E2=     -0.9052485541D-01
 ANorm=    0.1101266902D+01
 E2 =    -0.7191344938D+00 EUMP2 =    -0.62645876830798D+02
 (S**2,0)=  0.75000D+00           (S**2,1)=  0.75000D+00
 E(PUHF)=      -0.61926742337D+02        E(PMP2)=      -0.62645876831D+02
 Recovering and transforming amplitudes from chk file.
 B after Tr=     0.000000    0.000000    0.000000
         Rot=    1.000000    0.000000    0.000000    0.000000 Ang=   0.00 deg.
 Alpha occ  Sing. vals= 9.999997D-01 9.999997D-01 9.999996D-01 9.999995D-01 9.999970D-01 9.999968D-01 9.999773D-01 9.999710D-01 9.999710D-01
 Alpha occ  NOrbO=     9 NOrbN=     9 NSVal=     9 ThrEig=  0.900000.
 TrMax= 1.000000D+00 PrMax= 1.000000D+00 Trace(Pr)= 9.000000D+00
 B after Tr=     0.000000    0.000000    0.000000
         Rot=    1.000000    0.000000    0.000000    0.000000 Ang=   0.00 deg.
 Alpha virt Sing. vals= 1.000000D+00 1.000000D+00 1.000000D+00 1.000000D+00 1.000000D+00 1.000000D+00 1.000000D+00 1.000000D+00 1.000000D+00 1.000000D+00
 Alpha virt Sing. vals= 1.000000D+00 1.000000D+00 1.000000D+00 1.000000D+00 1.000000D+00 1.000000D+00 1.000000D+00 1.000000D+00 1.000000D+00 1.000000D+00
 Alpha virt Sing. vals= 1.000000D+00 1.000000D+00 1.000000D+00 1.000000D+00 1.000000D+00 1.000000D+00 1.000000D+00 1.000000D+00 1.000000D+00 1.000000D+00
 Alpha virt Sing. vals= 1.000000D+00 1.000000D+00 1.000000D+00 1.000000D+00 1.000000D+00 1.000000D+00 1.000000D+00 9.999999D-01 9.999999D-01 9.999999D-01
 Alpha virt Sing. vals= 9.999999D-01 9.999999D-01 9.999999D-01 9.999997D-01 9.999997D-01 9.999996D-01 9.999995D-01 9.999994D-01 9.999991D-01 9.999991D-01
 Alpha virt Sing. vals= 9.999991D-01 9.999991D-01 9.999990D-01 9.999990D-01 9.999983D-01 9.999977D-01 9.999974D-01 9.999974D-01 9.999973D-01 9.999973D-01
 Alpha virt Sing. vals= 9.999972D-01 9.999950D-01 9.999950D-01 9.999950D-01 9.999941D-01 9.999922D-01 9.999919D-01 9.999919D-01 9.999919D-01 9.999906D-01
 Alpha virt Sing. vals= 9.999906D-01 9.999905D-01 9.999905D-01 9.999890D-01 9.999872D-01 9.999864D-01 9.999864D-01 9.999864D-01 9.999804D-01 9.999777D-01
 Alpha virt Sing. vals= 9.999777D-01 9.999674D-01 9.999607D-01 9.999607D-01 9.999561D-01 9.999464D-01 9.999411D-01 9.999411D-01 9.999280D-01 9.999221D-01
 Alpha virt Sing. vals= 9.999215D-01 9.999215D-01 9.999066D-01 9.998911D-01 9.998855D-01 9.998855D-01 9.998833D-01 9.998833D-01 9.998419D-01 9.998281D-01
 Alpha virt Sing. vals= 9.998281D-01 9.998004D-01 9.997555D-01 9.997494D-01 9.997494D-01 9.997485D-01 9.997485D-01 9.997407D-01 9.997407D-01 9.997407D-01
 Alpha virt Sing. vals= 9.996500D-01 9.996349D-01 9.996166D-01 9.996166D-01 9.995814D-01 9.995441D-01 9.995322D-01 9.995322D-01 9.994846D-01 9.994846D-01
 Alpha virt Sing. vals= 9.992861D-01 9.992502D-01 9.992502D-01 9.991502D-01 9.991502D-01 9.990940D-01 9.990940D-01 9.990331D-01 9.990331D-01 9.989191D-01
 Alpha virt Sing. vals= 9.989191D-01 9.988474D-01 9.987844D-01 9.987787D-01 9.987787D-01 9.987751D-01 9.987751D-01 9.987262D-01 9.983615D-01 9.983577D-01
 Alpha virt Sing. vals= 9.983577D-01 9.982825D-01 9.982825D-01 9.982608D-01 9.981428D-01 9.981428D-01 9.979091D-01 9.978495D-01 9.978495D-01 9.977409D-01
 Alpha virt Sing. vals= 9.977409D-01 9.976801D-01 9.974103D-01 9.974103D-01 9.973046D-01 9.965028D-01 9.963050D-01 9.963050D-01 9.957445D-01 9.957445D-01
 Alpha virt Sing. vals= 9.954989D-01 9.948466D-01 9.948466D-01 9.948328D-01 9.947380D-01 9.947380D-01 9.947378D-01 9.946731D-01 9.946731D-01 9.944921D-01
 Alpha virt Sing. vals= 9.944921D-01 9.943540D-01 9.943540D-01 9.940685D-01 9.940685D-01 9.934039D-01 9.926661D-01 9.926661D-01 9.925375D-01 9.925375D-01
 Alpha virt Sing. vals= 9.922533D-01 9.902443D-01 9.902443D-01 9.893513D-01 9.893513D-01 9.888737D-01 9.874319D-01 9.869368D-01 9.834803D-01 9.834803D-01
 Alpha virt Sing. vals= 9.806581D-01 9.806581D-01 9.800625D-01 9.778025D-01 9.778025D-01 9.777655D-01 9.777655D-01 9.771856D-01 9.771856D-01 9.767417D-01
 Alpha virt Sing. vals= 9.767417D-01 9.766771D-01 9.766771D-01 9.765941D-01 9.765941D-01 9.754560D-01 9.742404D-01 9.742404D-01 9.737871D-01 9.707198D-01
 Alpha virt Sing. vals= 9.707198D-01 9.596751D-01 9.493881D-01 9.448830D-01 9.448830D-01 9.448304D-01 9.448304D-01 9.430291D-01 9.351039D-01 9.351039D-01
 Alpha virt Sing. vals= 9.350849D-01 9.333638D-01 9.333638D-01 9.317779D-01 9.298351D-01 9.294480D-01 9.294480D-01 9.274226D-01 9.274226D-01 9.191516D-01
 Alpha virt Sing. vals= 9.191516D-01 9.149881D-01 9.069455D-01 9.069455D-01 9.014147D-01 9.014147D-01 8.976451D-01 8.976451D-01 8.916191D-01 8.916191D-01
 Alpha virt Sing. vals= 8.912797D-01 8.866964D-01 8.866964D-01 8.852240D-01 8.852240D-01 8.808334D-01 8.808334D-01 8.345732D-01 4.844191D-01
 Alpha virt NOrbO=   249 NOrbN=   374 NSVal=   236 ThrEig=  0.900000.
 TrMax= 9.998376D-01 PrMax= 9.998880D-01 Trace(Pr)= 2.360000D+02
 B after Tr=     0.000000    0.000000    0.000000
         Rot=    1.000000    0.000000    0.000000    0.000000 Ang=   0.00 deg.
 Beta  occ  Sing. vals= 9.999997D-01 9.999997D-01 9.999996D-01 9.999995D-01 9.999968D-01 9.999775D-01 9.999710D-01 9.999710D-01
 Beta  occ  NOrbO=     8 NOrbN=     8 NSVal=     8 ThrEig=  0.900000.
 TrMax= 1.000000D+00 PrMax= 1.000000D+00 Trace(Pr)= 8.000000D+00
 B after Tr=     0.000000    0.000000    0.000000
         Rot=    1.000000    0.000000    0.000000    0.000000 Ang=   0.00 deg.
 Beta  virt Sing. vals= 1.000000D+00 1.000000D+00 1.000000D+00 1.000000D+00 1.000000D+00 1.000000D+00 1.000000D+00 1.000000D+00 1.000000D+00 1.000000D+00
 Beta  virt Sing. vals= 1.000000D+00 1.000000D+00 1.000000D+00 1.000000D+00 1.000000D+00 1.000000D+00 1.000000D+00 1.000000D+00 1.000000D+00 1.000000D+00
 Beta  virt Sing. vals= 1.000000D+00 1.000000D+00 1.000000D+00 1.000000D+00 1.000000D+00 1.000000D+00 1.000000D+00 1.000000D+00 1.000000D+00 1.000000D+00
 Beta  virt Sing. vals= 1.000000D+00 1.000000D+00 1.000000D+00 1.000000D+00 1.000000D+00 1.000000D+00 1.000000D+00 1.000000D+00 9.999999D-01 9.999999D-01
 Beta  virt Sing. vals= 9.999999D-01 9.999999D-01 9.999999D-01 9.999999D-01 9.999997D-01 9.999997D-01 9.999996D-01 9.999995D-01 9.999994D-01 9.999991D-01
 Beta  virt Sing. vals= 9.999991D-01 9.999991D-01 9.999991D-01 9.999990D-01 9.999990D-01 9.999983D-01 9.999977D-01 9.999974D-01 9.999974D-01 9.999973D-01
 Beta  virt Sing. vals= 9.999973D-01 9.999972D-01 9.999950D-01 9.999950D-01 9.999950D-01 9.999941D-01 9.999921D-01 9.999919D-01 9.999919D-01 9.999919D-01
 Beta  virt Sing. vals= 9.999906D-01 9.999906D-01 9.999905D-01 9.999905D-01 9.999890D-01 9.999872D-01 9.999864D-01 9.999864D-01 9.999864D-01 9.999804D-01
 Beta  virt Sing. vals= 9.999777D-01 9.999777D-01 9.999674D-01 9.999607D-01 9.999607D-01 9.999561D-01 9.999463D-01 9.999411D-01 9.999411D-01 9.999280D-01
 Beta  virt Sing. vals= 9.999221D-01 9.999215D-01 9.999215D-01 9.999066D-01 9.998911D-01 9.998855D-01 9.998855D-01 9.998833D-01 9.998833D-01 9.998419D-01
 Beta  virt Sing. vals= 9.998281D-01 9.998281D-01 9.998004D-01 9.997555D-01 9.997494D-01 9.997494D-01 9.997485D-01 9.997485D-01 9.997407D-01 9.997407D-01
 Beta  virt Sing. vals= 9.997407D-01 9.996499D-01 9.996349D-01 9.996166D-01 9.996166D-01 9.995814D-01 9.995441D-01 9.995322D-01 9.995322D-01 9.994846D-01
 Beta  virt Sing. vals= 9.994846D-01 9.992861D-01 9.992502D-01 9.992502D-01 9.991502D-01 9.991502D-01 9.990940D-01 9.990940D-01 9.990331D-01 9.990331D-01
 Beta  virt Sing. vals= 9.989191D-01 9.989191D-01 9.988474D-01 9.987844D-01 9.987787D-01 9.987787D-01 9.987751D-01 9.987751D-01 9.987262D-01 9.983614D-01
 Beta  virt Sing. vals= 9.983577D-01 9.983577D-01 9.982825D-01 9.982825D-01 9.982608D-01 9.981428D-01 9.981428D-01 9.979091D-01 9.978495D-01 9.978495D-01
 Beta  virt Sing. vals= 9.977409D-01 9.977409D-01 9.976800D-01 9.974103D-01 9.974103D-01 9.973043D-01 9.965028D-01 9.963050D-01 9.963050D-01 9.957445D-01
 Beta  virt Sing. vals= 9.957445D-01 9.954989D-01 9.948466D-01 9.948466D-01 9.948328D-01 9.947380D-01 9.947380D-01 9.947378D-01 9.946731D-01 9.946731D-01
 Beta  virt Sing. vals= 9.944921D-01 9.944921D-01 9.943540D-01 9.943540D-01 9.940685D-01 9.940685D-01 9.934038D-01 9.926661D-01 9.926661D-01 9.925375D-01
 Beta  virt Sing. vals= 9.925375D-01 9.922533D-01 9.902443D-01 9.902443D-01 9.893513D-01 9.893513D-01 9.888736D-01 9.874319D-01 9.869367D-01 9.834803D-01
 Beta  virt Sing. vals= 9.834803D-01 9.806581D-01 9.806581D-01 9.800625D-01 9.778025D-01 9.778025D-01 9.777655D-01 9.777655D-01 9.771856D-01 9.771856D-01
 Beta  virt Sing. vals= 9.767417D-01 9.767417D-01 9.766771D-01 9.766771D-01 9.765941D-01 9.765941D-01 9.754556D-01 9.742404D-01 9.742404D-01 9.737871D-01
 Beta  virt Sing. vals= 9.707198D-01 9.707198D-01 9.596749D-01 9.493880D-01 9.448830D-01 9.448830D-01 9.448304D-01 9.448304D-01 9.430291D-01 9.351039D-01
 Beta  virt Sing. vals= 9.351039D-01 9.350849D-01 9.333638D-01 9.333638D-01 9.317779D-01 9.298350D-01 9.294480D-01 9.294480D-01 9.274226D-01 9.274226D-01
 Beta  virt Sing. vals= 9.191516D-01 9.191516D-01 9.149880D-01 9.069455D-01 9.069455D-01 9.014147D-01 9.014147D-01 8.976451D-01 8.976451D-01 8.916191D-01
 Beta  virt Sing. vals= 8.916191D-01 8.912797D-01 8.866964D-01 8.866964D-01 8.852240D-01 8.852240D-01 8.808334D-01 8.808334D-01 8.345731D-01 4.844192D-01
 Beta  virt NOrbO=   250 NOrbN=   375 NSVal=   237 ThrEig=  0.900000.
 TrMax= 9.999848D-01 PrMax= 9.999910D-01 Trace(Pr)= 2.370000D+02
 Leave Link  804 at Mon Mar  5 18:44:14 2018, MaxMem= 10737418240 cpu:           12136.9 elap:             759.4
 (Enter /home1/apps/gaussian/16rA.03/g16/l913.exe)
 CIDS:  MDV= 10737418240.
 IFCWin=0 IBDFC=1 NFBD=     0     0 NFCmp=     0     0 NFFFC=     0     0
 Amplitudes recovered.
 Using DD4UQ or CC4UQ for all iterations.
 Keep R2 and R3 ints in memory in symmetry-blocked form, NReq=3425131966.
 FoFCou: FMM=F IPFlag=           8 FMFlag=           0 FMFlg1=           0
         NFxFlg=           0 DoJE=F BraDBF=F KetDBF=F FulRan=T
         wScrn=  0.000000 ICntrl=       600 IOpCl=  0 I1Cent=           0 NGrid=           0
         NMat0=    1 NMatS0=  73920 NMatT0=    0 NMatD0=    1 NMtDS0=    0 NMtDT0=    0
 Petite list used in FoFCou.
 CIDS: In Core Option IDoMem=           1.
 CCSD(T)
 =======
 Iterations= 150 Convergence= 0.100D-06
 Produce multiple copies of IABC intergrals
 Iteration Nr.   1
 **********************
 DD1Dir will call FoFMem   1 times, MxPair=       208
 NAB=    72 NAA=    36 NBB=    28.
 Maximum subspace dimension=  5
 A-vector RMS=  1.3888759D-04 Max=  1.0304583D-03 conv= 1.00D-05.
 RLE energy=       -0.6996523847
 DE(Corr)= -0.69939762     E(Corr)=     -62.626139958    
 NORM(A)=   0.11294150D+01
 Iteration Nr.   2
 **********************
 DD1Dir will call FoFMem   1 times, MxPair=       208
 NAB=    72 NAA=    36 NBB=    28.
 A-vector RMS=  1.1289682D-04 Max=  1.1051049D-03 conv= 1.00D-05.
 RLE energy=       -0.6994205240
 DE(Corr)= -0.69944626     E(CORR)=     -62.626188601     Delta=-4.86D-05
 NORM(A)=   0.11303516D+01
 Iteration Nr.   3
 **********************
 DD1Dir will call FoFMem   1 times, MxPair=       208
 NAB=    72 NAA=    36 NBB=    28.
 A-vector RMS=  8.0522520D-05 Max=  8.7244605D-04 conv= 1.00D-05.
 RLE energy=       -0.7001195911
 DE(Corr)= -0.70038454     E(CORR)=     -62.627126882     Delta=-9.38D-04
 NORM(A)=   0.11303866D+01
 Iteration Nr.   4
 **********************
 DD1Dir will call FoFMem   1 times, MxPair=       208
 NAB=    72 NAA=    36 NBB=    28.
 A-vector RMS=  6.8200161D-05 Max=  6.5569343D-04 conv= 1.00D-05.
 RLE energy=       -0.6999184969
 DE(Corr)= -0.69965172     E(CORR)=     -62.626394059     Delta= 7.33D-04
 NORM(A)=   0.11307619D+01
 Iteration Nr.   5
 **********************
 DD1Dir will call FoFMem   1 times, MxPair=       208
 NAB=    72 NAA=    36 NBB=    28.
 A-vector RMS=  1.6147065D-05 Max=  2.9489064D-04 conv= 1.00D-05.
 RLE energy=       -0.6999580638
 DE(Corr)= -0.69999530     E(CORR)=     -62.626737637     Delta=-3.44D-04
 NORM(A)=   0.11310515D+01
 Iteration Nr.   6
 **********************
 DD1Dir will call FoFMem   1 times, MxPair=       208
 NAB=    72 NAA=    36 NBB=    28.
 A-vector RMS=  1.5233477D-05 Max=  2.2220052D-04 conv= 1.00D-05.
 RLE energy=       -0.6999625220
 DE(Corr)= -0.69995030     E(CORR)=     -62.626692632     Delta= 4.50D-05
 NORM(A)=   0.11312720D+01
 Iteration Nr.   7
 **********************
 DD1Dir will call FoFMem   1 times, MxPair=       208
 NAB=    72 NAA=    36 NBB=    28.
 A-vector RMS=  6.8322243D-06 Max=  9.2533340D-05 conv= 1.00D-05.
 RLE energy=       -0.6999739824
 DE(Corr)= -0.69997193     E(CORR)=     -62.626714266     Delta=-2.16D-05
 NORM(A)=   0.11313313D+01
 Iteration Nr.   8
 **********************
 DD1Dir will call FoFMem   1 times, MxPair=       208
 NAB=    72 NAA=    36 NBB=    28.
 A-vector RMS=  4.4406380D-06 Max=  9.0916209D-05 conv= 1.00D-05.
 RLE energy=       -0.6999656830
 DE(Corr)= -0.69997068     E(CORR)=     -62.626713012     Delta= 1.25D-06
 NORM(A)=   0.11313675D+01
 Iteration Nr.   9
 **********************
 DD1Dir will call FoFMem   1 times, MxPair=       208
 NAB=    72 NAA=    36 NBB=    28.
 A-vector RMS=  3.1429093D-06 Max=  3.5420912D-05 conv= 1.00D-05.
 RLE energy=       -0.6999834376
 DE(Corr)= -0.69997943     E(CORR)=     -62.626721769     Delta=-8.76D-06
 NORM(A)=   0.11313671D+01
 Iteration Nr.  10
 **********************
 DD1Dir will call FoFMem   1 times, MxPair=       208
 NAB=    72 NAA=    36 NBB=    28.
 A-vector RMS=  2.5739494D-06 Max=  2.7720920D-05 conv= 1.00D-05.
 RLE energy=       -0.6999671236
 DE(Corr)= -0.69996003     E(CORR)=     -62.626702366     Delta= 1.94D-05
 NORM(A)=   0.11313807D+01
 Iteration Nr.  11
 **********************
 DD1Dir will call FoFMem   1 times, MxPair=       208
 NAB=    72 NAA=    36 NBB=    28.
 A-vector RMS=  2.0916849D-06 Max=  2.0481947D-05 conv= 1.00D-05.
 RLE energy=       -0.6999747414
 DE(Corr)= -0.69998197     E(CORR)=     -62.626724302     Delta=-2.19D-05
 NORM(A)=   0.11313787D+01
 Iteration Nr.  12
 **********************
 DD1Dir will call FoFMem   1 times, MxPair=       208
 NAB=    72 NAA=    36 NBB=    28.
 A-vector RMS=  6.1687911D-07 Max=  9.6576974D-06 conv= 1.00D-05.
 RLE energy=       -0.6999734103
 DE(Corr)= -0.69997184     E(CORR)=     -62.626714175     Delta= 1.01D-05
 NORM(A)=   0.11313796D+01
 Iteration Nr.  13
 **********************
 DD1Dir will call FoFMem   1 times, MxPair=       208
 NAB=    72 NAA=    36 NBB=    28.
 A-vector RMS=  6.8011896D-07 Max=  9.9726913D-06 conv= 1.00D-05.
 RLE energy=       -0.6999735226
 DE(Corr)= -0.69997403     E(CORR)=     -62.626716362     Delta=-2.19D-06
 NORM(A)=   0.11313793D+01
 Iteration Nr.  14
 **********************
 DD1Dir will call FoFMem   1 times, MxPair=       208
 NAB=    72 NAA=    36 NBB=    28.
 A-vector RMS=  2.4097609D-07 Max=  2.9353754D-06 conv= 1.00D-05.
 RLE energy=       -0.6999735672
 DE(Corr)= -0.69997387     E(CORR)=     -62.626716210     Delta= 1.52D-07
 NORM(A)=   0.11313788D+01
 Iteration Nr.  15
 **********************
 DD1Dir will call FoFMem   1 times, MxPair=       208
 NAB=    72 NAA=    36 NBB=    28.
 A-vector RMS=  3.1257847D-07 Max=  7.5120293D-06 conv= 1.00D-05.
 RLE energy=       -0.6999742355
 DE(Corr)= -0.69997382     E(CORR)=     -62.626716158     Delta= 5.21D-08
 NORM(A)=   0.11313779D+01
 CI/CC converged in   15 iterations to DelEn= 5.21D-08 Conv= 1.00D-07 ErrA1= 3.13D-07 Conv= 1.00D-05
 Wavefunction amplitudes converged. E(Corr)=     -62.626716158    
 Largest amplitude= 9.54D-02
 Time for triples=    43426.64 seconds.
 T4(CCSD)= -0.64738490D-01
 T5(CCSD)=  0.15465039D-01
 CCSD(T)= -0.62675989609D+02
 Discarding MO integrals.
 Leave Link  913 at Mon Mar  5 19:42:07 2018, MaxMem= 10737418240 cpu:           55511.6 elap:            3473.2
 (Enter /home1/apps/gaussian/16rA.03/g16/l601.exe)
 Copying SCF densities to generalized density rwf, IOpCl= 0 IROHF=1.

 **********************************************************************

            Population analysis using the SCF density.

 **********************************************************************

 Orbital symmetries:
       Occupied  (SG) (PI) (PI) (SG) (SG) (SG) (PI) (PI) (SG)
       Virtual   (PI) (PI) (SG) (SG) (DLTA) (DLTA) (PI) (PI) (PI)
                 (PI) (SG) (SG) (DLTA) (DLTA) (SG) (PI) (PI) (DLTA)
                 (DLTA) (SG) (PI) (PI) (SG) (PI) (PI) (PHI) (PHI)
                 (SG) (DLTA) (DLTA) (PI) (PI) (SG) (DLTA) (DLTA)
                 (SG) (PI) (PI) (SG) (PI) (PI) (SG) (SG) (DLTA)
                 (DLTA) (PI) (PI) (?A) (?A) (PHI) (PHI) (PI) (PI)
                 (PHI) (PHI) (DLTA) (DLTA) (SG) (SG) (SG) (PI)
                 (PI) (DLTA) (DLTA) (PI) (PI) (SG) (?B) (?B) (PI)
                 (PI) (DLTA) (DLTA) (PHI) (PHI) (?A) (?A) (SG)
                 (PI) (PI) (DLTA) (DLTA) (SG) (SG) (PI) (PI) (SG)
                 (PI) (PI) (?A) (?A) (PHI) (PHI) (SG) (PI) (PI)
                 (DLTA) (DLTA) (SG) (DLTA) (DLTA) (PHI) (PHI) (DLTA)
                 (DLTA) (PI) (PI) (PI) (PI) (SG) (SG) (PHI) (PHI)
                 (DLTA) (DLTA) (SG) (PI) (PI) (DLTA) (DLTA) (SG)
                 (PI) (PI) (SG) (PI) (PI) (SG) (?B) (?B) (?A) (?A)
                 (PHI) (PHI) (DLTA) (DLTA) (PI) (PI) (SG) (PI)
                 (PI) (DLTA) (DLTA) (SG) (PI) (PI) (SG) (PHI) (PHI)
                 (DLTA) (DLTA) (?A) (?A) (PI) (PI) (SG) (PHI) (PHI)
                 (DLTA) (DLTA) (?A) (?A) (PHI) (PHI) (PI) (PI)
                 (SG) (PHI) (PHI) (SG) (DLTA) (DLTA) (DLTA) (DLTA)
                 (PI) (PI) (SG) (PI) (PI) (DLTA) (DLTA) (SG) (SG)
                 (PI) (PI) (DLTA) (DLTA) (PI) (PI) (SG) (SG) (PI)
                 (PI) (SG) (PI) (PI) (PHI) (PHI) (DLTA) (DLTA)
                 (PI) (PI) (SG) (DLTA) (DLTA) (PI) (PI) (SG) (SG)
                 (?A) (?A) (PHI) (PHI) (PI) (PI) (SG) (DLTA) (DLTA)
                 (PI) (PI) (SG) (?B) (?B) (?A) (?A) (PHI) (PHI)
                 (DLTA) (DLTA) (SG) (PI) (PI) (?A) (?A) (PHI) (PHI)
                 (DLTA) (DLTA) (PI) (PI) (SG) (PHI) (PHI) (DLTA)
                 (DLTA) (PI) (PI) (DLTA) (DLTA) (SG) (SG) (PI)
                 (PI) (SG) (SG) (DLTA) (DLTA) (PI) (PI) (SG) (PI)
                 (PI) (SG) (PI) (PI) (SG) (SG) (DLTA) (DLTA) (PI)
                 (PI) (SG) (SG) (PI) (PI) (SG) (DLTA) (DLTA) (PI)
                 (PI) (SG) (SG) (PI) (PI) (SG) (DLTA) (DLTA) (PI)
                 (PI) (SG) (SG) (PI) (PI) (SG) (PHI) (PHI) (DLTA)
                 (DLTA) (PI) (PI) (SG) (PI) (PI) (SG) (SG) (SG)
                 (PI) (PI) (SG) (DLTA) (DLTA) (PI) (PI) (SG) (PI)
                 (PI) (SG) (SG) (DLTA) (DLTA) (PI) (PI) (SG) (SG)
                 (PI) (PI) (SG) (SG) (PI) (PI) (SG) (SG) (DLTA)
                 (DLTA) (PI) (PI) (SG) (SG) (SG) (PI) (PI) (SG)
                 (PI) (PI) (SG) (SG) (SG) (PI) (PI) (SG) (SG) (SG)
                 (PI) (PI) (SG) (SG) (SG) (PI) (PI) (SG) (SG) (PI)
                 (PI) (SG) (SG) (SG) (PI) (PI) (SG) (SG) (SG) (SG)
                 (SG) (SG) (SG)
 The electronic state is 2-SG.
 Alpha  occ. eigenvalues --   -2.71680  -1.68745  -1.68686  -1.68686  -1.10951
 Alpha  occ. eigenvalues --   -0.40271  -0.36491  -0.36491  -0.27452
 Alpha virt. eigenvalues --   -0.00878  -0.00878   0.00809   0.01809   0.02573
 Alpha virt. eigenvalues --    0.02573   0.02606   0.02606   0.03260   0.03260
 Alpha virt. eigenvalues --    0.03440   0.03911   0.05293   0.05293   0.08866
 Alpha virt. eigenvalues --    0.09151   0.09151   0.09998   0.09998   0.10117
 Alpha virt. eigenvalues --    0.10452   0.10452   0.11339   0.11791   0.11791
 Alpha virt. eigenvalues --    0.12196   0.12196   0.12455   0.13201   0.13201
 Alpha virt. eigenvalues --    0.16559   0.16559   0.22677   0.24564   0.24564
 Alpha virt. eigenvalues --    0.25297   0.25824   0.25824   0.28326   0.28680
 Alpha virt. eigenvalues --    0.28680   0.32421   0.33592   0.34143   0.34143
 Alpha virt. eigenvalues --    0.34183   0.34183   0.34915   0.34915   0.35803
 Alpha virt. eigenvalues --    0.35803   0.40965   0.40965   0.43062   0.43062
 Alpha virt. eigenvalues --    0.44264   0.44264   0.48020   0.52459   0.56320
 Alpha virt. eigenvalues --    0.57228   0.57228   0.58975   0.58975   0.64312
 Alpha virt. eigenvalues --    0.64312   0.69836   0.71526   0.71526   0.72230
 Alpha virt. eigenvalues --    0.72230   0.72642   0.72642   0.72951   0.72951
 Alpha virt. eigenvalues --    0.73011   0.73011   0.76664   0.78966   0.78966
 Alpha virt. eigenvalues --    0.79937   0.79937   0.86223   1.09400   1.12535
 Alpha virt. eigenvalues --    1.12535   1.16232   1.22510   1.22510   1.23289
 Alpha virt. eigenvalues --    1.23289   1.24277   1.24277   1.29537   1.30852
 Alpha virt. eigenvalues --    1.30852   1.30999   1.30999   1.35001   1.36005
 Alpha virt. eigenvalues --    1.36005   1.36517   1.36517   1.39757   1.39757
 Alpha virt. eigenvalues --    1.40863   1.40863   1.57403   1.57403   1.60140
 Alpha virt. eigenvalues --    1.66460   1.68733   1.68733   1.83379   1.83379
 Alpha virt. eigenvalues --    1.89783   1.96301   1.96301   2.01806   2.01806
 Alpha virt. eigenvalues --    2.17587   2.43107   2.43107   2.44160   2.74676
 Alpha virt. eigenvalues --    2.74676   2.81209   2.86436   2.86436   2.88230
 Alpha virt. eigenvalues --    2.88230   2.89353   2.89353   2.93866   2.93866
 Alpha virt. eigenvalues --    2.96193   2.96193   2.97640   2.98887   2.98887
 Alpha virt. eigenvalues --    3.11252   3.11252   3.17296   3.33118   3.33118
 Alpha virt. eigenvalues --    3.70094   3.71026   3.71026   3.71875   3.71875
 Alpha virt. eigenvalues --    3.81389   3.81389   3.82638   3.82638   3.92669
 Alpha virt. eigenvalues --    4.05792   4.05792   4.09030   4.09030   4.13422
 Alpha virt. eigenvalues --    4.13422   4.16403   4.16403   4.24736   4.24736
 Alpha virt. eigenvalues --    4.29021   4.35232   4.35232   4.36778   4.46428
 Alpha virt. eigenvalues --    4.46428   4.56015   4.56015   4.64642   4.64642
 Alpha virt. eigenvalues --    4.65898   4.85907   4.85907   4.91000   4.91000
 Alpha virt. eigenvalues --    5.24321   5.49005   5.63518   5.63518   5.67408
 Alpha virt. eigenvalues --    5.67408   5.74403   5.74403   5.78714   5.90943
 Alpha virt. eigenvalues --    5.97166   5.97166   6.55590   9.56641   9.56641
 Alpha virt. eigenvalues --    9.71707   9.71707   9.80570   9.80570  10.10652
 Alpha virt. eigenvalues --   10.10652  10.16778  10.21047  10.21047  10.27914
 Alpha virt. eigenvalues --   10.27914  10.31210  10.46172  10.78776  10.78776
 Alpha virt. eigenvalues --   10.86018  10.86018  11.01006  11.01006  11.04801
 Alpha virt. eigenvalues --   11.05809  11.05809  11.06976  11.06976  11.29846
 Alpha virt. eigenvalues --   11.32735  11.32735  11.34068  11.34068  11.38358
 Alpha virt. eigenvalues --   11.38358  11.44371  11.44371  11.48689  11.56830
 Alpha virt. eigenvalues --   11.56830  11.69710  11.69710  11.71079  11.71079
 Alpha virt. eigenvalues --   11.79493  11.79493  11.91781  11.91781  11.94307
 Alpha virt. eigenvalues --   12.08048  12.08048  12.15764  12.15764  12.53010
 Alpha virt. eigenvalues --   12.53010  12.84301  12.84301  12.90376  13.14461
 Alpha virt. eigenvalues --   13.25198  13.25198  13.58049  14.18867  17.73153
 Alpha virt. eigenvalues --   17.73153  17.79403  17.79403  17.91695  19.98027
 Alpha virt. eigenvalues --   19.98027  20.14561  28.06294  28.06294  28.20886
 Alpha virt. eigenvalues --   28.95821  31.44853  31.44853  31.50045  31.50045
 Alpha virt. eigenvalues --   31.60346  34.44748  34.82543  34.82543  34.96935
 Alpha virt. eigenvalues --   46.81674  46.81674  46.98380  46.98380  47.18454
 Alpha virt. eigenvalues --   58.29081  59.72058  59.72058  59.83393  65.01854
 Alpha virt. eigenvalues --   65.01854  65.05856  65.05856  65.14497  67.87202
 Alpha virt. eigenvalues --   69.51460  69.51460  70.23671 103.01801 103.01801
 Alpha virt. eigenvalues --  103.02563 103.02563 103.04825 103.04825 103.07158
 Alpha virt. eigenvalues --  103.66927 103.66927 103.77134 107.15631 121.22096
 Alpha virt. eigenvalues --  154.30121 154.30121 154.92542 172.50858 172.50858
 Alpha virt. eigenvalues --  172.53680 172.53680 172.59907 184.77299 184.77299
 Alpha virt. eigenvalues --  184.86674 186.34895 206.78659 206.78659 206.87778
 Alpha virt. eigenvalues --  206.87778 206.97930 209.65917 324.54385 324.54385
 Alpha virt. eigenvalues --  325.10784 338.13461 340.95082 340.95082 341.03803
 Alpha virt. eigenvalues --  357.66022 593.44664 593.44664 593.46402 593.46402
 Alpha virt. eigenvalues --  593.50382 611.81521 640.77290 657.71895 657.71895
 Alpha virt. eigenvalues --  657.79985 690.81220 690.81220 691.331541089.70669
 Alpha virt. eigenvalues -- 1268.148441343.992091343.992091344.065682262.05130
 Alpha virt. eigenvalues -- 2628.432212954.902472954.902472954.968065717.29952
 Alpha virt. eigenvalues -- 6140.743767161.971237161.971237162.02795**********
 Alpha virt. eigenvalues -- **************************************************
 Alpha virt. eigenvalues -- **************************************************
 Alpha virt. eigenvalues -- ****************************************
     Molecular Orbital Coefficients:
                           4         5         6         7         8
                           O         O         O         O         O
     Eigenvalues --    -1.68686  -1.10951  -0.40271  -0.36491  -0.36491
   1 1   Sc 1S          0.00000   0.00000   0.00000   0.00000   0.00000
   2        2S         -0.00000  -0.00000  -0.00000   0.00000   0.00000
   3        3S          0.00000   0.00000   0.00000   0.00000   0.00000
   4        4S         -0.00000  -0.00000  -0.00000   0.00000   0.00000
   5        5S          0.00000   0.00000   0.00000   0.00000   0.00000
   6        6S         -0.00000  -0.00000  -0.00000   0.00000   0.00000
   7        7S          0.00000   0.00000   0.00000   0.00000   0.00000
   8        8S         -0.00000  -0.00000  -0.00001   0.00000   0.00000
   9        9S          0.00000   0.00001   0.00002   0.00000   0.00000
  10       10S         -0.00000  -0.00004  -0.00005   0.00000   0.00000
  11       11S          0.00001   0.00010   0.00015   0.00000   0.00000
  12       12S         -0.00003  -0.00030  -0.00046   0.00000   0.00000
  13       13S          0.00012   0.00107   0.00169   0.00000   0.00000
  14       14S         -0.00080  -0.00594  -0.00969   0.00000   0.00000
  15       15S          0.00086   0.00753   0.01216   0.00000   0.00000
  16       16S          0.01015   0.05410   0.09743   0.00000   0.00000
  17       17S         -0.00181  -0.00639  -0.00879   0.00000   0.00000
  18       18S         -0.01924  -0.08442  -0.15515   0.00000   0.00000
  19       19S          0.01892  -0.02067  -0.06520   0.00000   0.00000
  20       20S          0.01475   0.00699   0.08954   0.00000   0.00000
  21       21S          0.00629  -0.01880  -0.03100   0.00000   0.00000
  22       22S          0.00149   0.00608   0.02301   0.00000   0.00000
  23       23S         -0.00601  -0.03039  -0.05982   0.00000   0.00000
  24       24S         -0.00138  -0.00018   0.00188   0.00000   0.00000
  25       25S         -0.00060  -0.00080  -0.00233   0.00000   0.00000
  26       26PX         0.00000   0.00000   0.00000   0.00000   0.00000
  27       26PY         0.00000   0.00000   0.00000   0.00000   0.00000
  28       26PZ        -0.00000  -0.00000  -0.00000   0.00000   0.00000
  29       27PX         0.00000   0.00000   0.00000   0.00000  -0.00000
  30       27PY         0.00000   0.00000   0.00000  -0.00000   0.00000
  31       27PZ         0.00000   0.00000   0.00000   0.00000   0.00000
  32       28PX         0.00000   0.00000   0.00000   0.00000   0.00000
  33       28PY         0.00000   0.00000   0.00000   0.00000   0.00000
  34       28PZ        -0.00000  -0.00000  -0.00000   0.00000   0.00000
  35       29PX         0.00000   0.00000   0.00000   0.00000  -0.00000
  36       29PY         0.00000   0.00000   0.00000  -0.00000   0.00000
  37       29PZ         0.00001   0.00000   0.00000   0.00000   0.00000
  38       30PX         0.00000   0.00000   0.00000   0.00000   0.00000
  39       30PY         0.00000   0.00000   0.00000   0.00000   0.00000
  40       30PZ        -0.00002  -0.00001  -0.00000   0.00000   0.00000
  41       31PX         0.00000   0.00000   0.00000   0.00000  -0.00001
  42       31PY         0.00000   0.00000   0.00000  -0.00001   0.00000
  43       31PZ         0.00008   0.00002   0.00002   0.00000   0.00000
  44       32PX         0.00000   0.00000   0.00000   0.00000   0.00003
  45       32PY         0.00000   0.00000   0.00000   0.00003   0.00000
  46       32PZ        -0.00025  -0.00006  -0.00005   0.00000   0.00000
  47       33PX         0.00000   0.00000   0.00000   0.00000  -0.00007
  48       33PY         0.00000   0.00000   0.00000  -0.00007   0.00000
  49       33PZ         0.00056   0.00014   0.00013   0.00000   0.00000
  50       34PX         0.00000   0.00000   0.00000   0.00000  -0.00058
  51       34PY         0.00000   0.00000   0.00000  -0.00058   0.00000
  52       34PZ         0.00773   0.00150   0.00102   0.00000   0.00000
  53       35PX         0.00000   0.00000   0.00000   0.00000   0.00540
  54       35PY         0.00000   0.00000   0.00000   0.00540   0.00000
  55       35PZ        -0.06535  -0.01327  -0.00969   0.00000   0.00000
  56       36PX         0.00000   0.00000   0.00000   0.00000   0.00114
  57       36PY         0.00000   0.00000   0.00000   0.00114   0.00000
  58       36PZ         0.00932  -0.00090  -0.00066   0.00000   0.00000
  59       37PX         0.00000   0.00000   0.00000   0.00000  -0.01594
  60       37PY         0.00000   0.00000   0.00000  -0.01594   0.00000
  61       37PZ         0.18765   0.03864   0.03183   0.00000   0.00000
  62       38PX         0.00000   0.00000   0.00000   0.00000  -0.03848
  63       38PY         0.00000   0.00000   0.00000  -0.03848   0.00000
  64       38PZ         0.38873   0.08448   0.05081   0.00000   0.00000
  65       39PX         0.00000   0.00000   0.00000   0.00000  -0.04439
  66       39PY         0.00000   0.00000   0.00000  -0.04439   0.00000
  67       39PZ         0.38540   0.08145   0.05557   0.00000   0.00000
  68       40PX         0.00000   0.00000   0.00000   0.00000  -0.00410
  69       40PY         0.00000   0.00000   0.00000  -0.00410   0.00000
  70       40PZ         0.14713   0.02388   0.01574   0.00000   0.00000
  71       41PX         0.00000   0.00000   0.00000   0.00000   0.03719
  72       41PY         0.00000   0.00000   0.00000   0.03719   0.00000
  73       41PZ         0.00436   0.00357  -0.00161   0.00000   0.00000
  74       42PX         0.00000   0.00000   0.00000   0.00000   0.02154
  75       42PY         0.00000   0.00000   0.00000   0.02154   0.00000
  76       42PZ        -0.00655   0.00243   0.00140   0.00000   0.00000
  77       43PX         0.00000   0.00000   0.00000   0.00000  -0.01046
  78       43PY         0.00000   0.00000   0.00000  -0.01046   0.00000
  79       43PZ         0.00071  -0.00172  -0.01180   0.00000   0.00000
  80       44PX         0.00000   0.00000   0.00000   0.00000   0.00190
  81       44PY         0.00000   0.00000   0.00000   0.00190   0.00000
  82       44PZ        -0.05246  -0.00722  -0.00566   0.00000   0.00000
  83       45PX         0.00000   0.00000   0.00000   0.00000   0.00362
  84       45PY         0.00000   0.00000   0.00000   0.00362   0.00000
  85       45PZ         0.01056   0.00281   0.02184   0.00000   0.00000
  86       46PX         0.00000   0.00000   0.00000   0.00000   0.00236
  87       46PY         0.00000   0.00000   0.00000   0.00236   0.00000
  88       46PZ        -0.00004  -0.00013   0.00017   0.00000   0.00000
  89       47D 0        0.00000   0.00000   0.00000   0.00000   0.00000
  90       47D+1        0.00000   0.00000   0.00000   0.00000  -0.00000
  91       47D-1        0.00000   0.00000   0.00000  -0.00000   0.00000
  92       47D+2       -0.00000  -0.00000  -0.00000   0.00000   0.00000
  93       47D-2        0.00000   0.00000   0.00000   0.00000   0.00000
  94       48D 0        0.00000   0.00002   0.00009   0.00000   0.00000
  95       48D+1        0.00000   0.00000   0.00000   0.00000  -0.00006
  96       48D-1        0.00000   0.00000   0.00000  -0.00006   0.00000
  97       48D+2        0.00000   0.00000   0.00000   0.00000   0.00000
  98       48D-2        0.00000   0.00000   0.00000   0.00000   0.00000
  99       49D 0        0.00029   0.00125   0.00538   0.00000   0.00000
 100       49D+1        0.00000   0.00000   0.00000   0.00000  -0.00381
 101       49D-1        0.00000   0.00000   0.00000  -0.00381   0.00000
 102       49D+2       -0.00000  -0.00000  -0.00000   0.00000   0.00000
 103       49D-2        0.00000   0.00000   0.00000   0.00000   0.00000
 104       50D 0        0.00118   0.00533   0.02324   0.00000   0.00000
 105       50D+1        0.00000   0.00000   0.00000   0.00000  -0.01634
 106       50D-1        0.00000   0.00000   0.00000  -0.01634   0.00000
 107       50D+2        0.00000  -0.00000  -0.00000   0.00000   0.00000
 108       50D-2        0.00000   0.00000   0.00000   0.00000   0.00000
 109       51D 0        0.00298   0.01024   0.04348   0.00000   0.00000
 110       51D+1        0.00000   0.00000   0.00000   0.00000  -0.03099
 111       51D-1        0.00000   0.00000   0.00000  -0.03099   0.00000
 112       51D+2       -0.00000  -0.00000  -0.00000   0.00000   0.00000
 113       51D-2        0.00000   0.00000   0.00000   0.00000   0.00000
 114       52D 0        0.00704   0.01813   0.07332   0.00000   0.00000
 115       52D+1        0.00000   0.00000   0.00000   0.00000  -0.05145
 116       52D-1        0.00000   0.00000   0.00000  -0.05145   0.00000
 117       52D+2       -0.00000   0.00000  -0.00000   0.00000   0.00000
 118       52D-2        0.00000   0.00000   0.00000   0.00000   0.00000
 119       53D 0        0.01203   0.03022   0.11156   0.00000   0.00000
 120       53D+1        0.00000   0.00000   0.00000   0.00000  -0.07481
 121       53D-1        0.00000   0.00000   0.00000  -0.07481   0.00000
 122       53D+2       -0.00000   0.00000  -0.00000   0.00000   0.00000
 123       53D-2        0.00000   0.00000   0.00000   0.00000   0.00000
 124       54D 0        0.00620   0.02342   0.10469   0.00000   0.00000
 125       54D+1        0.00000   0.00000   0.00000   0.00000  -0.08595
 126       54D-1        0.00000   0.00000   0.00000  -0.08595   0.00000
 127       54D+2        0.00000  -0.00000  -0.00000   0.00000   0.00000
 128       54D-2        0.00000   0.00000   0.00000   0.00000   0.00000
 129       55D 0        0.00357   0.00458   0.04715   0.00000   0.00000
 130       55D+1        0.00000   0.00000   0.00000   0.00000  -0.05028
 131       55D-1        0.00000   0.00000   0.00000  -0.05028   0.00000
 132       55D+2        0.00000  -0.00000  -0.00000   0.00000   0.00000
 133       55D-2        0.00000   0.00000   0.00000   0.00000   0.00000
 134       56D 0        0.00215   0.00266   0.01664   0.00000   0.00000
 135       56D+1        0.00000   0.00000   0.00000   0.00000  -0.01281
 136       56D-1        0.00000   0.00000   0.00000  -0.01281   0.00000
 137       56D+2        0.00000  -0.00000  -0.00000   0.00000   0.00000
 138       56D-2        0.00000   0.00000   0.00000   0.00000   0.00000
 139       57D 0       -0.00033   0.00115   0.00795   0.00000   0.00000
 140       57D+1        0.00000   0.00000   0.00000   0.00000   0.00875
 141       57D-1        0.00000   0.00000   0.00000   0.00875   0.00000
 142       57D+2       -0.00000  -0.00000  -0.00000   0.00000   0.00000
 143       57D-2        0.00000   0.00000   0.00000   0.00000   0.00000
 144       58D 0       -0.00259   0.00100   0.00833   0.00000   0.00000
 145       58D+1        0.00000   0.00000   0.00000   0.00000  -0.00545
 146       58D-1        0.00000   0.00000   0.00000  -0.00545   0.00000
 147       58D+2        0.00000  -0.00000   0.00000   0.00000   0.00000
 148       58D-2        0.00000   0.00000   0.00000   0.00000   0.00000
 149       59D 0       -0.00359  -0.00170   0.00119   0.00000   0.00000
 150       59D+1        0.00000   0.00000   0.00000   0.00000  -0.00288
 151       59D-1        0.00000   0.00000   0.00000  -0.00288   0.00000
 152       59D+2        0.00000  -0.00000   0.00000   0.00000   0.00000
 153       59D-2        0.00000   0.00000   0.00000   0.00000   0.00000
 154       60D 0        0.00003  -0.00005  -0.00090   0.00000   0.00000
 155       60D+1        0.00000   0.00000   0.00000   0.00000  -0.00206
 156       60D-1        0.00000   0.00000   0.00000  -0.00206   0.00000
 157       60D+2       -0.00000   0.00000   0.00000   0.00000   0.00000
 158       60D-2        0.00000   0.00000   0.00000   0.00000   0.00000
 159       61F 0       -0.00018  -0.00067  -0.00153   0.00000   0.00000
 160       61F+1        0.00000   0.00000   0.00000   0.00000   0.00119
 161       61F-1        0.00000   0.00000   0.00000   0.00119   0.00000
 162       61F+2        0.00000  -0.00000  -0.00000   0.00000   0.00000
 163       61F-2        0.00000   0.00000   0.00000   0.00000   0.00000
 164       61F+3        0.00000   0.00000   0.00000   0.00000   0.00000
 165       61F-3        0.00000   0.00000   0.00000   0.00000   0.00000
 166       62F 0       -0.00217  -0.00364  -0.00555   0.00000   0.00000
 167       62F+1        0.00000   0.00000   0.00000   0.00000   0.00382
 168       62F-1        0.00000   0.00000   0.00000   0.00382   0.00000
 169       62F+2       -0.00000   0.00000   0.00000   0.00000   0.00000
 170       62F-2        0.00000   0.00000   0.00000   0.00000   0.00000
 171       62F+3        0.00000   0.00000   0.00000   0.00000  -0.00000
 172       62F-3        0.00000   0.00000   0.00000  -0.00000   0.00000
 173       63F 0       -0.00205  -0.00674  -0.01170   0.00000   0.00000
 174       63F+1        0.00000   0.00000   0.00000   0.00000   0.01360
 175       63F-1        0.00000   0.00000   0.00000   0.01360   0.00000
 176       63F+2        0.00000  -0.00000  -0.00000   0.00000   0.00000
 177       63F-2        0.00000   0.00000   0.00000   0.00000   0.00000
 178       63F+3        0.00000   0.00000   0.00000   0.00000  -0.00000
 179       63F-3        0.00000   0.00000   0.00000  -0.00000   0.00000
 180       64F 0       -0.00102  -0.00325  -0.00925   0.00000   0.00000
 181       64F+1        0.00000   0.00000   0.00000   0.00000   0.00288
 182       64F-1        0.00000   0.00000   0.00000   0.00288   0.00000
 183       64F+2       -0.00000   0.00000   0.00000   0.00000   0.00000
 184       64F-2        0.00000   0.00000   0.00000   0.00000   0.00000
 185       64F+3        0.00000   0.00000   0.00000   0.00000  -0.00000
 186       64F-3        0.00000   0.00000   0.00000  -0.00000   0.00000
 187       65F 0        0.00001  -0.00137  -0.00633   0.00000   0.00000
 188       65F+1        0.00000   0.00000   0.00000   0.00000  -0.00393
 189       65F-1        0.00000   0.00000   0.00000  -0.00393   0.00000
 190       65F+2        0.00000  -0.00000  -0.00000   0.00000   0.00000
 191       65F-2        0.00000   0.00000   0.00000   0.00000   0.00000
 192       65F+3        0.00000   0.00000   0.00000   0.00000  -0.00000
 193       65F-3        0.00000   0.00000   0.00000  -0.00000   0.00000
 194       66G 0       -0.00008   0.00007   0.00005   0.00000   0.00000
 195       66G+1        0.00000   0.00000   0.00000   0.00000   0.00007
 196       66G-1        0.00000   0.00000   0.00000   0.00007   0.00000
 197       66G+2        0.00000  -0.00000  -0.00000   0.00000   0.00000
 198       66G-2        0.00000   0.00000   0.00000   0.00000   0.00000
 199       66G+3        0.00000   0.00000   0.00000   0.00000   0.00000
 200       66G-3        0.00000   0.00000   0.00000  -0.00000   0.00000
 201       66G+4        0.00000  -0.00000  -0.00000   0.00000   0.00000
 202       66G-4        0.00000   0.00000   0.00000   0.00000   0.00000
 203       67G 0       -0.00007   0.00091   0.00068   0.00000   0.00000
 204       67G+1        0.00000   0.00000   0.00000   0.00000  -0.00153
 205       67G-1        0.00000   0.00000   0.00000  -0.00153   0.00000
 206       67G+2        0.00000  -0.00000  -0.00000   0.00000   0.00000
 207       67G-2        0.00000   0.00000   0.00000   0.00000   0.00000
 208       67G+3        0.00000   0.00000   0.00000   0.00000   0.00000
 209       67G-3        0.00000   0.00000   0.00000  -0.00000   0.00000
 210       67G+4       -0.00000   0.00000   0.00000   0.00000   0.00000
 211       67G-4        0.00000   0.00000   0.00000   0.00000   0.00000
[...]
 162       61F+2        0.00000   0.00000   0.00000   0.00000
 163       61F-2       -0.00000  -0.00000   0.00000  -0.00000
 164       61F+3       -0.00000   0.00000  -0.00000   0.00000
 165       61F-3       -0.00000  -0.00000  -0.00000  -0.00000
 166       62F 0        0.00092   0.00046   0.00046   0.00000
 167       62F+1        0.00037   0.00019   0.00019   0.00000
 168       62F-1        0.00037   0.00019   0.00019   0.00000
 169       62F+2       -0.00000   0.00000  -0.00000   0.00000
 170       62F-2        0.00000   0.00000  -0.00000   0.00000
 171       62F+3       -0.00000  -0.00000  -0.00000  -0.00000
 172       62F-3       -0.00000  -0.00000  -0.00000  -0.00000
 173       63F 0        0.00618   0.00307   0.00310  -0.00003
 174       63F+1        0.00550   0.00275   0.00275   0.00000
 175       63F-1        0.00550   0.00275   0.00275   0.00000
 176       63F+2       -0.00000  -0.00000   0.00000  -0.00000
 177       63F-2        0.00000  -0.00000   0.00000  -0.00000
 178       63F+3       -0.00000  -0.00000  -0.00000  -0.00000
 179       63F-3        0.00000   0.00000   0.00000  -0.00000
 180       64F 0       -0.00096  -0.00045  -0.00051   0.00006
 181       64F+1        0.00208   0.00104   0.00104   0.00000
 182       64F-1        0.00208   0.00104   0.00104   0.00000
 183       64F+2        0.00000   0.00000   0.00000   0.00000
 184       64F-2        0.00000   0.00000   0.00000   0.00000
 185       64F+3        0.00000  -0.00000   0.00000  -0.00000
 186       64F-3       -0.00000  -0.00000  -0.00000  -0.00000
 187       65F 0       -0.00126  -0.00062  -0.00063   0.00001
 188       65F+1       -0.00092  -0.00046  -0.00046   0.00000
 189       65F-1       -0.00092  -0.00046  -0.00046   0.00000
 190       65F+2        0.00000   0.00000  -0.00000   0.00000
 191       65F-2        0.00000   0.00000  -0.00000   0.00000
 192       65F+3       -0.00000  -0.00000  -0.00000   0.00000
 193       65F-3        0.00000   0.00000   0.00000  -0.00000
 194       66G 0        0.00000   0.00000   0.00000  -0.00000
 195       66G+1       -0.00000  -0.00000  -0.00000   0.00000
 196       66G-1       -0.00000  -0.00000  -0.00000   0.00000
 197       66G+2       -0.00000   0.00000  -0.00000   0.00000
 198       66G-2        0.00000  -0.00000   0.00000  -0.00000
 199       66G+3       -0.00000  -0.00000  -0.00000  -0.00000
 200       66G-3        0.00000   0.00000   0.00000  -0.00000
 201       66G+4        0.00000   0.00000   0.00000   0.00000
 202       66G-4        0.00000   0.00000   0.00000   0.00000
 203       67G 0        0.00014   0.00007   0.00007  -0.00000
 204       67G+1        0.00013   0.00006   0.00006   0.00000
 205       67G-1        0.00013   0.00006   0.00006   0.00000
 206       67G+2       -0.00000  -0.00000  -0.00000  -0.00000
 207       67G-2        0.00000   0.00000   0.00000  -0.00000
 208       67G+3        0.00000   0.00000   0.00000   0.00000
 209       67G-3        0.00000   0.00000   0.00000  -0.00000
 210       67G+4        0.00000   0.00000   0.00000   0.00000
 211       67G-4        0.00000   0.00000   0.00000   0.00000
 212       68G 0        0.00082   0.00042   0.00040   0.00001
 213       68G+1        0.00088   0.00044   0.00044   0.00000
 214       68G-1        0.00088   0.00044   0.00044  -0.00000
 215       68G+2       -0.00000  -0.00000  -0.00000  -0.00000
 216       68G-2       -0.00000  -0.00000  -0.00000   0.00000
 217       68G+3       -0.00000  -0.00000  -0.00000   0.00000
 218       68G-3       -0.00000  -0.00000  -0.00000   0.00000
 219       68G+4       -0.00000  -0.00000  -0.00000  -0.00000
 220       68G-4       -0.00000  -0.00000  -0.00000  -0.00000
 221       69G 0       -0.00123  -0.00062  -0.00061  -0.00001
 222       69G+1       -0.00087  -0.00044  -0.00044   0.00000
 223       69G-1       -0.00087  -0.00044  -0.00044   0.00000
 224       69G+2        0.00000   0.00000   0.00000   0.00000
 225       69G-2        0.00000   0.00000   0.00000   0.00000
 226       69G+3        0.00000   0.00000   0.00000  -0.00000
 227       69G-3       -0.00000  -0.00000  -0.00000  -0.00000
 228       69G+4        0.00000   0.00000   0.00000   0.00000
 229       69G-4        0.00000   0.00000   0.00000   0.00000
 230       70H 0        0.00000   0.00000   0.00000   0.00000
 231       70H+1        0.00000   0.00000   0.00000   0.00000
 232       70H-1        0.00000   0.00000   0.00000   0.00000
 233       70H+2        0.00000   0.00000   0.00000   0.00000
 234       70H-2       -0.00000  -0.00000  -0.00000  -0.00000
 235       70H+3       -0.00000  -0.00000  -0.00000  -0.00000
 236       70H-3        0.00000   0.00000   0.00000   0.00000
 237       70H+4       -0.00000  -0.00000  -0.00000  -0.00000
 238       70H-4       -0.00000  -0.00000  -0.00000  -0.00000
 239       70H+5       -0.00000  -0.00000  -0.00000   0.00000
 240       70H-5        0.00000   0.00000   0.00000  -0.00000
 241       71H 0        0.00006   0.00004   0.00003   0.00001
 242       71H+1        0.00008   0.00004   0.00004   0.00000
 243       71H-1        0.00008   0.00004   0.00004  -0.00000
 244       71H+2        0.00000   0.00000   0.00000   0.00000
 245       71H-2        0.00000   0.00000   0.00000   0.00000
 246       71H+3       -0.00000  -0.00000  -0.00000   0.00000
 247       71H-3        0.00000   0.00000   0.00000   0.00000
 248       71H+4        0.00000   0.00000   0.00000   0.00000
 249       71H-4        0.00000   0.00000   0.00000   0.00000
 250       71H+5       -0.00000  -0.00000  -0.00000  -0.00000
 251       71H-5        0.00000   0.00000   0.00000  -0.00000
 252       72H 0       -0.00026  -0.00013  -0.00013  -0.00000
 253       72H+1        0.00026   0.00013   0.00013   0.00000
 254       72H-1        0.00026   0.00013   0.00013   0.00000
 255       72H+2        0.00000   0.00000   0.00000   0.00000
 256       72H-2        0.00000   0.00000   0.00000   0.00000
 257       72H+3       -0.00000  -0.00000  -0.00000   0.00000
 258       72H-3       -0.00000  -0.00000  -0.00000  -0.00000
 259       72H+4        0.00000   0.00000   0.00000   0.00000
 260       72H-4        0.00000   0.00000   0.00000   0.00000
 261       72H+5        0.00000   0.00000   0.00000  -0.00000
 262       72H-5       -0.00000  -0.00000  -0.00000   0.00000
 263 2   O  1S         -0.00000  -0.00000  -0.00000  -0.00000
 264        2S          0.00000   0.00000   0.00000   0.00000
 265        3S         -0.00000  -0.00000  -0.00000  -0.00000
 266        4S          0.00000   0.00000   0.00000   0.00000
 267        5S         -0.00000  -0.00000  -0.00000  -0.00000
 268        6S         -0.00007  -0.00004  -0.00004  -0.00000
 269        7S         -0.00063  -0.00031  -0.00031  -0.00000
 270        8S         -0.09153  -0.04581  -0.04572  -0.00009
 271        9S         -0.07602  -0.03805  -0.03798  -0.00007
 272       10S          0.43657   0.21847   0.21811   0.00036
 273       11S          1.05436   0.52747   0.52689   0.00058
 274       12S          0.56212   0.28111   0.28101   0.00010
 275       13S          0.05532   0.02769   0.02763   0.00005
 276       14S          0.00037   0.00019   0.00019   0.00000
 277       15S          0.00003   0.00001   0.00001   0.00000
 278       16S          0.07186   0.04179   0.03007   0.01172
 279       17PX        -0.00014  -0.00007  -0.00007   0.00000
 280       17PY        -0.00014  -0.00007  -0.00007   0.00000
 281       17PZ        -0.00015  -0.00008  -0.00008  -0.00000
 282       18PX        -0.10391  -0.05196  -0.05196  -0.00000
 283       18PY        -0.10391  -0.05196  -0.05196   0.00000
 284       18PZ        -0.11256  -0.05658  -0.05598  -0.00060
 285       19PX         0.12377   0.06189   0.06189   0.00000
 286       19PY         0.12377   0.06189   0.06189   0.00000
 287       19PZ         0.13305   0.06686   0.06620   0.00066
 288       20PX         0.42124   0.21062   0.21062   0.00000
 289       20PY         0.42124   0.21062   0.21062   0.00000
 290       20PZ         0.45255   0.22736   0.22519   0.00217
 291       21PX         0.64035   0.32018   0.32018   0.00000
 292       21PY         0.64035   0.32018   0.32018  -0.00000
 293       21PZ         0.66928   0.33579   0.33349   0.00230
 294       22PX         0.46631   0.23315   0.23315   0.00000
 295       22PY         0.46631   0.23315   0.23315   0.00000
 296       22PZ         0.38126   0.18990   0.19136  -0.00146
 297       23PX         0.11973   0.05987   0.05987  -0.00000
 298       23PY         0.11973   0.05987   0.05987  -0.00000
 299       23PZ         0.12958   0.06513   0.06445   0.00068
 300       24PX         0.00055   0.00028   0.00028   0.00000
 301       24PY         0.00055   0.00028   0.00028   0.00000
 302       24PZ         0.00060   0.00030   0.00030   0.00000
 303       25PX         0.00001   0.00000   0.00000   0.00000
 304       25PY         0.00001   0.00000   0.00000   0.00000
 305       25PZ         0.00001   0.00000   0.00000   0.00000
 306       26PX         0.06787   0.03394   0.03394   0.00000
 307       26PY         0.06787   0.03394   0.03394   0.00000
 308       26PZ         0.04995   0.02504   0.02490   0.00014
 309       27D 0        0.00005   0.00002   0.00002   0.00000
 310       27D+1        0.00004   0.00002   0.00002   0.00000
 311       27D-1        0.00004   0.00002   0.00002   0.00000
 312       27D+2       -0.00000  -0.00000   0.00000  -0.00000
 313       27D-2       -0.00000   0.00000  -0.00000   0.00000
 314       28D 0        0.00082   0.00042   0.00041   0.00001
 315       28D+1        0.00052   0.00026   0.00026   0.00000
 316       28D-1        0.00052   0.00026   0.00026   0.00000
 317       28D+2        0.00000   0.00000   0.00000   0.00000
 318       28D-2        0.00000  -0.00000   0.00000  -0.00000
 319       29D 0        0.00483   0.00243   0.00240   0.00003
 320       29D+1        0.00573   0.00287   0.00287   0.00000
 321       29D-1        0.00573   0.00287   0.00287   0.00000
 322       29D+2        0.00000   0.00000   0.00000   0.00000
 323       29D-2        0.00000  -0.00000   0.00000  -0.00000
 324       30D 0        0.00000   0.00000   0.00000   0.00000
 325       30D+1        0.00000   0.00000   0.00000   0.00000
 326       30D-1        0.00000   0.00000   0.00000   0.00000
 327       30D+2        0.00000  -0.00000   0.00000  -0.00000
 328       30D-2        0.00000  -0.00000   0.00000  -0.00000
 329       31D 0       -0.00000  -0.00000  -0.00000  -0.00000
 330       31D+1       -0.00000  -0.00000  -0.00000   0.00000
 331       31D-1       -0.00000  -0.00000  -0.00000   0.00000
 332       31D+2        0.00000   0.00000   0.00000  -0.00000
 333       31D-2        0.00000   0.00000  -0.00000   0.00000
 334       32D 0       -0.00203  -0.00106  -0.00098  -0.00008
 335       32D+1        0.00860   0.00430   0.00430   0.00000
 336       32D-1        0.00860   0.00430   0.00430   0.00000
 337       32D+2       -0.00000  -0.00000  -0.00000  -0.00000
 338       32D-2       -0.00000  -0.00000  -0.00000  -0.00000
 339       33F 0        0.00000   0.00000   0.00000   0.00000
 340       33F+1        0.00000   0.00000   0.00000   0.00000
 341       33F-1        0.00000   0.00000   0.00000   0.00000
 342       33F+2        0.00000  -0.00000   0.00000  -0.00000
 343       33F-2        0.00000  -0.00000   0.00000  -0.00000
 344       33F+3       -0.00000  -0.00000  -0.00000   0.00000
 345       33F-3       -0.00000  -0.00000  -0.00000  -0.00000
 346       34F 0        0.00043   0.00022   0.00021   0.00001
 347       34F+1        0.00024   0.00012   0.00012  -0.00000
 348       34F-1        0.00024   0.00012   0.00012   0.00000
 349       34F+2        0.00000   0.00000  -0.00000   0.00000
 350       34F-2        0.00000   0.00000  -0.00000   0.00000
 351       34F+3       -0.00000  -0.00000  -0.00000  -0.00000
 352       34F-3        0.00000   0.00000   0.00000  -0.00000
 353       35F 0        0.00000   0.00000   0.00000   0.00000
 354       35F+1        0.00000   0.00000   0.00000   0.00000
 355       35F-1        0.00000   0.00000   0.00000   0.00000
 356       35F+2        0.00000   0.00000   0.00000   0.00000
 357       35F-2        0.00000   0.00000   0.00000   0.00000
 358       35F+3       -0.00000  -0.00000  -0.00000  -0.00000
 359       35F-3        0.00000   0.00000   0.00000  -0.00000
 360       36F 0       -0.00016  -0.00003  -0.00012   0.00009
 361       36F+1        0.00145   0.00073   0.00073   0.00000
 362       36F-1        0.00145   0.00073   0.00073   0.00000
 363       36F+2       -0.00000  -0.00000   0.00000  -0.00000
 364       36F-2       -0.00000  -0.00000   0.00000  -0.00000
 365       36F+3       -0.00000  -0.00000  -0.00000   0.00000
 366       36F-3       -0.00000  -0.00000  -0.00000  -0.00000
 367       37G 0        0.00000   0.00000   0.00000   0.00000
 368       37G+1        0.00000   0.00000   0.00000   0.00000
 369       37G-1        0.00000   0.00000   0.00000   0.00000
 370       37G+2        0.00000   0.00000   0.00000   0.00000
 371       37G-2        0.00000   0.00000   0.00000   0.00000
 372       37G+3        0.00000  -0.00000   0.00000  -0.00000
 373       37G-3        0.00000   0.00000   0.00000  -0.00000
 374       37G+4       -0.00000  -0.00000  -0.00000  -0.00000
 375       37G-4       -0.00000  -0.00000  -0.00000  -0.00000
 376       38G 0        0.00017   0.00009   0.00008   0.00002
 377       38G+1        0.00014   0.00007   0.00007   0.00000
 378       38G-1        0.00014   0.00007   0.00007   0.00000
 379       38G+2        0.00000  -0.00000   0.00000  -0.00000
 380       38G-2        0.00000   0.00000   0.00000  -0.00000
 381       38G+3       -0.00000  -0.00000  -0.00000   0.00000
 382       38G-3        0.00000   0.00000   0.00000  -0.00000
 383       38G+4        0.00000   0.00000   0.00000   0.00000
 384       38G-4        0.00000   0.00000   0.00000   0.00000
          Condensed to atoms (all electrons):
               1          2
     1  Sc   9.531469   0.243485
     2  O    0.243485   6.981562
          Atomic-Atomic Spin Densities.
               1          2
     1  Sc   0.974900   0.008457
     2  O    0.008457   0.008185
 Mulliken charges and spin densities:
               1          2
     1  Sc   1.225046   0.983358
     2  O   -1.225046   0.016642
 Sum of Mulliken charges =  -0.00000   1.00000
 Mulliken charges and spin densities with hydrogens summed into heavy atoms:
               1          2
     1  Sc   1.225046   0.983358
     2  O   -1.225046   0.016642
 Electronic spatial extent (au):  <R**2>=            109.3863
 Charge=             -0.0000 electrons
 Dipole moment (field-independent basis, Debye):
    X=              0.0000    Y=              0.0000    Z=              6.6297  Tot=              6.6297
 Quadrupole moment (field-independent basis, Debye-Ang):
   XX=            -21.9742   YY=            -21.9742   ZZ=            -34.1103
   XY=              0.0000   XZ=              0.0000   YZ=              0.0000
 Traceless Quadrupole moment (field-independent basis, Debye-Ang):
   XX=              4.0454   YY=              4.0454   ZZ=             -8.0907
   XY=              0.0000   XZ=              0.0000   YZ=              0.0000
 Octapole moment (field-independent basis, Debye-Ang**2):
  XXX=              0.0000  YYY=              0.0000  ZZZ=             -1.4432  XYY=              0.0000
  XXY=              0.0000  XXZ=             -0.8599  XZZ=              0.0000  YZZ=              0.0000
  YYZ=             -0.8599  XYZ=              0.0000
 Hexadecapole moment (field-independent basis, Debye-Ang**3):
 XXXX=            -42.8257 YYYY=            -42.8257 ZZZZ=           -206.8411 XXXY=              0.0000
 XXXZ=              0.0000 YYYX=              0.0000 YYYZ=              0.0000 ZZZX=              0.0000
 ZZZY=              0.0000 XXYY=            -14.2752 XXZZ=            -39.5971 YYZZ=            -39.5971
 XXYZ=              0.0000 YYXZ=              0.0000 ZZXY=              0.0000
 N-N= 1.838194522143D+01 E-N=-1.700849047902D+02  KE= 2.973941097467D+01
 Symmetry A1   KE= 1.355829106123D+01
 Symmetry A2   KE= 1.369013547542D-49
 Symmetry B1   KE= 8.090559955682D+00
 Symmetry B2   KE= 8.090559956235D+00
 Symmetry A1   SP= 1.000000000000D+00
 Symmetry A2   SP= 1.185230645266D-49
 Symmetry B1   SP=-8.917551552600D-18
 Symmetry B2   SP=-1.485340388529D-17
 Orbital energies and kinetic energies (alpha):
                                 1                 2
   4         O                -1.686860          2.078090
   5         O                -1.109508          0.951174
   6         O                -0.402708          2.246559
   7         O                -0.364914          1.899478
   8         O                -0.364914          1.899478
   9         O                -0.274525          0.375778
  10         V                -0.008776          0.176037
  11         V                -0.008776          0.176037
  12         V                 0.008094          0.080048
  13         V                 0.018092          0.064640
  14         V                 0.025731          0.053860
 Total kinetic energy from orbitals= 3.011518876021D+01
                          Isotropic Fermi Contact Couplings
        Atom                 a.u.       MegaHertz       Gauss      10(-4) cm-1
     1  Sc(45)             0.00003       0.03651       0.01303       0.01218
     2  O(17)              0.00002      -0.01349      -0.00481      -0.00450
 --------------------------------------------------------
       Center         ----  Spin Dipole Couplings  ----
                      3XX-RR        3YY-RR        3ZZ-RR
 --------------------------------------------------------
     1   Atom       -0.051007     -0.051007      0.102014
     2   Atom       -0.016231     -0.016231      0.032462
 --------------------------------------------------------
                        XY            XZ            YZ
 --------------------------------------------------------
     1   Atom        0.000000      0.000000      0.000000
     2   Atom        0.000000      0.000000      0.000000
 --------------------------------------------------------


 ---------------------------------------------------------------------------------
              Anisotropic Spin Dipole Couplings in Principal Axis System
 ---------------------------------------------------------------------------------

       Atom             a.u.   MegaHertz   Gauss  10(-4) cm-1        Axes

              Baa    -0.0510    -6.621    -2.363    -2.209  1.0000  0.0000  0.0000
     1 Sc(45) Bbb    -0.0510    -6.621    -2.363    -2.209 -0.0000  1.0000  0.0000
              Bcc     0.1020    13.243     4.725     4.417  0.0000  0.0000  1.0000
 
              Baa    -0.0162     1.174     0.419     0.392 -0.0000  1.0000  0.0000
     2 O(17)  Bbb    -0.0162     1.174     0.419     0.392  1.0000  0.0000  0.0000
              Bcc     0.0325    -2.349    -0.838    -0.784  0.0000  0.0000  1.0000
 

 ---------------------------------------------------------------------------------

 No NMR shielding tensors so no spin-rotation constants.
 Leave Link  601 at Mon Mar  5 19:42:15 2018, MaxMem= 10737418240 cpu:             114.2 elap:               7.4
 (Enter /home1/apps/gaussian/16rA.03/g16/l9999.exe)
 1\1\GINC-C439-063\SP\ROCCSD(T)-Full\Gen\O1Sc1(2)\AANNABE\05-Mar-2018\0
 \\#P ROCCSD(T)=(maxcyc=150, Full, SaveAmplitudes, ReadAmplitudes)/Gen 
 5d 7f SCF=(maxcycles=300) Integral(NoXCTest) MaxDisk=500GB Pop=Regular
  Pseudo=Read Guess=Read\\ScO\\0,2\Sc,0,0.,0.,0.\O,0,0.,0.,1.9\\Version
 =ES64L-G16RevA.03\State=2-SG\HF=-61.9267423\MP2=-62.6458768\PUHF=-61.9
 267423\PMP2-0=-62.6458768\CCSD=-62.6267162\CCSD(T)=-62.6759896\RMSD=2.
 071e-10\PG=C*V [C*(O1Sc1)]\\@


 QED = W**5 (WHICH WAS WHAT WE WANTED)
 Job cpu time:       0 days 19 hours 29 minutes 53.7 seconds.
 Elapsed time:       0 days  1 hours 13 minutes 26.9 seconds.
 File lengths (MBytes):  RWF=  11373 Int=      0 D2E=      0 Chk=     61 Scr=      1
 Normal termination of Gaussian 16 at Mon Mar  5 19:42:16 2018.
