 Entering Gaussian System, Link 0=g16
 Initial command:
 /home1/apps/gaussian/16rA.03/g16/l1.exe "/tmp/Gau-269665.inp" -scrdir="/tmp/"
 Entering Link 1 = /home1/apps/gaussian/16rA.03/g16/l1.exe PID=    269666.
  
 Copyright (c) 1988,1990,1992,1993,1995,1998,2003,2009,2016,
            Gaussian, Inc.  All Rights Reserved.
  
 This is part of the Gaussian(R) 16 program.  It is based on
 the Gaussian(R) 09 system (copyright 2009, Gaussian, Inc.),
 the Gaussian(R) 03 system (copyright 2003, Gaussian, Inc.),
 the Gaussian(R) 98 system (copyright 1998, Gaussian, Inc.),
 the Gaussian(R) 94 system (copyright 1995, Gaussian, Inc.),
 the Gaussian 92(TM) system (copyright 1992, Gaussian, Inc.),
 the Gaussian 90(TM) system (copyright 1990, Gaussian, Inc.),
 the Gaussian 88(TM) system (copyright 1988, Gaussian, Inc.),
 the Gaussian 86(TM) system (copyright 1986, Carnegie Mellon
 University), and the Gaussian 82(TM) system (copyright 1983,
 Carnegie Mellon University). Gaussian is a federally registered
 trademark of Gaussian, Inc.
  
 This software contains proprietary and confidential information,
 including trade secrets, belonging to Gaussian, Inc.
  
 This software is provided under written license and may be
 used, copied, transmitted, or stored only in accord with that
 written license.
  
 The following legend is applicable only to US Government
 contracts under FAR:
  
                    RESTRICTED RIGHTS LEGEND
  
 Use, reproduction and disclosure by the US Government is
 subject to restrictions as set forth in subparagraphs (a)
 and (c) of the Commercial Computer Software - Restricted
 Rights clause in FAR 52.227-19.
  
 Gaussian, Inc.
 340 Quinnipiac St., Bldg. 40, Wallingford CT 06492
  
  
 ---------------------------------------------------------------
 Warning -- This program may not be used in any manner that
 competes with the business of Gaussian, Inc. or will provide
 assistance to any competitor of Gaussian, Inc.  The licensee
 of this program is prohibited from giving any competitor of
 Gaussian, Inc. access to this program.  By using this program,
 the user acknowledges that Gaussian, Inc. is engaged in the
 business of creating and licensing software in the field of
 computational chemistry and represents and warrants to the
 licensee that it is not a competitor of Gaussian, Inc. and that
 it will not use this program in any manner prohibited above.
 ---------------------------------------------------------------
  

 Cite this work as:
 Gaussian 16, Revision A.03,
 M. J. Frisch, G. W. Trucks, H. B. Schlegel, G. E. Scuseria, 
 M. A. Robb, J. R. Cheeseman, G. Scalmani, V. Barone, 
 G. A. Petersson, H. Nakatsuji, X. Li, M. Caricato, A. V. Marenich, 
 J. Bloino, B. G. Janesko, R. Gomperts, B. Mennucci, H. P. Hratchian, 
 J. V. Ortiz, A. F. Izmaylov, J. L. Sonnenberg, D. Williams-Young, 
 F. Ding, F. Lipparini, F. Egidi, J. Goings, B. Peng, A. Petrone, 
 T. Henderson, D. Ranasinghe, V. G. Zakrzewski, J. Gao, N. Rega, 
 G. Zheng, W. Liang, M. Hada, M. Ehara, K. Toyota, R. Fukuda, 
 J. Hasegawa, M. Ishida, T. Nakajima, Y. Honda, O. Kitao, H. Nakai, 
 T. Vreven, K. Throssell, J. A. Montgomery, Jr., J. E. Peralta, 
 F. Ogliaro, M. J. Bearpark, J. J. Heyd, E. N. Brothers, K. N. Kudin, 
 V. N. Staroverov, T. A. Keith, R. Kobayashi, J. Normand, 
 K. Raghavachari, A. P. Rendell, J. C. Burant, S. S. Iyengar, 
 J. Tomasi, M. Cossi, J. M. Millam, M. Klene, C. Adamo, R. Cammi, 
 J. W. Ochterski, R. L. Martin, K. Morokuma, O. Farkas, 
 J. B. Foresman, and D. J. Fox, Gaussian, Inc., Wallingford CT, 2016.
 
 ******************************************
 Gaussian 16:  ES64L-G16RevA.03 25-Dec-2016
                13-Mar-2018 
 ******************************************
 %MEM=80GB
 %CPU=0-15
 SetSPE:  set environment variable "MP_BIND" = "yes"
 SetSPE:  set environment variable "MP_BLIST" = "0,1,2,3,4,5,6,7,8,9,10,11,12,13,14,15"
 Will use up to   16 processors via shared memory.
 %RWF=/scratch/04843/aannabe/gaussian/
 %Int=/scratch/04843/aannabe/gaussian/
 %D2E=/scratch/04843/aannabe/gaussian/
 %NoSave
 %CHK=MnO
 ----------------------------------------------------------------------
 #P ROCCSD(T)=(maxcyc=150, Full, SaveAmplitudes, ReadAmplitudes)/Gen 5d
  7f SCF=(maxcycles=300) Integral(NoXCTest) MaxDisk=500GB Pop=Regular P
 seudo=Read Guess=Read IOp(5/15=2)
 ----------------------------------------------------------------------
 1/38=1,172=1/1;
 2/12=2,17=6,18=5,40=1/2;
 3/5=7,8=11,11=2,16=1,17=8,25=1,30=1,47=8,116=101/1,2,3;
 4/5=1/1;
 5/5=2,7=300,15=2,38=6/2;
 8/5=-1,6=4,9=120000,10=90,24=1/1,4;
 9/5=7,6=150,14=2,77=1/13;
 6//1;
 99/5=1,9=1/99;
 Leave Link    1 at Tue Mar 13 12:06:49 2018, MaxMem= 10737418240 cpu:               4.6 elap:               0.3
 (Enter /home1/apps/gaussian/16rA.03/g16/l101.exe)
 ---
 MnO
 ---
 Symbolic Z-matrix:
 Charge =  0 Multiplicity = 6
 Mn                    0.        0.        0. 
 O                     0.        0.        1.2 
 
 ITRead=  0  0
 MicOpt= -1 -1
 NAtoms=      2 NQM=        2 NQMF=       0 NMMI=      0 NMMIF=      0
                NMic=       0 NMicF=      0.
                    Isotopes and Nuclear Properties:
 (Nuclear quadrupole moments (NQMom) in fm**2, nuclear magnetic moments (NMagM)
  in nuclear magnetons)

  Atom         1           2
 IAtWgt=          55          16
 AtmWgt=  54.9380463  15.9949146
 NucSpn=           5           0
 AtZEff=  -0.0000000  -0.0000000
 NQMom=   33.0000000   0.0000000
 NMagM=    3.4532000   0.0000000
 AtZNuc=  25.0000000   8.0000000
 Leave Link  101 at Tue Mar 13 12:06:50 2018, MaxMem= 10737418240 cpu:               1.5 elap:               0.1
 (Enter /home1/apps/gaussian/16rA.03/g16/l202.exe)
                          Input orientation:                          
 ---------------------------------------------------------------------
 Center     Atomic      Atomic             Coordinates (Angstroms)
 Number     Number       Type             X           Y           Z
 ---------------------------------------------------------------------
      1         25           0        0.000000    0.000000    0.000000
      2          8           0        0.000000    0.000000    1.200000
 ---------------------------------------------------------------------
 Stoichiometry    MnO(6)
 Framework group  C*V[C*(OMn)]
 Deg. of freedom     1
 Full point group                 C*V     NOp   4
 Largest Abelian subgroup         C2V     NOp   4
 Largest concise Abelian subgroup C1      NOp   1
                         Standard orientation:                         
 ---------------------------------------------------------------------
 Center     Atomic      Atomic             Coordinates (Angstroms)
 Number     Number       Type             X           Y           Z
 ---------------------------------------------------------------------
      1         25           0        0.000000    0.000000    0.290909
      2          8           0        0.000000    0.000000   -0.909091
 ---------------------------------------------------------------------
 Rotational constants (GHZ):           0.0000000          28.3300707          28.3300707
 Leave Link  202 at Tue Mar 13 12:06:50 2018, MaxMem= 10737418240 cpu:               0.4 elap:               0.1
 (Enter /home1/apps/gaussian/16rA.03/g16/l301.exe)
 General basis read from cards:  (5D, 7F)
 Centers:       1
 S 1 1.00
     Exponent=  3.9608050000D+06 Coefficients=  1.0000000000D+00
 S 1 1.00
     Exponent=  5.9311550000D+05 Coefficients=  1.0000000000D+00
 S 1 1.00
     Exponent=  1.3497680000D+05 Coefficients=  1.0000000000D+00
 S 1 1.00
     Exponent=  3.8230670000D+04 Coefficients=  1.0000000000D+00
 S 1 1.00
     Exponent=  1.2471540000D+04 Coefficients=  1.0000000000D+00
 S 1 1.00
     Exponent=  4.5017430000D+03 Coefficients=  1.0000000000D+00
 S 1 1.00
     Exponent=  1.7552120000D+03 Coefficients=  1.0000000000D+00
 S 1 1.00
     Exponent=  7.2730390000D+02 Coefficients=  1.0000000000D+00
 S 1 1.00
     Exponent=  3.1636780000D+02 Coefficients=  1.0000000000D+00
 S 1 1.00
     Exponent=  1.4300980000D+02 Coefficients=  1.0000000000D+00
 S 1 1.00
     Exponent=  6.6218050000D+01 Coefficients=  1.0000000000D+00
 S 1 1.00
     Exponent=  2.9918960000D+01 Coefficients=  1.0000000000D+00
 S 1 1.00
     Exponent=  1.4303180000D+01 Coefficients=  1.0000000000D+00
 S 1 1.00
     Exponent=  6.8394510000D+00 Coefficients=  1.0000000000D+00
 S 1 1.00
     Exponent=  3.0123740000D+00 Coefficients=  1.0000000000D+00
 S 1 1.00
     Exponent=  1.4188080000D+00 Coefficients=  1.0000000000D+00
 S 1 1.00
     Exponent=  6.2362400000D-01 Coefficients=  1.0000000000D+00
 S 1 1.00
     Exponent=  1.3409800000D-01 Coefficients=  1.0000000000D+00
 S 1 1.00
     Exponent=  6.5548000000D-02 Coefficients=  1.0000000000D+00
 S 1 1.00
     Exponent=  2.9584000000D-02 Coefficients=  1.0000000000D+00
 S 1 1.00
     Exponent=  4.1714000000D+00 Coefficients=  1.0000000000D+00
 S 1 1.00
     Exponent=  1.0701000000D+00 Coefficients=  1.0000000000D+00
 S 1 1.00
     Exponent=  1.3350000000D-02 Coefficients=  1.0000000000D+00
 P 1 1.00
     Exponent=  1.6205860000D+04 Coefficients=  1.0000000000D+00
 P 1 1.00
     Exponent=  3.8362740000D+03 Coefficients=  1.0000000000D+00
 P 1 1.00
     Exponent=  1.2460480000D+03 Coefficients=  1.0000000000D+00
 P 1 1.00
     Exponent=  4.7675350000D+02 Coefficients=  1.0000000000D+00
 P 1 1.00
     Exponent=  2.0218950000D+02 Coefficients=  1.0000000000D+00
 P 1 1.00
     Exponent=  9.2094870000D+01 Coefficients=  1.0000000000D+00
 P 1 1.00
     Exponent=  4.4147200000D+01 Coefficients=  1.0000000000D+00
 P 1 1.00
     Exponent=  2.1854680000D+01 Coefficients=  1.0000000000D+00
 P 1 1.00
     Exponent=  1.1085960000D+01 Coefficients=  1.0000000000D+00
 P 1 1.00
     Exponent=  5.6741080000D+00 Coefficients=  1.0000000000D+00
 P 1 1.00
     Exponent=  2.8231700000D+00 Coefficients=  1.0000000000D+00
 P 1 1.00
     Exponent=  1.3686210000D+00 Coefficients=  1.0000000000D+00
 P 1 1.00
     Exponent=  6.4443100000D-01 Coefficients=  1.0000000000D+00
 P 1 1.00
     Exponent=  2.4834600000D-01 Coefficients=  1.0000000000D+00
 P 1 1.00
     Exponent=  9.7175000000D-02 Coefficients=  1.0000000000D+00
 P 1 1.00
     Exponent=  3.6565000000D-02 Coefficients=  1.0000000000D+00
 P 1 1.00
     Exponent=  6.0568000000D+00 Coefficients=  1.0000000000D+00
 P 1 1.00
     Exponent=  1.3911000000D+00 Coefficients=  1.0000000000D+00
 P 1 1.00
     Exponent=  1.3760000000D-02 Coefficients=  1.0000000000D+00
 D 1 1.00
     Exponent=  1.0190400000D+02 Coefficients=  1.0000000000D+00
 D 1 1.00
     Exponent=  3.0033700000D+01 Coefficients=  1.0000000000D+00
 D 1 1.00
     Exponent=  1.0923800000D+01 Coefficients=  1.0000000000D+00
 D 1 1.00
     Exponent=  4.3974000000D+00 Coefficients=  1.0000000000D+00
 D 1 1.00
     Exponent=  1.8159500000D+00 Coefficients=  1.0000000000D+00
 D 1 1.00
     Exponent=  7.2573100000D-01 Coefficients=  1.0000000000D+00
 D 1 1.00
     Exponent=  2.6996100000D-01 Coefficients=  1.0000000000D+00
 D 1 1.00
     Exponent=  8.7760000000D-02 Coefficients=  1.0000000000D+00
 D 1 1.00
     Exponent=  3.9511000000D+00 Coefficients=  1.0000000000D+00
 D 1 1.00
     Exponent=  1.8488000000D+00 Coefficients=  1.0000000000D+00
 D 1 1.00
     Exponent=  2.8530000000D-02 Coefficients=  1.0000000000D+00
 F 1 1.00
     Exponent=  5.1541000000D+00 Coefficients=  1.0000000000D+00
 F 1 1.00
     Exponent=  1.9044000000D+00 Coefficients=  1.0000000000D+00
 F 1 1.00
     Exponent=  6.4380000000D-01 Coefficients=  1.0000000000D+00
 F 1 1.00
     Exponent=  2.1764000000D-01 Coefficients=  1.0000000000D+00
 G 1 1.00
     Exponent=  4.7163000000D+00 Coefficients=  1.0000000000D+00
 G 1 1.00
     Exponent=  1.7022000000D+00 Coefficients=  1.0000000000D+00
 G 1 1.00
     Exponent=  6.1436000000D-01 Coefficients=  1.0000000000D+00
 ****
 Centers:       2
 S 1 1.00
     Exponent=  1.5330000000D+04 Coefficients=  1.0000000000D+00
 S 1 1.00
     Exponent=  2.2990000000D+03 Coefficients=  1.0000000000D+00
 S 1 1.00
     Exponent=  5.2240000000D+02 Coefficients=  1.0000000000D+00
 S 1 1.00
     Exponent=  1.4730000000D+02 Coefficients=  1.0000000000D+00
 S 1 1.00
     Exponent=  4.7550000000D+01 Coefficients=  1.0000000000D+00
 S 1 1.00
     Exponent=  1.6760000000D+01 Coefficients=  1.0000000000D+00
 S 1 1.00
     Exponent=  6.2070000000D+00 Coefficients=  1.0000000000D+00
 S 1 1.00
     Exponent=  6.8820000000D-01 Coefficients=  1.0000000000D+00
 S 1 1.00
     Exponent=  1.7520000000D+00 Coefficients=  1.0000000000D+00
 S 1 1.00
     Exponent=  2.3840000000D-01 Coefficients=  1.0000000000D+00
 S 1 1.00
     Exponent=  7.8450000000D+00 Coefficients=  1.0000000000D+00
 S 1 1.00
     Exponent=  2.1032000000D+01 Coefficients=  1.0000000000D+00
 S 1 1.00
     Exponent=  7.3760000000D-02 Coefficients=  1.0000000000D+00
 P 1 1.00
     Exponent=  3.4460000000D+01 Coefficients=  1.0000000000D+00
 P 1 1.00
     Exponent=  7.7490000000D+00 Coefficients=  1.0000000000D+00
 P 1 1.00
     Exponent=  2.2800000000D+00 Coefficients=  1.0000000000D+00
 P 1 1.00
     Exponent=  7.1560000000D-01 Coefficients=  1.0000000000D+00
 P 1 1.00
     Exponent=  2.1400000000D-01 Coefficients=  1.0000000000D+00
 P 1 1.00
     Exponent=  1.5159000000D+01 Coefficients=  1.0000000000D+00
 P 1 1.00
     Exponent=  5.7437000000D+01 Coefficients=  1.0000000000D+00
 P 1 1.00
     Exponent=  5.9740000000D-02 Coefficients=  1.0000000000D+00
 D 1 1.00
     Exponent=  2.3140000000D+00 Coefficients=  1.0000000000D+00
 D 1 1.00
     Exponent=  6.4500000000D-01 Coefficients=  1.0000000000D+00
 D 1 1.00
     Exponent=  1.5858000000D+01 Coefficients=  1.0000000000D+00
 D 1 1.00
     Exponent=  2.1400000000D-01 Coefficients=  1.0000000000D+00
 F 1 1.00
     Exponent=  1.4280000000D+00 Coefficients=  1.0000000000D+00
 F 1 1.00
     Exponent=  5.0000000000D-01 Coefficients=  1.0000000000D+00
 ****
 ======================================================================================================
                                       Pseudopotential Parameters
 ======================================================================================================
  Center     Atomic      Valence      Angular      Power
  Number     Number     Electrons     Momentum     of R      Exponent        Coefficient   SO-Coeffient
 ======================================================================================================
    1         25           15
                                      D and up 
                                                     1        3.2952461       15.00000000    0.00000000
                                                     3        3.6159915       49.42869068    0.00000000
                                                     2        3.5740576      -61.66925169    0.00000000
                                      S - D
                                                     2        9.9915420      112.85037953    0.00000000
                                      P - D
                                                     2        7.8092522       49.18832867    0.00000000
    2          8            6
                                      P and up 
                                                     1       12.3099700        6.00000000    0.00000000
                                                     3       14.7696200       73.85984000    0.00000000
                                                     2       13.7141900      -47.87600000    0.00000000
                                      S - P
                                                     2       13.6551200       85.86406000    0.00000000
 ======================================================================================================
 Ernie: Thresh=  0.10000D-02 Tol=  0.10000D-05 Strict=F.
 There are   144 symmetry adapted cartesian basis functions of A1  symmetry.
 There are    30 symmetry adapted cartesian basis functions of A2  symmetry.
 There are    69 symmetry adapted cartesian basis functions of B1  symmetry.
 There are    69 symmetry adapted cartesian basis functions of B2  symmetry.
 There are   114 symmetry adapted basis functions of A1  symmetry.
 There are    27 symmetry adapted basis functions of A2  symmetry.
 There are    60 symmetry adapted basis functions of B1  symmetry.
 There are    60 symmetry adapted basis functions of B2  symmetry.
   261 basis functions,   312 primitive gaussians,   312 cartesian basis functions
    13 alpha electrons        8 beta electrons
       nuclear repulsion energy        39.6882908190 Hartrees.
 IExCor=    0 DFT=F Ex=HF Corr=None ExCW=0 ScaHFX=  1.000000
 ScaDFX=  1.000000  1.000000  1.000000  1.000000 ScalE2=  1.000000  1.000000
 IRadAn=      5 IRanWt=     -1 IRanGd=            0 ICorTp=0 IEmpDi=  4
 NAtoms=    2 NActive=    2 NUniq=    2 SFac= 1.00D+00 NAtFMM=   60 NAOKFM=F Big=F
 Integral buffers will be    131072 words long.
 Raffenetti 2 integral format.
 Two-electron integral symmetry is turned on.
 Leave Link  301 at Tue Mar 13 12:06:51 2018, MaxMem= 10737418240 cpu:               3.9 elap:               0.3
 (Enter /home1/apps/gaussian/16rA.03/g16/l302.exe)
 NPDir=0 NMtPBC=     1 NCelOv=     1 NCel=       1 NClECP=     1 NCelD=      1
         NCelK=      1 NCelE2=     1 NClLst=     1 CellRange=     0.0.
 One-electron integrals computed using PRISM.
 One-electron integral symmetry used in STVInt
   4 Symmetry operations used in ECPInt.
 ECPInt:  NShTT=    3828 NPrTT=    3828 LenC2=    3617 LenP2D=    3616.
 LDataN:  DoStor=T MaxTD1= 8 Len=  415
 NBasis=   261 RedAO= T EigKep=  1.26D-06  NBF=   114    27    60    60
 NBsUse=   257 1.00D-06 EigRej=  9.51D-07 NBFU=   112    27    59    59
 Leave Link  302 at Tue Mar 13 12:06:52 2018, MaxMem= 10737418240 cpu:              15.2 elap:               1.0
 (Enter /home1/apps/gaussian/16rA.03/g16/l303.exe)
 DipDrv:  MaxL=1.
 Leave Link  303 at Tue Mar 13 12:06:53 2018, MaxMem= 10737418240 cpu:               1.2 elap:               0.2
 (Enter /home1/apps/gaussian/16rA.03/g16/l401.exe)
 Initial guess from the checkpoint file:  "MnO.chk"
 B after Tr=     0.000000    0.000000    0.000000
         Rot=    1.000000    0.000000    0.000000    0.000000 Ang=   0.00 deg.
 Guess basis will be translated and rotated to current coordinates.
 JPrj=2 DoOrth=T DoCkMO=T.
 Initial guess orbital symmetries:
       Occupied  (SG) (SG) (PI) (PI) (SG) (SG) (PI) (PI) (DLTA)
                 (DLTA) (SG) (PI) (PI)
       Virtual   (SG) (PI) (PI) (SG) (SG) (PI) (PI) (SG) (DLTA)
                 (DLTA) (PI) (PI) (SG) (SG) (PI) (PI) (SG) (PI)
                 (PI) (SG) (DLTA) (DLTA) (PI) (PI) (SG) (SG) (SG)
                 (DLTA) (DLTA) (PHI) (PHI) (PI) (PI) (PI) (PI)
                 (SG) (SG) (DLTA) (DLTA) (PI) (PI) (SG) (DLTA)
                 (DLTA) (PI) (PI) (SG) (PI) (PI) (SG) (SG) (SG)
                 (DLTA) (DLTA) (PHI) (PHI) (PI) (PI) (SG) (PHI)
                 (PHI) (DLTA) (DLTA) (PI) (PI) (DLTA) (DLTA) (PI)
                 (PI) (SG) (?A) (?A) (PI) (PI) (PHI) (PHI) (SG)
                 (DLTA) (DLTA) (SG) (PI) (PI) (DLTA) (DLTA) (SG)
                 (PI) (PI) (SG) (PI) (PI) (SG) (SG) (SG) (PHI)
                 (PHI) (DLTA) (DLTA) (PI) (PI) (PHI) (PHI) (SG)
                 (DLTA) (DLTA) (PI) (PI) (DLTA) (DLTA) (SG) (PI)
                 (PI) (DLTA) (DLTA) (SG) (PI) (PI) (SG) (PI) (PI)
                 (?A) (?A) (PHI) (PHI) (DLTA) (DLTA) (PI) (PI)
                 (SG) (SG) (SG) (DLTA) (DLTA) (PI) (PI) (SG) (PI)
                 (PI) (SG) (SG) (PHI) (PHI) (DLTA) (DLTA) (PI)
                 (PI) (SG) (PI) (PI) (SG) (?A) (?A) (PHI) (PHI)
                 (DLTA) (DLTA) (PI) (PI) (SG) (DLTA) (DLTA) (PI)
                 (PI) (SG) (SG) (PI) (PI) (SG) (SG) (DLTA) (DLTA)
                 (PI) (PI) (SG) (PI) (PI) (DLTA) (DLTA) (SG) (PI)
                 (PI) (SG) (SG) (PI) (PI) (SG) (SG) (DLTA) (DLTA)
                 (PI) (PI) (SG) (SG) (PI) (PI) (SG) (PI) (PI) (SG)
                 (SG) (SG) (PI) (PI) (SG) (SG) (PI) (PI) (SG) (SG)
                 (DLTA) (DLTA) (PI) (PI) (SG) (PI) (PI) (SG) (SG)
                 (SG) (PI) (PI) (SG) (SG) (SG) (PI) (PI) (SG) (SG)
                 (PI) (PI) (SG) (SG) (SG) (PI) (PI) (SG) (SG) (SG)
                 (SG) (PI) (PI) (SG) (SG) (SG) (SG)
 The electronic state of the initial guess is 6-SG.
 Leave Link  401 at Tue Mar 13 12:06:54 2018, MaxMem= 10737418240 cpu:               6.8 elap:               0.5
 (Enter /home1/apps/gaussian/16rA.03/g16/l502.exe)
 Keep R1 and R2 ints in memory in symmetry-blocked form, NReq=734602573.
 FoFCou: FMM=F IPFlag=           8 FMFlag=           0 FMFlg1=           0
         NFxFlg=           0 DoJE=F BraDBF=F KetDBF=F FulRan=T
         wScrn=  0.000000 ICntrl=       600 IOpCl=  0 I1Cent=           0 NGrid=           0
         NMat0=    1 NMatS0=  34191 NMatT0=    0 NMatD0=    1 NMtDS0=    0 NMtDT0=    0
 Petite list used in FoFCou.
 Restricted open shell SCF:
 Using DIIS extrapolation, IDIIS=  1040.
 NGot= 10737418240 LenX= 10437151885 LenY= 10437054100
 Requested convergence on RMS density matrix=1.00D-08 within 300 cycles.
 Requested convergence on MAX density matrix=1.00D-06.
 Requested convergence on             energy=1.00D-06.
 No special actions if energy rises.

 Cycle   1  Pass 1  IDiag  1:
 E= -117.955363214659    
 DIIS: error= 6.19D-01 at cycle   1 NSaved=   1.
 NSaved= 1 IEnMin= 1 EnMin= -117.955363214659     IErMin= 1 ErrMin= 6.19D-01
 ErrMax= 6.19D-01  0.00D+00 EMaxC= 1.00D-01 BMatC= 3.81D+01 BMatP= 3.81D+01
 IDIUse=3 WtCom= 0.00D+00 WtEn= 1.00D+00
 Coeff-Com:  0.100D+01
 Coeff-En:   0.100D+01
 Coeff:      0.100D+01
 Gap=     0.063 Goal=   None    Shift=    0.000
 GapD=    0.063 DampG=0.500 DampE=0.125 DampFc=0.1250 IDamp=-1.
 Damping current iteration by 1.25D-01
 RMSDP=1.41D-02 MaxDP=1.59D+00              OVMax= 2.52D-01

 Cycle   2  Pass 1  IDiag  1:
 E= -118.069655571135     Delta-E=       -0.114292356477 Rises=F Damp=T
 DIIS: error= 5.35D-01 at cycle   2 NSaved=   2.
 NSaved= 2 IEnMin= 2 EnMin= -118.069655571135     IErMin= 2 ErrMin= 5.35D-01
 ErrMax= 5.35D-01  0.00D+00 EMaxC= 1.00D-01 BMatC= 2.90D+01 BMatP= 3.81D+01
 IDIUse=3 WtCom= 0.00D+00 WtEn= 1.00D+00
 Coeff-Com: -0.662D+01 0.762D+01
 Coeff-En:   0.000D+00 0.100D+01
 Coeff:      0.000D+00 0.100D+01
 Gap=     0.048 Goal=   None    Shift=    0.000
 RMSDP=1.14D-02 MaxDP=1.19D+00 DE=-1.14D-01 OVMax= 3.48D-01

 Cycle   3  Pass 1  IDiag  1:
 E= -118.884731448355     Delta-E=       -0.815075877219 Rises=F Damp=F
 DIIS: error= 2.00D-02 at cycle   3 NSaved=   3.
 NSaved= 3 IEnMin= 3 EnMin= -118.884731448355     IErMin= 3 ErrMin= 2.00D-02
 ErrMax= 2.00D-02  0.00D+00 EMaxC= 1.00D-01 BMatC= 5.41D-02 BMatP= 2.90D+01
 IDIUse=3 WtCom= 8.00D-01 WtEn= 2.00D-01
 Coeff-Com: -0.691D+00 0.779D+00 0.912D+00
 Coeff-En:   0.000D+00 0.000D+00 0.100D+01
 Coeff:     -0.553D+00 0.624D+00 0.930D+00
 Gap=    -0.019 Goal=   None    Shift=    0.000
 RMSDP=5.53D-03 MaxDP=4.95D-01 DE=-8.15D-01 OVMax= 7.08D-01

 Cycle   4  Pass 1  IDiag  1:
 E= -118.608569202220     Delta-E=        0.276162246135 Rises=F Damp=F
 DIIS: error= 6.45D-02 at cycle   4 NSaved=   4.
 NSaved= 4 IEnMin= 3 EnMin= -118.884731448355     IErMin= 3 ErrMin= 2.00D-02
 ErrMax= 6.45D-02  0.00D+00 EMaxC= 1.00D-01 BMatC= 4.86D-01 BMatP= 5.41D-02
 IDIUse=2 WtCom= 0.00D+00 WtEn= 1.00D+00
 Coeff-En:   0.000D+00 0.000D+00 0.665D+00 0.335D+00
 Coeff:      0.000D+00 0.000D+00 0.665D+00 0.335D+00
 Gap=     0.111 Goal=   None    Shift=    0.000
 RMSDP=5.10D-03 MaxDP=4.02D-01 DE= 2.76D-01 OVMax= 5.21D-01

 Cycle   5  Pass 1  IDiag  1:
 E= -118.941769542025     Delta-E=       -0.333200339805 Rises=F Damp=F
 DIIS: error= 4.67D-02 at cycle   5 NSaved=   5.
 NSaved= 5 IEnMin= 5 EnMin= -118.941769542025     IErMin= 3 ErrMin= 2.00D-02
 ErrMax= 4.67D-02  0.00D+00 EMaxC= 1.00D-01 BMatC= 1.87D-01 BMatP= 5.41D-02
 IDIUse=2 WtCom= 0.00D+00 WtEn= 1.00D+00
 EnCoef did    12 forward-backward iterations
 Coeff-En:   0.000D+00 0.000D+00 0.161D+00 0.278D+00 0.561D+00
 Coeff:      0.000D+00 0.000D+00 0.161D+00 0.278D+00 0.561D+00
 Gap=     0.111 Goal=   None    Shift=    0.000
 RMSDP=1.87D-03 MaxDP=1.11D-01 DE=-3.33D-01 OVMax= 1.42D-01

 Cycle   6  Pass 1  IDiag  1:
 E= -119.016794845673     Delta-E=       -0.075025303648 Rises=F Damp=F
 DIIS: error= 1.30D-02 at cycle   6 NSaved=   6.
 NSaved= 6 IEnMin= 6 EnMin= -119.016794845673     IErMin= 6 ErrMin= 1.30D-02
 ErrMax= 1.30D-02  0.00D+00 EMaxC= 1.00D-01 BMatC= 2.44D-02 BMatP= 5.41D-02
 IDIUse=3 WtCom= 8.70D-01 WtEn= 1.30D-01
 EnCoef did     2 forward-backward iterations
 Coeff-Com:  0.170D-01-0.194D-01-0.298D-01 0.930D-01 0.271D+00 0.669D+00
 Coeff-En:   0.000D+00 0.000D+00 0.000D+00 0.155D+00 0.205D+00 0.640D+00
 Coeff:      0.148D-01-0.169D-01-0.259D-01 0.101D+00 0.262D+00 0.665D+00
 Gap=     0.080 Goal=   None    Shift=    0.000
 RMSDP=3.06D-03 MaxDP=2.46D-01 DE=-7.50D-02 OVMax= 1.91D-01

 Cycle   7  Pass 1  IDiag  1:
 E= -119.032211710463     Delta-E=       -0.015416864789 Rises=F Damp=F
 DIIS: error= 6.70D-03 at cycle   7 NSaved=   7.
 NSaved= 7 IEnMin= 7 EnMin= -119.032211710463     IErMin= 7 ErrMin= 6.70D-03
 ErrMax= 6.70D-03  0.00D+00 EMaxC= 1.00D-01 BMatC= 5.67D-03 BMatP= 2.44D-02
 IDIUse=3 WtCom= 9.33D-01 WtEn= 6.70D-02
 EnCoef did     6 forward-backward iterations
 Coeff-Com:  0.759D-02-0.789D-02-0.475D-01 0.491D-02 0.328D-01 0.355D+00
 Coeff-Com:  0.655D+00
 Coeff-En:   0.000D+00 0.000D+00 0.000D+00 0.516D-01 0.000D+00 0.398D+00
 Coeff-En:   0.551D+00
 Coeff:      0.709D-02-0.736D-02-0.443D-01 0.803D-02 0.306D-01 0.358D+00
 Coeff:      0.648D+00
 Gap=     0.060 Goal=   None    Shift=    0.000
 RMSDP=3.40D-03 MaxDP=2.45D-01 DE=-1.54D-02 OVMax= 2.11D-01

 Cycle   8  Pass 1  IDiag  1:
 E= -119.031885470002     Delta-E=        0.000326240460 Rises=F Damp=F
 DIIS: error= 6.86D-03 at cycle   8 NSaved=   8.
 NSaved= 8 IEnMin= 7 EnMin= -119.032211710463     IErMin= 7 ErrMin= 6.70D-03
 ErrMax= 6.86D-03  0.00D+00 EMaxC= 1.00D-01 BMatC= 4.83D-03 BMatP= 5.67D-03
 IDIUse=3 WtCom= 9.33D-01 WtEn= 6.70D-02
 EnCoef did     2 forward-backward iterations
 Coeff-Com: -0.730D-01 0.832D-01 0.286D-01 0.985D-02-0.593D-01 0.142D-01
 Coeff-Com:  0.536D+00 0.461D+00
 Coeff-En:   0.000D+00 0.000D+00 0.000D+00 0.593D-01 0.000D+00 0.000D+00
 Coeff-En:   0.403D+00 0.537D+00
 Coeff:     -0.681D-01 0.776D-01 0.267D-01 0.132D-01-0.553D-01 0.133D-01
 Coeff:      0.527D+00 0.466D+00
 Gap=     0.068 Goal=   None    Shift=    0.000
 RMSDP=1.72D-03 MaxDP=1.47D-01 DE= 3.26D-04 OVMax= 1.52D-01

 Cycle   9  Pass 1  IDiag  1:
 E= -119.042032950657     Delta-E=       -0.010147480654 Rises=F Damp=F
 DIIS: error= 2.16D-03 at cycle   9 NSaved=   9.
 NSaved= 9 IEnMin= 9 EnMin= -119.042032950657     IErMin= 9 ErrMin= 2.16D-03
 ErrMax= 2.16D-03  0.00D+00 EMaxC= 1.00D-01 BMatC= 7.14D-04 BMatP= 4.83D-03
 IDIUse=3 WtCom= 9.78D-01 WtEn= 2.16D-02
 Rare condition: small coef for last iteration: -0.666D-15
 Coeff-Com: -0.663D-01 0.754D-01 0.231D-01-0.732D-02-0.638D-01-0.127D+00
 Coeff-Com:  0.136D+00 0.325D+00 0.705D+00
 Coeff-En:   0.000D+00 0.000D+00 0.000D+00 0.428D-01 0.000D+00 0.000D+00
 Coeff-En:   0.853D-01 0.281D+00 0.591D+00
 Coeff:     -0.663D-01 0.754D-01 0.231D-01-0.732D-02-0.638D-01-0.127D+00
 Coeff:      0.136D+00 0.325D+00 0.705D+00
 Gap=     0.061 Goal=   None    Shift=    0.000
 RMSDP=9.34D-04 MaxDP=1.16D-01 DE=-1.01D-02 OVMax= 6.74D-02

 Cycle  10  Pass 1  IDiag  1:
 E= -119.043234985878     Delta-E=       -0.001202035221 Rises=F Damp=F
 DIIS: error= 1.54D-03 at cycle  10 NSaved=  10.
 NSaved=10 IEnMin=10 EnMin= -119.043234985878     IErMin=10 ErrMin= 1.54D-03
 ErrMax= 1.54D-03  0.00D+00 EMaxC= 1.00D-01 BMatC= 4.54D-04 BMatP= 7.14D-04
 IDIUse=3 WtCom= 9.85D-01 WtEn= 1.54D-02
 EnCoef did   100 forward-backward iterations
 Rare condition: small coef for last iteration:  0.000D+00
 Coeff-Com: -0.553D-01 0.630D-01-0.390D-02 0.779D-02-0.158D-01-0.702D-01
 Coeff-Com: -0.661D-01 0.523D-01 0.411D+00 0.677D+00
 Coeff-En:   0.000D+00 0.000D+00 0.000D+00 0.527D-01 0.000D+00 0.000D+00
 Coeff-En:   0.677D-01 0.122D+00 0.290D+00 0.468D+00
 Coeff:     -0.553D-01 0.630D-01-0.390D-02 0.779D-02-0.158D-01-0.702D-01
 Coeff:     -0.661D-01 0.523D-01 0.411D+00 0.677D+00
 Gap=     0.060 Goal=   None    Shift=    0.000
 RMSDP=6.41D-04 MaxDP=6.08D-02 DE=-1.20D-03 OVMax= 4.93D-02

 Cycle  11  Pass 1  IDiag  1:
 E= -119.043689510895     Delta-E=       -0.000454525017 Rises=F Damp=F
 DIIS: error= 1.61D-03 at cycle  11 NSaved=  11.
 NSaved=11 IEnMin=11 EnMin= -119.043689510895     IErMin=10 ErrMin= 1.54D-03
 ErrMax= 1.61D-03  0.00D+00 EMaxC= 1.00D-01 BMatC= 2.76D-04 BMatP= 4.54D-04
 IDIUse=3 WtCom= 9.85D-01 WtEn= 1.54D-02
 EnCoef did   100 forward-backward iterations
 Coeff-Com: -0.442D-01 0.506D-01-0.149D-01 0.529D-02 0.988D-02 0.456D-02
 Coeff-Com: -0.106D+00-0.977D-02-0.122D+00 0.488D+00 0.739D+00
 Coeff-En:   0.000D+00 0.000D+00 0.000D+00 0.589D-01 0.000D+00 0.000D+00
 Coeff-En:   0.382D+00 0.523D+00 0.854D-02 0.415D-02 0.229D-01
 Coeff:     -0.435D-01 0.498D-01-0.147D-01 0.612D-02 0.973D-02 0.449D-02
 Coeff:     -0.983D-01-0.158D-02-0.120D+00 0.480D+00 0.728D+00
 Gap=     0.060 Goal=   None    Shift=    0.000
 RMSDP=4.14D-04 MaxDP=3.41D-02 DE=-4.55D-04 OVMax= 1.16D-02

 Cycle  12  Pass 1  IDiag  1:
 E= -119.044136609613     Delta-E=       -0.000447098718 Rises=F Damp=F
 DIIS: error= 8.65D-04 at cycle  12 NSaved=  12.
 NSaved=12 IEnMin=12 EnMin= -119.044136609613     IErMin=12 ErrMin= 8.65D-04
 ErrMax= 8.65D-04  0.00D+00 EMaxC= 1.00D-01 BMatC= 1.09D-04 BMatP= 2.76D-04
 IDIUse=3 WtCom= 9.91D-01 WtEn= 8.65D-03
 EnCoef did   100 forward-backward iterations
 Rare condition: small coef for last iteration: -0.691D-15
 Coeff-Com: -0.297D-01 0.340D-01-0.580D-02-0.445D-02 0.429D-02 0.263D-01
 Coeff-Com: -0.155D-01 0.497D-01-0.304D+00-0.979D-02 0.398D+00 0.857D+00
 Coeff-En:   0.000D+00 0.000D+00 0.000D+00 0.466D-01 0.000D+00 0.000D+00
 Coeff-En:   0.000D+00 0.136D+00 0.000D+00 0.228D+00 0.000D+00 0.590D+00
 Coeff:     -0.297D-01 0.340D-01-0.580D-02-0.445D-02 0.429D-02 0.263D-01
 Coeff:     -0.155D-01 0.497D-01-0.304D+00-0.979D-02 0.398D+00 0.857D+00
 Gap=     0.059 Goal=   None    Shift=    0.000
 RMSDP=2.69D-04 MaxDP=2.51D-02 DE=-4.47D-04 OVMax= 2.96D-02

 Cycle  13  Pass 1  IDiag  1:
 E= -119.044236894304     Delta-E=       -0.000100284691 Rises=F Damp=F
 DIIS: error= 7.73D-04 at cycle  13 NSaved=  13.
 NSaved=13 IEnMin=13 EnMin= -119.044236894304     IErMin=13 ErrMin= 7.73D-04
 ErrMax= 7.73D-04  0.00D+00 EMaxC= 1.00D-01 BMatC= 8.18D-05 BMatP= 1.09D-04
 IDIUse=3 WtCom= 9.92D-01 WtEn= 7.73D-03
 EnCoef did   100 forward-backward iterations
 Rare condition: small coef for last iteration:  0.000D+00
 Coeff-Com: -0.158D-01 0.181D-01-0.559D-02-0.105D-02-0.795D-02-0.157D-02
 Coeff-Com:  0.639D-01-0.353D-01 0.669D-01-0.242D+00-0.168D+00 0.169D+00
 Coeff-Com:  0.116D+01
 Coeff-En:   0.000D+00 0.000D+00 0.000D+00 0.429D-01 0.000D+00 0.000D+00
 Coeff-En:   0.000D+00 0.863D-01 0.000D+00 0.000D+00 0.114D-01 0.390D+00
 Coeff-En:   0.470D+00
 Coeff:     -0.158D-01 0.181D-01-0.559D-02-0.105D-02-0.795D-02-0.157D-02
 Coeff:      0.639D-01-0.353D-01 0.669D-01-0.242D+00-0.168D+00 0.169D+00
 Coeff:      0.116D+01
 Gap=     0.060 Goal=   None    Shift=    0.000
 RMSDP=1.69D-04 MaxDP=1.35D-02 DE=-1.00D-04 OVMax= 1.36D-02

 Cycle  14  Pass 1  IDiag  1:
 E= -119.044461323314     Delta-E=       -0.000224429010 Rises=F Damp=F
 DIIS: error= 2.87D-04 at cycle  14 NSaved=  14.
 NSaved=14 IEnMin=14 EnMin= -119.044461323314     IErMin=14 ErrMin= 2.87D-04
 ErrMax= 2.87D-04  0.00D+00 EMaxC= 1.00D-01 BMatC= 5.35D-06 BMatP= 8.18D-05
 IDIUse=3 WtCom= 9.97D-01 WtEn= 2.87D-03
 EnCoef did   100 forward-backward iterations
 Rare condition: small coef for last iteration:  0.000D+00
 Coeff-Com: -0.732D-02 0.838D-02-0.252D-02-0.267D-03-0.510D-02-0.967D-02
 Coeff-Com:  0.248D-01-0.230D-01 0.109D+00-0.402D-01-0.120D+00-0.232D+00
 Coeff-Com:  0.188D+00 0.111D+01
 Coeff-En:   0.000D+00 0.000D+00 0.000D+00 0.390D-01 0.000D+00 0.000D+00
 Coeff-En:   0.000D+00 0.704D-01 0.000D+00 0.000D+00 0.000D+00 0.000D+00
 Coeff-En:   0.000D+00 0.891D+00
 Coeff:     -0.732D-02 0.838D-02-0.252D-02-0.267D-03-0.510D-02-0.967D-02
 Coeff:      0.248D-01-0.230D-01 0.109D+00-0.402D-01-0.120D+00-0.232D+00
 Coeff:      0.188D+00 0.111D+01
 Gap=     0.061 Goal=   None    Shift=    0.000
 RMSDP=5.52D-05 MaxDP=5.26D-03 DE=-2.24D-04 OVMax= 3.15D-03

 Cycle  15  Pass 1  IDiag  1:
 E= -119.044480504475     Delta-E=       -0.000019181161 Rises=F Damp=F
 DIIS: error= 1.24D-04 at cycle  15 NSaved=  15.
 NSaved=15 IEnMin=15 EnMin= -119.044480504475     IErMin=15 ErrMin= 1.24D-04
 ErrMax= 1.24D-04  0.00D+00 EMaxC= 1.00D-01 BMatC= 1.46D-06 BMatP= 5.35D-06
 IDIUse=3 WtCom= 9.99D-01 WtEn= 1.24D-03
 EnCoef did   100 forward-backward iterations
 Coeff-Com: -0.471D-02 0.539D-02-0.150D-02-0.424D-03-0.260D-02-0.620D-02
 Coeff-Com:  0.800D-02-0.581D-02 0.580D-01 0.961D-02-0.478D-01-0.175D+00
 Coeff-Com: -0.604D-01 0.659D+00 0.564D+00
 Coeff-En:   0.000D+00 0.000D+00 0.000D+00 0.589D-01 0.000D+00 0.000D+00
 Coeff-En:   0.390D+00 0.525D+00 0.111D-02 0.507D-04 0.960D-02 0.114D-02
 Coeff-En:   0.289D-02 0.431D-03 0.111D-01
 Coeff:     -0.471D-02 0.539D-02-0.150D-02-0.350D-03-0.259D-02-0.619D-02
 Coeff:      0.848D-02-0.515D-02 0.579D-01 0.959D-02-0.477D-01-0.174D+00
 Coeff:     -0.603D-01 0.658D+00 0.563D+00
 Gap=     0.061 Goal=   None    Shift=    0.000
 RMSDP=3.13D-05 MaxDP=2.79D-03 DE=-1.92D-05 OVMax= 2.14D-03

 Cycle  16  Pass 1  IDiag  1:
 E= -119.044484099323     Delta-E=       -0.000003594848 Rises=F Damp=F
 DIIS: error= 7.09D-05 at cycle  16 NSaved=  16.
 NSaved=16 IEnMin=16 EnMin= -119.044484099323     IErMin=16 ErrMin= 7.09D-05
 ErrMax= 7.09D-05  0.00D+00 EMaxC= 1.00D-01 BMatC= 6.34D-07 BMatP= 1.46D-06
 IDIUse=1 WtCom= 1.00D+00 WtEn= 0.00D+00
 Coeff-Com: -0.237D-02 0.271D-02-0.425D-03-0.151D-03 0.233D-03-0.809D-04
 Coeff-Com: -0.359D-02 0.748D-02-0.958D-02 0.201D-01 0.233D-01-0.220D-01
 Coeff-Com: -0.134D+00-0.310D-01 0.453D+00 0.697D+00
 Coeff:     -0.237D-02 0.271D-02-0.425D-03-0.151D-03 0.233D-03-0.809D-04
 Coeff:     -0.359D-02 0.748D-02-0.958D-02 0.201D-01 0.233D-01-0.220D-01
 Coeff:     -0.134D+00-0.310D-01 0.453D+00 0.697D+00
 Gap=     0.061 Goal=   None    Shift=    0.000
 RMSDP=1.93D-05 MaxDP=1.70D-03 DE=-3.59D-06 OVMax= 1.37D-03

 Cycle  17  Pass 1  IDiag  1:
 E= -119.044485847981     Delta-E=       -0.000001748658 Rises=F Damp=F
 DIIS: error= 6.55D-05 at cycle  17 NSaved=  17.
 NSaved=17 IEnMin=17 EnMin= -119.044485847981     IErMin=17 ErrMin= 6.55D-05
 ErrMax= 6.55D-05  0.00D+00 EMaxC= 1.00D-01 BMatC= 3.31D-07 BMatP= 6.34D-07
 IDIUse=1 WtCom= 1.00D+00 WtEn= 0.00D+00
 Coeff-Com: -0.184D-02 0.210D-02-0.240D-03-0.532D-04 0.479D-03 0.599D-03
 Coeff-Com: -0.389D-02 0.656D-02-0.154D-01 0.151D-01 0.265D-01 0.552D-02
 Coeff-Com: -0.103D+00-0.122D+00 0.289D+00 0.577D+00 0.323D+00
 Coeff:     -0.184D-02 0.210D-02-0.240D-03-0.532D-04 0.479D-03 0.599D-03
 Coeff:     -0.389D-02 0.656D-02-0.154D-01 0.151D-01 0.265D-01 0.552D-02
 Coeff:     -0.103D+00-0.122D+00 0.289D+00 0.577D+00 0.323D+00
 Gap=     0.061 Goal=   None    Shift=    0.000
 RMSDP=1.27D-05 MaxDP=1.38D-03 DE=-1.75D-06 OVMax= 1.38D-03

 Cycle  18  Pass 1  IDiag  1:
 E= -119.044486466668     Delta-E=       -0.000000618687 Rises=F Damp=F
 DIIS: error= 3.78D-05 at cycle  18 NSaved=  18.
 NSaved=18 IEnMin=18 EnMin= -119.044486466668     IErMin=18 ErrMin= 3.78D-05
 ErrMax= 3.78D-05  0.00D+00 EMaxC= 1.00D-01 BMatC= 1.47D-07 BMatP= 3.31D-07
 IDIUse=1 WtCom= 1.00D+00 WtEn= 0.00D+00
 Coeff-Com: -0.104D-02 0.118D-02-0.101D-03 0.618D-04 0.643D-04 0.622D-04
 Coeff-Com: -0.480D-03-0.783D-03-0.499D-02-0.179D-02 0.703D-02 0.203D-01
 Coeff-Com:  0.103D-01-0.972D-01-0.109D+00-0.992D-02 0.454D+00 0.732D+00
 Coeff:     -0.104D-02 0.118D-02-0.101D-03 0.618D-04 0.643D-04 0.622D-04
 Coeff:     -0.480D-03-0.783D-03-0.499D-02-0.179D-02 0.703D-02 0.203D-01
 Coeff:      0.103D-01-0.972D-01-0.109D+00-0.992D-02 0.454D+00 0.732D+00
 Gap=     0.061 Goal=   None    Shift=    0.000
 RMSDP=1.08D-05 MaxDP=1.71D-03 DE=-6.19D-07 OVMax= 9.57D-04

 Cycle  19  Pass 1  IDiag  1:
 E= -119.044486909601     Delta-E=       -0.000000442934 Rises=F Damp=F
 DIIS: error= 1.39D-05 at cycle  19 NSaved=  19.
 NSaved=19 IEnMin=19 EnMin= -119.044486909601     IErMin=19 ErrMin= 1.39D-05
 ErrMax= 1.39D-05  0.00D+00 EMaxC= 1.00D-01 BMatC= 3.09D-08 BMatP= 1.47D-07
 IDIUse=1 WtCom= 1.00D+00 WtEn= 0.00D+00
 Coeff-Com: -0.522D-03 0.596D-03-0.386D-04-0.332D-04-0.362D-04-0.171D-03
 Coeff-Com:  0.148D-03-0.828D-03-0.751D-03-0.227D-02-0.643D-03 0.707D-02
 Coeff-Com:  0.195D-01-0.287D-01-0.929D-01-0.106D+00 0.132D+00 0.308D+00
 Coeff-Com:  0.765D+00
 Coeff:     -0.522D-03 0.596D-03-0.386D-04-0.332D-04-0.362D-04-0.171D-03
 Coeff:      0.148D-03-0.828D-03-0.751D-03-0.227D-02-0.643D-03 0.707D-02
 Coeff:      0.195D-01-0.287D-01-0.929D-01-0.106D+00 0.132D+00 0.308D+00
 Coeff:      0.765D+00
 Gap=     0.061 Goal=   None    Shift=    0.000
 RMSDP=6.82D-06 MaxDP=8.85D-04 DE=-4.43D-07 OVMax= 3.02D-04

 Cycle  20  Pass 1  IDiag  1:
 E= -119.044486994212     Delta-E=       -0.000000084610 Rises=F Damp=F
 DIIS: error= 7.82D-06 at cycle  20 NSaved=  20.
 NSaved=20 IEnMin=20 EnMin= -119.044486994212     IErMin=20 ErrMin= 7.82D-06
 ErrMax= 7.82D-06  0.00D+00 EMaxC= 1.00D-01 BMatC= 6.98D-09 BMatP= 3.09D-08
 IDIUse=1 WtCom= 1.00D+00 WtEn= 0.00D+00
 Coeff-Com: -0.126D-03 0.144D-03-0.155D-04-0.146D-04-0.457D-04-0.155D-03
 Coeff-Com:  0.172D-03-0.610D-04 0.152D-02-0.443D-04-0.210D-02-0.406D-02
 Coeff-Com:  0.365D-02 0.120D-01-0.377D-02-0.481D-01-0.102D+00-0.118D+00
 Coeff-Com:  0.337D+00 0.924D+00
 Coeff:     -0.126D-03 0.144D-03-0.155D-04-0.146D-04-0.457D-04-0.155D-03
 Coeff:      0.172D-03-0.610D-04 0.152D-02-0.443D-04-0.210D-02-0.406D-02
 Coeff:      0.365D-02 0.120D-01-0.377D-02-0.481D-01-0.102D+00-0.118D+00
 Coeff:      0.337D+00 0.924D+00
 Gap=     0.061 Goal=   None    Shift=    0.000
 RMSDP=5.33D-06 MaxDP=6.12D-04 DE=-8.46D-08 OVMax= 1.59D-04

 Cycle  21  Pass 1  IDiag  1:
 E= -119.044487020578     Delta-E=       -0.000000026366 Rises=F Damp=F
 DIIS: error= 7.98D-06 at cycle  21 NSaved=  20.
 NSaved=20 IEnMin=20 EnMin= -119.044487020578     IErMin=19 ErrMin= 7.82D-06
 ErrMax= 7.98D-06  0.00D+00 EMaxC= 1.00D-01 BMatC= 2.88D-09 BMatP= 6.98D-09
 IDIUse=1 WtCom= 1.00D+00 WtEn= 0.00D+00
 Coeff-Com: -0.186D-06-0.846D-05-0.487D-05-0.314D-04-0.967D-04 0.118D-03
 Coeff-Com:  0.728D-04 0.147D-02 0.406D-03-0.169D-02-0.480D-02-0.492D-03
 Coeff-Com:  0.140D-01 0.124D-01-0.239D-01-0.114D+00-0.161D+00 0.153D+00
 Coeff-Com:  0.802D+00 0.323D+00
 Coeff:     -0.186D-06-0.846D-05-0.487D-05-0.314D-04-0.967D-04 0.118D-03
 Coeff:      0.728D-04 0.147D-02 0.406D-03-0.169D-02-0.480D-02-0.492D-03
 Coeff:      0.140D-01 0.124D-01-0.239D-01-0.114D+00-0.161D+00 0.153D+00
 Coeff:      0.802D+00 0.323D+00
 Gap=     0.061 Goal=   None    Shift=    0.000
 RMSDP=4.23D-06 MaxDP=5.45D-04 DE=-2.64D-08 OVMax= 1.11D-04

 Cycle  22  Pass 1  IDiag  1:
 E= -119.044487026828     Delta-E=       -0.000000006250 Rises=F Damp=F
 DIIS: error= 1.65D-06 at cycle  22 NSaved=  20.
 NSaved=20 IEnMin=20 EnMin= -119.044487026828     IErMin=20 ErrMin= 1.65D-06
 ErrMax= 1.65D-06  0.00D+00 EMaxC= 1.00D-01 BMatC= 1.67D-10 BMatP= 2.88D-09
 IDIUse=1 WtCom= 1.00D+00 WtEn= 0.00D+00
 Coeff-Com: -0.230D-05-0.106D-06-0.195D-04-0.133D-04 0.591D-04-0.688D-05
 Coeff-Com:  0.317D-03 0.154D-03-0.877D-04-0.819D-03-0.568D-03 0.129D-02
 Coeff-Com:  0.581D-02 0.406D-02-0.162D-01-0.296D-01-0.314D-01 0.899D-01
 Coeff-Com:  0.205D+00 0.772D+00
 Coeff:     -0.230D-05-0.106D-06-0.195D-04-0.133D-04 0.591D-04-0.688D-05
 Coeff:      0.317D-03 0.154D-03-0.877D-04-0.819D-03-0.568D-03 0.129D-02
 Coeff:      0.581D-02 0.406D-02-0.162D-01-0.296D-01-0.314D-01 0.899D-01
 Coeff:      0.205D+00 0.772D+00
 Gap=     0.061 Goal=   None    Shift=    0.000
 RMSDP=1.14D-06 MaxDP=9.80D-05 DE=-6.25D-09 OVMax= 2.22D-05

 Cycle  23  Pass 1  IDiag  1:
 E= -119.044487027147     Delta-E=       -0.000000000318 Rises=F Damp=F
 DIIS: error= 3.84D-07 at cycle  23 NSaved=  20.
 NSaved=20 IEnMin=20 EnMin= -119.044487027147     IErMin=20 ErrMin= 3.84D-07
 ErrMax= 3.84D-07  0.00D+00 EMaxC= 1.00D-01 BMatC= 1.50D-11 BMatP= 1.67D-10
 IDIUse=1 WtCom= 1.00D+00 WtEn= 0.00D+00
 Coeff-Com:  0.903D-07-0.953D-05-0.343D-05 0.298D-04-0.135D-04 0.103D-03
 Coeff-Com:  0.502D-04 0.228D-04-0.209D-03-0.120D-03-0.152D-03 0.224D-02
 Coeff-Com:  0.294D-02-0.181D-02-0.555D-02-0.240D-01 0.322D-02 0.878D-01
 Coeff-Com:  0.396D+00 0.539D+00
 Coeff:      0.903D-07-0.953D-05-0.343D-05 0.298D-04-0.135D-04 0.103D-03
 Coeff:      0.502D-04 0.228D-04-0.209D-03-0.120D-03-0.152D-03 0.224D-02
 Coeff:      0.294D-02-0.181D-02-0.555D-02-0.240D-01 0.322D-02 0.878D-01
 Coeff:      0.396D+00 0.539D+00
 Gap=     0.061 Goal=   None    Shift=    0.000
 RMSDP=4.84D-07 MaxDP=4.75D-05 DE=-3.18D-10 OVMax= 1.33D-05

 Cycle  24  Pass 1  IDiag  1:
 E= -119.044487027145     Delta-E=        0.000000000001 Rises=F Damp=F
 DIIS: error= 5.51D-07 at cycle  24 NSaved=  20.
 NSaved=20 IEnMin=19 EnMin= -119.044487027147     IErMin=19 ErrMin= 3.84D-07
 ErrMax= 5.51D-07  0.00D+00 EMaxC= 1.00D-01 BMatC= 1.78D-11 BMatP= 1.50D-11
 IDIUse=1 WtCom= 1.00D+00 WtEn= 0.00D+00
 Coeff-Com: -0.320D-05 0.823D-06 0.118D-04-0.155D-04 0.895D-05-0.629D-05
 Coeff-Com:  0.333D-04 0.324D-04 0.141D-03-0.493D-03 0.265D-03 0.133D-02
 Coeff-Com:  0.355D-02 0.441D-02-0.127D-01-0.256D-01 0.173D-01 0.127D+00
 Coeff-Com:  0.524D+00 0.361D+00
 Coeff:     -0.320D-05 0.823D-06 0.118D-04-0.155D-04 0.895D-05-0.629D-05
 Coeff:      0.333D-04 0.324D-04 0.141D-03-0.493D-03 0.265D-03 0.133D-02
 Coeff:      0.355D-02 0.441D-02-0.127D-01-0.256D-01 0.173D-01 0.127D+00
 Coeff:      0.524D+00 0.361D+00
 Gap=     0.061 Goal=   None    Shift=    0.000
 RMSDP=2.92D-07 MaxDP=2.90D-05 DE= 1.39D-12 OVMax= 8.37D-06

 Cycle  25  Pass 1  IDiag  1:
 E= -119.044487027178     Delta-E=       -0.000000000033 Rises=F Damp=F
 DIIS: error= 4.70D-08 at cycle  25 NSaved=  20.
 NSaved=20 IEnMin=20 EnMin= -119.044487027178     IErMin=20 ErrMin= 4.70D-08
 ErrMax= 4.70D-08  0.00D+00 EMaxC= 1.00D-01 BMatC= 5.00D-13 BMatP= 1.50D-11
 IDIUse=1 WtCom= 1.00D+00 WtEn= 0.00D+00
 Coeff-Com:  0.174D-05-0.619D-06-0.346D-05-0.162D-04-0.107D-04 0.118D-04
 Coeff-Com:  0.546D-04 0.976D-04-0.232D-03-0.227D-03 0.107D-03 0.177D-02
 Coeff-Com:  0.271D-02-0.178D-02-0.116D-01-0.556D-02-0.321D-02 0.172D+00
 Coeff-Com:  0.177D+00 0.669D+00
 Coeff:      0.174D-05-0.619D-06-0.346D-05-0.162D-04-0.107D-04 0.118D-04
 Coeff:      0.546D-04 0.976D-04-0.232D-03-0.227D-03 0.107D-03 0.177D-02
 Coeff:      0.271D-02-0.178D-02-0.116D-01-0.556D-02-0.321D-02 0.172D+00
 Coeff:      0.177D+00 0.669D+00
 Gap=     0.061 Goal=   None    Shift=    0.000
 RMSDP=6.45D-08 MaxDP=1.11D-05 DE=-3.26D-11 OVMax= 2.28D-06

 Cycle  26  Pass 1  IDiag  1:
 E= -119.044487027179     Delta-E=       -0.000000000001 Rises=F Damp=F
 DIIS: error= 1.57D-08 at cycle  26 NSaved=  20.
 NSaved=20 IEnMin=20 EnMin= -119.044487027179     IErMin=20 ErrMin= 1.57D-08
 ErrMax= 1.57D-08  0.00D+00 EMaxC= 1.00D-01 BMatC= 3.69D-14 BMatP= 5.00D-13
 IDIUse=1 WtCom= 1.00D+00 WtEn= 0.00D+00
 Coeff-Com:  0.646D-07-0.133D-05 0.302D-05-0.626D-05-0.129D-04-0.977D-06
 Coeff-Com:  0.472D-04 0.323D-04-0.112D-03-0.167D-03 0.706D-04 0.241D-03
 Coeff-Com:  0.848D-03-0.857D-03-0.343D-02-0.139D-01 0.634D-02 0.271D-01
 Coeff-Com:  0.273D+00 0.711D+00
 Coeff:      0.646D-07-0.133D-05 0.302D-05-0.626D-05-0.129D-04-0.977D-06
 Coeff:      0.472D-04 0.323D-04-0.112D-03-0.167D-03 0.706D-04 0.241D-03
 Coeff:      0.848D-03-0.857D-03-0.343D-02-0.139D-01 0.634D-02 0.271D-01
 Coeff:      0.273D+00 0.711D+00
 Gap=     0.061 Goal=   None    Shift=    0.000
 RMSDP=1.55D-08 MaxDP=3.23D-06 DE=-1.31D-12 OVMax= 5.84D-07

 Cycle  27  Pass 1  IDiag  1:
 E= -119.044487027179     Delta-E=        0.000000000000 Rises=F Damp=F
 DIIS: error= 9.70D-09 at cycle  27 NSaved=  20.
 NSaved=20 IEnMin=19 EnMin= -119.044487027179     IErMin=20 ErrMin= 9.70D-09
 ErrMax= 9.70D-09  0.00D+00 EMaxC= 1.00D-01 BMatC= 8.68D-15 BMatP= 3.69D-14
 IDIUse=1 WtCom= 1.00D+00 WtEn= 0.00D+00
 Coeff-Com:  0.150D-08 0.218D-05-0.193D-05-0.693D-05-0.405D-05 0.158D-04
 Coeff-Com:  0.282D-04-0.285D-04-0.687D-04-0.815D-04-0.734D-04 0.494D-03
 Coeff-Com:  0.249D-03-0.155D-02-0.751D-02-0.627D-02 0.596D-02 0.127D+00
 Coeff-Com:  0.428D+00 0.454D+00
 Coeff:      0.150D-08 0.218D-05-0.193D-05-0.693D-05-0.405D-05 0.158D-04
 Coeff:      0.282D-04-0.285D-04-0.687D-04-0.815D-04-0.734D-04 0.494D-03
 Coeff:      0.249D-03-0.155D-02-0.751D-02-0.627D-02 0.596D-02 0.127D+00
 Coeff:      0.428D+00 0.454D+00
 Gap=     0.061 Goal=   None    Shift=    0.000
 RMSDP=3.84D-09 MaxDP=3.03D-07 DE= 2.84D-13 OVMax= 2.02D-07

 SCF Done:  E(ROHF) =  -119.044487027     A.U. after   27 cycles
            NFock= 27  Conv=0.38D-08     -V/T= 2.7233
 <Sx>= 0.0000 <Sy>= 0.0000 <Sz>= 2.5000 <S**2>= 8.7500 S= 2.5000
 <L.S>=  0.00000000000    
 KE= 6.908114664457D+01 PE=-3.546616834966D+02 EE= 1.268477590058D+02
 Annihilation of the first spin contaminant:
 S**2 before annihilation     8.7500,   after     8.7500
 Leave Link  502 at Tue Mar 13 12:07:27 2018, MaxMem= 10737418240 cpu:             451.9 elap:              33.5
 (Enter /home1/apps/gaussian/16rA.03/g16/l801.exe)
 Windowed orbitals will be sorted by symmetry type.
 GenMOA:  NOpAll=  4 NOp2=4 NOpUse=  4 JSym2X=1
 FoFJK:  IHMeth= 1 ICntrl=       0 DoSepK=F KAlg= 0 I1Cent=           0 FoldK=F
 IRaf=         0 NMat=       1 IRICut=       1 DoRegI=T DoRafI=F ISym2E= 1 IDoP0=0 IntGTp=1.
 FoFCou: FMM=F IPFlag=           8 FMFlag=      100000 FMFlg1=           0
         NFxFlg=           0 DoJE=F BraDBF=F KetDBF=F FulRan=T
         wScrn=  0.000000 ICntrl=         0 IOpCl=  1 I1Cent=           0 NGrid=           0
         NMat0=    1 NMatS0=      1 NMatT0=    0 NMatD0=    1 NMtDS0=    0 NMtDT0=    0
 Petite list used in FoFCou.
 <Sx>= 0.0000 <Sy>= 0.0000 <Sz>= 2.5000 <S**2>= 8.7500 S= 2.5000
 Range of M.O.s used for correlation:     1   257
 NBasis=   261 NAE=    13 NBE=     8 NFC=     0 NFV=     0
 NROrb=    257 NOA=    13 NOB=     8 NVA=   244 NVB=   249

 **** Warning!!: The largest alpha MO coefficient is  0.34746200D+03


 **** Warning!!: The largest beta MO coefficient is  0.34688555D+03

 Singles contribution to E2=   -0.8277130329D-02
 Leave Link  801 at Tue Mar 13 12:07:34 2018, MaxMem= 10737418240 cpu:             103.5 elap:               6.5
 (Enter /home1/apps/gaussian/16rA.03/g16/l804.exe)
 Open-shell transformation, MDV= 10737418240 ITran=4 ISComp=2.
 Unit  1 TFree=       2054986 TCopy=       1546303.
 Semi-Direct transformation.
 ModeAB=           4 MOrb=            13 LenV=   10735356272
 LASXX=     27371815 LTotXX=    27371815 LenRXX=    55202470
 LTotAB=    27830655 MaxLAS=   162706700 LenRXY=           0
 NonZer=    82574285 LenScr=   124635648 LnRSAI=   162706700
 LnScr1=   245017600 LExtra=    11155505 Total=    598717923
 MaxDsk= 67108864000 SrtSym=           T ITran=            4
 DoSDTr:  NPSUse= 16
 JobTyp=1 Pass  1:  I=   1 to  13.
 (rs|ai) integrals will be sorted in core.
 Complete sort for first half transformation.
 First half transformation complete.
 Begin second half transformation for I=  10.
 Complete sort for second half transformation.
 Second half transformation complete.
 ModeAB=           4 MOrb=             8 LenV=   10735356272
 LASXX=     17169082 LTotXX=    17169082 LenRXX=    32881730
 LTotAB=    15712648 MaxLAS=   100127200 LenRXY=           0
 NonZer=    50050812 LenScr=    75836928 LnRSAI=   100127200
 LnScr1=   150958080 LExtra=    66357975 Total=    426161913
 MaxDsk= 67108864000 SrtSym=           T ITran=            4
 DoSDTr:  NPSUse= 16
 JobTyp=2 Pass  1:  I=   1 to   8.
 (rs|ai) integrals will be sorted in core.
 Complete sort for first half transformation.
 First half transformation complete.
 Complete sort for second half transformation.
 Second half transformation complete.
 Spin components of T(2) and E(2):
     alpha-alpha T2 =       0.4175538002D-01 E2=     -0.1980524457D+00
     alpha-beta  T2 =       0.1112454270D+00 E2=     -0.6425291636D+00
     beta-beta   T2 =       0.2210962103D-01 E2=     -0.1023246590D+00
 ANorm=    0.1086400631D+01
 E2 =    -0.9511833986D+00 EUMP2 =    -0.11999567042579D+03
 (S**2,0)=  0.87500D+01           (S**2,1)=  0.87500D+01
 E(PUHF)=      -0.11904448703D+03        E(PMP2)=      -0.11999567043D+03
 Leave Link  804 at Tue Mar 13 12:09:53 2018, MaxMem= 10737418240 cpu:            2206.3 elap:             138.1
 (Enter /home1/apps/gaussian/16rA.03/g16/l913.exe)
 CIDS:  MDV= 10737418240.
 IFCWin=0 IBDFC=1 NFBD=     0     0 NFCmp=     0     0 NFFFC=     0     0
 Using original routines for 1st iteration.
 Using DD4UQ or CC4UQ for 2nd and later iterations.
 Keep R2 and R3 ints in memory in symmetry-blocked form, NReq=734617751.
 FoFCou: FMM=F IPFlag=           8 FMFlag=           0 FMFlg1=           0
         NFxFlg=           0 DoJE=F BraDBF=F KetDBF=F FulRan=T
         wScrn=  0.000000 ICntrl=       600 IOpCl=  0 I1Cent=           0 NGrid=           0
         NMat0=    1 NMatS0=  34191 NMatT0=    0 NMatD0=    1 NMtDS0=    0 NMtDT0=    0
 Petite list used in FoFCou.
 CIDS: In Core Option IDoMem=           1.
 CCSD(T)
 =======
 Iterations= 150 Convergence= 0.100D-06
 Produce multiple copies of IABC intergrals
 Iteration Nr.   1
 **********************
 DD1Dir will call FoFMem   1 times, MxPair=       314
 NAB=   104 NAA=    78 NBB=    28.
 DD1Dir will call FoFMem   1 times, MxPair=       314
 NAB=   104 NAA=    78 NBB=    28.
 MP4(R+Q)= -0.47266080D-01
 Maximum subspace dimension=  5
 A-vector RMS=  3.3942020D-04 Max=  2.8485698D-03 conv= 1.00D-05.
 RLE energy=       -0.9356910862
 E3=        0.62404565D-01        EROMP3=      -0.11993326586D+03
 E4(SDQ)=  -0.38912327D-01        ROMP4(SDQ)=  -0.11997217819D+03
 VARIATIONAL ENERGIES WITH THE FIRST-ORDER WAVEFUNCTION:
 DE(Corr)= -0.93543047     E(Corr)=     -119.97991749    
 NORM(A)=   0.10815929D+01
 Iteration Nr.   2
 **********************
 DD1Dir will call FoFMem   1 times, MxPair=       314
 NAB=   104 NAA=    78 NBB=    28.
 A-vector RMS=  3.9852874D-03 Max=  4.7751167D-02 conv= 1.00D-05.
 RLE energy=       -0.9196830580
 DE(Corr)= -0.87244534     E(CORR)=     -119.91693237     Delta= 6.30D-02
 NORM(A)=   0.10782182D+01
 Iteration Nr.   3
 **********************
 DD1Dir will call FoFMem   1 times, MxPair=       314
 NAB=   104 NAA=    78 NBB=    28.
 A-vector RMS=  2.8416993D-03 Max=  3.2114413D-02 conv= 1.00D-05.
 RLE energy=       -0.9185045284
 DE(Corr)= -0.88413295     E(CORR)=     -119.92861998     Delta=-1.17D-02
 NORM(A)=   0.10821421D+01
 Iteration Nr.   4
 **********************
 DD1Dir will call FoFMem   1 times, MxPair=       314
 NAB=   104 NAA=    78 NBB=    28.
 A-vector RMS=  2.1141905D-03 Max=  2.4223427D-02 conv= 1.00D-05.
 RLE energy=       -0.9086570474
 DE(Corr)= -0.89544680     E(CORR)=     -119.93993383     Delta=-1.13D-02
 NORM(A)=   0.11080041D+01
 Iteration Nr.   5
 **********************
 DD1Dir will call FoFMem   1 times, MxPair=       314
 NAB=   104 NAA=    78 NBB=    28.
 A-vector RMS=  9.9865008D-04 Max=  1.2634945D-02 conv= 1.00D-05.
 RLE energy=       -0.9149327493
 DE(Corr)= -0.92591643     E(CORR)=     -119.97040346     Delta=-3.05D-02
 NORM(A)=   0.11116640D+01
 Iteration Nr.   6
 **********************
 DD1Dir will call FoFMem   1 times, MxPair=       314
 NAB=   104 NAA=    78 NBB=    28.
 A-vector RMS=  3.4866607D-04 Max=  3.5670252D-03 conv= 1.00D-05.
 RLE energy=       -0.9161583693
 DE(Corr)= -0.92055570     E(CORR)=     -119.96504273     Delta= 5.36D-03
 NORM(A)=   0.11078514D+01
 Iteration Nr.   7
 **********************
 DD1Dir will call FoFMem   1 times, MxPair=       314
 NAB=   104 NAA=    78 NBB=    28.
 A-vector RMS=  8.0745167D-05 Max=  1.0919782D-03 conv= 1.00D-05.
 RLE energy=       -0.9159576581
 DE(Corr)= -0.91598357     E(CORR)=     -119.96047060     Delta= 4.57D-03
 NORM(A)=   0.11084312D+01
 Iteration Nr.   8
 **********************
 DD1Dir will call FoFMem   1 times, MxPair=       314
 NAB=   104 NAA=    78 NBB=    28.
 A-vector RMS=  4.3832140D-05 Max=  5.7991016D-04 conv= 1.00D-05.
 RLE energy=       -0.9160489053
 DE(Corr)= -0.91615234     E(CORR)=     -119.96063937     Delta=-1.69D-04
 NORM(A)=   0.11087442D+01
 Iteration Nr.   9
 **********************
 DD1Dir will call FoFMem   1 times, MxPair=       314
 NAB=   104 NAA=    78 NBB=    28.
 A-vector RMS=  1.9018291D-05 Max=  2.7289483D-04 conv= 1.00D-05.
 RLE energy=       -0.9160968038
 DE(Corr)= -0.91604329     E(CORR)=     -119.96053032     Delta= 1.09D-04
 NORM(A)=   0.11089350D+01
 Iteration Nr.  10
 **********************
 DD1Dir will call FoFMem   1 times, MxPair=       314
 NAB=   104 NAA=    78 NBB=    28.
 A-vector RMS=  8.9236205D-06 Max=  9.9829595D-05 conv= 1.00D-05.
 RLE energy=       -0.9160898623
 DE(Corr)= -0.91607413     E(CORR)=     -119.96056115     Delta=-3.08D-05
 NORM(A)=   0.11089659D+01
 Iteration Nr.  11
 **********************
 DD1Dir will call FoFMem   1 times, MxPair=       314
 NAB=   104 NAA=    78 NBB=    28.
 A-vector RMS=  4.8568741D-06 Max=  6.2617825D-05 conv= 1.00D-05.
 RLE energy=       -0.9160845532
 DE(Corr)= -0.91608167     E(CORR)=     -119.96056869     Delta=-7.54D-06
 NORM(A)=   0.11089607D+01
 Iteration Nr.  12
 **********************
 DD1Dir will call FoFMem   1 times, MxPair=       314
 NAB=   104 NAA=    78 NBB=    28.
 A-vector RMS=  1.6135031D-06 Max=  2.4874934D-05 conv= 1.00D-05.
 RLE energy=       -0.9160819091
 DE(Corr)= -0.91608084     E(CORR)=     -119.96056787     Delta= 8.25D-07
 NORM(A)=   0.11089601D+01
 Iteration Nr.  13
 **********************
 DD1Dir will call FoFMem   1 times, MxPair=       314
 NAB=   104 NAA=    78 NBB=    28.
 A-vector RMS=  8.7618934D-07 Max=  1.4134259D-05 conv= 1.00D-05.
 RLE energy=       -0.9160805149
 DE(Corr)= -0.91608089     E(CORR)=     -119.96056792     Delta=-5.13D-08
 NORM(A)=   0.11089560D+01
 Iteration Nr.  14
 **********************
 DD1Dir will call FoFMem   1 times, MxPair=       314
 NAB=   104 NAA=    78 NBB=    28.
 A-vector RMS=  3.8324827D-07 Max=  6.5136012D-06 conv= 1.00D-05.
 RLE energy=       -0.9160788939
 DE(Corr)= -0.91607922     E(CORR)=     -119.96056625     Delta= 1.67D-06
 NORM(A)=   0.11089560D+01
 Iteration Nr.  15
 **********************
 DD1Dir will call FoFMem   1 times, MxPair=       314
 NAB=   104 NAA=    78 NBB=    28.
 A-vector RMS=  1.5980868D-07 Max=  2.9916011D-06 conv= 1.00D-05.
 RLE energy=       -0.9160795255
 DE(Corr)= -0.91607966     E(CORR)=     -119.96056668     Delta=-4.37D-07
 NORM(A)=   0.11089565D+01
 Iteration Nr.  16
 **********************
 DD1Dir will call FoFMem   1 times, MxPair=       314
 NAB=   104 NAA=    78 NBB=    28.
 A-vector RMS=  9.5543723D-08 Max=  1.6331672D-06 conv= 1.00D-05.
 RLE energy=       -0.9160794878
 DE(Corr)= -0.91607946     E(CORR)=     -119.96056648     Delta= 2.01D-07
 NORM(A)=   0.11089574D+01
 Iteration Nr.  17
 **********************
 DD1Dir will call FoFMem   1 times, MxPair=       314
 NAB=   104 NAA=    78 NBB=    28.
 A-vector RMS=  4.6142447D-08 Max=  9.7414235D-07 conv= 1.00D-05.
 RLE energy=       -0.9160797375
 DE(Corr)= -0.91607967     E(CORR)=     -119.96056670     Delta=-2.16D-07
 NORM(A)=   0.11089582D+01
 Iteration Nr.  18
 **********************
 DD1Dir will call FoFMem   1 times, MxPair=       314
 NAB=   104 NAA=    78 NBB=    28.
 A-vector RMS=  3.0969273D-08 Max=  3.9954099D-07 conv= 1.00D-05.
 RLE energy=       -0.9160798489
 DE(Corr)= -0.91607976     E(CORR)=     -119.96056678     Delta=-8.31D-08
 NORM(A)=   0.11089586D+01
 CI/CC converged in   18 iterations to DelEn=-8.31D-08 Conv= 1.00D-07 ErrA1= 3.10D-08 Conv= 1.00D-05
 Wavefunction amplitudes converged. E(Corr)=     -119.96056678    
 Largest amplitude= 7.29D-02
 Time for triples=    15643.67 seconds.
 T4(CCSD)= -0.44054181D-01
 T5(CCSD)=  0.58427531D-02
 CCSD(T)= -0.11999877821D+03
 Discarding MO integrals.
 Leave Link  913 at Tue Mar 13 12:32:50 2018, MaxMem= 10737418240 cpu:           22014.1 elap:            1377.2
 (Enter /home1/apps/gaussian/16rA.03/g16/l601.exe)
 Copying SCF densities to generalized density rwf, IOpCl= 0 IROHF=1.

 **********************************************************************

            Population analysis using the SCF density.

 **********************************************************************

 Orbital symmetries:
       Occupied  (SG) (SG) (PI) (PI) (SG) (PI) (PI) (SG) (DLTA)
                 (DLTA) (SG) (PI) (PI)
       Virtual   (SG) (PI) (PI) (SG) (SG) (PI) (PI) (DLTA) (DLTA)
                 (PI) (PI) (SG) (SG) (SG) (PI) (PI) (SG) (PI) (PI)
                 (DLTA) (DLTA) (SG) (PI) (PI) (SG) (SG) (SG) (DLTA)
                 (DLTA) (PI) (PI) (PHI) (PHI) (SG) (PI) (PI) (PI)
                 (PI) (DLTA) (DLTA) (SG) (SG) (DLTA) (DLTA) (PI)
                 (PI) (SG) (SG) (PI) (PI) (SG) (DLTA) (DLTA) (PHI)
                 (PHI) (PI) (PI) (SG) (DLTA) (DLTA) (PHI) (PHI)
                 (SG) (PI) (PI) (PI) (PI) (DLTA) (DLTA) (SG) (?A)
                 (?A) (SG) (DLTA) (DLTA) (PI) (PI) (PHI) (PHI)
                 (SG) (SG) (PI) (PI) (PI) (PI) (DLTA) (DLTA) (SG)
                 (SG) (PI) (PI) (SG) (SG) (PHI) (PHI) (PHI) (PHI)
                 (DLTA) (DLTA) (SG) (DLTA) (DLTA) (PI) (PI) (PI)
                 (PI) (DLTA) (DLTA) (DLTA) (DLTA) (PI) (PI) (SG)
                 (PI) (PI) (PI) (PI) (SG) (?A) (?A) (SG) (PHI)
                 (PHI) (DLTA) (DLTA) (PI) (PI) (SG) (SG) (SG) (DLTA)
                 (DLTA) (PI) (PI) (PI) (PI) (SG) (SG) (PHI) (PHI)
                 (PI) (PI) (DLTA) (DLTA) (PI) (PI) (SG) (SG) (?A)
                 (?A) (PHI) (PHI) (DLTA) (DLTA) (PI) (PI) (SG)
                 (SG) (SG) (DLTA) (DLTA) (PI) (PI) (PI) (PI) (SG)
                 (SG) (DLTA) (DLTA) (PI) (PI) (SG) (SG) (PI) (PI)
                 (SG) (SG) (DLTA) (DLTA) (PI) (PI) (PI) (PI) (SG)
                 (SG) (SG) (SG) (PI) (PI) (PI) (PI) (SG) (SG) (DLTA)
                 (DLTA) (PI) (PI) (SG) (SG) (SG) (PI) (PI) (SG)
                 (PI) (PI) (SG) (SG) (SG) (DLTA) (DLTA) (PI) (PI)
                 (SG) (PI) (PI) (SG) (SG) (SG) (PI) (PI) (SG) (SG)
                 (SG) (PI) (PI) (SG) (SG) (PI) (PI) (SG) (SG) (SG)
                 (PI) (PI) (SG) (SG) (SG) (SG) (PI) (PI) (SG) (SG)
                 (SG) (SG)
 The electronic state is 6-SG.
 Alpha  occ. eigenvalues --   -4.07360  -2.75560  -2.72012  -2.72012  -1.30028
 Alpha  occ. eigenvalues --   -0.78314  -0.78314  -0.65955  -0.59684  -0.59684
 Alpha  occ. eigenvalues --   -0.38511  -0.38511  -0.29025
 Alpha virt. eigenvalues --    0.02314   0.02657   0.02657   0.02964   0.07199
 Alpha virt. eigenvalues --    0.08152   0.08152   0.08825   0.08825   0.09488
 Alpha virt. eigenvalues --    0.09488   0.10843   0.11705   0.17178   0.25241
 Alpha virt. eigenvalues --    0.25241   0.25971   0.25971   0.26616   0.30274
 Alpha virt. eigenvalues --    0.30274   0.32979   0.34439   0.34439   0.38800
 Alpha virt. eigenvalues --    0.43325   0.67748   0.69765   0.69765   0.74204
 Alpha virt. eigenvalues --    0.74204   0.78172   0.78172   0.84255   0.88902
 Alpha virt. eigenvalues --    0.88902   0.92492   0.92492   0.92624   0.92624
 Alpha virt. eigenvalues --    0.94112   1.01847   1.06821   1.06821   1.08758
 Alpha virt. eigenvalues --    1.08758   1.20855   1.48593   1.51291   1.51291
 Alpha virt. eigenvalues --    1.69719   2.00414   2.00414   2.07231   2.07231
 Alpha virt. eigenvalues --    2.18863   2.18863   2.22283   2.37516   2.37516
 Alpha virt. eigenvalues --    2.37572   2.37572   2.50224   2.56559   2.56559
 Alpha virt. eigenvalues --    2.65974   2.65974   2.72645   2.72645   2.75292
 Alpha virt. eigenvalues --    2.80086   2.80086   2.98749   2.98749   2.99431
 Alpha virt. eigenvalues --    3.02849   3.02849   3.05549   3.05549   3.23702
 Alpha virt. eigenvalues --    3.45890   3.46015   3.46015   3.53158   3.53158
 Alpha virt. eigenvalues --    3.69958   3.69958   4.56590   4.81862   5.16042
 Alpha virt. eigenvalues --    5.16042   5.75383   6.16223   6.35691   6.35691
 Alpha virt. eigenvalues --    6.45125   6.45125   6.46313   6.46313   6.50616
 Alpha virt. eigenvalues --    6.60286   6.60286   6.63955   6.63955   6.95594
 Alpha virt. eigenvalues --    6.95594   7.04170   7.04170   7.14265   7.14265
 Alpha virt. eigenvalues --    7.19882   7.19882   7.50247   7.51899   7.51899
 Alpha virt. eigenvalues --    7.85719   7.85719   7.87253   8.25627   8.25627
 Alpha virt. eigenvalues --    8.33151   8.33151   8.33157   8.63472   8.63472
 Alpha virt. eigenvalues --    9.30984   9.30984  10.28870  10.88492  12.70473
 Alpha virt. eigenvalues --   14.54465  14.54465  14.69526  14.69526  15.43343
 Alpha virt. eigenvalues --   15.43343  15.66769  16.54600  16.83347  16.83347
 Alpha virt. eigenvalues --   16.95242  16.95242  16.95995  16.95995  17.32254
 Alpha virt. eigenvalues --   17.32254  17.78778  18.01528  21.58643  21.58643
 Alpha virt. eigenvalues --   21.61107  21.61107  21.72650  21.72650  21.91916
 Alpha virt. eigenvalues --   21.91916  22.24052  22.30439  25.26035  27.18608
 Alpha virt. eigenvalues --   27.18608  27.46369  27.46369  33.94320  33.94320
 Alpha virt. eigenvalues --   34.21184  38.51297  43.66613  43.66613  43.81049
 Alpha virt. eigenvalues --   43.81049  44.47689  45.59754  45.94609  45.94609
 Alpha virt. eigenvalues --   47.35265  48.11268  51.24586  51.24586  51.50699
 Alpha virt. eigenvalues --   51.50699  63.23052  63.23052  63.37836  74.75160
 Alpha virt. eigenvalues --   87.33811 116.23853 117.43446 117.43446 119.26625
 Alpha virt. eigenvalues --  119.26625 119.71896 121.15568 123.83747 123.83747
 Alpha virt. eigenvalues --  124.05731 124.05731 136.99745 158.10902 224.35435
 Alpha virt. eigenvalues --  224.63002 224.63002 257.71791 286.51341 286.51341
 Alpha virt. eigenvalues --  287.30316 298.94714 411.49010 414.18424 414.18424
 Alpha virt. eigenvalues --  414.31693 414.31693 446.74467 446.94814 446.94814
 Alpha virt. eigenvalues --  555.21836 592.59661 934.19158 934.41033 934.41033
 Alpha virt. eigenvalues -- 1230.689501529.733842084.748712084.930692084.93069
 Alpha virt. eigenvalues -- 2681.473425096.046835096.196095096.196095659.87306
 Alpha virt. eigenvalues -- 6151.06045****************************************
 Alpha virt. eigenvalues -- **************************************************
 Alpha virt. eigenvalues -- ****************************************
     Molecular Orbital Coefficients:
                           4         5         6         7         8
                           O         O         O         O         O
     Eigenvalues --    -2.72012  -1.30028  -0.78314  -0.78314  -0.65955
   1 1   Mn 1S          0.00000   0.00000   0.00000   0.00000   0.00000
   2        2S          0.00000  -0.00000   0.00000   0.00000  -0.00000
   3        3S          0.00000   0.00000   0.00000   0.00000   0.00000
   4        4S          0.00000  -0.00000   0.00000   0.00000  -0.00000
   5        5S          0.00000   0.00000   0.00000   0.00000   0.00000
   6        6S          0.00000  -0.00000   0.00000   0.00000  -0.00000
   7        7S          0.00000   0.00001   0.00000   0.00000   0.00001
   8        8S          0.00000  -0.00002   0.00000   0.00000  -0.00002
   9        9S          0.00000   0.00006   0.00000   0.00000   0.00006
  10       10S          0.00000  -0.00017   0.00000   0.00000  -0.00015
  11       11S          0.00000   0.00041   0.00000   0.00000   0.00038
  12       12S          0.00000  -0.00012   0.00000   0.00000  -0.00049
  13       13S          0.00000  -0.01948   0.00000   0.00000  -0.01044
  14       14S          0.00000   0.12029   0.00000   0.00000   0.06904
  15       15S          0.00000   0.03545   0.00000   0.00000   0.01816
  16       16S          0.00000  -0.23773   0.00000   0.00000  -0.21911
  17       17S          0.00000  -0.16749   0.00000   0.00000  -0.18527
  18       18S          0.00000  -0.01265   0.00000   0.00000   0.03709
  19       19S          0.00000   0.02573   0.00000   0.00000   0.01434
  20       20S          0.00000  -0.01019   0.00000   0.00000   0.00968
  21       21S          0.00000  -0.07719   0.00000   0.00000  -0.03790
  22       22S          0.00000   0.10313   0.00000   0.00000   0.17974
  23       23S          0.00000   0.00222   0.00000   0.00000  -0.00066
  24       24PX         0.00000   0.00000   0.00000   0.00000   0.00000
  25       24PY        -0.00000   0.00000   0.00000   0.00000   0.00000
  26       24PZ         0.00000  -0.00000   0.00000   0.00000  -0.00000
  27       25PX         0.00000   0.00000   0.00000  -0.00000   0.00000
  28       25PY         0.00000   0.00000  -0.00000   0.00000   0.00000
  29       25PZ         0.00000   0.00000   0.00000   0.00000   0.00000
  30       26PX         0.00000   0.00000   0.00000   0.00000   0.00000
  31       26PY        -0.00001   0.00000   0.00000   0.00000   0.00000
  32       26PZ         0.00000  -0.00000   0.00000   0.00000  -0.00000
  33       27PX         0.00000   0.00000   0.00000  -0.00001   0.00000
  34       27PY         0.00003   0.00000  -0.00001   0.00000   0.00000
  35       27PZ         0.00000   0.00001   0.00000   0.00000   0.00002
  36       28PX         0.00000   0.00000   0.00000   0.00002   0.00000
  37       28PY        -0.00010   0.00000   0.00002   0.00000   0.00000
  38       28PZ         0.00000  -0.00005   0.00000   0.00000  -0.00006
  39       29PX         0.00000   0.00000   0.00000  -0.00008   0.00000
  40       29PY         0.00033   0.00000  -0.00008   0.00000   0.00000
  41       29PZ         0.00000   0.00018   0.00000   0.00000   0.00022
  42       30PX         0.00000   0.00000   0.00000   0.00026   0.00000
  43       30PY        -0.00120   0.00000   0.00026   0.00000   0.00000
  44       30PZ         0.00000  -0.00063   0.00000   0.00000  -0.00071
  45       31PX         0.00000   0.00000   0.00000  -0.00122   0.00000
  46       31PY         0.00599   0.00000  -0.00122   0.00000   0.00000
  47       31PZ         0.00000   0.00284   0.00000   0.00000   0.00276
  48       32PX         0.00000   0.00000   0.00000   0.00745   0.00000
  49       32PY        -0.03632   0.00000   0.00745   0.00000   0.00000
  50       32PZ         0.00000  -0.01676   0.00000   0.00000  -0.01479
  51       33PX         0.00000   0.00000   0.00000  -0.05557   0.00000
  52       33PY         0.45348   0.00000  -0.05557   0.00000   0.00000
  53       33PZ         0.00000   0.10845   0.00000   0.00000  -0.07222
  54       34PX         0.00000   0.00000   0.00000  -0.05434   0.00000
  55       34PY         0.30627   0.00000  -0.05434   0.00000   0.00000
  56       34PZ         0.00000   0.12333   0.00000   0.00000   0.09069
  57       35PX         0.00000   0.00000   0.00000  -0.04073   0.00000
  58       35PY         0.34020   0.00000  -0.04073   0.00000   0.00000
  59       35PZ         0.00000   0.11034   0.00000   0.00000   0.01073
  60       36PX         0.00000   0.00000   0.00000  -0.04653   0.00000
  61       36PY         0.26948   0.00000  -0.04653   0.00000   0.00000
  62       36PZ         0.00000   0.12140   0.00000   0.00000   0.10122
  63       37PX         0.00000   0.00000   0.00000   0.01482   0.00000
  64       37PY         0.03888   0.00000   0.01482   0.00000   0.00000
  65       37PZ         0.00000   0.01253   0.00000   0.00000  -0.02787
  66       38PX         0.00000   0.00000   0.00000   0.03046   0.00000
  67       38PY        -0.00193   0.00000   0.03046   0.00000   0.00000
  68       38PZ         0.00000  -0.01245   0.00000   0.00000  -0.00582
  69       39PX         0.00000   0.00000   0.00000   0.00649   0.00000
  70       39PY         0.00180   0.00000   0.00649   0.00000   0.00000
  71       39PZ         0.00000   0.00048   0.00000   0.00000  -0.00086
  72       40PX         0.00000   0.00000   0.00000   0.04744   0.00000
  73       40PY        -0.41302   0.00000   0.04744   0.00000   0.00000
  74       40PZ         0.00000  -0.09300   0.00000   0.00000   0.07353
  75       41PX         0.00000   0.00000   0.00000  -0.04124   0.00000
  76       41PY         0.11295   0.00000  -0.04124   0.00000   0.00000
  77       41PZ         0.00000   0.05257   0.00000   0.00000   0.04155
  78       42PX         0.00000   0.00000   0.00000  -0.00133   0.00000
  79       42PY        -0.00049   0.00000  -0.00133   0.00000   0.00000
  80       42PZ         0.00000   0.00004   0.00000   0.00000  -0.00043
  81       43D 0        0.00000   0.00005   0.00000   0.00000   0.00010
  82       43D+1        0.00000   0.00000   0.00000  -0.00005   0.00000
  83       43D-1       -0.00001   0.00000  -0.00005   0.00000   0.00000
  84       43D+2        0.00000  -0.00000   0.00000   0.00000  -0.00000
  85       43D-2        0.00000   0.00000   0.00000   0.00000   0.00000
  86       44D 0        0.00000  -0.00034   0.00000   0.00000  -0.00079
  87       44D+1        0.00000   0.00000   0.00000   0.00039   0.00000
  88       44D-1        0.00006   0.00000   0.00039   0.00000   0.00000
  89       44D+2        0.00000   0.00000   0.00000   0.00000   0.00000
  90       44D-2        0.00000   0.00000   0.00000   0.00000   0.00000
  91       45D 0        0.00000   0.01321   0.00000   0.00000   0.03204
  92       45D+1        0.00000   0.00000   0.00000  -0.01655   0.00000
  93       45D-1       -0.00128   0.00000  -0.01655   0.00000   0.00000
  94       45D+2        0.00000  -0.00000   0.00000   0.00000  -0.00000
  95       45D-2        0.00000   0.00000   0.00000   0.00000   0.00000
  96       46D 0        0.00000   0.11798   0.00000   0.00000   0.30320
  97       46D+1        0.00000   0.00000   0.00000  -0.16660   0.00000
  98       46D-1       -0.00096   0.00000  -0.16660   0.00000   0.00000
  99       46D+2        0.00000   0.00000   0.00000   0.00000   0.00000
 100       46D-2        0.00000   0.00000   0.00000   0.00000   0.00000
 101       47D 0        0.00000   0.05229   0.00000   0.00000   0.10039
 102       47D+1        0.00000   0.00000   0.00000   0.22137   0.00000
 103       47D-1       -0.17733   0.00000   0.22137   0.00000   0.00000
 104       47D+2        0.00000  -0.00000   0.00000   0.00000  -0.00000
 105       47D-2        0.00000   0.00000   0.00000   0.00000   0.00000
 106       48D 0        0.00000   0.08086   0.00000   0.00000   0.20159
 107       48D+1        0.00000   0.00000   0.00000  -0.13020   0.00000
 108       48D-1        0.00135   0.00000  -0.13020   0.00000   0.00000
 109       48D+2        0.00000   0.00000   0.00000   0.00000   0.00000
 110       48D-2        0.00000   0.00000   0.00000   0.00000   0.00000
 111       49D 0        0.00000   0.04404   0.00000   0.00000   0.14764
 112       49D+1        0.00000   0.00000   0.00000  -0.06735   0.00000
 113       49D-1        0.00487   0.00000  -0.06735   0.00000   0.00000
 114       49D+2        0.00000  -0.00000   0.00000   0.00000  -0.00000
 115       49D-2        0.00000   0.00000   0.00000   0.00000   0.00000
 116       50D 0        0.00000   0.00318   0.00000   0.00000   0.01865
 117       50D+1        0.00000   0.00000   0.00000   0.00148   0.00000
 118       50D-1        0.00115   0.00000   0.00148   0.00000   0.00000
 119       50D+2        0.00000  -0.00000   0.00000   0.00000  -0.00000
 120       50D-2        0.00000   0.00000   0.00000   0.00000   0.00000
 121       51D 0        0.00000  -0.05484   0.00000   0.00000  -0.15250
 122       51D+1        0.00000   0.00000   0.00000   0.08986   0.00000
 123       51D-1       -0.00726   0.00000   0.08986   0.00000   0.00000
 124       51D+2        0.00000  -0.00000   0.00000   0.00000  -0.00000
 125       51D-2        0.00000   0.00000   0.00000   0.00000   0.00000
 126       52D 0        0.00000   0.04393   0.00000   0.00000   0.14180
 127       52D+1        0.00000   0.00000   0.00000  -0.34354   0.00000
 128       52D-1        0.16863   0.00000  -0.34354   0.00000   0.00000
 129       52D+2        0.00000   0.00000   0.00000   0.00000   0.00000
 130       52D-2        0.00000   0.00000   0.00000   0.00000   0.00000
 131       53D 0        0.00000   0.00004   0.00000   0.00000  -0.00071
 132       53D+1        0.00000   0.00000   0.00000  -0.00133   0.00000
 133       53D-1        0.00000   0.00000  -0.00133   0.00000   0.00000
 134       53D+2        0.00000   0.00000   0.00000   0.00000   0.00000
 135       53D-2        0.00000   0.00000   0.00000   0.00000   0.00000
 136       54F 0        0.00000  -0.00200   0.00000   0.00000  -0.00272
 137       54F+1        0.00000   0.00000   0.00000   0.00215   0.00000
 138       54F-1        0.00047   0.00000   0.00215   0.00000   0.00000
 139       54F+2        0.00000  -0.00000   0.00000   0.00000  -0.00000
 140       54F-2        0.00000   0.00000   0.00000   0.00000   0.00000
 141       54F+3        0.00000   0.00000   0.00000  -0.00000   0.00000
 142       54F-3        0.00000   0.00000  -0.00000   0.00000   0.00000
 143       55F 0        0.00000  -0.00805   0.00000   0.00000  -0.01591
 144       55F+1        0.00000   0.00000   0.00000   0.01023   0.00000
 145       55F-1        0.00265   0.00000   0.01023   0.00000   0.00000
 146       55F+2        0.00000  -0.00000   0.00000   0.00000  -0.00000
 147       55F-2        0.00000   0.00000   0.00000   0.00000   0.00000
 148       55F+3        0.00000   0.00000   0.00000  -0.00000   0.00000
 149       55F-3        0.00000   0.00000  -0.00000   0.00000   0.00000
 150       56F 0        0.00000  -0.00902   0.00000   0.00000  -0.01416
 151       56F+1        0.00000   0.00000   0.00000   0.02071   0.00000
 152       56F-1       -0.00010   0.00000   0.02071   0.00000   0.00000
 153       56F+2        0.00000   0.00000   0.00000   0.00000   0.00000
 154       56F-2        0.00000   0.00000   0.00000   0.00000   0.00000
 155       56F+3        0.00000   0.00000   0.00000   0.00000   0.00000
 156       56F-3       -0.00000   0.00000   0.00000   0.00000   0.00000
 157       57F 0        0.00000  -0.00832   0.00000   0.00000  -0.01700
 158       57F+1        0.00000   0.00000   0.00000   0.00809   0.00000
 159       57F-1       -0.00093   0.00000   0.00809   0.00000   0.00000
 160       57F+2        0.00000  -0.00000   0.00000   0.00000  -0.00000
 161       57F-2        0.00000   0.00000   0.00000   0.00000   0.00000
 162       57F+3        0.00000   0.00000   0.00000  -0.00000   0.00000
 163       57F-3        0.00000   0.00000  -0.00000   0.00000   0.00000
 164       58G 0        0.00000   0.00028   0.00000   0.00000   0.00065
 165       58G+1        0.00000   0.00000   0.00000  -0.00019   0.00000
 166       58G-1       -0.00015   0.00000  -0.00019   0.00000   0.00000
 167       58G+2        0.00000  -0.00000   0.00000   0.00000   0.00000
 168       58G-2        0.00000   0.00000   0.00000   0.00000   0.00000
 169       58G+3        0.00000   0.00000   0.00000  -0.00000   0.00000
 170       58G-3        0.00000   0.00000  -0.00000   0.00000   0.00000
 171       58G+4        0.00000  -0.00000   0.00000   0.00000  -0.00000
 172       58G-4        0.00000   0.00000   0.00000   0.00000   0.00000
 173       59G 0        0.00000   0.00205   0.00000   0.00000   0.00558
 174       59G+1        0.00000   0.00000   0.00000  -0.00462   0.00000
 175       59G-1       -0.00130   0.00000  -0.00462   0.00000   0.00000
 176       59G+2        0.00000   0.00000   0.00000   0.00000   0.00000
 177       59G-2        0.00000   0.00000   0.00000   0.00000   0.00000
 178       59G+3        0.00000   0.00000   0.00000  -0.00000   0.00000
 179       59G-3       -0.00000   0.00000  -0.00000   0.00000   0.00000
 180       59G+4        0.00000   0.00000   0.00000   0.00000   0.00000
 181       59G-4        0.00000   0.00000   0.00000   0.00000   0.00000
 182       60G 0        0.00000   0.00063   0.00000   0.00000   0.00222
 183       60G+1        0.00000   0.00000   0.00000  -0.00294   0.00000
 184       60G-1        0.00054   0.00000  -0.00294   0.00000   0.00000
 185       60G+2        0.00000  -0.00000   0.00000   0.00000  -0.00000
 186       60G-2        0.00000   0.00000   0.00000   0.00000   0.00000
 187       60G+3        0.00000   0.00000   0.00000   0.00000   0.00000
 188       60G-3       -0.00000   0.00000   0.00000   0.00000   0.00000
 189       60G+4        0.00000  -0.00000   0.00000   0.00000  -0.00000
 190       60G-4        0.00000   0.00000   0.00000   0.00000   0.00000
 191 2   O  1S          0.00000  -0.00000   0.00000   0.00000   0.00000
 192        2S          0.00000   0.00001   0.00000   0.00000  -0.00000
 193        3S          0.00000  -0.00005   0.00000   0.00000   0.00000
 194        4S          0.00000   0.00031   0.00000   0.00000  -0.00001
 195        5S          0.00000  -0.00329   0.00000   0.00000   0.00009
 196        6S          0.00000  -0.04937   0.00000   0.00000  -0.00142
 197        7S          0.00000  -0.16273   0.00000   0.00000   0.00413
 198        8S          0.00000   0.56344   0.00000   0.00000  -0.08287
 199        9S          0.00000   0.14789   0.00000   0.00000  -0.01361
 200       10S          0.00000   0.36815   0.00000   0.00000  -0.25402
 201       11S          0.00000  -0.00254   0.00000   0.00000   0.01635
 202       12S          0.00000   0.04766   0.00000   0.00000  -0.00103
 203       13S          0.00000   0.01258   0.00000   0.00000  -0.06657
 204       14PX         0.00000   0.00000   0.00000   0.00759   0.00000
 205       14PY         0.00031   0.00000   0.00759   0.00000   0.00000
 206       14PZ         0.00000   0.00036   0.00000   0.00000   0.00656
 207       15PX         0.00000   0.00000   0.00000   0.07986   0.00000
 208       15PY         0.00382   0.00000   0.07986   0.00000   0.00000
 209       15PZ         0.00000   0.00405   0.00000   0.00000   0.07251
 210       16PX         0.00000   0.00000   0.00000   0.25907   0.00000
 211       16PY         0.01353   0.00000   0.25907   0.00000   0.00000
 212       16PZ         0.00000   0.01274   0.00000   0.00000   0.24778
 213       17PX         0.00000   0.00000   0.00000   0.41848   0.00000
 214       17PY         0.02091   0.00000   0.41848   0.00000   0.00000
 215       17PZ         0.00000   0.04214   0.00000   0.00000   0.37684
 216       18PX         0.00000   0.00000   0.00000   0.27640   0.00000
 217       18PY         0.00740   0.00000   0.27640   0.00000   0.00000
 218       18PZ         0.00000   0.04460   0.00000   0.00000   0.19782
 219       19PX         0.00000   0.00000   0.00000   0.00490   0.00000
 220       19PY         0.00046   0.00000   0.00490   0.00000   0.00000
 221       19PZ         0.00000   0.00050   0.00000   0.00000   0.00593
 222       20PX         0.00000   0.00000   0.00000  -0.00199   0.00000
 223       20PY        -0.00007   0.00000  -0.00199   0.00000   0.00000
 224       20PZ         0.00000  -0.00009   0.00000   0.00000  -0.00167
 225       21PX         0.00000   0.00000   0.00000   0.02200   0.00000
 226       21PY         0.00071   0.00000   0.02200   0.00000   0.00000
 227       21PZ         0.00000  -0.00045   0.00000   0.00000   0.01338
 228       22D 0        0.00000   0.00183   0.00000   0.00000   0.01675
 229       22D+1        0.00000   0.00000   0.00000   0.01272   0.00000
 230       22D-1        0.00374   0.00000   0.01272   0.00000   0.00000
 231       22D+2        0.00000   0.00000   0.00000   0.00000   0.00000
 232       22D-2        0.00000   0.00000   0.00000   0.00000   0.00000
 233       23D 0        0.00000   0.01409   0.00000   0.00000   0.04151
 234       23D+1        0.00000   0.00000   0.00000   0.03358   0.00000
 235       23D-1        0.00697   0.00000   0.03358   0.00000   0.00000
 236       23D+2        0.00000  -0.00000   0.00000   0.00000  -0.00000
 237       23D-2        0.00000   0.00000   0.00000   0.00000   0.00000
 238       24D 0        0.00000  -0.00006   0.00000   0.00000   0.00062
 239       24D+1        0.00000   0.00000   0.00000   0.00046   0.00000
 240       24D-1        0.00014   0.00000   0.00046   0.00000   0.00000
 241       24D+2        0.00000  -0.00000   0.00000   0.00000   0.00000
[...]
  44       30PZ        -0.00019  -0.00009  -0.00009  -0.00000
  45       31PX         0.00215   0.00108   0.00107   0.00001
  46       31PY         0.00215   0.00108   0.00107   0.00001
  47       31PZ         0.00213   0.00107   0.00106   0.00001
  48       32PX        -0.02669  -0.01347  -0.01322  -0.00024
  49       32PY        -0.02669  -0.01347  -0.01322  -0.00024
  50       32PZ        -0.02620  -0.01314  -0.01306  -0.00008
  51       33PX         0.57119   0.28903   0.28216   0.00687
  52       33PY         0.57119   0.28903   0.28216   0.00687
  53       33PZ         0.59070   0.29507   0.29563  -0.00056
  54       34PX         0.55054   0.27723   0.27331   0.00392
  55       34PY         0.55054   0.27723   0.27331   0.00392
  56       34PZ         0.53234   0.26653   0.26581   0.00072
  57       35PX         0.67950   0.34124   0.33826   0.00297
  58       35PY         0.67950   0.34124   0.33826   0.00297
  59       35PZ         0.69278   0.34640   0.34637   0.00003
  60       36PX         0.45679   0.22655   0.23024  -0.00369
  61       36PY         0.45679   0.22655   0.23024  -0.00369
  62       36PZ         0.39756   0.19802   0.19954  -0.00152
  63       37PX         0.09490   0.07024   0.02466   0.04558
  64       37PY         0.09490   0.07024   0.02466   0.04558
  65       37PZ         0.04036   0.02475   0.01561   0.00914
  66       38PX         0.08390   0.07506   0.00884   0.06622
  67       38PY         0.08390   0.07506   0.00884   0.06622
  68       38PZ         0.04284   0.04534  -0.00251   0.04785
  69       39PX         0.00299   0.00160   0.00139   0.00020
  70       39PY         0.00299   0.00160   0.00139   0.00020
  71       39PZ         0.01842   0.01889  -0.00047   0.01935
  72       40PX        -0.49672  -0.25131  -0.24542  -0.00589
  73       40PY        -0.49672  -0.25131  -0.24542  -0.00589
  74       40PZ        -0.51306  -0.25624  -0.25682   0.00058
  75       41PX         0.22822   0.11395   0.11427  -0.00032
  76       41PY         0.22822   0.11395   0.11427  -0.00032
  77       41PZ         0.22243   0.11131   0.11112   0.00020
  78       42PX        -0.00002   0.00010  -0.00012   0.00022
  79       42PY        -0.00002   0.00010  -0.00012   0.00022
  80       42PZ        -0.00034  -0.00031  -0.00003  -0.00028
  81       43D 0        0.00000   0.00000   0.00000   0.00000
  82       43D+1        0.00000   0.00000   0.00000   0.00000
  83       43D-1        0.00000   0.00000   0.00000   0.00000
  84       43D+2        0.00000   0.00000   0.00000   0.00000
  85       43D-2        0.00000   0.00000  -0.00000   0.00000
  86       44D 0       -0.00016  -0.00008  -0.00008  -0.00001
  87       44D+1       -0.00019  -0.00018  -0.00002  -0.00016
  88       44D-1       -0.00019  -0.00018  -0.00002  -0.00016
  89       44D+2       -0.00018  -0.00018   0.00000  -0.00018
  90       44D-2       -0.00018  -0.00018  -0.00000  -0.00018
  91       45D 0        0.01869   0.00968   0.00901   0.00067
  92       45D+1        0.02275   0.02063   0.00212   0.01851
  93       45D-1        0.02275   0.02063   0.00212   0.01851
  94       45D+2        0.02171   0.02171   0.00000   0.02171
  95       45D-2        0.02171   0.02171  -0.00000   0.02171
  96       46D 0        0.32409   0.16701   0.15708   0.00993
  97       46D+1        0.38752   0.34769   0.03983   0.30786
  98       46D-1        0.38752   0.34769   0.03983   0.30786
  99       46D+2        0.38049   0.38049   0.00000   0.38049
 100       46D-2        0.38049   0.38049   0.00000   0.38049
 101       47D 0        0.15141   0.08065   0.07077   0.00988
 102       47D+1       -0.44169  -0.36526  -0.07643  -0.28883
 103       47D-1       -0.44169  -0.36526  -0.07643  -0.28883
 104       47D+2       -0.71001  -0.71001   0.00000  -0.71001
 105       47D-2       -0.71001  -0.71001   0.00000  -0.71001
 106       48D 0        0.33767   0.17494   0.16273   0.01221
 107       48D+1        0.35914   0.29101   0.06812   0.22289
 108       48D-1        0.35914   0.29101   0.06812   0.22289
 109       48D+2        0.32328   0.32328  -0.00000   0.32328
 110       48D-2        0.32328   0.32328   0.00000   0.32328
 111       49D 0        0.11735   0.06543   0.05192   0.01350
 112       49D+1        0.13866   0.09827   0.04039   0.05787
 113       49D-1        0.13866   0.09827   0.04039   0.05787
 114       49D+2        0.12404   0.12404   0.00000   0.12404
 115       49D-2        0.12404   0.12404   0.00000   0.12404
 116       50D 0        0.00407   0.00552  -0.00145   0.00698
 117       50D+1        0.00123   0.00175  -0.00052   0.00228
 118       50D-1        0.00123   0.00175  -0.00052   0.00228
 119       50D+2        0.00948   0.00948   0.00000   0.00948
 120       50D-2        0.00948   0.00948   0.00000   0.00948
 121       51D 0       -0.17062  -0.08751  -0.08312  -0.00439
 122       51D+1       -0.20932  -0.18671  -0.02261  -0.16410
 123       51D-1       -0.20932  -0.18671  -0.02261  -0.16410
 124       51D+2       -0.21451  -0.21451  -0.00000  -0.21451
 125       51D-2       -0.21451  -0.21451   0.00000  -0.21451
 126       52D 0        0.21451   0.10781   0.10671   0.00110
 127       52D+1        0.81766   0.69802   0.11964   0.57839
 128       52D-1        0.81766   0.69802   0.11964   0.57839
 129       52D+2        1.06307   1.06307   0.00000   1.06307
 130       52D-2        1.06307   1.06307   0.00000   1.06307
 131       53D 0        0.00050   0.00045   0.00006   0.00039
 132       53D+1        0.00027   0.00012   0.00014  -0.00002
 133       53D-1        0.00027   0.00012   0.00014  -0.00002
 134       53D+2       -0.00019  -0.00019   0.00000  -0.00019
 135       53D-2       -0.00019  -0.00019   0.00000  -0.00019
 136       54F 0        0.00020   0.00010   0.00010   0.00000
 137       54F+1        0.00009   0.00004   0.00004  -0.00000
 138       54F-1        0.00009   0.00004   0.00004  -0.00000
 139       54F+2        0.00001   0.00001   0.00000   0.00001
 140       54F-2        0.00001   0.00001   0.00000   0.00001
 141       54F+3        0.00000   0.00000  -0.00000   0.00000
 142       54F-3        0.00000   0.00000   0.00000  -0.00000
 143       55F 0        0.00433   0.00217   0.00216   0.00001
 144       55F+1        0.00176   0.00084   0.00092  -0.00008
 145       55F-1        0.00176   0.00084   0.00092  -0.00008
 146       55F+2        0.00003   0.00003  -0.00000   0.00003
 147       55F-2        0.00003   0.00003  -0.00000   0.00003
 148       55F+3       -0.00000  -0.00000  -0.00000  -0.00000
 149       55F-3       -0.00000  -0.00000  -0.00000   0.00000
 150       56F 0        0.00673   0.00335   0.00338  -0.00003
 151       56F+1        0.01481   0.00807   0.00674   0.00133
 152       56F-1        0.01481   0.00807   0.00674   0.00133
 153       56F+2        0.00002   0.00002  -0.00000   0.00002
 154       56F-2        0.00002   0.00002  -0.00000   0.00002
 155       56F+3       -0.00000  -0.00000   0.00000  -0.00000
 156       56F-3        0.00000   0.00000  -0.00000   0.00000
 157       57F 0       -0.00357  -0.00234  -0.00123  -0.00111
 158       57F+1        0.00888   0.00585   0.00303   0.00282
 159       57F-1        0.00888   0.00585   0.00303   0.00282
 160       57F+2       -0.00001  -0.00001   0.00000  -0.00001
 161       57F-2       -0.00001  -0.00001   0.00000  -0.00001
 162       57F+3        0.00000   0.00000   0.00000   0.00000
 163       57F-3        0.00000  -0.00000   0.00000  -0.00000
 164       58G 0        0.00002   0.00001   0.00001   0.00000
 165       58G+1        0.00000   0.00000   0.00000   0.00000
 166       58G-1        0.00000   0.00000   0.00000   0.00000
 167       58G+2        0.00000   0.00000   0.00000   0.00000
 168       58G-2        0.00000   0.00000   0.00000   0.00000
 169       58G+3        0.00000   0.00000   0.00000  -0.00000
 170       58G-3        0.00000   0.00000  -0.00000   0.00000
 171       58G+4       -0.00000  -0.00000  -0.00000  -0.00000
 172       58G-4        0.00000   0.00000  -0.00000   0.00000
 173       59G 0        0.00104   0.00052   0.00052  -0.00000
 174       59G+1        0.00072   0.00035   0.00037  -0.00002
 175       59G-1        0.00072   0.00035   0.00037  -0.00002
 176       59G+2        0.00001   0.00001   0.00000   0.00001
 177       59G-2        0.00001   0.00001   0.00000   0.00001
 178       59G+3        0.00000   0.00000   0.00000   0.00000
 179       59G-3        0.00000   0.00000   0.00000   0.00000
 180       59G+4        0.00000   0.00000   0.00000  -0.00000
 181       59G-4       -0.00000  -0.00000   0.00000  -0.00000
 182       60G 0        0.00023   0.00012   0.00011   0.00001
 183       60G+1        0.00231   0.00146   0.00085   0.00061
 184       60G-1        0.00231   0.00146   0.00085   0.00061
 185       60G+2        0.00001   0.00001  -0.00000   0.00001
 186       60G-2        0.00001   0.00001   0.00000   0.00001
 187       60G+3        0.00000   0.00000  -0.00000   0.00000
 188       60G-3        0.00000   0.00000  -0.00000   0.00000
 189       60G+4       -0.00000   0.00000  -0.00000   0.00000
 190       60G-4        0.00000   0.00000  -0.00000   0.00000
 191 2   O  1S         -0.00000  -0.00000  -0.00000  -0.00000
 192        2S          0.00000   0.00000   0.00000   0.00000
 193        3S         -0.00000  -0.00000  -0.00000  -0.00000
 194        4S          0.00001   0.00000   0.00000   0.00000
 195        5S         -0.00025  -0.00012  -0.00012  -0.00000
 196        6S         -0.01165  -0.00585  -0.00580  -0.00005
 197        7S         -0.10581  -0.05311  -0.05270  -0.00042
 198        8S          1.09612   0.54905   0.54707   0.00198
 199        9S          0.22870   0.11476   0.11394   0.00082
 200       10S          0.74498   0.36521   0.37976  -0.01455
 201       11S         -0.00021  -0.00008  -0.00014   0.00006
 202       12S          0.00869   0.00436   0.00433   0.00003
 203       13S          0.01383  -0.02006   0.03388  -0.05394
 204       14PX         0.00189   0.00101   0.00088   0.00013
 205       14PY         0.00189   0.00101   0.00088   0.00013
 206       14PZ         0.00151   0.00077   0.00074   0.00003
 207       15PX         0.06453   0.03435   0.03018   0.00418
 208       15PY         0.06453   0.03435   0.03018   0.00418
 209       15PZ         0.05473   0.02782   0.02691   0.00091
 210       16PX         0.38482   0.20319   0.18163   0.02156
 211       16PY         0.38482   0.20319   0.18163   0.02156
 212       16PZ         0.34900   0.17700   0.17199   0.00501
 213       17PX         0.78536   0.41066   0.37470   0.03595
 214       17PY         0.78536   0.41066   0.37470   0.03595
 215       17PZ         0.58509   0.29825   0.28684   0.01141
 216       18PX         0.44995   0.25198   0.19797   0.05400
 217       18PY         0.44995   0.25198   0.19797   0.05400
 218       18PZ         0.16612   0.09569   0.07044   0.02525
 219       19PX         0.00240   0.00125   0.00115   0.00009
 220       19PY         0.00240   0.00125   0.00115   0.00009
 221       19PZ         0.00288   0.00145   0.00143   0.00003
 222       20PX        -0.00030  -0.00016  -0.00014  -0.00002
 223       20PY        -0.00030  -0.00016  -0.00014  -0.00002
 224       20PZ        -0.00023  -0.00012  -0.00011  -0.00000
 225       21PX         0.03701   0.02958   0.00743   0.02216
 226       21PY         0.03701   0.02958   0.00743   0.02216
 227       21PZ         0.00442   0.00232   0.00211   0.00021
 228       22D 0        0.00547   0.00283   0.00264   0.00018
 229       22D+1        0.00281   0.00182   0.00099   0.00084
 230       22D-1        0.00281   0.00182   0.00099   0.00084
 231       22D+2        0.00015   0.00015   0.00000   0.00015
 232       22D-2        0.00015   0.00015  -0.00000   0.00015
 233       23D 0        0.01085   0.00602   0.00483   0.00119
 234       23D+1        0.01631   0.01039   0.00592   0.00447
 235       23D-1        0.01631   0.01039   0.00592   0.00447
 236       23D+2        0.00162   0.00162  -0.00000   0.00162
 237       23D-2        0.00162   0.00162  -0.00000   0.00162
 238       24D 0        0.00002   0.00001   0.00001   0.00000
 239       24D+1        0.00001   0.00001   0.00000   0.00000
 240       24D-1        0.00001   0.00001   0.00000   0.00000
 241       24D+2        0.00000   0.00000  -0.00000   0.00000
 242       24D-2        0.00000   0.00000  -0.00000   0.00000
 243       25D 0       -0.00314  -0.00157  -0.00157   0.00001
 244       25D+1        0.00053   0.00025   0.00028  -0.00003
 245       25D-1        0.00053   0.00025   0.00028  -0.00003
 246       25D+2        0.00051   0.00051   0.00000   0.00051
 247       25D-2        0.00051   0.00051   0.00000   0.00051
 248       26F 0        0.00293   0.00153   0.00140   0.00013
 249       26F+1        0.00245   0.00168   0.00078   0.00090
 250       26F-1        0.00245   0.00168   0.00078   0.00090
 251       26F+2        0.00030   0.00030   0.00000   0.00030
 252       26F-2        0.00030   0.00030  -0.00000   0.00030
 253       26F+3        0.00000   0.00000   0.00000   0.00000
 254       26F-3        0.00000  -0.00000   0.00000  -0.00000
 255       27F 0       -0.00039  -0.00013  -0.00025   0.00012
 256       27F+1        0.00106   0.00080   0.00026   0.00054
 257       27F-1        0.00106   0.00080   0.00026   0.00054
 258       27F+2        0.00017   0.00017  -0.00000   0.00017
 259       27F-2        0.00017   0.00017  -0.00000   0.00017
 260       27F+3       -0.00000  -0.00000  -0.00000  -0.00000
 261       27F-3        0.00000   0.00000   0.00000   0.00000
          Condensed to atoms (all electrons):
               1          2
     1  Mn  14.333713   0.009417
     2  O    0.009417   6.647453
          Atomic-Atomic Spin Densities.
               1          2
     1  Mn   4.916171  -0.189651
     2  O   -0.189651   0.463131
 Mulliken charges and spin densities:
               1          2
     1  Mn   0.656870   4.726520
     2  O   -0.656870   0.273480
 Sum of Mulliken charges =  -0.00000   5.00000
 Mulliken charges and spin densities with hydrogens summed into heavy atoms:
               1          2
     1  Mn   0.656870   4.726520
     2  O   -0.656870   0.273480
 Electronic spatial extent (au):  <R**2>=             68.7265
 Charge=              0.0000 electrons
 Dipole moment (field-independent basis, Debye):
    X=              0.0000    Y=              0.0000    Z=              1.2970  Tot=              1.2970
 Quadrupole moment (field-independent basis, Debye-Ang):
   XX=            -20.1157   YY=            -20.1157   ZZ=            -22.2933
   XY=              0.0000   XZ=              0.0000   YZ=              0.0000
 Traceless Quadrupole moment (field-independent basis, Debye-Ang):
   XX=              0.7259   YY=              0.7259   ZZ=             -1.4518
   XY=              0.0000   XZ=              0.0000   YZ=              0.0000
 Octapole moment (field-independent basis, Debye-Ang**2):
  XXX=              0.0000  YYY=              0.0000  ZZZ=             -0.9759  XYY=              0.0000
  XXY=              0.0000  XXZ=             -0.9916  XZZ=              0.0000  YZZ=              0.0000
  YYZ=             -0.9916  XYZ=              0.0000
 Hexadecapole moment (field-independent basis, Debye-Ang**3):
 XXXX=            -30.9117 YYYY=            -30.9117 ZZZZ=            -68.5597 XXXY=              0.0000
 XXXZ=              0.0000 YYYX=              0.0000 YYYZ=              0.0000 ZZZX=              0.0000
 ZZZY=              0.0000 XXYY=            -10.3039 XXZZ=            -17.3573 YYZZ=            -17.3573
 XXYZ=              0.0000 YYXZ=              0.0000 ZZXY=              0.0000
 N-N= 3.968829081900D+01 E-N=-3.546616837259D+02  KE= 6.908114664457D+01
 Symmetry A1   KE= 2.816804203077D+01
 Symmetry A2   KE= 5.807864511451D+00
 Symmetry B1   KE= 1.755262005800D+01
 Symmetry B2   KE= 1.755262004368D+01
 Symmetry A1   SP= 2.000000000000D+00
 Symmetry A2   SP= 1.000000000000D+00
 Symmetry B1   SP= 1.000000000000D+00
 Symmetry B2   SP= 1.000000000000D+00
 Orbital energies and kinetic energies (alpha):
                                 1                 2
   4         O                -2.720122          3.548384
   5         O                -1.300282          1.799288
   6         O                -0.783145          2.621648
   7         O                -0.783145          2.621648
   8         O                -0.659554          3.905683
   9         O                -0.596836          5.807865
  10         O                -0.596836          5.807865
  11         O                -0.385105          0.622489
  12         O                -0.385105          5.212556
  13         O                -0.290248          5.212556
  14         V                 0.023144          0.057409
  15         V                 0.026567          0.077616
  16         V                 0.026567          0.077616
  17         V                 0.029637          0.040162
  18         V                 0.071987          0.174463
 Total kinetic energy from orbitals= 9.174447607851D+01
                          Isotropic Fermi Contact Couplings
        Atom                 a.u.       MegaHertz       Gauss      10(-4) cm-1
     1  Mn(55)             0.00057       0.12606       0.04498       0.04205
     2  O(17)              0.00008      -0.00990      -0.00353      -0.00330
 --------------------------------------------------------
       Center         ----  Spin Dipole Couplings  ----
                      3XX-RR        3YY-RR        3ZZ-RR
 --------------------------------------------------------
     1   Atom        0.893156      0.893156     -1.786312
     2   Atom       -0.089144     -0.089144      0.178288
 --------------------------------------------------------
                        XY            XZ            YZ
 --------------------------------------------------------
     1   Atom        0.000000      0.000000      0.000000
     2   Atom        0.000000      0.000000      0.000000
 --------------------------------------------------------


 ---------------------------------------------------------------------------------
              Anisotropic Spin Dipole Couplings in Principal Axis System
 ---------------------------------------------------------------------------------

       Atom             a.u.   MegaHertz   Gauss  10(-4) cm-1        Axes

              Baa    -1.7863  -235.689   -84.100   -78.617  0.0000  0.0000  1.0000
     1 Mn(55) Bbb     0.8932   117.844    42.050    39.309 -0.0000  1.0000  0.0000
              Bcc     0.8932   117.844    42.050    39.309  1.0000  0.0000  0.0000
 
              Baa    -0.0891     6.450     2.302     2.152  1.0000  0.0000  0.0000
     2 O(17)  Bbb    -0.0891     6.450     2.302     2.152 -0.0000  1.0000  0.0000
              Bcc     0.1783   -12.901    -4.603    -4.303  0.0000  0.0000  1.0000
 

 ---------------------------------------------------------------------------------

 No NMR shielding tensors so no spin-rotation constants.
 Leave Link  601 at Tue Mar 13 12:32:54 2018, MaxMem= 10737418240 cpu:              54.0 elap:               3.5
 (Enter /home1/apps/gaussian/16rA.03/g16/l9999.exe)

 Test job not archived.
 1\1\GINC-C401-012\SP\ROCCSD(T)-Full\Gen\Mn1O1(6)\AANNABE\13-Mar-2018\0
 \\#P ROCCSD(T)=(maxcyc=150, Full, SaveAmplitudes, ReadAmplitudes)/Gen 
 5d 7f SCF=(maxcycles=300) Integral(NoXCTest) MaxDisk=500GB Pop=Regular
  Pseudo=Read Guess=Read IOp(5/15=2)\\MnO\\0,6\Mn,0,0.,0.,0.\O,0,0.,0.,
 1.2\\Version=ES64L-G16RevA.03\State=6-SG\HF=-119.044487\MP2=-119.99567
 04\MP3=-119.9332659\PUHF=-119.044487\PMP2-0=-119.9956704\MP4SDQ=-119.9
 721782\CCSD=-119.9605668\CCSD(T)=-119.9987782\RMSD=3.835e-09\PG=C*V [C
 *(O1Mn1)]\\@


 WOMEN HOLD UP HALF THE SKY. -- MAO TSE TUNG
 Job cpu time:       0 days  6 hours 54 minutes 28.9 seconds.
 Elapsed time:       0 days  0 hours 26 minutes  1.6 seconds.
 File lengths (MBytes):  RWF=   4573 Int=      0 D2E=      0 Chk=     27 Scr=      1
 Normal termination of Gaussian 16 at Tue Mar 13 12:32:55 2018.
