 Entering Gaussian System, Link 0=g16
 Initial command:
 /home1/apps/gaussian/16rA.03/g16/l1.exe "/tmp/Gau-118296.inp" -scrdir="/tmp/"
 Entering Link 1 = /home1/apps/gaussian/16rA.03/g16/l1.exe PID=    118297.
  
 Copyright (c) 1988,1990,1992,1993,1995,1998,2003,2009,2016,
            Gaussian, Inc.  All Rights Reserved.
  
 This is part of the Gaussian(R) 16 program.  It is based on
 the Gaussian(R) 09 system (copyright 2009, Gaussian, Inc.),
 the Gaussian(R) 03 system (copyright 2003, Gaussian, Inc.),
 the Gaussian(R) 98 system (copyright 1998, Gaussian, Inc.),
 the Gaussian(R) 94 system (copyright 1995, Gaussian, Inc.),
 the Gaussian 92(TM) system (copyright 1992, Gaussian, Inc.),
 the Gaussian 90(TM) system (copyright 1990, Gaussian, Inc.),
 the Gaussian 88(TM) system (copyright 1988, Gaussian, Inc.),
 the Gaussian 86(TM) system (copyright 1986, Carnegie Mellon
 University), and the Gaussian 82(TM) system (copyright 1983,
 Carnegie Mellon University). Gaussian is a federally registered
 trademark of Gaussian, Inc.
  
 This software contains proprietary and confidential information,
 including trade secrets, belonging to Gaussian, Inc.
  
 This software is provided under written license and may be
 used, copied, transmitted, or stored only in accord with that
 written license.
  
 The following legend is applicable only to US Government
 contracts under FAR:
  
                    RESTRICTED RIGHTS LEGEND
  
 Use, reproduction and disclosure by the US Government is
 subject to restrictions as set forth in subparagraphs (a)
 and (c) of the Commercial Computer Software - Restricted
 Rights clause in FAR 52.227-19.
  
 Gaussian, Inc.
 340 Quinnipiac St., Bldg. 40, Wallingford CT 06492
  
  
 ---------------------------------------------------------------
 Warning -- This program may not be used in any manner that
 competes with the business of Gaussian, Inc. or will provide
 assistance to any competitor of Gaussian, Inc.  The licensee
 of this program is prohibited from giving any competitor of
 Gaussian, Inc. access to this program.  By using this program,
 the user acknowledges that Gaussian, Inc. is engaged in the
 business of creating and licensing software in the field of
 computational chemistry and represents and warrants to the
 licensee that it is not a competitor of Gaussian, Inc. and that
 it will not use this program in any manner prohibited above.
 ---------------------------------------------------------------
  

 Cite this work as:
 Gaussian 16, Revision A.03,
 M. J. Frisch, G. W. Trucks, H. B. Schlegel, G. E. Scuseria, 
 M. A. Robb, J. R. Cheeseman, G. Scalmani, V. Barone, 
 G. A. Petersson, H. Nakatsuji, X. Li, M. Caricato, A. V. Marenich, 
 J. Bloino, B. G. Janesko, R. Gomperts, B. Mennucci, H. P. Hratchian, 
 J. V. Ortiz, A. F. Izmaylov, J. L. Sonnenberg, D. Williams-Young, 
 F. Ding, F. Lipparini, F. Egidi, J. Goings, B. Peng, A. Petrone, 
 T. Henderson, D. Ranasinghe, V. G. Zakrzewski, J. Gao, N. Rega, 
 G. Zheng, W. Liang, M. Hada, M. Ehara, K. Toyota, R. Fukuda, 
 J. Hasegawa, M. Ishida, T. Nakajima, Y. Honda, O. Kitao, H. Nakai, 
 T. Vreven, K. Throssell, J. A. Montgomery, Jr., J. E. Peralta, 
 F. Ogliaro, M. J. Bearpark, J. J. Heyd, E. N. Brothers, K. N. Kudin, 
 V. N. Staroverov, T. A. Keith, R. Kobayashi, J. Normand, 
 K. Raghavachari, A. P. Rendell, J. C. Burant, S. S. Iyengar, 
 J. Tomasi, M. Cossi, J. M. Millam, M. Klene, C. Adamo, R. Cammi, 
 J. W. Ochterski, R. L. Martin, K. Morokuma, O. Farkas, 
 J. B. Foresman, and D. J. Fox, Gaussian, Inc., Wallingford CT, 2016.
 
 ******************************************
 Gaussian 16:  ES64L-G16RevA.03 25-Dec-2016
                26-Feb-2018 
 ******************************************
 %MEM=64GB
 %CPU=0-15
 SetSPE:  set environment variable "MP_BIND" = "yes"
 SetSPE:  set environment variable "MP_BLIST" = "0,1,2,3,4,5,6,7,8,9,10,11,12,13,14,15"
 Will use up to   16 processors via shared memory.
 %RWF=/scratch/04843/aannabe/gaussian/
 %Int=/scratch/04843/aannabe/gaussian/
 %D2E=/scratch/04843/aannabe/gaussian/
 %NoSave
 %CHK=MnH
 ----------------------------------------------------------------------
 #P ROCCSD(T)=(maxcyc=150, Full, SaveAmplitudes, ReadAmplitudes)/Gen 5d
  7f SCF=(maxcycles=300) Integral(NoXCTest) MaxDisk=500GB Pop=Regular P
 seudo=Read Guess=Read
 ----------------------------------------------------------------------
 1/38=1,172=1/1;
 2/12=2,17=6,18=5,40=1/2;
 3/5=7,8=11,11=2,16=1,17=8,25=1,30=1,47=8,116=101/1,2,3;
 4/5=1/1;
 5/5=2,7=300,38=6/2;
 8/5=-1,6=4,9=120000,10=90,24=1/1,4;
 9/5=7,6=150,14=2,77=1/13;
 6//1;
 99/5=1,9=1/99;
 Leave Link    1 at Mon Feb 26 13:37:54 2018, MaxMem=  8589934592 cpu:               3.7 elap:               0.2
 (Enter /home1/apps/gaussian/16rA.03/g16/l101.exe)
 ---
 MnH
 ---
 Symbolic Z-matrix:
 Charge =  0 Multiplicity = 7
 Mn                    0.        0.        0. 
 H                     0.        0.        1.8 
 
 ITRead=  0  0
 MicOpt= -1 -1
 NAtoms=      2 NQM=        2 NQMF=       0 NMMI=      0 NMMIF=      0
                NMic=       0 NMicF=      0.
                    Isotopes and Nuclear Properties:
 (Nuclear quadrupole moments (NQMom) in fm**2, nuclear magnetic moments (NMagM)
  in nuclear magnetons)

  Atom         1           2
 IAtWgt=          55           1
 AtmWgt=  54.9380463   1.0078250
 NucSpn=           5           1
 AtZEff=  -0.0000000  -0.0000000
 NQMom=   33.0000000   0.0000000
 NMagM=    3.4532000   2.7928460
 AtZNuc=  25.0000000   1.0000000
 Leave Link  101 at Mon Feb 26 13:37:54 2018, MaxMem=  8589934592 cpu:               1.5 elap:               0.1
 (Enter /home1/apps/gaussian/16rA.03/g16/l202.exe)
                          Input orientation:                          
 ---------------------------------------------------------------------
 Center     Atomic      Atomic             Coordinates (Angstroms)
 Number     Number       Type             X           Y           Z
 ---------------------------------------------------------------------
      1         25           0        0.000000    0.000000    0.000000
      2          1           0        0.000000    0.000000    1.800000
 ---------------------------------------------------------------------
 Stoichiometry    HMn(7)
 Framework group  C*V[C*(HMn)]
 Deg. of freedom     1
 Full point group                 C*V     NOp   4
 Largest Abelian subgroup         C2V     NOp   4
 Largest concise Abelian subgroup C1      NOp   1
                         Standard orientation:                         
 ---------------------------------------------------------------------
 Center     Atomic      Atomic             Coordinates (Angstroms)
 Number     Number       Type             X           Y           Z
 ---------------------------------------------------------------------
      1         25           0        0.000000    0.000000    0.069231
      2          1           0        0.000000    0.000000   -1.730769
 ---------------------------------------------------------------------
 Rotational constants (GHZ):           0.0000000         157.6093135         157.6093135
 Leave Link  202 at Mon Feb 26 13:37:54 2018, MaxMem=  8589934592 cpu:               0.9 elap:               0.1
 (Enter /home1/apps/gaussian/16rA.03/g16/l301.exe)
 General basis read from cards:  (5D, 7F)
 Centers:       1
 S 1 1.00
     Exponent=  1.2210500000D+07 Coefficients=  1.0000000000D+00
 S 1 1.00
     Exponent=  1.8281570000D+06 Coefficients=  1.0000000000D+00
 S 1 1.00
     Exponent=  4.1603030000D+05 Coefficients=  1.0000000000D+00
 S 1 1.00
     Exponent=  1.1784360000D+05 Coefficients=  1.0000000000D+00
 S 1 1.00
     Exponent=  3.8448140000D+04 Coefficients=  1.0000000000D+00
 S 1 1.00
     Exponent=  1.3881710000D+04 Coefficients=  1.0000000000D+00
 S 1 1.00
     Exponent=  5.4150020000D+03 Coefficients=  1.0000000000D+00
 S 1 1.00
     Exponent=  2.2464600000D+03 Coefficients=  1.0000000000D+00
 S 1 1.00
     Exponent=  9.8014630000D+02 Coefficients=  1.0000000000D+00
 S 1 1.00
     Exponent=  4.4589520000D+02 Coefficients=  1.0000000000D+00
 S 1 1.00
     Exponent=  2.1005580000D+02 Coefficients=  1.0000000000D+00
 S 1 1.00
     Exponent=  1.0180460000D+02 Coefficients=  1.0000000000D+00
 S 1 1.00
     Exponent=  5.0011260000D+01 Coefficients=  1.0000000000D+00
 S 1 1.00
     Exponent=  2.2939390000D+01 Coefficients=  1.0000000000D+00
 S 1 1.00
     Exponent=  1.1522640000D+01 Coefficients=  1.0000000000D+00
 S 1 1.00
     Exponent=  5.7763380000D+00 Coefficients=  1.0000000000D+00
 S 1 1.00
     Exponent=  2.6259590000D+00 Coefficients=  1.0000000000D+00
 S 1 1.00
     Exponent=  1.2603220000D+00 Coefficients=  1.0000000000D+00
 S 1 1.00
     Exponent=  5.7713000000D-01 Coefficients=  1.0000000000D+00
 S 1 1.00
     Exponent=  1.3658200000D-01 Coefficients=  1.0000000000D+00
 S 1 1.00
     Exponent=  6.3535000000D-02 Coefficients=  1.0000000000D+00
 S 1 1.00
     Exponent=  2.8521000000D-02 Coefficients=  1.0000000000D+00
 S 1 1.00
     Exponent=  5.3389000000D+00 Coefficients=  1.0000000000D+00
 S 1 1.00
     Exponent=  1.6013000000D+00 Coefficients=  1.0000000000D+00
 S 1 1.00
     Exponent=  1.2800000000D-02 Coefficients=  1.0000000000D+00
 P 1 1.00
     Exponent=  3.5005120000D+04 Coefficients=  1.0000000000D+00
 P 1 1.00
     Exponent=  8.2794620000D+03 Coefficients=  1.0000000000D+00
 P 1 1.00
     Exponent=  2.6884650000D+03 Coefficients=  1.0000000000D+00
 P 1 1.00
     Exponent=  1.0294900000D+03 Coefficients=  1.0000000000D+00
 P 1 1.00
     Exponent=  4.3807080000D+02 Coefficients=  1.0000000000D+00
 P 1 1.00
     Exponent=  2.0061530000D+02 Coefficients=  1.0000000000D+00
 P 1 1.00
     Exponent=  9.7007690000D+01 Coefficients=  1.0000000000D+00
 P 1 1.00
     Exponent=  4.8870520000D+01 Coefficients=  1.0000000000D+00
 P 1 1.00
     Exponent=  2.5292810000D+01 Coefficients=  1.0000000000D+00
 P 1 1.00
     Exponent=  1.3353820000D+01 Coefficients=  1.0000000000D+00
 P 1 1.00
     Exponent=  7.1317860000D+00 Coefficients=  1.0000000000D+00
 P 1 1.00
     Exponent=  3.7643650000D+00 Coefficients=  1.0000000000D+00
 P 1 1.00
     Exponent=  1.9462650000D+00 Coefficients=  1.0000000000D+00
 P 1 1.00
     Exponent=  9.8545500000D-01 Coefficients=  1.0000000000D+00
 P 1 1.00
     Exponent=  4.8186500000D-01 Coefficients=  1.0000000000D+00
 P 1 1.00
     Exponent=  1.8822219000D-01 Coefficients=  1.0000000000D+00
 P 1 1.00
     Exponent=  7.7539570000D-02 Coefficients=  1.0000000000D+00
 P 1 1.00
     Exponent=  3.1549450000D-02 Coefficients=  1.0000000000D+00
 P 1 1.00
     Exponent=  7.3423000000D+00 Coefficients=  1.0000000000D+00
 P 1 1.00
     Exponent=  1.9340000000D+00 Coefficients=  1.0000000000D+00
 P 1 1.00
     Exponent=  1.2840000000D-02 Coefficients=  1.0000000000D+00
 D 1 1.00
     Exponent=  3.1310900000D+02 Coefficients=  1.0000000000D+00
 D 1 1.00
     Exponent=  9.2527600000D+01 Coefficients=  1.0000000000D+00
 D 1 1.00
     Exponent=  3.5419100000D+01 Coefficients=  1.0000000000D+00
 D 1 1.00
     Exponent=  1.5157700000D+01 Coefficients=  1.0000000000D+00
 D 1 1.00
     Exponent=  6.9096400000D+00 Coefficients=  1.0000000000D+00
 D 1 1.00
     Exponent=  3.2725600000D+00 Coefficients=  1.0000000000D+00
 D 1 1.00
     Exponent=  1.5493600000D+00 Coefficients=  1.0000000000D+00
 D 1 1.00
     Exponent=  7.1709400000D-01 Coefficients=  1.0000000000D+00
 D 1 1.00
     Exponent=  3.1931000000D-01 Coefficients=  1.0000000000D+00
 D 1 1.00
     Exponent=  1.3415700000D-01 Coefficients=  1.0000000000D+00
 D 1 1.00
     Exponent=  5.1400000000D-02 Coefficients=  1.0000000000D+00
 D 1 1.00
     Exponent=  4.6851000000D+00 Coefficients=  1.0000000000D+00
 D 1 1.00
     Exponent=  2.4217000000D+00 Coefficients=  1.0000000000D+00
 D 1 1.00
     Exponent=  1.9690000000D-02 Coefficients=  1.0000000000D+00
 F 1 1.00
     Exponent=  6.6540000000D+00 Coefficients=  1.0000000000D+00
 F 1 1.00
     Exponent=  2.7676000000D+00 Coefficients=  1.0000000000D+00
 F 1 1.00
     Exponent=  1.1511000000D+00 Coefficients=  1.0000000000D+00
 F 1 1.00
     Exponent=  3.8120000000D-01 Coefficients=  1.0000000000D+00
 F 1 1.00
     Exponent=  1.2624000000D-01 Coefficients=  1.0000000000D+00
 G 1 1.00
     Exponent=  5.4683000000D+00 Coefficients=  1.0000000000D+00
 G 1 1.00
     Exponent=  2.3327000000D+00 Coefficients=  1.0000000000D+00
 G 1 1.00
     Exponent=  8.5200000000D-01 Coefficients=  1.0000000000D+00
 G 1 1.00
     Exponent=  3.1119000000D-01 Coefficients=  1.0000000000D+00
 H 1 1.00
     Exponent=  5.1185000000D+00 Coefficients=  1.0000000000D+00
 H 1 1.00
     Exponent=  1.9660000000D+00 Coefficients=  1.0000000000D+00
 H 1 1.00
     Exponent=  7.5513000000D-01 Coefficients=  1.0000000000D+00
 ****
 Centers:       2
 S 1 1.00
     Exponent=  8.2640000000D+01 Coefficients=  1.0000000000D+00
 S 1 1.00
     Exponent=  1.2410000000D+01 Coefficients=  1.0000000000D+00
 S 1 1.00
     Exponent=  2.8240000000D+00 Coefficients=  1.0000000000D+00
 S 1 1.00
     Exponent=  7.9770000000D-01 Coefficients=  1.0000000000D+00
 S 1 1.00
     Exponent=  2.5810000000D-01 Coefficients=  1.0000000000D+00
 S 1 1.00
     Exponent=  8.9890000000D-02 Coefficients=  1.0000000000D+00
 S 1 1.00
     Exponent=  2.3630000000D-02 Coefficients=  1.0000000000D+00
 P 1 1.00
     Exponent=  2.2920000000D+00 Coefficients=  1.0000000000D+00
 P 1 1.00
     Exponent=  8.3800000000D-01 Coefficients=  1.0000000000D+00
 P 1 1.00
     Exponent=  2.9200000000D-01 Coefficients=  1.0000000000D+00
 P 1 1.00
     Exponent=  8.4800000000D-02 Coefficients=  1.0000000000D+00
 D 1 1.00
     Exponent=  2.0620000000D+00 Coefficients=  1.0000000000D+00
 D 1 1.00
     Exponent=  6.6200000000D-01 Coefficients=  1.0000000000D+00
 D 1 1.00
     Exponent=  1.9000000000D-01 Coefficients=  1.0000000000D+00
 F 1 1.00
     Exponent=  1.3970000000D+00 Coefficients=  1.0000000000D+00
 F 1 1.00
     Exponent=  3.6000000000D-01 Coefficients=  1.0000000000D+00
 ****
 ======================================================================================================
                                       Pseudopotential Parameters
 ======================================================================================================
  Center     Atomic      Valence      Angular      Power
  Number     Number     Electrons     Momentum     of R      Exponent        Coefficient   SO-Coeffient
 ======================================================================================================
    1         25           15
                                      F and up 
                                                     1       18.4343224       15.00000000    0.00000000
                                                     2       12.7417521    31301.56494509    0.00000000
                                                     2       11.6741091    -4576.35463180    0.00000000
                                                     2       12.9037616    **************    0.00000000
                                                     2        4.9717187       -4.09339906    0.00000000
                                                     3        8.7926482      276.51483655    0.00000000
                                      S - F
                                                     2       13.5618787     2771.78238977    0.00000000
                                                     2        9.4481253    12553.69429672    0.00000000
                                                     2       10.7650385     1886.79316638    0.00000000
                                                     2       11.6534559    -9260.55332402    0.00000000
                                                     2        8.4807300    -8943.95003535    0.00000000
                                                     2        6.9670703     1041.73211249    0.00000000
                                      P - F
                                                     2       12.7134292    **************    0.00000000
                                                     2       18.0317451    **************    0.00000000
                                                     2       16.6827906    **************    0.00000000
                                                     2       13.1886712    16025.79106608    0.00000000
                                                     2       18.4286113    **************    0.00000000
                                                     2       12.9092897    14270.47832347    0.00000000
                                      D - F
                                                     2        8.1338423     -382.83904013    0.00000000
                                                     2       14.2869922     5676.99013005    0.00000000
                                                     2       11.1440663    35338.03440844    0.00000000
                                                     2       11.3767498    **************    0.00000000
                                                     2       18.2581823     3550.66026420    0.00000000
                                                     2       17.7314631    -5317.47975296    0.00000000
    2          1            1
                                      P and up 
                                                     2       21.7769666      -10.85192405    0.00000000
                                                     1       21.2435951        1.00000000    0.00000000
                                                     3       21.2435951       21.24359508    0.00000000
                                      S - P
                                                     2        1.0000000        0.00000000    0.00000000
 ======================================================================================================
 Ernie: Thresh=  0.10000D-02 Tol=  0.10000D-05 Strict=F.
 There are   171 symmetry adapted cartesian basis functions of A1  symmetry.
 There are    45 symmetry adapted cartesian basis functions of A2  symmetry.
 There are    93 symmetry adapted cartesian basis functions of B1  symmetry.
 There are    93 symmetry adapted cartesian basis functions of B2  symmetry.
 There are   126 symmetry adapted basis functions of A1  symmetry.
 There are    38 symmetry adapted basis functions of A2  symmetry.
 There are    73 symmetry adapted basis functions of B1  symmetry.
 There are    73 symmetry adapted basis functions of B2  symmetry.
   310 basis functions,   402 primitive gaussians,   402 cartesian basis functions
    11 alpha electrons        5 beta electrons
       nuclear repulsion energy         4.4098100910 Hartrees.
 IExCor=    0 DFT=F Ex=HF Corr=None ExCW=0 ScaHFX=  1.000000
 ScaDFX=  1.000000  1.000000  1.000000  1.000000 ScalE2=  1.000000  1.000000
 IRadAn=      5 IRanWt=     -1 IRanGd=            0 ICorTp=0 IEmpDi=  4
 NAtoms=    2 NActive=    2 NUniq=    2 SFac= 1.00D+00 NAtFMM=   60 NAOKFM=F Big=F
 Integral buffers will be    131072 words long.
 Raffenetti 2 integral format.
 Two-electron integral symmetry is turned on.
 Leave Link  301 at Mon Feb 26 13:37:54 2018, MaxMem=  8589934592 cpu:               4.5 elap:               0.3
 (Enter /home1/apps/gaussian/16rA.03/g16/l302.exe)
 NPDir=0 NMtPBC=     1 NCelOv=     1 NCel=       1 NClECP=     1 NCelD=      1
         NCelK=      1 NCelE2=     1 NClLst=     1 CellRange=     0.0.
 One-electron integrals computed using PRISM.
 One-electron integral symmetry used in STVInt
   4 Symmetry operations used in ECPInt.
 ECPInt:  NShTT=    3916 NPrTT=    3916 LenC2=    3859 LenP2D=    3858.
 LDataN:  DoStor=T MaxTD1=10 Len=  848
 NBasis=   310 RedAO= T EigKep=  1.62D-05  NBF=   126    38    73    73
 NBsUse=   303 1.00D-06 EigRej=  4.00D-07 NBFU=   123    38    71    71
 Leave Link  302 at Mon Feb 26 13:37:58 2018, MaxMem=  8589934592 cpu:              47.3 elap:               3.0
 (Enter /home1/apps/gaussian/16rA.03/g16/l303.exe)
 DipDrv:  MaxL=1.
 Leave Link  303 at Mon Feb 26 13:37:58 2018, MaxMem=  8589934592 cpu:               1.4 elap:               0.2
 (Enter /home1/apps/gaussian/16rA.03/g16/l401.exe)
 Initial guess from the checkpoint file:  "MnH.chk"
 B after Tr=     0.000000    0.000000    0.000000
         Rot=    1.000000    0.000000    0.000000    0.000000 Ang=   0.00 deg.
 Guess basis will be translated and rotated to current coordinates.
 JPrj=2 DoOrth=T DoCkMO=T.
 Initial guess orbital symmetries:
       Occupied  (SG) (PI) (PI) (SG) (SG) (DLTA) (DLTA) (PI) (PI)
                 (SG) (SG)
       Virtual   (PI) (PI) (SG) (SG) (PI) (PI) (DLTA) (DLTA) (SG)
                 (PI) (PI) (SG) (SG) (SG) (PI) (PI) (SG) (PI) (PI)
                 (DLTA) (DLTA) (PI) (PI) (SG) (SG) (SG) (SG) (DLTA)
                 (DLTA) (PHI) (PHI) (PI) (PI) (PI) (PI) (SG) (SG)
                 (PI) (PI) (DLTA) (DLTA) (SG) (DLTA) (DLTA) (PI)
                 (PI) (SG) (PI) (PI) (SG) (SG) (PHI) (PHI) (DLTA)
                 (DLTA) (PI) (PI) (SG) (PI) (PI) (SG) (?A) (?A)
                 (PHI) (PHI) (SG) (DLTA) (DLTA) (PI) (PI) (DLTA)
                 (DLTA) (SG) (PI) (PI) (SG) (DLTA) (DLTA) (PI)
                 (PI) (PI) (PI) (SG) (SG) (SG) (PHI) (PHI) (DLTA)
                 (DLTA) (PI) (PI) (SG) (DLTA) (DLTA) (PI) (PI)
                 (SG) (PI) (PI) (SG) (?A) (?A) (PHI) (PHI) (DLTA)
                 (DLTA) (PI) (PI) (SG) (SG) (SG) (DLTA) (DLTA)
                 (PI) (PI) (SG) (PI) (PI) (SG) (PHI) (PHI) (DLTA)
                 (DLTA) (PI) (PI) (SG) (?A) (?A) (PHI) (PHI) (DLTA)
                 (DLTA) (PI) (PI) (SG) (SG) (DLTA) (DLTA) (PI)
                 (PI) (SG) (PI) (PI) (SG) (SG) (DLTA) (DLTA) (PI)
                 (PI) (SG) (PI) (PI) (SG) (SG) (SG) (PI) (PI) (SG)
                 (DLTA) (DLTA) (PI) (PI) (SG) (SG) (PI) (PI) (SG)
                 (SG) (DLTA) (DLTA) (PI) (PI) (SG) (PI) (PI) (SG)
                 (SG) (PI) (PI) (SG) (SG) (PI) (PI) (SG) (SG) (PI)
                 (PI) (SG) (SG) (PI) (PI) (SG) (SG) (SG) (PI) (PI)
                 (SG) (SG) (SG) (SG) (SG) (SG) (DLTA) (SG) (SG)
                 (SG) (DLTA) (SG) (SG) (DLTA) (SG) (SG) (DLTA)
                 (SG) (?A) (SG) (DLTA) (SG) (DLTA) (?A) (SG) (DLTA)
                 (SG) (DLTA) (SG) (DLTA) (DLTA) (?A) (DLTA) (SG)
                 (?A) (DLTA) (DLTA) (DLTA) (DLTA) (?A) (DLTA) (DLTA)
                 (?A) (DLTA) (DLTA) (DLTA) (DLTA) (?A) (DLTA) (?A)
                 (PI) (PI) (PI) (PI) (PI) (PHI) (PI) (PI) (PHI)
                 (PI) (PI) (PHI) (?B) (PI) (PHI) (PI) (PHI) (PI)
                 (PHI) (PI) (?B) (PHI) (?B) (PI) (PI) (PI) (PI)
                 (PI) (PHI) (PI) (PI) (PHI) (PI) (PI) (PHI) (?B)
                 (PI) (PHI) (PI) (PHI) (PI) (PHI) (PI) (?B) (PHI)
                 (?B)
 The electronic state of the initial guess is 7-SG.
 Leave Link  401 at Mon Feb 26 13:37:58 2018, MaxMem=  8589934592 cpu:               8.2 elap:               0.6
 (Enter /home1/apps/gaussian/16rA.03/g16/l502.exe)
 Keep R1 and R2 ints in memory in symmetry-blocked form, NReq=1456552531.
 FoFCou: FMM=F IPFlag=           8 FMFlag=           0 FMFlg1=           0
         NFxFlg=           0 DoJE=F BraDBF=F KetDBF=F FulRan=T
         wScrn=  0.000000 ICntrl=       600 IOpCl=  0 I1Cent=           0 NGrid=           0
         NMat0=    1 NMatS0=  48205 NMatT0=    0 NMatD0=    1 NMtDS0=    0 NMtDT0=    0
 Petite list used in FoFCou.
 Restricted open shell SCF:
 Using DIIS extrapolation, IDIIS=  1040.
 NGot=  8589934592 LenX=  8000380050 LenY=  8000218005
 Requested convergence on RMS density matrix=1.00D-08 within 300 cycles.
 Requested convergence on MAX density matrix=1.00D-06.
 Requested convergence on             energy=1.00D-06.
 No special actions if energy rises.

 Cycle   1  Pass 1  IDiag  1:
 E= -104.054318871326    
 DIIS: error= 7.59D+00 at cycle   1 NSaved=   1.
 NSaved= 1 IEnMin= 1 EnMin= -104.054318871326     IErMin= 1 ErrMin= 7.59D+00
 ErrMax= 7.59D+00  0.00D+00 EMaxC= 1.00D-01 BMatC= 1.01D+04 BMatP= 1.01D+04
 IDIUse=3 WtCom= 0.00D+00 WtEn= 1.00D+00
 Coeff-Com:  0.100D+01
 Coeff-En:   0.100D+01
 Coeff:      0.100D+01
 Gap=     0.079 Goal=   None    Shift=    0.000
 GapD=    0.079 DampG=0.500 DampE=0.125 DampFc=0.1250 IDamp=-1.
 Damping current iteration by 1.25D-01
 RMSDP=1.54D-02 MaxDP=1.84D+00              OVMax= 4.48D-03

 Cycle   2  Pass 1  IDiag  1:
 E= -104.056188509433     Delta-E=       -0.001869638107 Rises=F Damp=T
 DIIS: error= 6.64D+00 at cycle   2 NSaved=   2.
 NSaved= 2 IEnMin= 2 EnMin= -104.056188509433     IErMin= 2 ErrMin= 6.64D+00
 ErrMax= 6.64D+00  0.00D+00 EMaxC= 1.00D-01 BMatC= 7.72D+03 BMatP= 1.01D+04
 IDIUse=3 WtCom= 0.00D+00 WtEn= 1.00D+00
 Coeff-Com: -0.700D+01 0.800D+01
 Coeff-En:   0.000D+00 0.100D+01
 Coeff:      0.000D+00 0.100D+01
 Gap=     0.078 Goal=   None    Shift=    0.000
 RMSDP=1.35D-02 MaxDP=1.60D+00 DE=-1.87D-03 OVMax= 6.04D-03

 Cycle   3  Pass 1  IDiag  1:
 E= -104.069272079210     Delta-E=       -0.013083569776 Rises=F Damp=F
 DIIS: error= 8.03D-04 at cycle   3 NSaved=   3.
 NSaved= 3 IEnMin= 3 EnMin= -104.069272079210     IErMin= 3 ErrMin= 8.03D-04
 ErrMax= 8.03D-04  0.00D+00 EMaxC= 1.00D-01 BMatC= 5.22D-05 BMatP= 7.72D+03
 IDIUse=3 WtCom= 9.92D-01 WtEn= 8.03D-03
 Coeff-Com: -0.144D+01 0.165D+01 0.794D+00
 Coeff-En:   0.000D+00 0.000D+00 0.100D+01
 Coeff:     -0.143D+01 0.164D+01 0.795D+00
 Gap=     0.078 Goal=   None    Shift=    0.000
 RMSDP=2.89D-04 MaxDP=2.69D-02 DE=-1.31D-02 OVMax= 5.60D-03

 Cycle   4  Pass 1  IDiag  1:
 E= -104.069309281275     Delta-E=       -0.000037202065 Rises=F Damp=F
 DIIS: error= 5.23D-04 at cycle   4 NSaved=   4.
 NSaved= 4 IEnMin= 4 EnMin= -104.069309281275     IErMin= 4 ErrMin= 5.23D-04
 ErrMax= 5.23D-04  0.00D+00 EMaxC= 1.00D-01 BMatC= 1.92D-05 BMatP= 5.22D-05
 IDIUse=3 WtCom= 9.95D-01 WtEn= 5.23D-03
 Coeff-Com: -0.983D+00 0.112D+01 0.325D+00 0.535D+00
 Coeff-En:   0.000D+00 0.000D+00 0.317D+00 0.683D+00
 Coeff:     -0.978D+00 0.112D+01 0.325D+00 0.536D+00
 Gap=     0.078 Goal=   None    Shift=    0.000
 RMSDP=2.02D-04 MaxDP=2.68D-02 DE=-3.72D-05 OVMax= 6.04D-03

 Cycle   5  Pass 1  IDiag  1:
 E= -104.069290624270     Delta-E=        0.000018657004 Rises=F Damp=F
 DIIS: error= 3.70D-04 at cycle   5 NSaved=   5.
 NSaved= 5 IEnMin= 4 EnMin= -104.069309281275     IErMin= 5 ErrMin= 3.70D-04
 ErrMax= 3.70D-04  0.00D+00 EMaxC= 1.00D-01 BMatC= 2.48D-05 BMatP= 1.92D-05
 IDIUse=3 WtCom= 3.42D-01 WtEn= 6.58D-01
 Coeff-Com: -0.916D+00 0.105D+01-0.482D-01 0.369D+00 0.549D+00
 Coeff-En:   0.000D+00 0.000D+00 0.000D+00 0.605D+00 0.395D+00
 Coeff:     -0.313D+00 0.358D+00-0.165D-01 0.524D+00 0.447D+00
 Gap=     0.078 Goal=   None    Shift=    0.000
 RMSDP=3.31D-04 MaxDP=3.88D-02 DE= 1.87D-05 OVMax= 6.41D-03

 Cycle   6  Pass 1  IDiag  1:
 E= -104.069319694600     Delta-E=       -0.000029070330 Rises=F Damp=F
 DIIS: error= 1.68D-04 at cycle   6 NSaved=   6.
 NSaved= 6 IEnMin= 6 EnMin= -104.069319694600     IErMin= 6 ErrMin= 1.68D-04
 ErrMax= 1.68D-04  0.00D+00 EMaxC= 1.00D-01 BMatC= 3.72D-06 BMatP= 1.92D-05
 IDIUse=3 WtCom= 9.98D-01 WtEn= 1.68D-03
 EnCoef did    32 forward-backward iterations
 Coeff-Com: -0.653D+00 0.746D+00-0.354D-01 0.235D+00 0.458D+00 0.250D+00
 Coeff-En:   0.000D+00 0.000D+00 0.172D+00 0.450D-02 0.154D+00 0.670D+00
 Coeff:     -0.652D+00 0.745D+00-0.350D-01 0.234D+00 0.457D+00 0.250D+00
 Gap=     0.078 Goal=   None    Shift=    0.000
 RMSDP=2.24D-04 MaxDP=2.26D-02 DE=-2.91D-05 OVMax= 2.84D-03

 Cycle   7  Pass 1  IDiag  1:
 E= -104.069316194976     Delta-E=        0.000003499624 Rises=F Damp=F
 DIIS: error= 2.36D-04 at cycle   7 NSaved=   7.
 NSaved= 7 IEnMin= 6 EnMin= -104.069319694600     IErMin= 6 ErrMin= 1.68D-04
 ErrMax= 2.36D-04  0.00D+00 EMaxC= 1.00D-01 BMatC= 7.41D-06 BMatP= 3.72D-06
 IDIUse=3 WtCom= 9.98D-01 WtEn= 1.68D-03
 Rare condition: small coef for last iteration:  0.122D-14
 Coeff-Com: -0.807D+00 0.922D+00-0.135D+00 0.146D+00 0.380D+00-0.613D-01
 Coeff-Com:  0.554D+00
 Coeff-En:   0.000D+00 0.000D+00 0.000D+00 0.222D-01 0.212D+00 0.432D+00
 Coeff-En:   0.334D+00
 Coeff:     -0.807D+00 0.922D+00-0.135D+00 0.146D+00 0.380D+00-0.613D-01
 Coeff:      0.554D+00
 Gap=     0.078 Goal=   None    Shift=    0.000
 RMSDP=3.28D-05 MaxDP=3.47D-03 DE= 3.50D-06 OVMax= 1.28D-03

 Cycle   8  Pass 1  IDiag  1:
 E= -104.069319049360     Delta-E=       -0.000002854383 Rises=F Damp=F
 DIIS: error= 2.92D-04 at cycle   8 NSaved=   8.
 NSaved= 8 IEnMin= 6 EnMin= -104.069319694600     IErMin= 6 ErrMin= 1.68D-04
 ErrMax= 2.92D-04  0.00D+00 EMaxC= 1.00D-01 BMatC= 6.57D-06 BMatP= 3.72D-06
 IDIUse=3 WtCom= 9.98D-01 WtEn= 1.68D-03
 EnCoef did   100 forward-backward iterations
 Rare condition: small coef for last iteration:  0.000D+00
 Coeff-Com: -0.771D+00 0.881D+00-0.129D+00 0.778D-01 0.267D+00-0.764D-01
 Coeff-Com:  0.440D+00 0.311D+00
 Coeff-En:   0.000D+00 0.000D+00 0.894D-02 0.291D-01 0.156D+00 0.413D+00
 Coeff-En:   0.790D-02 0.385D+00
 Coeff:     -0.771D+00 0.881D+00-0.129D+00 0.778D-01 0.267D+00-0.764D-01
 Coeff:      0.440D+00 0.311D+00
 Gap=     0.078 Goal=   None    Shift=    0.000
 RMSDP=8.91D-06 MaxDP=9.04D-04 DE=-2.85D-06 OVMax= 2.34D-04

 Cycle   9  Pass 1  IDiag  1:
 E= -104.069319579393     Delta-E=       -0.000000530033 Rises=F Damp=F
 DIIS: error= 2.79D-04 at cycle   9 NSaved=   9.
 NSaved= 9 IEnMin= 6 EnMin= -104.069319694600     IErMin= 6 ErrMin= 1.68D-04
 ErrMax= 2.79D-04  0.00D+00 EMaxC= 1.00D-01 BMatC= 6.00D-06 BMatP= 3.72D-06
 IDIUse=3 WtCom= 9.98D-01 WtEn= 1.68D-03
 EnCoef did   100 forward-backward iterations
 Rare condition: small coef for last iteration:  0.000D+00
 Coeff-Com: -0.751D+00 0.858D+00-0.126D+00 0.498D-01 0.218D+00-0.831D-01
 Coeff-Com:  0.383D+00 0.240D+00 0.210D+00
 Coeff-En:   0.000D+00 0.000D+00 0.954D-02 0.318D-01 0.157D+00 0.403D+00
 Coeff-En:   0.000D+00 0.000D+00 0.399D+00
 Coeff:     -0.751D+00 0.858D+00-0.126D+00 0.498D-01 0.218D+00-0.831D-01
 Coeff:      0.383D+00 0.240D+00 0.210D+00
 Gap=     0.078 Goal=   None    Shift=    0.000
 RMSDP=3.31D-06 MaxDP=2.78D-04 DE=-5.30D-07 OVMax= 5.85D-05

 Cycle  10  Pass 1  IDiag  1:
 E= -104.069319850518     Delta-E=       -0.000000271125 Rises=F Damp=F
 DIIS: error= 2.72D-04 at cycle  10 NSaved=  10.
 NSaved=10 IEnMin=10 EnMin= -104.069319850518     IErMin= 6 ErrMin= 1.68D-04
 ErrMax= 2.72D-04  0.00D+00 EMaxC= 1.00D-01 BMatC= 5.70D-06 BMatP= 3.72D-06
 IDIUse=3 WtCom= 9.98D-01 WtEn= 1.68D-03
 EnCoef did   100 forward-backward iterations
 Rare condition: small coef for last iteration:  0.000D+00
 Coeff-Com: -0.689D+00 0.788D+00-0.114D+00-0.931D-02 0.110D+00-0.101D+00
 Coeff-Com:  0.244D+00-0.256D-01-0.331D+00 0.113D+01
 Coeff-En:   0.000D+00 0.000D+00 0.100D-01 0.333D-01 0.157D+00 0.397D+00
 Coeff-En:   0.000D+00 0.000D+00 0.000D+00 0.402D+00
 Coeff:     -0.689D+00 0.788D+00-0.114D+00-0.931D-02 0.110D+00-0.101D+00
 Coeff:      0.244D+00-0.256D-01-0.331D+00 0.113D+01
 Gap=     0.078 Goal=   None    Shift=    0.000
 RMSDP=1.10D-05 MaxDP=9.62D-04 DE=-2.71D-07 OVMax= 1.24D-04

 Cycle  11  Pass 1  IDiag  1:
 E= -104.069320666740     Delta-E=       -0.000000816223 Rises=F Damp=F
 DIIS: error= 2.50D-04 at cycle  11 NSaved=  11.
 NSaved=11 IEnMin=11 EnMin= -104.069320666740     IErMin= 6 ErrMin= 1.68D-04
 ErrMax= 2.50D-04  0.00D+00 EMaxC= 1.00D-01 BMatC= 4.80D-06 BMatP= 3.72D-06
 IDIUse=3 WtCom= 9.98D-01 WtEn= 1.68D-03
 EnCoef did   100 forward-backward iterations
 Rare condition: small coef for last iteration:  0.566D-16
 Coeff-Com: -0.612D+00 0.699D+00-0.100D+00-0.364D-01 0.492D-01-0.105D+00
 Coeff-Com:  0.154D+00-0.230D+00-0.106D+01 0.158D+01 0.665D+00
 Coeff-En:   0.000D+00 0.000D+00 0.122D-01 0.354D-01 0.157D+00 0.381D+00
 Coeff-En:   0.000D+00 0.000D+00 0.000D+00 0.000D+00 0.414D+00
 Coeff:     -0.612D+00 0.699D+00-0.100D+00-0.364D-01 0.492D-01-0.105D+00
 Coeff:      0.154D+00-0.230D+00-0.106D+01 0.158D+01 0.665D+00
 Gap=     0.078 Goal=   None    Shift=    0.000
 RMSDP=1.46D-05 MaxDP=1.29D-03 DE=-8.16D-07 OVMax= 1.63D-04

 Cycle  12  Pass 1  IDiag  1:
 E= -104.069321599487     Delta-E=       -0.000000932747 Rises=F Damp=F
 DIIS: error= 2.22D-04 at cycle  12 NSaved=  12.
 NSaved=12 IEnMin=12 EnMin= -104.069321599487     IErMin= 6 ErrMin= 1.68D-04
 ErrMax= 2.22D-04  0.00D+00 EMaxC= 1.00D-01 BMatC= 3.78D-06 BMatP= 3.72D-06
 IDIUse=3 WtCom= 9.98D-01 WtEn= 1.68D-03
 EnCoef did   100 forward-backward iterations
 Rare condition: small coef for last iteration: -0.848D-17
 Coeff-Com: -0.571D+00 0.653D+00-0.936D-01-0.331D-01 0.464D-01-0.990D-01
 Coeff-Com:  0.141D+00-0.256D+00-0.125D+01 0.147D+01 0.729D+00 0.268D+00
 Coeff-En:   0.000D+00 0.000D+00 0.150D-01 0.381D-01 0.157D+00 0.358D+00
 Coeff-En:   0.000D+00 0.000D+00 0.000D+00 0.000D+00 0.000D+00 0.431D+00
 Coeff:     -0.571D+00 0.653D+00-0.936D-01-0.331D-01 0.464D-01-0.990D-01
 Coeff:      0.141D+00-0.256D+00-0.125D+01 0.147D+01 0.729D+00 0.268D+00
 Gap=     0.078 Goal=   None    Shift=    0.000
 RMSDP=7.33D-06 MaxDP=6.28D-04 DE=-9.33D-07 OVMax= 7.57D-05

 Cycle  13  Pass 1  IDiag  1:
 E= -104.069322041953     Delta-E=       -0.000000442466 Rises=F Damp=F
 DIIS: error= 2.07D-04 at cycle  13 NSaved=  13.
 NSaved=13 IEnMin=13 EnMin= -104.069322041953     IErMin= 6 ErrMin= 1.68D-04
 ErrMax= 2.07D-04  0.00D+00 EMaxC= 1.00D-01 BMatC= 3.29D-06 BMatP= 3.72D-06
 IDIUse=3 WtCom= 9.98D-01 WtEn= 1.68D-03
 EnCoef did   100 forward-backward iterations
 Rare condition: small coef for last iteration:  0.000D+00
 Coeff-Com: -0.356D+00 0.407D+00-0.585D-01-0.404D-02 0.550D-01-0.565D-01
 Coeff-Com:  0.115D+00-0.139D+00-0.105D+01 0.500D+00 0.322D+00-0.236D+01
 Coeff-Com:  0.362D+01
 Coeff-En:   0.000D+00 0.000D+00 0.165D-01 0.398D-01 0.158D+00 0.346D+00
 Coeff-En:   0.000D+00 0.000D+00 0.000D+00 0.000D+00 0.000D+00 0.000D+00
 Coeff-En:   0.440D+00
 Coeff:     -0.356D+00 0.407D+00-0.585D-01-0.404D-02 0.550D-01-0.565D-01
 Coeff:      0.115D+00-0.139D+00-0.105D+01 0.500D+00 0.322D+00-0.236D+01
 Coeff:      0.362D+01
 Gap=     0.078 Goal=   None    Shift=    0.000
 RMSDP=3.85D-05 MaxDP=3.26D-03 DE=-4.42D-07 OVMax= 4.07D-04

 Cycle  14  Pass 1  IDiag  1:
 E= -104.069323883229     Delta-E=       -0.000001841276 Rises=F Damp=F
 DIIS: error= 1.29D-04 at cycle  14 NSaved=  14.
 NSaved=14 IEnMin=14 EnMin= -104.069323883229     IErMin=14 ErrMin= 1.29D-04
 ErrMax= 1.29D-04  0.00D+00 EMaxC= 1.00D-01 BMatC= 1.28D-06 BMatP= 3.29D-06
 IDIUse=3 WtCom= 9.99D-01 WtEn= 1.29D-03
 Large coefficients: NSaved= 14 BigCof=    0.00 CofMax=   10.00 Det=-7.30D-12
 Inversion failed.  Reducing to 13 matrices.
 EnCoef did   100 forward-backward iterations
 Rare condition: small coef for last iteration:  0.000D+00
 Coeff-Com:  0.288D-09-0.348D-03 0.185D-01 0.304D-01 0.792D-02 0.350D-01
 Coeff-Com:  0.625D-01-0.131D+00-0.552D+00-0.290D+00-0.481D+01 0.543D+01
 Coeff-Com:  0.120D+01
 Coeff-En:   0.000D+00 0.257D-01 0.496D-01 0.158D+00 0.270D+00 0.000D+00
 Coeff-En:   0.000D+00 0.000D+00 0.000D+00 0.000D+00 0.000D+00 0.000D+00
 Coeff-En:   0.497D+00
 Coeff:      0.288D-09-0.348D-03 0.185D-01 0.304D-01 0.792D-02 0.350D-01
 Coeff:      0.625D-01-0.131D+00-0.552D+00-0.290D+00-0.481D+01 0.543D+01
 Coeff:      0.120D+01
 Gap=     0.078 Goal=   None    Shift=    0.000
 RMSDP=6.45D-05 MaxDP=5.60D-03 DE=-1.84D-06 OVMax= 6.71D-04

 Cycle  15  Pass 1  IDiag  1:
 E= -104.069325045744     Delta-E=       -0.000001162514 Rises=F Damp=F
 DIIS: error= 8.49D-07 at cycle  15 NSaved=  14.
 NSaved=14 IEnMin=14 EnMin= -104.069325045744     IErMin=14 ErrMin= 8.49D-07
 ErrMax= 8.49D-07  0.00D+00 EMaxC= 1.00D-01 BMatC= 8.79D-11 BMatP= 1.28D-06
 IDIUse=1 WtCom= 1.00D+00 WtEn= 0.00D+00
 Coeff-Com:  0.206D-09-0.286D-03 0.107D-01 0.183D-01 0.579D-02 0.233D-01
 Coeff-Com:  0.676D-01 0.136D+00-0.312D+00-0.246D+00-0.303D+01 0.305D+01
 Coeff-Com:  0.862D+00 0.415D+00
 Coeff:      0.206D-09-0.286D-03 0.107D-01 0.183D-01 0.579D-02 0.233D-01
 Coeff:      0.676D-01 0.136D+00-0.312D+00-0.246D+00-0.303D+01 0.305D+01
 Coeff:      0.862D+00 0.415D+00
 Gap=     0.078 Goal=   None    Shift=    0.000
 RMSDP=5.22D-07 MaxDP=7.55D-05 DE=-1.16D-06 OVMax= 1.38D-05

 Cycle  16  Pass 1  IDiag  1:
 E= -104.069325045847     Delta-E=       -0.000000000103 Rises=F Damp=F
 DIIS: error= 4.75D-07 at cycle  16 NSaved=  15.
 NSaved=15 IEnMin=15 EnMin= -104.069325045847     IErMin=15 ErrMin= 4.75D-07
 ErrMax= 4.75D-07  0.00D+00 EMaxC= 1.00D-01 BMatC= 3.06D-11 BMatP= 8.79D-11
 IDIUse=1 WtCom= 1.00D+00 WtEn= 0.00D+00
 Coeff-Com:  0.819D-10-0.125D-03 0.356D-02 0.633D-02 0.224D-02 0.854D-02
 Coeff-Com:  0.334D-01 0.138D+00-0.820D-01-0.120D+00-0.125D+01 0.109D+01
 Coeff-Com:  0.380D+00 0.349D+00 0.440D+00
 Coeff:      0.819D-10-0.125D-03 0.356D-02 0.633D-02 0.224D-02 0.854D-02
 Coeff:      0.334D-01 0.138D+00-0.820D-01-0.120D+00-0.125D+01 0.109D+01
 Coeff:      0.380D+00 0.349D+00 0.440D+00
 Gap=     0.078 Goal=   None    Shift=    0.000
 RMSDP=1.44D-07 MaxDP=1.35D-05 DE=-1.03D-10 OVMax= 7.61D-06

 Cycle  17  Pass 1  IDiag  1:
 E= -104.069325045885     Delta-E=       -0.000000000038 Rises=F Damp=F
 DIIS: error= 3.65D-07 at cycle  17 NSaved=  16.
 NSaved=16 IEnMin=16 EnMin= -104.069325045885     IErMin=16 ErrMin= 3.65D-07
 ErrMax= 3.65D-07  0.00D+00 EMaxC= 1.00D-01 BMatC= 7.84D-12 BMatP= 3.06D-11
 IDIUse=1 WtCom= 1.00D+00 WtEn= 0.00D+00
 Coeff-Com: -0.422D-11-0.899D-05-0.409D-03-0.521D-03-0.551D-04-0.430D-03
 Coeff-Com:  0.577D-02 0.711D-01 0.363D-01-0.280D-01-0.160D+00 0.210D-01
 Coeff-Com:  0.561D-01 0.158D+00 0.369D+00 0.471D+00
 Coeff:     -0.422D-11-0.899D-05-0.409D-03-0.521D-03-0.551D-04-0.430D-03
 Coeff:      0.577D-02 0.711D-01 0.363D-01-0.280D-01-0.160D+00 0.210D-01
 Coeff:      0.561D-01 0.158D+00 0.369D+00 0.471D+00
 Gap=     0.078 Goal=   None    Shift=    0.000
 RMSDP=2.78D-07 MaxDP=4.01D-05 DE=-3.83D-11 OVMax= 3.40D-06

 Cycle  18  Pass 1  IDiag  1:
 E= -104.069325045898     Delta-E=       -0.000000000013 Rises=F Damp=F
 DIIS: error= 1.55D-07 at cycle  18 NSaved=  17.
 NSaved=17 IEnMin=17 EnMin= -104.069325045898     IErMin=17 ErrMin= 1.55D-07
 ErrMax= 1.55D-07  0.00D+00 EMaxC= 1.00D-01 BMatC= 7.35D-13 BMatP= 7.84D-12
 IDIUse=1 WtCom= 1.00D+00 WtEn= 0.00D+00
 Coeff-Com: -0.154D-10 0.159D-04-0.907D-03-0.148D-02-0.434D-03-0.187D-02
 Coeff-Com: -0.311D-02 0.159D-01 0.398D-01 0.686D-02 0.150D+00-0.205D+00
 Coeff-Com: -0.419D-01 0.297D-01 0.151D+00 0.302D+00 0.560D+00
 Coeff:     -0.154D-10 0.159D-04-0.907D-03-0.148D-02-0.434D-03-0.187D-02
 Coeff:     -0.311D-02 0.159D-01 0.398D-01 0.686D-02 0.150D+00-0.205D+00
 Coeff:     -0.419D-01 0.297D-01 0.151D+00 0.302D+00 0.560D+00
 Gap=     0.078 Goal=   None    Shift=    0.000
 RMSDP=9.07D-08 MaxDP=1.23D-05 DE=-1.29D-11 OVMax= 1.13D-06

 Cycle  19  Pass 1  IDiag  1:
 E= -104.069325045899     Delta-E=       -0.000000000001 Rises=F Damp=F
 DIIS: error= 2.37D-08 at cycle  19 NSaved=  18.
 NSaved=18 IEnMin=18 EnMin= -104.069325045899     IErMin=18 ErrMin= 2.37D-08
 ErrMax= 2.37D-08  0.00D+00 EMaxC= 1.00D-01 BMatC= 6.60D-14 BMatP= 7.35D-13
 IDIUse=1 WtCom= 1.00D+00 WtEn= 0.00D+00
 Coeff-Com: -0.682D-11 0.795D-05-0.338D-03-0.566D-03-0.174D-03-0.721D-03
 Coeff-Com: -0.179D-02-0.828D-03 0.113D-01 0.633D-02 0.844D-01-0.916D-01
 Coeff-Com: -0.240D-01-0.582D-02 0.226D-01 0.824D-01 0.269D+00 0.649D+00
 Coeff:     -0.682D-11 0.795D-05-0.338D-03-0.566D-03-0.174D-03-0.721D-03
 Coeff:     -0.179D-02-0.828D-03 0.113D-01 0.633D-02 0.844D-01-0.916D-01
 Coeff:     -0.240D-01-0.582D-02 0.226D-01 0.824D-01 0.269D+00 0.649D+00
 Gap=     0.078 Goal=   None    Shift=    0.000
 RMSDP=9.27D-09 MaxDP=1.06D-06 DE=-1.36D-12 OVMax= 3.70D-07

 Cycle  20  Pass 1  IDiag  1:
 E= -104.069325045899     Delta-E=        0.000000000000 Rises=F Damp=F
 DIIS: error= 2.13D-08 at cycle  20 NSaved=  19.
 NSaved=19 IEnMin=18 EnMin= -104.069325045899     IErMin=19 ErrMin= 2.13D-08
 ErrMax= 2.13D-08  0.00D+00 EMaxC= 1.00D-01 BMatC= 5.16D-14 BMatP= 6.60D-14
 IDIUse=1 WtCom= 1.00D+00 WtEn= 0.00D+00
 Coeff-Com: -0.507D-12 0.194D-05-0.197D-04-0.414D-04-0.164D-04-0.453D-04
 Coeff-Com: -0.450D-03-0.471D-02-0.247D-02 0.305D-02 0.277D-01-0.181D-01
 Coeff-Com: -0.766D-02-0.130D-01-0.238D-01-0.164D-01 0.686D-01 0.529D+00
 Coeff-Com:  0.458D+00
 Coeff:     -0.507D-12 0.194D-05-0.197D-04-0.414D-04-0.164D-04-0.453D-04
 Coeff:     -0.450D-03-0.471D-02-0.247D-02 0.305D-02 0.277D-01-0.181D-01
 Coeff:     -0.766D-02-0.130D-01-0.238D-01-0.164D-01 0.686D-01 0.529D+00
 Coeff:      0.458D+00
 Gap=     0.078 Goal=   None    Shift=    0.000
 RMSDP=8.97D-09 MaxDP=1.19D-06 DE= 0.00D+00 OVMax= 2.52D-07

 Cycle  21  Pass 1  IDiag  1:
 E= -104.069325045899     Delta-E=       -0.000000000000 Rises=F Damp=F
 DIIS: error= 5.94D-09 at cycle  21 NSaved=  20.
 NSaved=20 IEnMin=20 EnMin= -104.069325045899     IErMin=20 ErrMin= 5.94D-09
 ErrMax= 5.94D-09  0.00D+00 EMaxC= 1.00D-01 BMatC= 4.01D-15 BMatP= 5.16D-14
 IDIUse=1 WtCom= 1.00D+00 WtEn= 0.00D+00
 Large coefficients: NSaved= 20 BigCof=    0.00 CofMax=   10.00 Det=-9.10D-15
 Inversion failed.  Reducing to 19 matrices.
 Coeff-Com: -0.502D-06 0.527D-04 0.844D-04 0.255D-04 0.117D-03 0.149D-03
 Coeff-Com: -0.236D-02-0.363D-02 0.529D-03 0.150D-02 0.517D-02-0.174D-03
 Coeff-Com: -0.654D-02-0.177D-01-0.252D-01-0.110D-01 0.178D+00 0.266D+00
 Coeff-Com:  0.615D+00
 Coeff:     -0.502D-06 0.527D-04 0.844D-04 0.255D-04 0.117D-03 0.149D-03
 Coeff:     -0.236D-02-0.363D-02 0.529D-03 0.150D-02 0.517D-02-0.174D-03
 Coeff:     -0.654D-02-0.177D-01-0.252D-01-0.110D-01 0.178D+00 0.266D+00
 Coeff:      0.615D+00
 Gap=     0.078 Goal=   None    Shift=    0.000
 RMSDP=3.86D-09 MaxDP=3.60D-07 DE=-2.84D-13 OVMax= 1.31D-07

 SCF Done:  E(ROHF) =  -104.069325046     A.U. after   21 cycles
            NFock= 21  Conv=0.39D-08     -V/T= 2.8324
 <Sx>= 0.0000 <Sy>= 0.0000 <Sz>= 3.0000 <S**2>=12.0000 S= 3.0000
 <L.S>=  0.00000000000    
 KE= 5.679547727920D+01 PE=-2.462208756809D+02 EE= 8.094626326480D+01
 Annihilation of the first spin contaminant:
 S**2 before annihilation    12.0000,   after    12.0000
 Leave Link  502 at Mon Feb 26 13:39:06 2018, MaxMem=  8589934592 cpu:             959.8 elap:              67.3
 (Enter /home1/apps/gaussian/16rA.03/g16/l801.exe)
 Windowed orbitals will be sorted by symmetry type.
 GenMOA:  NOpAll=  4 NOp2=4 NOpUse=  4 JSym2X=1
 FoFJK:  IHMeth= 1 ICntrl=       0 DoSepK=F KAlg= 0 I1Cent=           0 FoldK=F
 IRaf=         0 NMat=       1 IRICut=       1 DoRegI=T DoRafI=F ISym2E= 1 IDoP0=0 IntGTp=1.
 FoFCou: FMM=F IPFlag=           8 FMFlag=      100000 FMFlg1=           0
         NFxFlg=           0 DoJE=F BraDBF=F KetDBF=F FulRan=T
         wScrn=  0.000000 ICntrl=         0 IOpCl=  1 I1Cent=           0 NGrid=           0
         NMat0=    1 NMatS0=      1 NMatT0=    0 NMatD0=    1 NMtDS0=    0 NMtDT0=    0
 Petite list used in FoFCou.
 <Sx>= 0.0000 <Sy>= 0.0000 <Sz>= 3.0000 <S**2>=12.0000 S= 3.0000
 Range of M.O.s used for correlation:     1   303
 NBasis=   310 NAE=    11 NBE=     5 NFC=     0 NFV=     0
 NROrb=    303 NOA=    11 NOB=     5 NVA=   292 NVB=   298

 **** Warning!!: The largest alpha MO coefficient is  0.91040564D+02


 **** Warning!!: The largest beta MO coefficient is  0.91105190D+02

 Singles contribution to E2=   -0.1838813854D-02
 Leave Link  801 at Mon Feb 26 13:39:25 2018, MaxMem=  8589934592 cpu:             303.0 elap:              19.0
 (Enter /home1/apps/gaussian/16rA.03/g16/l804.exe)
 Open-shell transformation, MDV=  8589934592 ITran=4 ISComp=2.
 Unit  1 TFree=       2917418 TCopy=       2119717.
 Semi-Direct transformation.
 ModeAB=           2 MOrb=            11 LenV=    8587057424
 LASXX=     38027501 LTotXX=    38027501 LenRXX=    38027501
 LTotAB=    38534382 MaxLAS=   269982999 LenRXY=   269982999
 NonZer=   274912506 LenScr=   413986816 LnRSAI=           0
 LnScr1=           0 LExtra=     9797603 Total=    731794919
 MaxDsk= 67108864000 SrtSym=           F ITran=            4
 DoSDTr:  NPSUse= 16
 JobTyp=1 Pass  1:  I=   1 to  11.
 (rs|ai) integrals will be sorted in core.
 Complete sort for first half transformation.
 First half transformation complete.
 Begin second half transformation for I=  10.
 Begin second half transformation for I=  10.
 Complete sort for second half transformation.
 Second half transformation complete.
 ModeAB=           2 MOrb=             5 LenV=    8587057424
 LASXX=     17582684 LTotXX=    17582684 LenRXX=   122719545
 LTotAB=    16519930 MaxLAS=   122719545 LenRXY=    16519930
 NonZer=   124960230 LenScr=   188210176 LnRSAI=           0
 LnScr1=           0 LExtra=   317808103 Total=    645257754
 MaxDsk= 67108864000 SrtSym=           F ITran=            4
 DoSDTr:  NPSUse= 16
 JobTyp=2 Pass  1:  I=   1 to   5.
 (rs|ai) integrals will be sorted in core.
 Complete sort for first half transformation.
 First half transformation complete.
 Complete sort for second half transformation.
 Second half transformation complete.
 Spin components of T(2) and E(2):
     alpha-alpha T2 =       0.2486953442D-01 E2=     -0.1562135132D+00
     alpha-beta  T2 =       0.5340790660D-01 E2=     -0.3948083813D+00
     beta-beta   T2 =       0.6187889157D-02 E2=     -0.4087644451D-01
 ANorm=    0.1041849156D+01
 E2 =    -0.5937371529D+00 EUMP2 =    -0.10466306219878D+03
 (S**2,0)=  0.12000D+02           (S**2,1)=  0.12000D+02
 E(PUHF)=      -0.10406932505D+03        E(PMP2)=      -0.10466306220D+03
 Recovering and transforming amplitudes from chk file.
 B after Tr=     0.000000    0.000000    0.000000
         Rot=    1.000000    0.000000    0.000000    0.000000 Ang=   0.00 deg.
 Alpha occ  Sing. vals= 9.999994D-01 9.999994D-01 9.999993D-01 9.999960D-01 9.999939D-01 9.999939D-01 9.999938D-01 9.999933D-01 9.999933D-01 9.999922D-01
 Alpha occ  Sing. vals= 9.999817D-01
 Alpha occ  NOrbO=    11 NOrbN=    11 NSVal=    11 ThrEig=  0.900000.
 TrMax= 1.000000D+00 PrMax= 1.000000D+00 Trace(Pr)= 1.100000D+01
 B after Tr=     0.000000    0.000000    0.000000
         Rot=    1.000000    0.000000    0.000000    0.000000 Ang=   0.00 deg.
 Alpha virt Sing. vals= 1.000000D+00 1.000000D+00 1.000000D+00 1.000000D+00 1.000000D+00 1.000000D+00 1.000000D+00 1.000000D+00 1.000000D+00 1.000000D+00
 Alpha virt Sing. vals= 1.000000D+00 1.000000D+00 1.000000D+00 1.000000D+00 1.000000D+00 1.000000D+00 1.000000D+00 1.000000D+00 1.000000D+00 9.999999D-01
 Alpha virt Sing. vals= 9.999999D-01 9.999999D-01 9.999999D-01 9.999999D-01 9.999999D-01 9.999997D-01 9.999996D-01 9.999996D-01 9.999994D-01 9.999994D-01
 Alpha virt Sing. vals= 9.999994D-01 9.999994D-01 9.999987D-01 9.999986D-01 9.999986D-01 9.999986D-01 9.999986D-01 9.999984D-01 9.999982D-01 9.999977D-01
 Alpha virt Sing. vals= 9.999976D-01 9.999976D-01 9.999965D-01 9.999965D-01 9.999965D-01 9.999962D-01 9.999943D-01 9.999943D-01 9.999943D-01 9.999942D-01
 Alpha virt Sing. vals= 9.999942D-01 9.999906D-01 9.999874D-01 9.999783D-01 9.999776D-01 9.999776D-01 9.999741D-01 9.999741D-01 9.999740D-01 9.999740D-01
 Alpha virt Sing. vals= 9.999740D-01 9.999506D-01 9.999506D-01 9.999416D-01 9.999387D-01 9.999387D-01 9.999296D-01 9.999205D-01 9.999157D-01 9.999098D-01
 Alpha virt Sing. vals= 9.999098D-01 9.999091D-01 9.998752D-01 9.998752D-01 9.998252D-01 9.998091D-01 9.998091D-01 9.997938D-01 9.997938D-01 9.997935D-01
 Alpha virt Sing. vals= 9.997935D-01 9.997922D-01 9.997922D-01 9.997829D-01 9.997823D-01 9.997823D-01 9.997521D-01 9.996776D-01 9.996248D-01 9.995878D-01
 Alpha virt Sing. vals= 9.995828D-01 9.995828D-01 9.995828D-01 9.995828D-01 9.995823D-01 9.995495D-01 9.995495D-01 9.995052D-01 9.995052D-01 9.995028D-01
 Alpha virt Sing. vals= 9.994885D-01 9.994885D-01 9.994858D-01 9.994858D-01 9.992396D-01 9.991764D-01 9.991149D-01 9.991149D-01 9.987683D-01 9.986687D-01
 Alpha virt Sing. vals= 9.986687D-01 9.985549D-01 9.985549D-01 9.984244D-01 9.981551D-01 9.981551D-01 9.979055D-01 9.979055D-01 9.976950D-01 9.976950D-01
 Alpha virt Sing. vals= 9.976315D-01 9.976315D-01 9.975533D-01 9.973489D-01 9.973489D-01 9.963445D-01 9.963248D-01 9.962746D-01 9.962746D-01 9.959788D-01
 Alpha virt Sing. vals= 9.959350D-01 9.959350D-01 9.959189D-01 9.959189D-01 9.951961D-01 9.951957D-01 9.951957D-01 9.951516D-01 9.948129D-01 9.948129D-01
 Alpha virt Sing. vals= 9.946331D-01 9.946331D-01 9.945687D-01 9.945687D-01 9.945579D-01 9.940461D-01 9.940461D-01 9.920176D-01 9.900765D-01 9.897379D-01
 Alpha virt Sing. vals= 9.878868D-01 9.878868D-01 9.848889D-01 9.848889D-01 9.840191D-01 9.823190D-01 9.823190D-01 9.821016D-01 9.821016D-01 9.819268D-01
 Alpha virt Sing. vals= 9.819268D-01 9.810711D-01 9.773982D-01 9.773982D-01 9.750215D-01 9.750215D-01 9.744455D-01 9.703833D-01 9.703833D-01 9.686080D-01
 Alpha virt Sing. vals= 9.599688D-01 9.599688D-01 9.563463D-01 9.563463D-01 9.457186D-01 9.419589D-01 9.391836D-01 9.373838D-01 9.373838D-01 9.373309D-01
 Alpha virt Sing. vals= 9.279864D-01 9.279864D-01 9.279394D-01 9.279394D-01 9.254055D-01 9.254055D-01 9.244486D-01 9.244486D-01 9.119241D-01 8.800479D-01
 Alpha virt Sing. vals= 8.546330D-01 8.546330D-01 8.500864D-01 8.500864D-01 8.490968D-01 8.490968D-01 8.327435D-01 7.957011D-01 7.957011D-01 7.222032D-01
 Alpha virt Sing. vals= 4.641448D-01
 Alpha virt NOrbO=   201 NOrbN=   292 NSVal=   189 ThrEig=  0.900000.
 TrMax= 9.981309D-01 PrMax= 9.999114D-01 Trace(Pr)= 1.890000D+02
 B after Tr=     0.000000    0.000000    0.000000
         Rot=    1.000000    0.000000    0.000000    0.000000 Ang=   0.00 deg.
 Beta  occ  Sing. vals= 9.999994D-01 9.999994D-01 9.999993D-01 9.999935D-01 9.999831D-01
 Beta  occ  NOrbO=     5 NOrbN=     5 NSVal=     5 ThrEig=  0.900000.
 TrMax= 1.000000D+00 PrMax= 1.000000D+00 Trace(Pr)= 5.000000D+00
 B after Tr=     0.000000    0.000000    0.000000
         Rot=    1.000000    0.000000    0.000000    0.000000 Ang=   0.00 deg.
 Beta  virt Sing. vals= 1.000000D+00 1.000000D+00 1.000000D+00 1.000000D+00 1.000000D+00 1.000000D+00 1.000000D+00 1.000000D+00 1.000000D+00 1.000000D+00
 Beta  virt Sing. vals= 1.000000D+00 1.000000D+00 1.000000D+00 1.000000D+00 1.000000D+00 1.000000D+00 1.000000D+00 1.000000D+00 1.000000D+00 1.000000D+00
 Beta  virt Sing. vals= 1.000000D+00 1.000000D+00 1.000000D+00 1.000000D+00 1.000000D+00 9.999999D-01 9.999999D-01 9.999999D-01 9.999999D-01 9.999999D-01
 Beta  virt Sing. vals= 9.999998D-01 9.999997D-01 9.999996D-01 9.999996D-01 9.999994D-01 9.999994D-01 9.999994D-01 9.999994D-01 9.999987D-01 9.999986D-01
 Beta  virt Sing. vals= 9.999986D-01 9.999986D-01 9.999986D-01 9.999983D-01 9.999982D-01 9.999977D-01 9.999976D-01 9.999976D-01 9.999965D-01 9.999965D-01
 Beta  virt Sing. vals= 9.999965D-01 9.999963D-01 9.999943D-01 9.999942D-01 9.999942D-01 9.999942D-01 9.999942D-01 9.999904D-01 9.999874D-01 9.999783D-01
 Beta  virt Sing. vals= 9.999776D-01 9.999776D-01 9.999740D-01 9.999740D-01 9.999740D-01 9.999740D-01 9.999740D-01 9.999499D-01 9.999499D-01 9.999415D-01
 Beta  virt Sing. vals= 9.999377D-01 9.999377D-01 9.999292D-01 9.999205D-01 9.999157D-01 9.999098D-01 9.999098D-01 9.999091D-01 9.998749D-01 9.998749D-01
 Beta  virt Sing. vals= 9.998252D-01 9.998090D-01 9.998090D-01 9.997938D-01 9.997938D-01 9.997935D-01 9.997935D-01 9.997922D-01 9.997922D-01 9.997829D-01
 Beta  virt Sing. vals= 9.997823D-01 9.997823D-01 9.997521D-01 9.996776D-01 9.996243D-01 9.995877D-01 9.995828D-01 9.995828D-01 9.995828D-01 9.995828D-01
 Beta  virt Sing. vals= 9.995823D-01 9.995495D-01 9.995495D-01 9.995052D-01 9.995052D-01 9.995026D-01 9.994885D-01 9.994885D-01 9.994858D-01 9.994858D-01
 Beta  virt Sing. vals= 9.992395D-01 9.991758D-01 9.991144D-01 9.991144D-01 9.987682D-01 9.986674D-01 9.986674D-01 9.985524D-01 9.985524D-01 9.984246D-01
 Beta  virt Sing. vals= 9.981551D-01 9.981551D-01 9.979055D-01 9.979055D-01 9.976949D-01 9.976949D-01 9.976315D-01 9.976315D-01 9.975534D-01 9.973489D-01
 Beta  virt Sing. vals= 9.973489D-01 9.963446D-01 9.963248D-01 9.962745D-01 9.962745D-01 9.959778D-01 9.959342D-01 9.959342D-01 9.959182D-01 9.959182D-01
 Beta  virt Sing. vals= 9.951961D-01 9.951957D-01 9.951957D-01 9.951516D-01 9.948129D-01 9.948129D-01 9.946331D-01 9.946331D-01 9.945687D-01 9.945687D-01
 Beta  virt Sing. vals= 9.945577D-01 9.940461D-01 9.940461D-01 9.920177D-01 9.900759D-01 9.897373D-01 9.878868D-01 9.878868D-01 9.848889D-01 9.848889D-01
 Beta  virt Sing. vals= 9.840191D-01 9.823190D-01 9.823190D-01 9.821016D-01 9.821016D-01 9.819268D-01 9.819268D-01 9.810711D-01 9.773982D-01 9.773982D-01
 Beta  virt Sing. vals= 9.750216D-01 9.750216D-01 9.744453D-01 9.703828D-01 9.703828D-01 9.686074D-01 9.599686D-01 9.599686D-01 9.563461D-01 9.563461D-01
 Beta  virt Sing. vals= 9.457187D-01 9.419590D-01 9.391835D-01 9.373838D-01 9.373838D-01 9.373309D-01 9.279864D-01 9.279864D-01 9.279394D-01 9.279394D-01
 Beta  virt Sing. vals= 9.254055D-01 9.254055D-01 9.244486D-01 9.244486D-01 9.119241D-01 8.800480D-01 8.546328D-01 8.546328D-01 8.500863D-01 8.500863D-01
 Beta  virt Sing. vals= 8.490968D-01 8.490968D-01 8.327431D-01 7.957011D-01 7.957011D-01 7.222027D-01 4.641448D-01
 Beta  virt NOrbO=   207 NOrbN=   298 NSVal=   195 ThrEig=  0.900000.
 TrMax= 9.993963D-01 PrMax= 9.999114D-01 Trace(Pr)= 1.950000D+02
 Leave Link  804 at Mon Feb 26 13:47:31 2018, MaxMem=  8589934592 cpu:            7773.5 elap:             486.4
 (Enter /home1/apps/gaussian/16rA.03/g16/l913.exe)
 CIDS:  MDV=  8589934592.
 IFCWin=0 IBDFC=1 NFBD=     0     0 NFCmp=     0     0 NFFFC=     0     0
 Amplitudes recovered.
 Using DD4UQ or CC4UQ for all iterations.
 Keep R2 and R3 ints in memory in symmetry-blocked form, NReq=1456566738.
 FoFCou: FMM=F IPFlag=           8 FMFlag=           0 FMFlg1=           0
         NFxFlg=           0 DoJE=F BraDBF=F KetDBF=F FulRan=T
         wScrn=  0.000000 ICntrl=       600 IOpCl=  0 I1Cent=           0 NGrid=           0
         NMat0=    1 NMatS0=  48205 NMatT0=    0 NMatD0=    1 NMtDS0=    0 NMtDT0=    0
 Petite list used in FoFCou.
 CIDS: In Core Option IDoMem=           1.
 CCSD(T)
 =======
 Iterations= 150 Convergence= 0.100D-06
 Produce multiple copies of IABC intergrals
 Iteration Nr.   1
 **********************
 DD1Dir will call FoFMem   1 times, MxPair=       176
 NAB=    55 NAA=    55 NBB=    10.
 Maximum subspace dimension=  5
 A-vector RMS=  9.4922865D-05 Max=  9.0467584D-04 conv= 1.00D-05.
 RLE energy=       -0.5990028594
 DE(Corr)= -0.59903051     E(Corr)=     -104.66835556    
 NORM(A)=   0.10554239D+01
 Iteration Nr.   2
 **********************
 DD1Dir will call FoFMem   1 times, MxPair=       176
 NAB=    55 NAA=    55 NBB=    10.
 A-vector RMS=  2.7557011D-05 Max=  5.1898434D-04 conv= 1.00D-05.
 RLE energy=       -0.5992667657
 DE(Corr)= -0.59925800     E(CORR)=     -104.66858304     Delta=-2.27D-04
 NORM(A)=   0.10555477D+01
 Iteration Nr.   3
 **********************
 DD1Dir will call FoFMem   1 times, MxPair=       176
 NAB=    55 NAA=    55 NBB=    10.
 A-vector RMS=  1.6991003D-05 Max=  2.2994651D-04 conv= 1.00D-05.
 RLE energy=       -0.5993160367
 DE(Corr)= -0.59930931     E(CORR)=     -104.66863436     Delta=-5.13D-05
 NORM(A)=   0.10555740D+01
 Iteration Nr.   4
 **********************
 DD1Dir will call FoFMem   1 times, MxPair=       176
 NAB=    55 NAA=    55 NBB=    10.
 A-vector RMS=  9.4594614D-06 Max=  1.8743816D-04 conv= 1.00D-05.
 RLE energy=       -0.5993091143
 DE(Corr)= -0.59930665     E(CORR)=     -104.66863169     Delta= 2.66D-06
 NORM(A)=   0.10555924D+01
 Iteration Nr.   5
 **********************
 DD1Dir will call FoFMem   1 times, MxPair=       176
 NAB=    55 NAA=    55 NBB=    10.
 A-vector RMS=  6.2233100D-06 Max=  1.0894755D-04 conv= 1.00D-05.
 RLE energy=       -0.5993147261
 DE(Corr)= -0.59931354     E(CORR)=     -104.66863858     Delta=-6.89D-06
 NORM(A)=   0.10556187D+01
 Iteration Nr.   6
 **********************
 DD1Dir will call FoFMem   1 times, MxPair=       176
 NAB=    55 NAA=    55 NBB=    10.
 A-vector RMS=  2.8793677D-06 Max=  3.4554715D-05 conv= 1.00D-05.
 RLE energy=       -0.5993205910
 DE(Corr)= -0.59931744     E(CORR)=     -104.66864249     Delta=-3.91D-06
 NORM(A)=   0.10556311D+01
 Iteration Nr.   7
 **********************
 DD1Dir will call FoFMem   1 times, MxPair=       176
 NAB=    55 NAA=    55 NBB=    10.
 A-vector RMS=  1.1828521D-06 Max=  1.3202016D-05 conv= 1.00D-05.
 RLE energy=       -0.5993203671
 DE(Corr)= -0.59931994     E(CORR)=     -104.66864498     Delta=-2.49D-06
 NORM(A)=   0.10556344D+01
 Iteration Nr.   8
 **********************
 DD1Dir will call FoFMem   1 times, MxPair=       176
 NAB=    55 NAA=    55 NBB=    10.
 A-vector RMS=  5.6602956D-07 Max=  6.8422213D-06 conv= 1.00D-05.
 RLE energy=       -0.5993212062
 DE(Corr)= -0.59932099     E(CORR)=     -104.66864603     Delta=-1.05D-06
 NORM(A)=   0.10556349D+01
 Iteration Nr.   9
 **********************
 DD1Dir will call FoFMem   1 times, MxPair=       176
 NAB=    55 NAA=    55 NBB=    10.
 A-vector RMS=  2.7048875D-07 Max=  3.6439243D-06 conv= 1.00D-05.
 RLE energy=       -0.5993209711
 DE(Corr)= -0.59932097     E(CORR)=     -104.66864601     Delta= 1.82D-08
 NORM(A)=   0.10556347D+01
 CI/CC converged in    9 iterations to DelEn= 1.82D-08 Conv= 1.00D-07 ErrA1= 2.70D-07 Conv= 1.00D-05
 Wavefunction amplitudes converged. E(Corr)=     -104.66864601    
 Largest amplitude= 5.11D-02
 Time for triples=    17870.76 seconds.
 T4(CCSD)= -0.16965530D-01
 T5(CCSD)=  0.69868178D-03
 CCSD(T)= -0.10468491286D+03
 Discarding MO integrals.
 Leave Link  913 at Mon Feb 26 14:10:18 2018, MaxMem=  8589934592 cpu:           21823.8 elap:            1366.3
 (Enter /home1/apps/gaussian/16rA.03/g16/l601.exe)
 Copying SCF densities to generalized density rwf, IOpCl= 0 IROHF=1.

 **********************************************************************

            Population analysis using the SCF density.

 **********************************************************************

 Orbital symmetries:
       Occupied  (SG) (PI) (PI) (SG) (SG) (DLTA) (DLTA) (PI) (PI)
                 (SG) (SG)
       Virtual   (PI) (PI) (SG) (SG) (SG) (DLTA) (DLTA) (PI) (PI)
                 (PI) (PI) (SG) (SG) (SG) (DLTA) (DLTA) (PI) (PI)
                 (PI) (PI) (SG) (PI) (PI) (SG) (SG) (PHI) (PHI)
                 (SG) (DLTA) (DLTA) (PI) (PI) (DLTA) (DLTA) (SG)
                 (PI) (PI) (SG) (PI) (PI) (SG) (SG) (DLTA) (DLTA)
                 (PI) (PI) (SG) (PI) (PI) (SG) (DLTA) (DLTA) (PI)
                 (PI) (PHI) (PHI) (DLTA) (DLTA) (?A) (?A) (SG)
                 (PHI) (PHI) (PI) (PI) (DLTA) (DLTA) (SG) (PHI)
                 (PHI) (SG) (PI) (PI) (SG) (PI) (PI) (SG) (SG)
                 (PI) (PI) (DLTA) (DLTA) (SG) (DLTA) (DLTA) (PI)
                 (PI) (PI) (PI) (SG) (DLTA) (DLTA) (PI) (PI) (SG)
                 (SG) (PHI) (PHI) (DLTA) (DLTA) (PI) (PI) (?B)
                 (?B) (?A) (?A) (?A) (?A) (PHI) (PHI) (SG) (DLTA)
                 (DLTA) (PHI) (PHI) (PI) (PI) (SG) (DLTA) (DLTA)
                 (PI) (PI) (SG) (PI) (PI) (SG) (SG) (SG) (PHI)
                 (PHI) (DLTA) (DLTA) (SG) (PI) (PI) (DLTA) (DLTA)
                 (PI) (PI) (SG) (PI) (PI) (DLTA) (DLTA) (PI) (PI)
                 (SG) (SG) (PHI) (PHI) (DLTA) (DLTA) (PI) (PI)
                 (SG) (?A) (?A) (PHI) (PHI) (DLTA) (DLTA) (PI)
                 (PI) (SG) (?B) (?B) (?A) (?A) (PHI) (PHI) (DLTA)
                 (DLTA) (PI) (PI) (SG) (PI) (PI) (SG) (DLTA) (DLTA)
                 (PI) (PI) (SG) (SG) (DLTA) (DLTA) (PI) (PI) (SG)
                 (PHI) (PHI) (DLTA) (DLTA) (PI) (PI) (SG) (SG)
                 (?A) (?A) (PHI) (PHI) (DLTA) (DLTA) (PI) (PI)
                 (SG) (PI) (PI) (SG) (SG) (?B) (?B) (?A) (?A) (PHI)
                 (PHI) (DLTA) (DLTA) (PI) (PI) (SG) (DLTA) (DLTA)
                 (PI) (PI) (SG) (SG) (PI) (PI) (SG) (DLTA) (DLTA)
                 (PI) (PI) (SG) (SG) (PI) (PI) (SG) (SG) (DLTA)
                 (DLTA) (PI) (PI) (SG) (SG) (PI) (PI) (SG) (SG)
                 (DLTA) (DLTA) (PI) (PI) (SG) (PI) (PI) (SG) (SG)
                 (PI) (PI) (SG) (DLTA) (DLTA) (PI) (PI) (SG) (SG)
                 (PI) (PI) (SG) (SG) (PI) (PI) (SG) (SG) (PI) (PI)
                 (SG) (SG) (PI) (PI) (SG) (SG) (PI) (PI) (SG) (SG)
                 (SG) (SG) (SG) (SG)
 The electronic state is 7-SG.
 Alpha  occ. eigenvalues --   -4.24604  -2.80208  -2.80208  -2.79944  -0.64923
 Alpha  occ. eigenvalues --   -0.64923  -0.64438  -0.64212  -0.64212  -0.40157
 Alpha  occ. eigenvalues --   -0.26442
 Alpha virt. eigenvalues --    0.01115   0.01115   0.02173   0.02900   0.04989
 Alpha virt. eigenvalues --    0.04989   0.05630   0.05789   0.05789   0.06196
 Alpha virt. eigenvalues --    0.06196   0.09251   0.13006   0.13969   0.18056
 Alpha virt. eigenvalues --    0.18056   0.18361   0.18361   0.18940   0.18940
 Alpha virt. eigenvalues --    0.19573   0.28016   0.28185   0.28185   0.30939
 Alpha virt. eigenvalues --    0.46150   0.46962   0.46962   0.47617   0.47617
 Alpha virt. eigenvalues --    0.50122   0.50122   0.50569   0.50569   0.52931
 Alpha virt. eigenvalues --    0.55456   0.55456   0.57344   0.59413   0.59413
 Alpha virt. eigenvalues --    0.65902   0.73510   0.79112   0.79112   0.83167
 Alpha virt. eigenvalues --    0.83167   0.93778   1.09566   1.09566   1.28170
 Alpha virt. eigenvalues --    1.33269   1.33269   1.35744   1.35744   1.41877
 Alpha virt. eigenvalues --    1.41877   1.42358   1.42358   1.43240   1.44696
 Alpha virt. eigenvalues --    1.44696   1.45519   1.45519   1.50600   1.50600
 Alpha virt. eigenvalues --    1.60362   1.60362   1.60964   1.77335   1.77335
 Alpha virt. eigenvalues --    1.77524   1.79980   1.79980   1.85330   1.92073
 Alpha virt. eigenvalues --    1.92073   1.99502   2.07881   2.12969   2.12969
 Alpha virt. eigenvalues --    2.14805   2.14805   2.55350   2.61705   2.61705
 Alpha virt. eigenvalues --    2.86651   2.86651   3.20784   3.20784   3.23328
 Alpha virt. eigenvalues --    3.23328   3.26027   3.32235   3.32235   3.34610
 Alpha virt. eigenvalues --    3.79742   3.93061   3.93061   3.98180   3.98180
 Alpha virt. eigenvalues --    4.13194   4.13194   4.25692   4.25692   4.25731
 Alpha virt. eigenvalues --    4.25731   4.27084   4.27084   4.27720   4.27720
 Alpha virt. eigenvalues --    4.29827   4.31759   4.31759   4.33532   4.33532
 Alpha virt. eigenvalues --    4.47475   4.47475   4.57451   4.59145   4.59145
 Alpha virt. eigenvalues --    4.97883   4.97883   5.09606   5.21495   5.21495
 Alpha virt. eigenvalues --    5.57115   6.30008   6.63650   6.69008   6.69008
 Alpha virt. eigenvalues --    6.79606   6.79606   6.93914   6.93914   6.93956
 Alpha virt. eigenvalues --    7.00289   7.00289   7.28094   7.28094   7.66211
 Alpha virt. eigenvalues --    8.38733   8.38733   8.60419   8.60419   9.05265
 Alpha virt. eigenvalues --    9.05265   9.18862   9.75084   9.91807   9.91807
 Alpha virt. eigenvalues --    9.96473   9.96473  10.18301  10.18301  10.45722
 Alpha virt. eigenvalues --   11.17780  11.17780  11.19407  11.19407  11.24167
 Alpha virt. eigenvalues --   11.24167  11.35597  11.35597  11.68216  11.87168
 Alpha virt. eigenvalues --   11.87168  11.87840  11.87840  11.90084  11.90084
 Alpha virt. eigenvalues --   12.00501  12.00501  12.24879  12.24879  12.35073
 Alpha virt. eigenvalues --   12.97495  12.97495  13.32022  13.62918  13.62918
 Alpha virt. eigenvalues --   13.68141  13.68141  13.90984  14.59325  24.89136
 Alpha virt. eigenvalues --   24.89136  24.92644  24.92644  25.11471  25.30458
 Alpha virt. eigenvalues --   25.30458  25.33764  25.33764  25.49171  25.49171
 Alpha virt. eigenvalues --   25.72628  26.60025  27.12767  27.12767  27.13704
 Alpha virt. eigenvalues --   27.13704  27.16634  27.16634  27.21700  27.21700
 Alpha virt. eigenvalues --   27.40246  29.00372  29.00372  29.03531  29.57426
 Alpha virt. eigenvalues --   30.62384  30.62384  30.62696  30.62696  30.63693
 Alpha virt. eigenvalues --   30.63693  30.68002  30.68002  30.77352  30.77352
 Alpha virt. eigenvalues --   30.83819  43.46768  43.46768  43.50495  43.50495
 Alpha virt. eigenvalues --   43.72394  54.72358  60.35351  60.35351  60.62196
 Alpha virt. eigenvalues --   77.52261  77.52261  77.55495  77.55495  77.74985
 Alpha virt. eigenvalues --  105.48368 121.17525 121.17525 121.41606 162.86718
 Alpha virt. eigenvalues --  164.49243 164.49243 164.51800 164.51800 164.68079
 Alpha virt. eigenvalues --  206.62133 238.71025 238.71025 238.93372 411.43135
 Alpha virt. eigenvalues --  422.92785 422.92785 422.94646 422.94646 423.06574
 Alpha virt. eigenvalues --  472.01836 472.01836 472.22529 835.34742 954.94855
 Alpha virt. eigenvalues --  954.94855 955.138401345.101781345.101781345.11368
 Alpha virt. eigenvalues -- 1345.113681345.191761733.968662011.218632011.21863
 Alpha virt. eigenvalues -- 2011.390763700.176784497.981044497.981044498.13429
 Alpha virt. eigenvalues -- 8177.49326****************************************
 Alpha virt. eigenvalues -- **************************************************
 Alpha virt. eigenvalues -- **************************************************
 Alpha virt. eigenvalues -- ********************
     Molecular Orbital Coefficients:
                           1         2         3         4         5
                           O         O         O         O         O
     Eigenvalues --    -4.24604  -2.80208  -2.80208  -2.79944  -0.64923
   1 1   Mn 1S         -0.00000   0.00000   0.00000   0.00000   0.00000
   2        2S          0.00000   0.00000   0.00000  -0.00000  -0.00000
   3        3S         -0.00000   0.00000   0.00000   0.00000   0.00000
   4        4S          0.00000   0.00000   0.00000  -0.00000  -0.00000
   5        5S         -0.00001   0.00000   0.00000   0.00000   0.00000
   6        6S          0.00003   0.00000   0.00000  -0.00000  -0.00000
   7        7S         -0.00009   0.00000   0.00000   0.00000   0.00001
   8        8S          0.00030   0.00000   0.00000  -0.00000  -0.00004
   9        9S         -0.00091   0.00000   0.00000   0.00000   0.00012
  10       10S          0.00255   0.00000   0.00000  -0.00000  -0.00035
  11       11S         -0.00665   0.00000   0.00000   0.00001   0.00091
  12       12S          0.01565   0.00000   0.00000  -0.00002  -0.00216
  13       13S         -0.03121   0.00000   0.00000   0.00004   0.00447
  14       14S          0.04236   0.00000   0.00000   0.00004  -0.00720
  15       15S          0.16263   0.00000   0.00000  -0.00125  -0.01704
  16       16S         -0.88582   0.00000   0.00000   0.00724   0.12587
  17       17S          1.09217   0.00000   0.00000  -0.00780  -0.14875
  18       18S          1.74036   0.00000   0.00000  -0.01983  -0.30582
  19       19S          0.16614   0.00000   0.00000   0.00141  -0.09148
  20       20S          0.03420   0.00000   0.00000   0.01122   0.20370
  21       21S          0.01383   0.00000   0.00000  -0.00109   0.15098
  22       22S          0.01286   0.00000   0.00000   0.00219   0.00232
  23       23S         -0.00792   0.00000   0.00000  -0.00271  -0.01028
  24       24S         -1.44409   0.00000   0.00000   0.01855   0.22233
  25       25S         -0.00104   0.00000   0.00000  -0.00045  -0.00966
  26       26PX         0.00000   0.00000   0.00000   0.00000   0.00000
  27       26PY         0.00000   0.00000   0.00000   0.00000   0.00000
  28       26PZ         0.00000   0.00000   0.00000   0.00000   0.00000
  29       27PX         0.00000  -0.00000   0.00000   0.00000   0.00000
  30       27PY         0.00000   0.00000  -0.00000   0.00000   0.00000
  31       27PZ        -0.00000   0.00000   0.00000  -0.00000  -0.00000
  32       28PX         0.00000   0.00002   0.00000   0.00000   0.00000
  33       28PY         0.00000   0.00000   0.00002   0.00000   0.00000
  34       28PZ         0.00000   0.00000   0.00000   0.00002   0.00000
  35       29PX         0.00000  -0.00009   0.00000   0.00000   0.00000
  36       29PY         0.00000   0.00000  -0.00009   0.00000   0.00000
  37       29PZ        -0.00000   0.00000   0.00000  -0.00009  -0.00001
  38       30PX         0.00000   0.00033   0.00000   0.00000   0.00000
  39       30PY         0.00000   0.00000   0.00033   0.00000   0.00000
  40       30PZ         0.00001   0.00000   0.00000   0.00033   0.00003
  41       31PX         0.00000  -0.00110   0.00000   0.00000   0.00000
  42       31PY         0.00000   0.00000  -0.00110   0.00000   0.00000
  43       31PZ        -0.00004   0.00000   0.00000  -0.00109  -0.00011
  44       32PX         0.00000   0.00329   0.00000   0.00000   0.00000
  45       32PY         0.00000   0.00000   0.00329   0.00000   0.00000
  46       32PZ         0.00010   0.00000   0.00000   0.00328   0.00035
  47       33PX         0.00000  -0.00894   0.00000   0.00000   0.00000
  48       33PY         0.00000   0.00000  -0.00894   0.00000   0.00000
  49       33PZ        -0.00028   0.00000   0.00000  -0.00892  -0.00096
  50       34PX         0.00000   0.02043   0.00000   0.00000   0.00000
  51       34PY         0.00000   0.00000   0.02043   0.00000   0.00000
  52       34PZ         0.00069   0.00000   0.00000   0.02039   0.00226
  53       35PX         0.00000  -0.01627   0.00000   0.00000   0.00000
  54       35PY         0.00000   0.00000  -0.01627   0.00000   0.00000
  55       35PZ        -0.00157   0.00000   0.00000  -0.01613  -0.00206
  56       36PX         0.00000  -0.05428   0.00000   0.00000   0.00000
  57       36PY         0.00000   0.00000  -0.05428   0.00000   0.00000
  58       36PZ        -0.01118   0.00000   0.00000  -0.05420  -0.00391
  59       37PX         0.00000   0.24168   0.00000   0.00000   0.00000
  60       37PY         0.00000   0.00000   0.24168   0.00000   0.00000
  61       37PZ        -0.00239   0.00000   0.00000   0.24312   0.02957
  62       38PX         0.00000   0.19115   0.00000   0.00000   0.00000
  63       38PY         0.00000   0.00000   0.19115   0.00000   0.00000
  64       38PZ         0.01000   0.00000   0.00000   0.19111   0.02129
  65       39PX         0.00000   0.40046   0.00000   0.00000   0.00000
  66       39PY         0.00000   0.00000   0.40046   0.00000   0.00000
  67       39PZ        -0.00968   0.00000   0.00000   0.40237   0.05905
  68       40PX         0.00000   0.14857   0.00000   0.00000   0.00000
  69       40PY         0.00000   0.00000   0.14857   0.00000   0.00000
  70       40PZ         0.01644   0.00000   0.00000   0.14312   0.01255
  71       41PX         0.00000   0.01787   0.00000   0.00000   0.00000
  72       41PY         0.00000   0.00000   0.01787   0.00000   0.00000
  73       41PZ        -0.00634   0.00000   0.00000   0.01255  -0.09614
  74       42PX         0.00000  -0.00350   0.00000   0.00000   0.00000
  75       42PY         0.00000   0.00000  -0.00350   0.00000   0.00000
  76       42PZ        -0.02994   0.00000   0.00000  -0.00221  -0.09238
  77       43PX         0.00000   0.00174   0.00000   0.00000   0.00000
  78       43PY         0.00000   0.00000   0.00174   0.00000   0.00000
  79       43PZ        -0.00004   0.00000   0.00000   0.00157  -0.01447
  80       44PX         0.00000  -0.06389   0.00000   0.00000   0.00000
  81       44PY         0.00000   0.00000  -0.06389   0.00000   0.00000
  82       44PZ         0.01277   0.00000   0.00000  -0.06451  -0.00872
  83       45PX         0.00000   0.19116   0.00000   0.00000   0.00000
  84       45PY         0.00000   0.00000   0.19116   0.00000   0.00000
  85       45PZ        -0.00253   0.00000   0.00000   0.19146   0.02324
  86       46PX         0.00000  -0.00054   0.00000   0.00000   0.00000
  87       46PY         0.00000   0.00000  -0.00054   0.00000   0.00000
  88       46PZ        -0.00154   0.00000   0.00000  -0.00040   0.00448
  89       47D 0        0.00000   0.00000   0.00000  -0.00000  -0.00001
  90       47D+1        0.00000  -0.00000   0.00000   0.00000   0.00000
  91       47D-1        0.00000   0.00000  -0.00000   0.00000   0.00000
  92       47D+2       -0.00000   0.00000   0.00000   0.00000   0.00000
  93       47D-2        0.00000   0.00000   0.00000   0.00000   0.00000
  94       48D 0       -0.00001   0.00000   0.00000   0.00001   0.00010
  95       48D+1        0.00000   0.00000   0.00000   0.00000   0.00000
  96       48D-1        0.00000   0.00000   0.00000   0.00000   0.00000
  97       48D+2        0.00000   0.00000   0.00000  -0.00000  -0.00000
  98       48D-2        0.00000   0.00000   0.00000   0.00000   0.00000
  99       49D 0        0.00005   0.00000   0.00000  -0.00004  -0.00070
 100       49D+1        0.00000  -0.00001   0.00000   0.00000   0.00000
 101       49D-1        0.00000   0.00000  -0.00001   0.00000   0.00000
 102       49D+2       -0.00000   0.00000   0.00000   0.00000   0.00000
 103       49D-2        0.00000   0.00000   0.00000   0.00000   0.00000
 104       50D 0       -0.00026   0.00000   0.00000   0.00025   0.00442
 105       50D+1        0.00000   0.00005   0.00000   0.00000   0.00000
 106       50D-1        0.00000   0.00000   0.00005   0.00000   0.00000
 107       50D+2        0.00000   0.00000   0.00000  -0.00000  -0.00000
 108       50D-2        0.00000   0.00000   0.00000   0.00000   0.00000
 109       51D 0        0.00095   0.00000   0.00000   0.00137   0.02654
 110       51D+1        0.00000   0.00037   0.00000   0.00000   0.00000
 111       51D-1        0.00000   0.00000   0.00037   0.00000   0.00000
 112       51D+2       -0.00000   0.00000   0.00000   0.00000  -0.00000
 113       51D-2        0.00000   0.00000   0.00000   0.00000   0.00000
 114       52D 0        0.01073   0.00000   0.00000   0.00316   0.06059
 115       52D+1        0.00000   0.00111   0.00000   0.00000   0.00000
 116       52D-1        0.00000   0.00000   0.00111   0.00000   0.00000
 117       52D+2       -0.00000   0.00000   0.00000   0.00000  -0.00000
 118       52D-2        0.00000   0.00000   0.00000   0.00000   0.00000
 119       53D 0        0.00498   0.00000   0.00000   0.00259   0.04003
 120       53D+1        0.00000   0.00064   0.00000   0.00000   0.00000
 121       53D-1        0.00000   0.00000   0.00064   0.00000   0.00000
 122       53D+2       -0.00000   0.00000   0.00000   0.00000  -0.00000
 123       53D-2        0.00000   0.00000   0.00000   0.00000   0.00000
 124       54D 0       -0.00509   0.00000   0.00000   0.00139   0.03324
 125       54D+1        0.00000   0.00043   0.00000   0.00000   0.00000
 126       54D-1        0.00000   0.00000   0.00043   0.00000   0.00000
 127       54D+2        0.00000   0.00000   0.00000   0.00000   0.00000
 128       54D-2        0.00000   0.00000   0.00000   0.00000   0.00000
 129       55D 0       -0.00334   0.00000   0.00000   0.00510   0.04211
 130       55D+1        0.00000   0.00072   0.00000   0.00000   0.00000
 131       55D-1        0.00000   0.00000   0.00072   0.00000   0.00000
 132       55D+2        0.00000   0.00000   0.00000   0.00000  -0.00000
 133       55D-2        0.00000   0.00000   0.00000   0.00000   0.00000
 134       56D 0        0.01669   0.00000   0.00000   0.00037   0.03373
 135       56D+1        0.00000  -0.00007   0.00000   0.00000   0.00000
 136       56D-1        0.00000   0.00000  -0.00007   0.00000   0.00000
 137       56D+2        0.00000   0.00000   0.00000   0.00000  -0.00000
 138       56D-2        0.00000   0.00000   0.00000   0.00000   0.00000
 139       57D 0        0.00431   0.00000   0.00000   0.00011   0.00917
 140       57D+1        0.00000   0.00004   0.00000   0.00000   0.00000
 141       57D-1        0.00000   0.00000   0.00004   0.00000   0.00000
 142       57D+2       -0.00000   0.00000   0.00000  -0.00000   0.00000
 143       57D-2        0.00000   0.00000   0.00000   0.00000   0.00000
 144       58D 0       -0.00519   0.00000   0.00000  -0.00129  -0.02778
 145       58D+1        0.00000  -0.00048   0.00000   0.00000   0.00000
 146       58D-1        0.00000   0.00000  -0.00048   0.00000   0.00000
 147       58D+2        0.00000   0.00000   0.00000  -0.00000   0.00000
 148       58D-2        0.00000   0.00000   0.00000   0.00000   0.00000
 149       59D 0       -0.01163   0.00000   0.00000  -0.00133  -0.02350
 150       59D+1        0.00000  -0.00056   0.00000   0.00000   0.00000
 151       59D-1        0.00000   0.00000  -0.00056   0.00000   0.00000
 152       59D+2        0.00000   0.00000   0.00000  -0.00000   0.00000
 153       59D-2        0.00000   0.00000   0.00000   0.00000   0.00000
 154       60D 0        0.00009   0.00000   0.00000  -0.00009  -0.00154
 155       60D+1        0.00000  -0.00001   0.00000   0.00000   0.00000
 156       60D-1        0.00000   0.00000  -0.00001   0.00000   0.00000
 157       60D+2        0.00000   0.00000   0.00000   0.00000  -0.00000
 158       60D-2        0.00000   0.00000   0.00000   0.00000   0.00000
 159       61F 0        0.00009   0.00000   0.00000  -0.00007  -0.00016
 160       61F+1        0.00000  -0.00007   0.00000   0.00000   0.00000
 161       61F-1        0.00000   0.00000  -0.00007   0.00000   0.00000
 162       61F+2       -0.00000   0.00000   0.00000   0.00000   0.00000
 163       61F-2        0.00000   0.00000   0.00000   0.00000   0.00000
 164       61F+3        0.00000   0.00000   0.00000   0.00000   0.00000
 165       61F-3        0.00000   0.00000  -0.00000   0.00000   0.00000
 166       62F 0       -0.00032   0.00000   0.00000  -0.00020  -0.00030
 167       62F+1        0.00000  -0.00010   0.00000   0.00000   0.00000
 168       62F-1        0.00000   0.00000  -0.00010   0.00000   0.00000
 169       62F+2       -0.00000   0.00000   0.00000   0.00000  -0.00000
 170       62F-2        0.00000   0.00000   0.00000   0.00000   0.00000
 171       62F+3        0.00000   0.00000   0.00000   0.00000   0.00000
 172       62F-3        0.00000   0.00000   0.00000   0.00000   0.00000
 173       63F 0        0.00091   0.00000   0.00000  -0.00104  -0.00200
 174       63F+1        0.00000  -0.00103   0.00000   0.00000   0.00000
 175       63F-1        0.00000   0.00000  -0.00103   0.00000   0.00000
 176       63F+2       -0.00000   0.00000   0.00000  -0.00000   0.00000
 177       63F-2        0.00000   0.00000   0.00000   0.00000   0.00000
 178       63F+3        0.00000  -0.00000   0.00000   0.00000   0.00000
 179       63F-3        0.00000   0.00000  -0.00000   0.00000   0.00000
 180       64F 0       -0.00046   0.00000   0.00000  -0.00217  -0.00884
 181       64F+1        0.00000  -0.00086   0.00000   0.00000   0.00000
 182       64F-1        0.00000   0.00000  -0.00086   0.00000   0.00000
 183       64F+2        0.00000   0.00000   0.00000   0.00000  -0.00000
 184       64F-2        0.00000   0.00000   0.00000   0.00000   0.00000
 185       64F+3        0.00000   0.00000   0.00000   0.00000   0.00000
 186       64F-3        0.00000   0.00000  -0.00000   0.00000   0.00000
 187       65F 0       -0.00678   0.00000   0.00000   0.00036  -0.00571
 188       65F+1        0.00000   0.00027   0.00000   0.00000   0.00000
 189       65F-1        0.00000   0.00000   0.00027   0.00000   0.00000
 190       65F+2        0.00000   0.00000   0.00000  -0.00000   0.00000
 191       65F-2        0.00000   0.00000   0.00000   0.00000   0.00000
 192       65F+3        0.00000  -0.00000   0.00000   0.00000   0.00000
 193       65F-3        0.00000   0.00000   0.00000   0.00000   0.00000
 194       66G 0       -0.00006   0.00000   0.00000   0.00001   0.00003
 195       66G+1        0.00000  -0.00000   0.00000   0.00000   0.00000
 196       66G-1        0.00000   0.00000  -0.00000   0.00000   0.00000
 197       66G+2        0.00000   0.00000   0.00000  -0.00000  -0.00000
 198       66G-2        0.00000   0.00000   0.00000   0.00000   0.00000
 199       66G+3        0.00000   0.00000   0.00000   0.00000   0.00000
 200       66G-3        0.00000   0.00000   0.00000   0.00000   0.00000
 201       66G+4        0.00000   0.00000   0.00000   0.00000   0.00000
 202       66G-4        0.00000   0.00000   0.00000   0.00000   0.00000
 203       67G 0        0.00020   0.00000   0.00000  -0.00003  -0.00006
 204       67G+1        0.00000   0.00002   0.00000   0.00000   0.00000
 205       67G-1        0.00000   0.00000   0.00002   0.00000   0.00000
 206       67G+2        0.00000   0.00000   0.00000   0.00000   0.00000
 207       67G-2        0.00000   0.00000   0.00000   0.00000   0.00000
 208       67G+3        0.00000   0.00000   0.00000   0.00000   0.00000
 209       67G-3        0.00000   0.00000   0.00000   0.00000   0.00000
[...]
  95       48D+1        0.00004   0.00004   0.00000   0.00004
  96       48D-1        0.00004   0.00004   0.00000   0.00004
  97       48D+2        0.00003   0.00003   0.00000   0.00003
  98       48D-2        0.00003   0.00003   0.00000   0.00003
  99       49D 0       -0.00093  -0.00092  -0.00001  -0.00091
 100       49D+1       -0.00093  -0.00093  -0.00000  -0.00093
 101       49D-1       -0.00093  -0.00093  -0.00000  -0.00093
 102       49D+2       -0.00093  -0.00093   0.00000  -0.00093
 103       49D-2       -0.00093  -0.00093   0.00000  -0.00093
 104       50D 0        0.01431   0.01416   0.00015   0.01400
 105       50D+1        0.01436   0.01436   0.00000   0.01436
 106       50D-1        0.01436   0.01436   0.00000   0.01436
 107       50D+2        0.01429   0.01429   0.00000   0.01429
 108       50D-2        0.01429   0.01429   0.00000   0.01429
 109       51D 0        0.14769   0.14605   0.00164   0.14442
 110       51D+1        0.14765   0.14765   0.00000   0.14765
 111       51D-1        0.14765   0.14765   0.00000   0.14765
 112       51D+2        0.14690   0.14690   0.00000   0.14690
 113       51D-2        0.14690   0.14690  -0.00000   0.14690
 114       52D 0        0.47057   0.46505   0.00552   0.45953
 115       52D+1        0.46754   0.46754   0.00000   0.46754
 116       52D-1        0.46754   0.46754   0.00000   0.46754
 117       52D+2        0.46460   0.46460   0.00000   0.46460
 118       52D-2        0.46460   0.46460   0.00000   0.46460
 119       53D 0        0.35921   0.35420   0.00501   0.34919
 120       53D+1        0.35660   0.35660   0.00000   0.35660
 121       53D-1        0.35660   0.35660   0.00000   0.35660
 122       53D+2        0.35503   0.35503   0.00000   0.35503
 123       53D-2        0.35503   0.35503   0.00000   0.35503
 124       54D 0        0.24817   0.24207   0.00610   0.23597
 125       54D+1        0.24688   0.24688   0.00000   0.24688
 126       54D-1        0.24688   0.24688   0.00000   0.24688
 127       54D+2        0.24999   0.24999  -0.00000   0.24999
 128       54D-2        0.24999   0.24999  -0.00000   0.24999
 129       55D 0        0.14713   0.13434   0.01280   0.12154
 130       55D+1        0.12867   0.12866   0.00000   0.12866
 131       55D-1        0.12867   0.12866   0.00000   0.12866
 132       55D+2        0.12999   0.12999   0.00000   0.12999
 133       55D-2        0.12999   0.12999  -0.00000   0.12999
 134       56D 0        0.04135   0.02790   0.01345   0.01446
 135       56D+1        0.01995   0.01995  -0.00000   0.01995
 136       56D-1        0.01995   0.01995  -0.00000   0.01995
 137       56D+2        0.01833   0.01833  -0.00000   0.01833
 138       56D-2        0.01833   0.01833   0.00000   0.01833
 139       57D 0        0.00494   0.00230   0.00264  -0.00034
 140       57D+1        0.00063   0.00063   0.00000   0.00063
 141       57D-1        0.00063   0.00063   0.00000   0.00063
 142       57D+2        0.00040   0.00040  -0.00000   0.00040
 143       57D-2        0.00040   0.00040  -0.00000   0.00040
 144       58D 0       -0.18452  -0.18239  -0.00213  -0.18027
 145       58D+1       -0.18330  -0.18329  -0.00000  -0.18329
 146       58D-1       -0.18330  -0.18329  -0.00000  -0.18329
 147       58D+2       -0.18215  -0.18215  -0.00000  -0.18215
 148       58D-2       -0.18215  -0.18215  -0.00000  -0.18215
 149       59D 0       -0.20223  -0.19981  -0.00242  -0.19740
 150       59D+1       -0.19849  -0.19849  -0.00000  -0.19849
 151       59D-1       -0.19849  -0.19849  -0.00000  -0.19849
 152       59D+2       -0.19649  -0.19649  -0.00000  -0.19649
 153       59D-2       -0.19649  -0.19649  -0.00000  -0.19649
 154       60D 0       -0.00035  -0.00016  -0.00018   0.00002
 155       60D+1       -0.00002  -0.00002  -0.00000  -0.00002
 156       60D-1       -0.00002  -0.00002  -0.00000  -0.00002
 157       60D+2       -0.00001  -0.00001   0.00000  -0.00001
 158       60D-2       -0.00001  -0.00001   0.00000  -0.00001
 159       61F 0        0.00000   0.00000   0.00000   0.00000
 160       61F+1        0.00000   0.00000   0.00000   0.00000
 161       61F-1        0.00000   0.00000   0.00000   0.00000
 162       61F+2        0.00000   0.00000  -0.00000   0.00000
 163       61F-2        0.00000   0.00000  -0.00000   0.00000
 164       61F+3        0.00000   0.00000   0.00000  -0.00000
 165       61F-3        0.00000   0.00000  -0.00000   0.00000
 166       62F 0        0.00000   0.00000   0.00000   0.00000
 167       62F+1        0.00000   0.00000   0.00000   0.00000
 168       62F-1        0.00000   0.00000   0.00000   0.00000
 169       62F+2        0.00000   0.00000   0.00000   0.00000
 170       62F-2        0.00000   0.00000   0.00000   0.00000
 171       62F+3        0.00000   0.00000   0.00000  -0.00000
 172       62F-3       -0.00000  -0.00000  -0.00000  -0.00000
 173       63F 0        0.00012   0.00007   0.00005   0.00001
 174       63F+1        0.00001   0.00000   0.00000   0.00000
 175       63F-1        0.00001   0.00000   0.00000   0.00000
 176       63F+2        0.00000   0.00000  -0.00000   0.00000
 177       63F-2        0.00000   0.00000  -0.00000   0.00000
 178       63F+3       -0.00000   0.00000  -0.00000   0.00000
 179       63F-3        0.00000   0.00000   0.00000   0.00000
 180       64F 0        0.00280   0.00153   0.00126   0.00027
 181       64F+1        0.00002   0.00001   0.00000   0.00001
 182       64F-1        0.00002   0.00001   0.00000   0.00001
 183       64F+2        0.00001   0.00001  -0.00000   0.00001
 184       64F-2        0.00001   0.00001  -0.00000   0.00001
 185       64F+3       -0.00000  -0.00000   0.00000  -0.00000
 186       64F-3        0.00000   0.00000   0.00000   0.00000
 187       65F 0        0.00314   0.00183   0.00131   0.00052
 188       65F+1        0.00000   0.00000  -0.00000   0.00000
 189       65F-1        0.00000   0.00000  -0.00000   0.00000
 190       65F+2        0.00001   0.00001   0.00000   0.00001
 191       65F-2        0.00001   0.00001   0.00000   0.00001
 192       65F+3        0.00000   0.00000   0.00000   0.00000
 193       65F-3       -0.00000  -0.00000   0.00000  -0.00000
 194       66G 0        0.00000   0.00000   0.00000   0.00000
 195       66G+1        0.00000   0.00000  -0.00000   0.00000
 196       66G-1        0.00000   0.00000  -0.00000   0.00000
 197       66G+2        0.00000   0.00000   0.00000   0.00000
 198       66G-2        0.00000   0.00000   0.00000   0.00000
 199       66G+3        0.00000   0.00000   0.00000   0.00000
 200       66G-3        0.00000   0.00000   0.00000   0.00000
 201       66G+4        0.00000   0.00000   0.00000   0.00000
 202       66G-4        0.00000   0.00000   0.00000   0.00000
 203       67G 0        0.00000   0.00000  -0.00000   0.00000
 204       67G+1        0.00000   0.00000   0.00000   0.00000
 205       67G-1        0.00000   0.00000   0.00000   0.00000
 206       67G+2        0.00000   0.00000  -0.00000   0.00000
 207       67G-2        0.00000   0.00000  -0.00000   0.00000
 208       67G+3       -0.00000  -0.00000  -0.00000  -0.00000
 209       67G-3        0.00000   0.00000  -0.00000   0.00000
 210       67G+4        0.00000   0.00000   0.00000   0.00000
 211       67G-4        0.00000   0.00000   0.00000   0.00000
 212       68G 0        0.00007   0.00004   0.00003   0.00001
 213       68G+1        0.00000   0.00000   0.00000   0.00000
 214       68G-1        0.00000   0.00000   0.00000   0.00000
 215       68G+2        0.00000   0.00000   0.00000   0.00000
 216       68G-2        0.00000   0.00000   0.00000   0.00000
 217       68G+3       -0.00000  -0.00000   0.00000  -0.00000
 218       68G-3       -0.00000  -0.00000   0.00000  -0.00000
 219       68G+4       -0.00000  -0.00000   0.00000  -0.00000
 220       68G-4        0.00000   0.00000   0.00000   0.00000
 221       69G 0        0.00047   0.00027   0.00020   0.00007
 222       69G+1        0.00000   0.00000  -0.00000   0.00000
 223       69G-1        0.00000   0.00000  -0.00000   0.00000
 224       69G+2        0.00000   0.00000   0.00000   0.00000
 225       69G-2        0.00000   0.00000   0.00000   0.00000
 226       69G+3       -0.00000  -0.00000   0.00000  -0.00000
 227       69G-3       -0.00000  -0.00000  -0.00000  -0.00000
 228       69G+4        0.00000   0.00000   0.00000   0.00000
 229       69G-4       -0.00000  -0.00000  -0.00000  -0.00000
 230       70H 0        0.00000   0.00000   0.00000  -0.00000
 231       70H+1        0.00000   0.00000   0.00000   0.00000
 232       70H-1        0.00000   0.00000   0.00000   0.00000
 233       70H+2       -0.00000  -0.00000   0.00000  -0.00000
 234       70H-2       -0.00000  -0.00000   0.00000  -0.00000
 235       70H+3        0.00000   0.00000   0.00000   0.00000
 236       70H-3       -0.00000  -0.00000   0.00000  -0.00000
 237       70H+4       -0.00000  -0.00000  -0.00000  -0.00000
 238       70H-4        0.00000   0.00000  -0.00000   0.00000
 239       70H+5        0.00000   0.00000   0.00000  -0.00000
 240       70H-5        0.00000   0.00000   0.00000  -0.00000
 241       71H 0        0.00000   0.00000   0.00000  -0.00000
 242       71H+1        0.00000   0.00000  -0.00000   0.00000
 243       71H-1        0.00000   0.00000  -0.00000   0.00000
 244       71H+2        0.00000   0.00000  -0.00000   0.00000
 245       71H-2        0.00000   0.00000  -0.00000   0.00000
 246       71H+3       -0.00000  -0.00000   0.00000  -0.00000
 247       71H-3       -0.00000  -0.00000   0.00000  -0.00000
 248       71H+4        0.00000   0.00000   0.00000   0.00000
 249       71H-4        0.00000   0.00000   0.00000   0.00000
 250       71H+5        0.00000   0.00000   0.00000  -0.00000
 251       71H-5        0.00000   0.00000   0.00000   0.00000
 252       72H 0        0.00003   0.00001   0.00001   0.00000
 253       72H+1        0.00000   0.00000  -0.00000   0.00000
 254       72H-1        0.00000   0.00000  -0.00000   0.00000
 255       72H+2        0.00000   0.00000   0.00000   0.00000
 256       72H-2        0.00000   0.00000   0.00000   0.00000
 257       72H+3        0.00000   0.00000   0.00000   0.00000
 258       72H-3        0.00000   0.00000  -0.00000   0.00000
 259       72H+4       -0.00000  -0.00000  -0.00000   0.00000
 260       72H-4       -0.00000  -0.00000  -0.00000  -0.00000
 261       72H+5       -0.00000  -0.00000  -0.00000  -0.00000
 262       72H-5       -0.00000  -0.00000  -0.00000   0.00000
 263 2   H  1S          0.00004   0.00002   0.00002   0.00000
 264        2S          0.00483   0.00252   0.00231   0.00021
 265        3S          0.04913   0.02563   0.02350   0.00213
 266        4S          0.25366   0.13195   0.12171   0.01024
 267        5S          0.58367   0.30142   0.28224   0.01918
 268        6S          0.43033   0.21843   0.21190   0.00653
 269        7S          0.03652   0.01775   0.01877  -0.00103
 270        8PX         0.00001   0.00001   0.00000   0.00001
 271        8PY         0.00001   0.00001   0.00000   0.00001
 272        8PZ         0.00013   0.00007   0.00005   0.00002
 273        9PX         0.00012   0.00012   0.00000   0.00012
 274        9PY         0.00012   0.00012   0.00000   0.00012
 275        9PZ         0.00164   0.00091   0.00073   0.00019
 276       10PX         0.00029   0.00028   0.00001   0.00026
 277       10PY         0.00029   0.00028   0.00001   0.00026
 278       10PZ         0.00779   0.00409   0.00369   0.00040
 279       11PX        -0.00003  -0.00003  -0.00000  -0.00003
 280       11PY        -0.00003  -0.00003  -0.00000  -0.00003
 281       11PZ         0.00720   0.00749  -0.00029   0.00778
 282       12D 0        0.00001   0.00001   0.00000   0.00001
 283       12D+1        0.00000   0.00000  -0.00000   0.00000
 284       12D-1        0.00000   0.00000  -0.00000   0.00000
 285       12D+2        0.00000   0.00000  -0.00000   0.00000
 286       12D-2        0.00000   0.00000  -0.00000   0.00000
 287       13D 0        0.00075   0.00041   0.00034   0.00007
 288       13D+1        0.00008   0.00007   0.00001   0.00006
 289       13D-1        0.00008   0.00007   0.00001   0.00006
 290       13D+2        0.00001   0.00001   0.00000   0.00001
 291       13D-2        0.00001   0.00001   0.00000   0.00001
 292       14D 0        0.00559   0.00294   0.00265   0.00029
 293       14D+1       -0.00023  -0.00024   0.00001  -0.00025
 294       14D-1       -0.00023  -0.00024   0.00001  -0.00025
 295       14D+2        0.00001   0.00001  -0.00000   0.00001
 296       14D-2        0.00001   0.00001  -0.00000   0.00001
 297       15F 0        0.00004   0.00003   0.00001   0.00002
 298       15F+1        0.00001   0.00001   0.00000   0.00001
 299       15F-1        0.00001   0.00001   0.00000   0.00001
 300       15F+2        0.00000   0.00000  -0.00000   0.00000
 301       15F-2        0.00000   0.00000  -0.00000   0.00000
 302       15F+3       -0.00000  -0.00000   0.00000  -0.00000
 303       15F-3        0.00000   0.00000   0.00000   0.00000
 304       16F 0        0.00261   0.00130   0.00131  -0.00000
 305       16F+1       -0.00008  -0.00012   0.00004  -0.00016
 306       16F-1       -0.00008  -0.00012   0.00004  -0.00016
 307       16F+2       -0.00002  -0.00002   0.00000  -0.00002
 308       16F-2       -0.00002  -0.00002  -0.00000  -0.00002
 309       16F+3        0.00000   0.00000  -0.00000   0.00000
 310       16F-3        0.00000   0.00000   0.00000   0.00000
          Condensed to atoms (all electrons):
               1          2
     1  Mn  14.268880   0.346880
     2  H    0.346880   1.037361
          Atomic-Atomic Spin Densities.
               1          2
     1  Mn   5.957505  -0.003560
     2  H   -0.003560   0.049615
 Mulliken charges and spin densities:
               1          2
     1  Mn   0.384241   5.953945
     2  H   -0.384241   0.046055
 Sum of Mulliken charges =  -0.00000   6.00000
 Mulliken charges and spin densities with hydrogens summed into heavy atoms:
               1          2
     1  Mn  -0.000000   6.000000
 Electronic spatial extent (au):  <R**2>=             55.1640
 Charge=             -0.0000 electrons
 Dipole moment (field-independent basis, Debye):
    X=              0.0000    Y=              0.0000    Z=              1.6531  Tot=              1.6531
 Quadrupole moment (field-independent basis, Debye-Ang):
   XX=            -16.2885   YY=            -16.2885   ZZ=            -26.8868
   XY=              0.0000   XZ=              0.0000   YZ=              0.0000
 Traceless Quadrupole moment (field-independent basis, Debye-Ang):
   XX=              3.5327   YY=              3.5327   ZZ=             -7.0655
   XY=              0.0000   XZ=              0.0000   YZ=              0.0000
 Octapole moment (field-independent basis, Debye-Ang**2):
  XXX=              0.0000  YYY=              0.0000  ZZZ=              9.0489  XYY=              0.0000
  XXY=              0.0000  XXZ=              0.5134  XZZ=              0.0000  YZZ=              0.0000
  YYZ=              0.5134  XYZ=              0.0000
 Hexadecapole moment (field-independent basis, Debye-Ang**3):
 XXXX=            -27.4711 YYYY=            -27.4711 ZZZZ=           -108.5479 XXXY=              0.0000
 XXXZ=              0.0000 YYYX=              0.0000 YYYZ=              0.0000 ZZZX=              0.0000
 ZZZY=              0.0000 XXYY=             -9.1570 XXZZ=            -20.9513 YYZZ=            -20.9513
 XXYZ=              0.0000 YYXZ=              0.0000 ZZXY=              0.0000
 N-N= 4.409810091000D+00 E-N=-2.462208755496D+02  KE= 5.679547727920D+01
 Symmetry A1   KE= 2.450606387754D+01
 Symmetry A2   KE= 6.198379690231D+00
 Symmetry B1   KE= 1.304551685551D+01
 Symmetry B2   KE= 1.304551685583D+01
 Symmetry A1   SP= 3.000000000000D+00
 Symmetry A2   SP= 1.000000000000D+00
 Symmetry B1   SP= 1.000000000000D+00
 Symmetry B2   SP= 1.000000000000D+00
 Orbital energies and kinetic energies (alpha):
                                 1                 2
   1         O                -4.246040          1.979321
   2         O                -2.802077          3.415076
   3         O                -2.802077          3.415076
   4         O                -2.799435          3.422445
   5         O                -0.649233          0.511354
   6         O                -0.649233          6.198380
   7         O                -0.644383          6.198380
   8         O                -0.642121          6.215365
   9         O                -0.642121          6.215365
  10         O                -0.401574          5.006294
  11         O                -0.264423          1.475149
  12         V                 0.011152          0.061013
  13         V                 0.011152          0.061013
  14         V                 0.021727          0.031693
  15         V                 0.028996          0.038914
  16         V                 0.049886          0.069082
 Total kinetic energy from orbitals= 8.810440937274D+01
                          Isotropic Fermi Contact Couplings
        Atom                 a.u.       MegaHertz       Gauss      10(-4) cm-1
     1  Mn(55)             0.00115       0.21267       0.07589       0.07094
     2  H(1)               0.01421      10.58728       3.77781       3.53154
 --------------------------------------------------------
       Center         ----  Spin Dipole Couplings  ----
                      3XX-RR        3YY-RR        3ZZ-RR
 --------------------------------------------------------
     1   Atom       -0.120324     -0.120324      0.240648
     2   Atom       -0.121826     -0.121826      0.243651
 --------------------------------------------------------
                        XY            XZ            YZ
 --------------------------------------------------------
     1   Atom        0.000000      0.000000      0.000000
     2   Atom        0.000000      0.000000      0.000000
 --------------------------------------------------------


 ---------------------------------------------------------------------------------
              Anisotropic Spin Dipole Couplings in Principal Axis System
 ---------------------------------------------------------------------------------

       Atom             a.u.   MegaHertz   Gauss  10(-4) cm-1        Axes

              Baa    -0.1203   -15.876    -5.665    -5.296 -0.0000  1.0000  0.0000
     1 Mn(55) Bbb    -0.1203   -15.876    -5.665    -5.296  1.0000  0.0000  0.0000
              Bcc     0.2406    31.752    11.330    10.591  0.0000  0.0000  1.0000
 
              Baa    -0.1218   -65.000   -23.194   -21.682  1.0000  0.0000  0.0000
     2 H(1)   Bbb    -0.1218   -65.000   -23.194   -21.682 -0.0000  1.0000  0.0000
              Bcc     0.2437   130.001    46.387    43.364  0.0000  0.0000  1.0000
 

 ---------------------------------------------------------------------------------

 No NMR shielding tensors so no spin-rotation constants.
 Leave Link  601 at Mon Feb 26 14:10:24 2018, MaxMem=  8589934592 cpu:              86.7 elap:               5.6
 (Enter /home1/apps/gaussian/16rA.03/g16/l9999.exe)
 1\1\GINC-C407-032\SP\ROCCSD(T)-Full\Gen\H1Mn1(7)\AANNABE\26-Feb-2018\0
 \\#P ROCCSD(T)=(maxcyc=150, Full, SaveAmplitudes, ReadAmplitudes)/Gen 
 5d 7f SCF=(maxcycles=300) Integral(NoXCTest) MaxDisk=500GB Pop=Regular
  Pseudo=Read Guess=Read\\MnH\\0,7\Mn,0,0.,0.,0.\H,0,0.,0.,1.8\\Version
 =ES64L-G16RevA.03\State=7-SG\HF=-104.069325\MP2=-104.6630622\PUHF=-104
 .069325\PMP2-0=-104.6630622\CCSD=-104.668646\CCSD(T)=-104.6849129\RMSD
 =3.856e-09\PG=C*V [C*(H1Mn1)]\\@


 "WHERE SHALL I START, PLEASE YOUR MAJESTY?" HE ASKED.
 "BEGIN AT THE BEGINNING," THE KING SAID GRAVELY,
 "AND GO ON TILL YOU COME TO THE END: THEN STOP." 

                                      -- LEWIS CARROLL
 Job cpu time:       0 days  8 hours 36 minutes 57.1 seconds.
 Elapsed time:       0 days  0 hours 32 minutes 29.5 seconds.
 File lengths (MBytes):  RWF=   7810 Int=      0 D2E=      0 Chk=     35 Scr=      1
 Normal termination of Gaussian 16 at Mon Feb 26 14:10:24 2018.
