 Entering Gaussian System, Link 0=g16
 Initial command:
 /home1/apps/gaussian/16rA.03/g16/l1.exe "/tmp/Gau-258603.inp" -scrdir="/tmp/"
 Entering Link 1 = /home1/apps/gaussian/16rA.03/g16/l1.exe PID=    258604.
  
 Copyright (c) 1988,1990,1992,1993,1995,1998,2003,2009,2016,
            Gaussian, Inc.  All Rights Reserved.
  
 This is part of the Gaussian(R) 16 program.  It is based on
 the Gaussian(R) 09 system (copyright 2009, Gaussian, Inc.),
 the Gaussian(R) 03 system (copyright 2003, Gaussian, Inc.),
 the Gaussian(R) 98 system (copyright 1998, Gaussian, Inc.),
 the Gaussian(R) 94 system (copyright 1995, Gaussian, Inc.),
 the Gaussian 92(TM) system (copyright 1992, Gaussian, Inc.),
 the Gaussian 90(TM) system (copyright 1990, Gaussian, Inc.),
 the Gaussian 88(TM) system (copyright 1988, Gaussian, Inc.),
 the Gaussian 86(TM) system (copyright 1986, Carnegie Mellon
 University), and the Gaussian 82(TM) system (copyright 1983,
 Carnegie Mellon University). Gaussian is a federally registered
 trademark of Gaussian, Inc.
  
 This software contains proprietary and confidential information,
 including trade secrets, belonging to Gaussian, Inc.
  
 This software is provided under written license and may be
 used, copied, transmitted, or stored only in accord with that
 written license.
  
 The following legend is applicable only to US Government
 contracts under FAR:
  
                    RESTRICTED RIGHTS LEGEND
  
 Use, reproduction and disclosure by the US Government is
 subject to restrictions as set forth in subparagraphs (a)
 and (c) of the Commercial Computer Software - Restricted
 Rights clause in FAR 52.227-19.
  
 Gaussian, Inc.
 340 Quinnipiac St., Bldg. 40, Wallingford CT 06492
  
  
 ---------------------------------------------------------------
 Warning -- This program may not be used in any manner that
 competes with the business of Gaussian, Inc. or will provide
 assistance to any competitor of Gaussian, Inc.  The licensee
 of this program is prohibited from giving any competitor of
 Gaussian, Inc. access to this program.  By using this program,
 the user acknowledges that Gaussian, Inc. is engaged in the
 business of creating and licensing software in the field of
 computational chemistry and represents and warrants to the
 licensee that it is not a competitor of Gaussian, Inc. and that
 it will not use this program in any manner prohibited above.
 ---------------------------------------------------------------
  

 Cite this work as:
 Gaussian 16, Revision A.03,
 M. J. Frisch, G. W. Trucks, H. B. Schlegel, G. E. Scuseria, 
 M. A. Robb, J. R. Cheeseman, G. Scalmani, V. Barone, 
 G. A. Petersson, H. Nakatsuji, X. Li, M. Caricato, A. V. Marenich, 
 J. Bloino, B. G. Janesko, R. Gomperts, B. Mennucci, H. P. Hratchian, 
 J. V. Ortiz, A. F. Izmaylov, J. L. Sonnenberg, D. Williams-Young, 
 F. Ding, F. Lipparini, F. Egidi, J. Goings, B. Peng, A. Petrone, 
 T. Henderson, D. Ranasinghe, V. G. Zakrzewski, J. Gao, N. Rega, 
 G. Zheng, W. Liang, M. Hada, M. Ehara, K. Toyota, R. Fukuda, 
 J. Hasegawa, M. Ishida, T. Nakajima, Y. Honda, O. Kitao, H. Nakai, 
 T. Vreven, K. Throssell, J. A. Montgomery, Jr., J. E. Peralta, 
 F. Ogliaro, M. J. Bearpark, J. J. Heyd, E. N. Brothers, K. N. Kudin, 
 V. N. Staroverov, T. A. Keith, R. Kobayashi, J. Normand, 
 K. Raghavachari, A. P. Rendell, J. C. Burant, S. S. Iyengar, 
 J. Tomasi, M. Cossi, J. M. Millam, M. Klene, C. Adamo, R. Cammi, 
 J. W. Ochterski, R. L. Martin, K. Morokuma, O. Farkas, 
 J. B. Foresman, and D. J. Fox, Gaussian, Inc., Wallingford CT, 2016.
 
 ******************************************
 Gaussian 16:  ES64L-G16RevA.03 25-Dec-2016
                22-Apr-2018 
 ******************************************
 %mem=160GB
 %cpu=0-31
 SetSPE:  set environment variable "MP_BIND" = "yes"
 SetSPE:  set environment variable "MP_BLIST" = "0,1,2,3,4,5,6,7,8,9,10,11,12,13,14,15,16,17,18,19,20,21,22,23,24,25,26,27,28,29,30,31"
 Will use up to   32 processors via shared memory.
 %chk=qz.chk
 %rwf=/scratch/04843/gwang18/cuh/
 ----------------------------------------------------------------------
 #P ROCCSD(T)=(MaxCyc=150, FrzINGC)/Gen SCF=(maxcycle=400, vshift=200) 
 Integral(DKHSO, NoXCTest) Pop=Regular MaxDisk=500GB Guess=Read IOp(5/1
 5=2)
 ----------------------------------------------------------------------
 1/38=1,172=1/1;
 2/12=2,17=6,18=5,40=1/2;
 3/5=7,11=2,25=1,30=1,47=8,91=5,116=101/1,2,3;
 4/5=1/1;
 5/5=2,7=400,10=200,15=2,38=6/2;
 8/5=-1,6=4,9=120000,10=3/1,4;
 9/5=7,6=150,14=2/13;
 6//1;
 99/5=1,9=1/99;
 Leave Link    1 at Sun Apr 22 21:28:00 2018, MaxMem= 21474836480 cpu:               1.6 elap:               0.1
 (Enter /home1/apps/gaussian/16rA.03/g16/l101.exe)
 ---
 CuH
 ---
 Symbolic Z-matrix:
 Charge =  0 Multiplicity = 1
 Cu                    0.        0.        0. 
 H                     0.        0.        1. 
 
 ITRead=  0  0
 MicOpt= -1 -1
 NAtoms=      2 NQM=        2 NQMF=       0 NMMI=      0 NMMIF=      0
                NMic=       0 NMicF=      0.
                    Isotopes and Nuclear Properties:
 (Nuclear quadrupole moments (NQMom) in fm**2, nuclear magnetic moments (NMagM)
  in nuclear magnetons)

  Atom         1           2
 IAtWgt=          63           1
 AtmWgt=  62.9295992   1.0078250
 NucSpn=           3           1
 AtZEff=  -0.0000000  -0.0000000
 NQMom=  -22.0000000   0.0000000
 NMagM=    2.2233000   2.7928460
 AtZNuc=  29.0000000   1.0000000
 Leave Link  101 at Sun Apr 22 21:28:00 2018, MaxMem= 21474836480 cpu:               2.7 elap:               0.1
 (Enter /home1/apps/gaussian/16rA.03/g16/l202.exe)
                          Input orientation:                          
 ---------------------------------------------------------------------
 Center     Atomic      Atomic             Coordinates (Angstroms)
 Number     Number       Type             X           Y           Z
 ---------------------------------------------------------------------
      1         29           0        0.000000    0.000000    0.000000
      2          1           0        0.000000    0.000000    1.000000
 ---------------------------------------------------------------------
 Stoichiometry    CuH
 Framework group  C*V[C*(HCu)]
 Deg. of freedom     1
 Full point group                 C*V     NOp   4
 Largest Abelian subgroup         C2V     NOp   4
 Largest concise Abelian subgroup C1      NOp   1
                         Standard orientation:                         
 ---------------------------------------------------------------------
 Center     Atomic      Atomic             Coordinates (Angstroms)
 Number     Number       Type             X           Y           Z
 ---------------------------------------------------------------------
      1         29           0        0.000000    0.000000    0.033333
      2          1           0        0.000000    0.000000   -0.966667
 ---------------------------------------------------------------------
 Rotational constants (GHZ):           0.0000000         509.4859678         509.4859678
 Leave Link  202 at Sun Apr 22 21:28:00 2018, MaxMem= 21474836480 cpu:               0.5 elap:               0.0
 (Enter /home1/apps/gaussian/16rA.03/g16/l301.exe)
 General basis read from cards:  (5D, 7F)
 Centers:       1
 S 1 1.00
     Exponent=  1.6665490000D+07 Coefficients=  1.0000000000D+00
 S 1 1.00
     Exponent=  2.4952130000D+06 Coefficients=  1.0000000000D+00
 S 1 1.00
     Exponent=  5.6785070000D+05 Coefficients=  1.0000000000D+00
 S 1 1.00
     Exponent=  1.6085310000D+05 Coefficients=  1.0000000000D+00
 S 1 1.00
     Exponent=  5.2481860000D+04 Coefficients=  1.0000000000D+00
 S 1 1.00
     Exponent=  1.8948850000D+04 Coefficients=  1.0000000000D+00
 S 1 1.00
     Exponent=  7.3916550000D+03 Coefficients=  1.0000000000D+00
 S 1 1.00
     Exponent=  3.0665170000D+03 Coefficients=  1.0000000000D+00
 S 1 1.00
     Exponent=  1.3379940000D+03 Coefficients=  1.0000000000D+00
 S 1 1.00
     Exponent=  6.0878300000D+02 Coefficients=  1.0000000000D+00
 S 1 1.00
     Exponent=  2.8689800000D+02 Coefficients=  1.0000000000D+00
 S 1 1.00
     Exponent=  1.3915300000D+02 Coefficients=  1.0000000000D+00
 S 1 1.00
     Exponent=  6.8494550000D+01 Coefficients=  1.0000000000D+00
 S 1 1.00
     Exponent=  3.1601080000D+01 Coefficients=  1.0000000000D+00
 S 1 1.00
     Exponent=  1.5991580000D+01 Coefficients=  1.0000000000D+00
 S 1 1.00
     Exponent=  8.0565100000D+00 Coefficients=  1.0000000000D+00
 S 1 1.00
     Exponent=  3.6903290000D+00 Coefficients=  1.0000000000D+00
 S 1 1.00
     Exponent=  1.7629020000D+00 Coefficients=  1.0000000000D+00
 S 1 1.00
     Exponent=  8.0126900000D-01 Coefficients=  1.0000000000D+00
 S 1 1.00
     Exponent=  1.8424300000D-01 Coefficients=  1.0000000000D+00
 S 1 1.00
     Exponent=  8.1793000000D-02 Coefficients=  1.0000000000D+00
 S 1 1.00
     Exponent=  3.5303000000D-02 Coefficients=  1.0000000000D+00
 S 1 1.00
     Exponent=  7.2310000000D+00 Coefficients=  1.0000000000D+00
 S 1 1.00
     Exponent=  1.9080000000D+00 Coefficients=  1.0000000000D+00
 S 1 1.00
     Exponent=  1.5240000000D-02 Coefficients=  1.0000000000D+00
 P 1 1.00
     Exponent=  4.8218410000D+04 Coefficients=  1.0000000000D+00
 P 1 1.00
     Exponent=  1.1420550000D+04 Coefficients=  1.0000000000D+00
 P 1 1.00
     Exponent=  3.7135690000D+03 Coefficients=  1.0000000000D+00
 P 1 1.00
     Exponent=  1.4237620000D+03 Coefficients=  1.0000000000D+00
 P 1 1.00
     Exponent=  6.0660410000D+02 Coefficients=  1.0000000000D+00
 P 1 1.00
     Exponent=  2.7825640000D+02 Coefficients=  1.0000000000D+00
 P 1 1.00
     Exponent=  1.3484490000D+02 Coefficients=  1.0000000000D+00
 P 1 1.00
     Exponent=  6.8122540000D+01 Coefficients=  1.0000000000D+00
 P 1 1.00
     Exponent=  3.5400880000D+01 Coefficients=  1.0000000000D+00
 P 1 1.00
     Exponent=  1.8790290000D+01 Coefficients=  1.0000000000D+00
 P 1 1.00
     Exponent=  1.0083560000D+01 Coefficients=  1.0000000000D+00
 P 1 1.00
     Exponent=  5.3461200000D+00 Coefficients=  1.0000000000D+00
 P 1 1.00
     Exponent=  2.7752280000D+00 Coefficients=  1.0000000000D+00
 P 1 1.00
     Exponent=  1.4075640000D+00 Coefficients=  1.0000000000D+00
 P 1 1.00
     Exponent=  6.8721300000D-01 Coefficients=  1.0000000000D+00
 P 1 1.00
     Exponent=  2.4682200000D-01 Coefficients=  1.0000000000D+00
 P 1 1.00
     Exponent=  9.6220000000D-02 Coefficients=  1.0000000000D+00
 P 1 1.00
     Exponent=  3.7037000000D-02 Coefficients=  1.0000000000D+00
 P 1 1.00
     Exponent=  1.1921800000D+01 Coefficients=  1.0000000000D+00
 P 1 1.00
     Exponent=  3.2325000000D+00 Coefficients=  1.0000000000D+00
 P 1 1.00
     Exponent=  1.4260000000D-02 Coefficients=  1.0000000000D+00
 D 1 1.00
     Exponent=  5.2788600000D+02 Coefficients=  1.0000000000D+00
 D 1 1.00
     Exponent=  1.5873300000D+02 Coefficients=  1.0000000000D+00
 D 1 1.00
     Exponent=  6.1555600000D+01 Coefficients=  1.0000000000D+00
 D 1 1.00
     Exponent=  2.6883400000D+01 Coefficients=  1.0000000000D+00
 D 1 1.00
     Exponent=  1.2517500000D+01 Coefficients=  1.0000000000D+00
 D 1 1.00
     Exponent=  6.0697700000D+00 Coefficients=  1.0000000000D+00
 D 1 1.00
     Exponent=  2.9583190000D+00 Coefficients=  1.0000000000D+00
 D 1 1.00
     Exponent=  1.4141220000D+00 Coefficients=  1.0000000000D+00
 D 1 1.00
     Exponent=  6.5332900000D-01 Coefficients=  1.0000000000D+00
 D 1 1.00
     Exponent=  2.8669200000D-01 Coefficients=  1.0000000000D+00
 D 1 1.00
     Exponent=  1.1501400000D-01 Coefficients=  1.0000000000D+00
 D 1 1.00
     Exponent=  8.4804000000D+00 Coefficients=  1.0000000000D+00
 D 1 1.00
     Exponent=  4.4553000000D+00 Coefficients=  1.0000000000D+00
 D 1 1.00
     Exponent=  4.6140000000D-02 Coefficients=  1.0000000000D+00
 F 1 1.00
     Exponent=  1.1946300000D+01 Coefficients=  1.0000000000D+00
 F 1 1.00
     Exponent=  5.0345000000D+00 Coefficients=  1.0000000000D+00
 F 1 1.00
     Exponent=  2.1217000000D+00 Coefficients=  1.0000000000D+00
 F 1 1.00
     Exponent=  7.3910000000D-01 Coefficients=  1.0000000000D+00
 F 1 1.00
     Exponent=  2.5747000000D-01 Coefficients=  1.0000000000D+00
 G 1 1.00
     Exponent=  9.5934000000D+00 Coefficients=  1.0000000000D+00
 G 1 1.00
     Exponent=  4.3083000000D+00 Coefficients=  1.0000000000D+00
 G 1 1.00
     Exponent=  1.7760000000D+00 Coefficients=  1.0000000000D+00
 G 1 1.00
     Exponent=  7.3212000000D-01 Coefficients=  1.0000000000D+00
 H 1 1.00
     Exponent=  8.5704000000D+00 Coefficients=  1.0000000000D+00
 H 1 1.00
     Exponent=  3.7909000000D+00 Coefficients=  1.0000000000D+00
 H 1 1.00
     Exponent=  1.6768100000D+00 Coefficients=  1.0000000000D+00
 ****
 Centers:       2
 S 1 1.00
     Exponent=  8.2640000000D+01 Coefficients=  1.0000000000D+00
 S 1 1.00
     Exponent=  1.2410000000D+01 Coefficients=  1.0000000000D+00
 S 1 1.00
     Exponent=  2.8240000000D+00 Coefficients=  1.0000000000D+00
 S 1 1.00
     Exponent=  7.9770000000D-01 Coefficients=  1.0000000000D+00
 S 1 1.00
     Exponent=  2.5810000000D-01 Coefficients=  1.0000000000D+00
 S 1 1.00
     Exponent=  8.9890000000D-02 Coefficients=  1.0000000000D+00
 S 1 1.00
     Exponent=  2.3630000000D-02 Coefficients=  1.0000000000D+00
 P 1 1.00
     Exponent=  2.2920000000D+00 Coefficients=  1.0000000000D+00
 P 1 1.00
     Exponent=  8.3800000000D-01 Coefficients=  1.0000000000D+00
 P 1 1.00
     Exponent=  2.9200000000D-01 Coefficients=  1.0000000000D+00
 P 1 1.00
     Exponent=  8.4800000000D-02 Coefficients=  1.0000000000D+00
 D 1 1.00
     Exponent=  2.0620000000D+00 Coefficients=  1.0000000000D+00
 D 1 1.00
     Exponent=  6.6200000000D-01 Coefficients=  1.0000000000D+00
 D 1 1.00
     Exponent=  1.9000000000D-01 Coefficients=  1.0000000000D+00
 F 1 1.00
     Exponent=  1.3970000000D+00 Coefficients=  1.0000000000D+00
 F 1 1.00
     Exponent=  3.6000000000D-01 Coefficients=  1.0000000000D+00
 ****
 Ernie: Thresh=  0.10000D-02 Tol=  0.10000D-05 Strict=F.
 There are   171 symmetry adapted cartesian basis functions of A1  symmetry.
 There are    45 symmetry adapted cartesian basis functions of A2  symmetry.
 There are    93 symmetry adapted cartesian basis functions of B1  symmetry.
 There are    93 symmetry adapted cartesian basis functions of B2  symmetry.
 There are   126 symmetry adapted basis functions of A1  symmetry.
 There are    38 symmetry adapted basis functions of A2  symmetry.
 There are    73 symmetry adapted basis functions of B1  symmetry.
 There are    73 symmetry adapted basis functions of B2  symmetry.
   310 basis functions,   402 primitive gaussians,   402 cartesian basis functions
    15 alpha electrons       15 beta electrons
       nuclear repulsion energy        15.3461391167 Hartrees.
 IExCor=    0 DFT=F Ex=HF Corr=None ExCW=0 ScaHFX=  1.000000
 ScaDFX=  1.000000  1.000000  1.000000  1.000000 ScalE2=  1.000000  1.000000
 IRadAn=      5 IRanWt=     -1 IRanGd=            0 ICorTp=0 IEmpDi=  4
 NAtoms=    2 NActive=    2 NUniq=    2 SFac= 1.00D+00 NAtFMM=   60 NAOKFM=F Big=F
 Integral buffers will be    131072 words long.
 Raffenetti 2 integral format.
 Two-electron integral symmetry is turned on.
 FoFCou: FMM=F IPFlag=           8 FMFlag=           0 FMFlg1=           0
         NFxFlg=           0 DoJE=F BraDBF=T KetDBF=T FulRan=T
         wScrn=  0.000000 ICntrl=       600 IOpCl=  3 I1Cent=           6 NGrid=           0
         NMat0=    1 NMatS0=      2 NMatT0=    0 NMatD0=    1 NMtDS0=    0 NMtDT0=    0
 Symmetry not used in FoFCou.
 Finite nuclear repulsion energy        15.3461391167.
 Leave Link  301 at Sun Apr 22 21:28:00 2018, MaxMem= 21474836480 cpu:               4.8 elap:               0.2
 (Enter /home1/apps/gaussian/16rA.03/g16/l302.exe)
 Using DK4 one-electron Hamiltonian with SO, DoBoet=T.
 NPDir=0 NMtPBC=     1 NCelOv=     1 NCel=       1 NClECP=     1 NCelD=      1
         NCelK=      1 NCelE2=     1 NClLst=     1 CellRange=     0.0.
 One-electron integrals computed using PRISM.
 One-electron integral symmetry used in STVInt
 FoFCou: FMM=F IPFlag=           8 FMFlag=      100000 FMFlg1=           0
         NFxFlg=           0 DoJE=T BraDBF=F KetDBF=T FulRan=T
         wScrn=  0.000000 ICntrl=       500 IOpCl=  0 I1Cent=           4 NGrid=           0
         NMat0=    1 NMatS0=      1 NMatT0=    0 NMatD0=    1 NMtDS0=    0 NMtDT0=    0
 Symmetry not used in FoFCou.
 UnConB:  Uncontracting AO basis from    310 functions to    310 functions (excluding duplicates).
 RelInt: Using uncontracted basis, NUnBas=   310 NBsUse=   310 0.100E-13 EigKep=  3.13D-07 EigRej= -1.00D+00
 NBasis=   310 RedAO= T EigKep=  1.42D-06  NBF=   126    38    73    73
 NBsUse=   309 1.00D-06 EigRej=  3.13D-07 NBFU=   125    38    73    73
 Leave Link  302 at Sun Apr 22 21:28:03 2018, MaxMem= 21474836480 cpu:              74.7 elap:               3.0
 (Enter /home1/apps/gaussian/16rA.03/g16/l303.exe)
 DipDrv:  MaxL=1.
 Leave Link  303 at Sun Apr 22 21:28:03 2018, MaxMem= 21474836480 cpu:               1.3 elap:               0.1
 (Enter /home1/apps/gaussian/16rA.03/g16/l401.exe)
 Initial guess from the checkpoint file:  "qz.chk"
 B after Tr=     0.000000    0.000000    0.000000
         Rot=    1.000000    0.000000    0.000000    0.000000 Ang=   0.00 deg.
 Guess basis will be translated and rotated to current coordinates.
 JPrj=2 DoOrth=T DoCkMO=T.
 Initial guess orbital symmetries:
       Occupied  (SG) (SG) (SG) (PI) (PI) (SG) (SG) (PI) (PI) (SG)
                 (PI) (PI) (DLTA) (DLTA) (SG)
       Virtual   (SG) (PI) (PI) (SG) (SG) (PI) (PI) (SG) (SG) (PI)
                 (PI) (DLTA) (DLTA) (SG) (SG) (PI) (PI) (SG) (PI)
                 (PI) (SG) (SG) (SG) (PI) (PI) (DLTA) (DLTA) (DLTA)
                 (DLTA) (SG) (PI) (PI) (PI) (PI) (SG) (SG) (PI)
                 (PI) (SG) (PHI) (PHI) (DLTA) (DLTA) (PI) (PI)
                 (SG) (DLTA) (DLTA) (SG) (PI) (PI) (SG) (PI) (PI)
                 (SG) (SG) (DLTA) (DLTA) (PI) (PI) (SG) (PI) (PI)
                 (PHI) (PHI) (DLTA) (DLTA) (SG) (PI) (PI) (SG)
                 (DLTA) (DLTA) (PHI) (PHI) (?A) (?A) (PI) (PI)
                 (DLTA) (DLTA) (SG) (PI) (PI) (SG) (PI) (PI) (SG)
                 (SG) (SG) (PHI) (PHI) (DLTA) (DLTA) (PI) (PI)
                 (SG) (DLTA) (DLTA) (PI) (PI) (PHI) (PHI) (?A)
                 (?A) (DLTA) (DLTA) (SG) (PI) (PI) (SG) (PI) (PI)
                 (SG) (SG) (PHI) (PHI) (DLTA) (DLTA) (PI) (PI)
                 (SG) (PI) (PI) (SG) (DLTA) (DLTA) (PI) (PI) (SG)
                 (SG) (PHI) (PHI) (?A) (?A) (DLTA) (DLTA) (PI)
                 (PI) (SG) (SG) (PI) (PI) (SG) (DLTA) (DLTA) (PI)
                 (PI) (SG) (SG) (PI) (PI) (SG) (SG) (DLTA) (DLTA)
                 (PI) (PI) (SG) (PI) (PI) (SG) (SG) (PI) (PI) (SG)
                 (DLTA) (DLTA) (PI) (PI) (SG) (PI) (PI) (SG) (SG)
                 (PI) (PI) (SG) (SG) (PI) (PI) (SG) (SG) (SG) (PI)
                 (PI) (SG) (SG) (PI) (PI) (SG) (SG) (SG) (SG) (SG)
                 (DLTA) (SG) (SG) (DLTA) (SG) (SG) (DLTA) (SG)
                 (SG) (DLTA) (SG) (SG) (DLTA) (SG) (?A) (SG) (DLTA)
                 (DLTA) (SG) (?A) (SG) (DLTA) (SG) (DLTA) (SG)
                 (DLTA) (SG) (SG) (DLTA) (SG) (?A) (DLTA) (?A)
                 (DLTA) (DLTA) (DLTA) (DLTA) (DLTA) (?A) (DLTA)
                 (DLTA) (?A) (DLTA) (DLTA) (DLTA) (DLTA) (?A) (DLTA)
                 (?A) (PI) (PI) (PI) (PI) (PI) (PHI) (PI) (PI)
                 (PHI) (PI) (PI) (PHI) (PI) (?B) (PHI) (PI) (PI)
                 (PHI) (PI) (PI) (PHI) (?B) (PI) (PHI) (?B) (PI)
                 (PI) (PI) (PI) (PI) (PHI) (PI) (PI) (PHI) (PI)
                 (PI) (PHI) (PI) (?B) (PHI) (PI) (PI) (PHI) (PI)
                 (PI) (PHI) (?B) (PI) (PHI) (?B)
 The electronic state of the initial guess is 1-SG.
 Leave Link  401 at Sun Apr 22 21:28:03 2018, MaxMem= 21474836480 cpu:               6.1 elap:               0.2
 (Enter /home1/apps/gaussian/16rA.03/g16/l502.exe)
 Keep R1 and R2 ints in memory in symmetry-blocked form, NReq=1456552531.
 FoFCou: FMM=F IPFlag=           8 FMFlag=           0 FMFlg1=           0
         NFxFlg=           0 DoJE=F BraDBF=F KetDBF=F FulRan=T
         wScrn=  0.000000 ICntrl=       600 IOpCl=  0 I1Cent=           0 NGrid=           0
         NMat0=    1 NMatS0=  48205 NMatT0=    0 NMatD0=    1 NMtDS0=    0 NMtDT0=    0
 Petite list used in FoFCou.
 Restricted open shell SCF:
 Using DIIS extrapolation, IDIIS=  1040.
 NGot= 21474836480 LenX= 20885275506 LenY= 20885113461
 Requested convergence on RMS density matrix=1.00D-08 within 400 cycles.
 Requested convergence on MAX density matrix=1.00D-06.
 Requested convergence on             energy=1.00D-06.
 Virtual orbitals will be shifted by   0.200 hartree.
 No special actions if energy rises.

 Cycle   1  Pass 1  IDiag  1:
 E= -1653.57713531046    
 DIIS: error= 1.29D+00 at cycle   1 NSaved=   1.
 NSaved= 1 IEnMin= 1 EnMin= -1653.57713531046     IErMin= 1 ErrMin= 1.29D+00
 ErrMax= 1.29D+00  0.00D+00 EMaxC= 1.00D-01 BMatC= 2.14D+02 BMatP= 2.14D+02
 IDIUse=3 WtCom= 0.00D+00 WtEn= 1.00D+00
 Coeff-Com:  0.100D+01
 Coeff-En:   0.100D+01
 Coeff:      0.100D+01
 Fock symm off for IB=3 I1=   68 I=  231 J=   98 Cut=1.00D-07 Err=1.69D-07
 Fock matrix is not symmetric: symmetry in diagonalization turned off.
 Gap=     0.065 Goal=   None    Shift=    0.200
 GapD=    0.065 DampG=0.500 DampE=0.125 DampFc=0.1250 IDamp=-1.
 Damping current iteration by 1.25D-01
 RMSDP=1.33D-03 MaxDP=7.74D-02              OVMax= 1.00D+00

 Cycle   2  Pass 1  IDiag  1:
 E= -1653.57726432248     Delta-E=       -0.000129012015 Rises=F Damp=T
 DIIS: error= 1.13D+00 at cycle   2 NSaved=   2.
 NSaved= 2 IEnMin= 2 EnMin= -1653.57726432248     IErMin= 2 ErrMin= 1.13D+00
 ErrMax= 1.13D+00  0.00D+00 EMaxC= 1.00D-01 BMatC= 1.64D+02 BMatP= 2.14D+02
 IDIUse=3 WtCom= 0.00D+00 WtEn= 1.00D+00
 Coeff-Com: -0.700D+01 0.800D+01
 Coeff-En:   0.000D+00 0.100D+01
 Coeff:      0.000D+00 0.100D+01
 Gap=     0.334 Goal=   None    Shift=    0.200
 RMSDP=1.19D-03 MaxDP=6.81D-02 DE=-1.29D-04 OVMax= 2.48D-04

 Cycle   3  Pass 1  IDiag  1:
 E= -1653.57818541506     Delta-E=       -0.000921092580 Rises=F Damp=F
 DIIS: error= 1.43D-04 at cycle   3 NSaved=   3.
 NSaved= 3 IEnMin= 3 EnMin= -1653.57818541506     IErMin= 3 ErrMin= 1.43D-04
 ErrMax= 1.43D-04  0.00D+00 EMaxC= 1.00D-01 BMatC= 4.01D-06 BMatP= 1.64D+02
 IDIUse=3 WtCom= 9.99D-01 WtEn= 1.43D-03
 Large coefficients: NSaved=  3 BigCof=   16.27 CofMax=   10.00 Det=-1.02D-08
 Inversion failed.  Reducing to  2 matrices.
 Coeff-Com: -0.334D-04 0.100D+01
 Coeff-En:   0.000D+00 0.100D+01
 Coeff:     -0.334D-04 0.100D+01
 Gap=     0.334 Goal=   None    Shift=    0.200
 RMSDP=7.23D-05 MaxDP=6.25D-03 DE=-9.21D-04 OVMax= 2.61D-04

 Cycle   4  Pass 1  IDiag  1:
 E= -1653.57818707577     Delta-E=       -0.000001660715 Rises=F Damp=F
 DIIS: error= 2.05D-05 at cycle   4 NSaved=   3.
 NSaved= 3 IEnMin= 3 EnMin= -1653.57818707577     IErMin= 3 ErrMin= 2.05D-05
 ErrMax= 2.05D-05  0.00D+00 EMaxC= 1.00D-01 BMatC= 7.35D-08 BMatP= 4.01D-06
 IDIUse=1 WtCom= 1.00D+00 WtEn= 0.00D+00
 Coeff-Com:  0.353D-05-0.107D+00 0.111D+01
 Coeff:      0.353D-05-0.107D+00 0.111D+01
 Gap=     0.334 Goal=   None    Shift=    0.200
 RMSDP=2.58D-05 MaxDP=2.85D-03 DE=-1.66D-06 OVMax= 7.82D-05

 Cycle   5  Pass 1  IDiag  1:
 E= -1653.57818716571     Delta-E=       -0.000000089941 Rises=F Damp=F
 DIIS: error= 5.57D-06 at cycle   5 NSaved=   4.
 NSaved= 4 IEnMin= 4 EnMin= -1653.57818716571     IErMin= 4 ErrMin= 5.57D-06
 ErrMax= 5.57D-06  0.00D+00 EMaxC= 1.00D-01 BMatC= 5.21D-09 BMatP= 7.35D-08
 IDIUse=1 WtCom= 1.00D+00 WtEn= 0.00D+00
 Coeff-Com:  0.604D-07-0.175D-02-0.102D+00 0.110D+01
 Coeff:      0.604D-07-0.175D-02-0.102D+00 0.110D+01
 Gap=     0.334 Goal=   None    Shift=    0.200
 RMSDP=8.25D-06 MaxDP=1.08D-03 DE=-8.99D-08 OVMax= 3.83D-05

 Cycle   6  Pass 1  IDiag  1:
 E= -1653.57818717338     Delta-E=       -0.000000007672 Rises=F Damp=F
 DIIS: error= 6.55D-06 at cycle   6 NSaved=   5.
 NSaved= 5 IEnMin= 5 EnMin= -1653.57818717338     IErMin= 4 ErrMin= 5.57D-06
 ErrMax= 6.55D-06  0.00D+00 EMaxC= 1.00D-01 BMatC= 2.86D-09 BMatP= 5.21D-09
 IDIUse=1 WtCom= 1.00D+00 WtEn= 0.00D+00
 Coeff-Com: -0.323D-06 0.978D-02-0.162D+00 0.517D+00 0.635D+00
 Coeff:     -0.323D-06 0.978D-02-0.162D+00 0.517D+00 0.635D+00
 Gap=     0.334 Goal=   None    Shift=    0.200
 RMSDP=2.55D-06 MaxDP=3.69D-04 DE=-7.67D-09 OVMax= 2.04D-05

 Cycle   7  Pass 1  IDiag  1:
 E= -1653.57818717540     Delta-E=       -0.000000002015 Rises=F Damp=F
 DIIS: error= 1.62D-06 at cycle   7 NSaved=   6.
 NSaved= 6 IEnMin= 6 EnMin= -1653.57818717540     IErMin= 6 ErrMin= 1.62D-06
 ErrMax= 1.62D-06  0.00D+00 EMaxC= 1.00D-01 BMatC= 3.20D-10 BMatP= 2.86D-09
 IDIUse=1 WtCom= 1.00D+00 WtEn= 0.00D+00
 Coeff-Com: -0.396D-07 0.119D-02-0.544D-02-0.117D+00 0.130D+00 0.991D+00
 Coeff:     -0.396D-07 0.119D-02-0.544D-02-0.117D+00 0.130D+00 0.991D+00
 Gap=     0.334 Goal=   None    Shift=    0.200
 RMSDP=1.11D-06 MaxDP=1.78D-04 DE=-2.02D-09 OVMax= 1.76D-05

 Cycle   8  Pass 1  IDiag  1:
 E= -1653.57818717618     Delta-E=       -0.000000000780 Rises=F Damp=F
 DIIS: error= 1.48D-06 at cycle   8 NSaved=   7.
 NSaved= 7 IEnMin= 7 EnMin= -1653.57818717618     IErMin= 7 ErrMin= 1.48D-06
 ErrMax= 1.48D-06  0.00D+00 EMaxC= 1.00D-01 BMatC= 9.97D-11 BMatP= 3.20D-10
 IDIUse=1 WtCom= 1.00D+00 WtEn= 0.00D+00
 Coeff-Com:  0.978D-07-0.296D-02 0.489D-01-0.172D+00-0.955D-01-0.996D-01
 Coeff-Com:  0.132D+01
 Coeff:      0.978D-07-0.296D-02 0.489D-01-0.172D+00-0.955D-01-0.996D-01
 Coeff:      0.132D+01
 Gap=     0.334 Goal=   None    Shift=    0.200
 RMSDP=4.72D-07 MaxDP=8.14D-05 DE=-7.80D-10 OVMax= 1.54D-05

 Cycle   9  Pass 1  IDiag  1:
 E= -1653.57818717663     Delta-E=       -0.000000000447 Rises=F Damp=F
 DIIS: error= 1.14D-06 at cycle   9 NSaved=   8.
 NSaved= 8 IEnMin= 8 EnMin= -1653.57818717663     IErMin= 8 ErrMin= 1.14D-06
 ErrMax= 1.14D-06  0.00D+00 EMaxC= 1.00D-01 BMatC= 3.14D-11 BMatP= 9.97D-11
 IDIUse=1 WtCom= 1.00D+00 WtEn= 0.00D+00
 Coeff-Com: -0.308D-07 0.935D-03-0.189D-01 0.876D-01 0.512D-02-0.543D-01
 Coeff-Com: -0.132D+01 0.230D+01
 Coeff:     -0.308D-07 0.935D-03-0.189D-01 0.876D-01 0.512D-02-0.543D-01
 Coeff:     -0.132D+01 0.230D+01
 Gap=     0.334 Goal=   None    Shift=    0.200
 RMSDP=8.92D-08 MaxDP=1.56D-05 DE=-4.47D-10 OVMax= 1.43D-05

 Cycle  10  Pass 1  IDiag  1:
 E= -1653.57818717689     Delta-E=       -0.000000000260 Rises=F Damp=F
 DIIS: error= 5.63D-07 at cycle  10 NSaved=   9.
 NSaved= 9 IEnMin= 9 EnMin= -1653.57818717689     IErMin= 9 ErrMin= 5.63D-07
 ErrMax= 5.63D-07  0.00D+00 EMaxC= 1.00D-01 BMatC= 7.69D-12 BMatP= 3.14D-11
 IDIUse=1 WtCom= 1.00D+00 WtEn= 0.00D+00
 Coeff-Com: -0.113D-07 0.343D-03-0.423D-02 0.136D-01 0.477D-03-0.414D-01
 Coeff-Com:  0.273D+00-0.110D+01 0.186D+01
 Coeff:     -0.113D-07 0.343D-03-0.423D-02 0.136D-01 0.477D-03-0.414D-01
 Coeff:      0.273D+00-0.110D+01 0.186D+01
 Gap=     0.334 Goal=   None    Shift=    0.200
 RMSDP=2.55D-08 MaxDP=1.98D-06 DE=-2.60D-10 OVMax= 8.04D-06

 Cycle  11  Pass 1  IDiag  1:
 E= -1653.57818717696     Delta-E=       -0.000000000072 Rises=F Damp=F
 DIIS: error= 2.64D-07 at cycle  11 NSaved=  10.
 NSaved=10 IEnMin=10 EnMin= -1653.57818717696     IErMin=10 ErrMin= 2.64D-07
 ErrMax= 2.64D-07  0.00D+00 EMaxC= 1.00D-01 BMatC= 2.43D-12 BMatP= 7.69D-12
 IDIUse=1 WtCom= 1.00D+00 WtEn= 0.00D+00
 Coeff-Com:  0.141D-07-0.427D-03 0.609D-02-0.146D-01-0.249D-01 0.106D-01
 Coeff-Com:  0.240D-01 0.241D+00-0.123D+01 0.198D+01
 Coeff:      0.141D-07-0.427D-03 0.609D-02-0.146D-01-0.249D-01 0.106D-01
 Coeff:      0.240D-01 0.241D+00-0.123D+01 0.198D+01
 Gap=     0.334 Goal=   None    Shift=    0.200
 RMSDP=1.84D-08 MaxDP=2.66D-06 DE=-7.23D-11 OVMax= 4.56D-06

 Cycle  12  Pass 1  IDiag  1:
 E= -1653.57818717698     Delta-E=       -0.000000000021 Rises=F Damp=F
 DIIS: error= 1.08D-07 at cycle  12 NSaved=  11.
 NSaved=11 IEnMin=11 EnMin= -1653.57818717698     IErMin=11 ErrMin= 1.08D-07
 ErrMax= 1.08D-07  0.00D+00 EMaxC= 1.00D-01 BMatC= 6.84D-13 BMatP= 2.43D-12
 IDIUse=1 WtCom= 1.00D+00 WtEn= 0.00D+00
 Coeff-Com: -0.556D-08 0.169D-03-0.317D-02 0.128D-01 0.600D-02-0.293D-01
 Coeff-Com: -0.145D+00 0.438D+00-0.324D+00-0.105D+01 0.210D+01
 Coeff:     -0.556D-08 0.169D-03-0.317D-02 0.128D-01 0.600D-02-0.293D-01
 Coeff:     -0.145D+00 0.438D+00-0.324D+00-0.105D+01 0.210D+01
 Gap=     0.334 Goal=   None    Shift=    0.200
 RMSDP=8.18D-09 MaxDP=1.17D-06 DE=-2.07D-11 OVMax= 2.63D-06

 Cycle  13  Pass 1  IDiag  1:
 E= -1653.57818717699     Delta-E=       -0.000000000009 Rises=F Damp=F
 DIIS: error= 5.81D-08 at cycle  13 NSaved=  12.
 NSaved=12 IEnMin=12 EnMin= -1653.57818717699     IErMin=12 ErrMin= 5.81D-08
 ErrMax= 5.81D-08  0.00D+00 EMaxC= 1.00D-01 BMatC= 2.20D-13 BMatP= 6.84D-13
 IDIUse=1 WtCom= 1.00D+00 WtEn= 0.00D+00
 Coeff-Com:  0.101D-08-0.310D-04 0.385D-03 0.473D-03-0.624D-02-0.670D-02
 Coeff-Com:  0.195D-01 0.411D-03 0.287D-01 0.929D-01-0.102D+01 0.189D+01
 Coeff:      0.101D-08-0.310D-04 0.385D-03 0.473D-03-0.624D-02-0.670D-02
 Coeff:      0.195D-01 0.411D-03 0.287D-01 0.929D-01-0.102D+01 0.189D+01
 Gap=     0.334 Goal=   None    Shift=    0.200
 RMSDP=2.76D-09 MaxDP=2.62D-07 DE=-8.87D-12 OVMax= 1.11D-06

 SCF Done:  E(ROHF) =  -1653.57818718     A.U. after   13 cycles
            NFock= 13  Conv=0.28D-08     -V/T= 1.9504
 <Sx>= 0.0000 <Sy>= 0.0000 <Sz>= 0.0000 <S**2>=-0.0000 S=-0.0000
 <L.S>=  0.00000000000    
 KE= 1.739949293550D+03 PE=-4.076359144336D+03 EE= 6.674855244924D+02
 Annihilation of the first spin contaminant:
 S**2 before annihilation    -0.0000,   after     0.0000
 Leave Link  502 at Sun Apr 22 21:28:16 2018, MaxMem= 21474836480 cpu:             330.2 elap:              12.3
 (Enter /home1/apps/gaussian/16rA.03/g16/l801.exe)
 Windowed orbitals will be sorted by symmetry type.
 An orbital has undefined symmetry, so N**3 symmetry is turned off.
 GenMOA:  NOpAll=  4 NOp2=4 NOpUse=  4 JSym2X=1
 FoFJK:  IHMeth= 1 ICntrl=       0 DoSepK=F KAlg= 0 I1Cent=           0 FoldK=F
 IRaf=         0 NMat=       1 IRICut=       1 DoRegI=T DoRafI=F ISym2E= 1 IDoP0=0 IntGTp=1.
 FoFCou: FMM=F IPFlag=           8 FMFlag=      100000 FMFlg1=           0
         NFxFlg=           0 DoJE=F BraDBF=F KetDBF=F FulRan=T
         wScrn=  0.000000 ICntrl=         0 IOpCl=  1 I1Cent=           0 NGrid=           0
         NMat0=    1 NMatS0=      1 NMatT0=    0 NMatD0=    1 NMtDS0=    0 NMtDT0=    0
 Petite list used in FoFCou.
 <Sx>= 0.0000 <Sy>= 0.0000 <Sz>= 0.0000 <S**2>=-0.0000 S=-0.0000
 ExpMin= 1.43D-02 ExpMax= 1.67D+07 ExpMxC= 1.67D+07 IAcc=4 IRadAn=    399590 AccDes= 0.00D+00
 HarFok:  IExCor=  205 AccDes= 0.00D+00 IRadAn=    399590 IDoV=-2 UseB2=F ITyADJ=14
 ICtDFT= 12500011 ScaDFX=  1.000000  1.000000  1.000000  1.000000
 Largest valence mixing into a core orbital is  9.90D-05
 Largest core mixing into a valence orbital is  3.01D-05
 Largest valence mixing into a core orbital is  9.90D-05
 Largest core mixing into a valence orbital is  3.01D-05
 Range of M.O.s used for correlation:     6   309
 NBasis=   310 NAE=    15 NBE=    15 NFC=     5 NFV=     0
 NROrb=    304 NOA=    10 NOB=    10 NVA=   294 NVB=   294

 **** Warning!!: The largest alpha MO coefficient is  0.25771736D+03


 **** Warning!!: The largest beta MO coefficient is  0.25771736D+03

 Singles contribution to E2=   -0.1260602654D-12
 Leave Link  801 at Sun Apr 22 21:28:20 2018, MaxMem= 21474836480 cpu:             125.9 elap:               4.0
 (Enter /home1/apps/gaussian/16rA.03/g16/l804.exe)
 Open-shell transformation, MDV= 21474836480 ITran=4 ISComp=1.
 Unit  1 TFree=       2911145 TCopy=       2392668.
 Semi-Direct transformation.
 ModeAB=           2 MOrb=            10 LenV=   21471970251
 LASXX=    137343870 LTotXX=   137343870 LenRXX=   137343870
 LTotAB=   138848200 MaxLAS=   246249120 LenRXY=   246249120
 NonZer=   274687740 LenScr=   413647872 LnRSAI=           0
 LnScr1=           0 LExtra=    14925359 Total=    812166221
 MaxDsk= 67108864000 SrtSym=           F ITran=            4
 DoSDTr:  NPSUse= 32
 JobTyp=1 Pass  1:  I=   1 to  10.
 (rs|ai) integrals will be sorted in core.
 Complete sort for first half transformation.
 First half transformation complete.
 Begin second half transformation for I=  10.
 Begin second half transformation for I=  10.
 Complete sort for second half transformation.
 Second half transformation complete.
 ModeAB=           2 MOrb=            10 LenV=   21471970251
 LASXX=    137343870 LTotXX=   137343870 LenRXX=   246249120
 LTotAB=   129878175 MaxLAS=   246249120 LenRXY=   129878175
 NonZer=   274687740 LenScr=   413647872 LnRSAI=           0
 LnScr1=           0 LExtra=   398518349 Total=   1188293516
 MaxDsk= 67108864000 SrtSym=           F ITran=            4
 DoSDTr:  NPSUse= 32
 JobTyp=2 Pass  1:  I=   1 to  10.
 (rs|ai) integrals will be sorted in core.
 Complete sort for first half transformation.
 First half transformation complete.
 Begin second half transformation for I=  10.
 Begin second half transformation for I=  10.
 Complete sort for second half transformation.
 Second half transformation complete.
 SymMOI:  orbitals are not symmetric.
 Spin components of T(2) and E(2):
     alpha-alpha T2 =       0.2536819121D-01 E2=     -0.1860901890D+00
     alpha-beta  T2 =       0.1074653301D+00 E2=     -0.7826884122D+00
     beta-beta   T2 =       0.2536819121D-01 E2=     -0.1860901890D+00
 ANorm=    0.1076197804D+01
 E2 =    -0.1154868790D+01 EUMP2 =    -0.16547330559672D+04
 (S**2,0)=  0.00000D+00           (S**2,1)=  0.00000D+00
 E(PUHF)=      -0.16535781872D+04        E(PMP2)=      -0.16547330560D+04
 Leave Link  804 at Sun Apr 22 21:30:48 2018, MaxMem= 21474836480 cpu:            4738.3 elap:             148.5
 (Enter /home1/apps/gaussian/16rA.03/g16/l913.exe)
 CIDS:  MDV= 21474836480.
 Frozen-core window:  NFC=   5 NFV=   0.
 IFCWin=0 IBDFC=1 NFBD=     0     0 NFCmp=     0     0 NFFFC=     0     0
 Using original routines for 1st iteration.
 Using DD4UQ or CC4UQ for 2nd and later iterations.
 Keep R2 and R3 ints in memory in symmetry-blocked form, NReq=1456573471.
 FoFCou: FMM=F IPFlag=           8 FMFlag=           0 FMFlg1=           0
         NFxFlg=           0 DoJE=F BraDBF=F KetDBF=F FulRan=T
         wScrn=  0.000000 ICntrl=       600 IOpCl=  0 I1Cent=           0 NGrid=           0
         NMat0=    1 NMatS0=  48205 NMatT0=    0 NMatD0=    1 NMtDS0=    0 NMtDT0=    0
 Petite list used in FoFCou.
 CIDS: In Core Option IDoMem=           1.
 CCSD(T)
 =======
 Iterations= 150 Convergence= 0.100D-06
 Produce multiple copies of IABC intergrals
 Iteration Nr.   1
 **********************
 DD1Dir will call FoFMem   1 times, MxPair=       290
 NAB=   100 NAA=    45 NBB=    45.
 DD1Dir will call FoFMem   1 times, MxPair=       290
 NAB=   100 NAA=    45 NBB=    45.
 MP4(R+Q)= -0.25006559D+00
 Maximum subspace dimension=  5
 A-vector RMS=  2.7115750D-05 Max=  3.8805836D-03 conv= 1.00D-05.
 RLE energy=       -1.1732837939
 E3=        0.23193962D+00        EROMP3=      -0.16545011164D+04
 E4(SDQ)=  -0.16948696D+00        ROMP4(SDQ)=  -0.16546706033D+04
 VARIATIONAL ENERGIES WITH THE FIRST-ORDER WAVEFUNCTION:
 DE(Corr)=  -1.1729948     E(Corr)=     -1654.7511819    
 NORM(A)=   0.10783879D+01
 Iteration Nr.   2
 **********************
 DD1Dir will call FoFMem   1 times, MxPair=       290
 NAB=   100 NAA=    45 NBB=    45.
 A-vector RMS=  4.1446470D-03 Max=  3.4298430D-02 conv= 1.00D-05.
 RLE energy=       -1.1299241255
 DE(Corr)= -0.92673797     E(CORR)=     -1654.5049251     Delta= 2.46D-01
 NORM(A)=   0.10707661D+01
 Iteration Nr.   3
 **********************
 DD1Dir will call FoFMem   1 times, MxPair=       290
 NAB=   100 NAA=    45 NBB=    45.
 A-vector RMS=  2.9584142D-03 Max=  2.3804316D-02 conv= 1.00D-05.
 RLE energy=       -1.0674765619
 DE(Corr)= -0.94679463     E(CORR)=     -1654.5249818     Delta=-2.01D-02
 NORM(A)=   0.10641779D+01
 Iteration Nr.   4
 **********************
 DD1Dir will call FoFMem   1 times, MxPair=       290
 NAB=   100 NAA=    45 NBB=    45.
 A-vector RMS=  1.9564377D-03 Max=  1.5618295D-02 conv= 1.00D-05.
 RLE energy=       -0.9667092344
 DE(Corr)= -0.97798424     E(CORR)=     -1654.5561714     Delta=-3.12D-02
 NORM(A)=   0.10652099D+01
 Iteration Nr.   5
 **********************
 DD1Dir will call FoFMem   1 times, MxPair=       290
 NAB=   100 NAA=    45 NBB=    45.
 A-vector RMS=  1.2032967D-03 Max=  9.8270109D-03 conv= 1.00D-05.
 RLE energy=       -0.9943335302
 DE(Corr)=  -1.0395127     E(CORR)=     -1654.6176998     Delta=-6.15D-02
 NORM(A)=   0.10697908D+01
 Iteration Nr.   6
 **********************
 DD1Dir will call FoFMem   1 times, MxPair=       290
 NAB=   100 NAA=    45 NBB=    45.
 A-vector RMS=  4.3541491D-04 Max=  3.6314767D-03 conv= 1.00D-05.
 RLE energy=       -1.0148705769
 DE(Corr)=  -1.0247725     E(CORR)=     -1654.6029597     Delta= 1.47D-02
 NORM(A)=   0.10685309D+01
 Iteration Nr.   7
 **********************
 DD1Dir will call FoFMem   1 times, MxPair=       290
 NAB=   100 NAA=    45 NBB=    45.
 A-vector RMS=  1.1008459D-04 Max=  1.7151235D-03 conv= 1.00D-05.
 RLE energy=       -1.0130032825
 DE(Corr)=  -1.0123309     E(CORR)=     -1654.5905181     Delta= 1.24D-02
 NORM(A)=   0.10686153D+01
 Iteration Nr.   8
 **********************
 DD1Dir will call FoFMem   1 times, MxPair=       290
 NAB=   100 NAA=    45 NBB=    45.
 A-vector RMS=  8.3787960D-05 Max=  1.1778604D-03 conv= 1.00D-05.
 RLE energy=       -1.0130270117
 DE(Corr)=  -1.0132418     E(CORR)=     -1654.5914290     Delta=-9.11D-04
 NORM(A)=   0.10689186D+01
 Iteration Nr.   9
 **********************
 DD1Dir will call FoFMem   1 times, MxPair=       290
 NAB=   100 NAA=    45 NBB=    45.
 A-vector RMS=  4.4458321D-05 Max=  6.2726652D-04 conv= 1.00D-05.
 RLE energy=       -1.0131298234
 DE(Corr)=  -1.0131235     E(CORR)=     -1654.5913107     Delta= 1.18D-04
 NORM(A)=   0.10692325D+01
 Iteration Nr.  10
 **********************
 DD1Dir will call FoFMem   1 times, MxPair=       290
 NAB=   100 NAA=    45 NBB=    45.
 A-vector RMS=  1.5322431D-05 Max=  1.5438111D-04 conv= 1.00D-05.
 RLE energy=       -1.0131448619
 DE(Corr)=  -1.0131352     E(CORR)=     -1654.5913223     Delta=-1.16D-05
 NORM(A)=   0.10692902D+01
 Iteration Nr.  11
 **********************
 DD1Dir will call FoFMem   1 times, MxPair=       290
 NAB=   100 NAA=    45 NBB=    45.
 A-vector RMS=  1.1537850D-05 Max=  1.7891108D-04 conv= 1.00D-05.
 RLE energy=       -1.0130932850
 DE(Corr)=  -1.0131078     E(CORR)=     -1654.5912950     Delta= 2.73D-05
 NORM(A)=   0.10693064D+01
 Iteration Nr.  12
 **********************
 DD1Dir will call FoFMem   1 times, MxPair=       290
 NAB=   100 NAA=    45 NBB=    45.
 A-vector RMS=  5.9725990D-06 Max=  5.9432795D-05 conv= 1.00D-05.
 RLE energy=       -1.0131479256
 DE(Corr)=  -1.0131483     E(CORR)=     -1654.5913355     Delta=-4.05D-05
 NORM(A)=   0.10692978D+01
 Iteration Nr.  13
 **********************
 DD1Dir will call FoFMem   1 times, MxPair=       290
 NAB=   100 NAA=    45 NBB=    45.
 A-vector RMS=  2.2074169D-06 Max=  2.0480111D-05 conv= 1.00D-05.
 RLE energy=       -1.0131169313
 DE(Corr)=  -1.0131077     E(CORR)=     -1654.5912949     Delta= 4.06D-05
 NORM(A)=   0.10692917D+01
 Iteration Nr.  14
 **********************
 DD1Dir will call FoFMem   1 times, MxPair=       290
 NAB=   100 NAA=    45 NBB=    45.
 A-vector RMS=  1.2062658D-06 Max=  9.6227376D-06 conv= 1.00D-05.
 RLE energy=       -1.0131215302
 DE(Corr)=  -1.0131260     E(CORR)=     -1654.5913132     Delta=-1.83D-05
 NORM(A)=   0.10692885D+01
 Iteration Nr.  15
 **********************
 DD1Dir will call FoFMem   1 times, MxPair=       290
 NAB=   100 NAA=    45 NBB=    45.
 A-vector RMS=  6.7799222D-07 Max=  8.2562543D-06 conv= 1.00D-05.
 RLE energy=       -1.0131204903
 DE(Corr)=  -1.0131203     E(CORR)=     -1654.5913075     Delta= 5.71D-06
 NORM(A)=   0.10692871D+01
 Iteration Nr.  16
 **********************
 DD1Dir will call FoFMem   1 times, MxPair=       290
 NAB=   100 NAA=    45 NBB=    45.
 A-vector RMS=  3.3323303D-07 Max=  5.6987197D-06 conv= 1.00D-05.
 RLE energy=       -1.0131207435
 DE(Corr)=  -1.0131209     E(CORR)=     -1654.5913081     Delta=-5.49D-07
 NORM(A)=   0.10692859D+01
 Iteration Nr.  17
 **********************
 DD1Dir will call FoFMem   1 times, MxPair=       290
 NAB=   100 NAA=    45 NBB=    45.
 A-vector RMS=  1.8938682D-07 Max=  2.9249080D-06 conv= 1.00D-05.
 RLE energy=       -1.0131200927
 DE(Corr)=  -1.0131202     E(CORR)=     -1654.5913074     Delta= 6.40D-07
 NORM(A)=   0.10692850D+01
 Iteration Nr.  18
 **********************
 DD1Dir will call FoFMem   1 times, MxPair=       290
 NAB=   100 NAA=    45 NBB=    45.
 A-vector RMS=  1.6262518D-07 Max=  2.5680949D-06 conv= 1.00D-05.
 RLE energy=       -1.0131204469
 DE(Corr)=  -1.0131205     E(CORR)=     -1654.5913077     Delta=-3.09D-07
 NORM(A)=   0.10692840D+01
 Iteration Nr.  19
 **********************
 DD1Dir will call FoFMem   1 times, MxPair=       290
 NAB=   100 NAA=    45 NBB=    45.
 A-vector RMS=  8.7936809D-08 Max=  8.6835373D-07 conv= 1.00D-05.
 RLE energy=       -1.0131200615
 DE(Corr)=  -1.0131201     E(CORR)=     -1654.5913072     Delta= 4.83D-07
 NORM(A)=   0.10692837D+01
 Iteration Nr.  20
 **********************
 DD1Dir will call FoFMem   1 times, MxPair=       290
 NAB=   100 NAA=    45 NBB=    45.
 A-vector RMS=  4.8130678D-08 Max=  5.3395306D-07 conv= 1.00D-05.
 RLE energy=       -1.0131203531
 DE(Corr)=  -1.0131204     E(CORR)=     -1654.5913076     Delta=-3.50D-07
 NORM(A)=   0.10692835D+01
 Iteration Nr.  21
 **********************
 DD1Dir will call FoFMem   1 times, MxPair=       290
 NAB=   100 NAA=    45 NBB=    45.
 A-vector RMS=  3.3001951D-08 Max=  3.6406736D-07 conv= 1.00D-05.
 RLE energy=       -1.0131203090
 DE(Corr)=  -1.0131202     E(CORR)=     -1654.5913074     Delta= 2.35D-07
 NORM(A)=   0.10692835D+01
 Iteration Nr.  22
 **********************
 DD1Dir will call FoFMem   1 times, MxPair=       290
 NAB=   100 NAA=    45 NBB=    45.
 A-vector RMS=  2.6061938D-08 Max=  3.5739037D-07 conv= 1.00D-05.
 RLE energy=       -1.0131202940
 DE(Corr)=  -1.0131202     E(CORR)=     -1654.5913074     Delta=-2.30D-08
 NORM(A)=   0.10692835D+01
 CI/CC converged in   22 iterations to DelEn=-2.30D-08 Conv= 1.00D-07 ErrA1= 2.61D-08 Conv= 1.00D-05
 Wavefunction amplitudes converged. E(Corr)=     -1654.5913074    
 Largest amplitude= 4.49D-02
 Time for triples=    27044.88 seconds.
 T4(CCSD)= -0.45229730D-01
 T5(CCSD)=  0.56505460D-02
 CCSD(T)= -0.16546308866D+04
 Discarding MO integrals.
 Leave Link  913 at Sun Apr 22 21:55:12 2018, MaxMem= 21474836480 cpu:           46685.3 elap:            1464.2
 (Enter /home1/apps/gaussian/16rA.03/g16/l601.exe)
 Copying SCF densities to generalized density rwf, IOpCl= 0 IROHF=1.

 **********************************************************************

            Population analysis using the SCF density.

 **********************************************************************

 Orbital symmetries:
       Occupied  (SG) (SG) (SG) (PI) (PI) (SG) (SG) (PI) (PI) (SG)
                 (PI) (PI) (DLTA) (DLTA) (SG)
       Virtual   (SG) (PI) (PI) (SG) (SG) (PI) (PI) (SG) (PI) (PI)
                 (SG) (DLTA) (DLTA) (SG) (SG) (PI) (PI) (SG) (PI)
                 (PI) (SG) (DLTA) (DLTA) (PI) (PI) (SG) (SG) (SG)
                 (DLTA) (DLTA) (PI) (PI) (PI) (PI) (SG) (PHI) (PHI)
                 (SG) (PI) (PI) (DLTA) (DLTA) (PI) (PI) (DLTA)
                 (DLTA) (SG) (SG) (SG) (PI) (PI) (PHI) (PHI) (DLTA)
                 (DLTA) (PI) (PI) (SG) (SG) (PI) (PI) (SG) (DLTA)
                 (DLTA) (SG) (PI) (PI) (PHI) (PHI) (DLTA) (DLTA)
                 (PI) (PI) (SG) (SG) (DLTA) (DLTA) (PI) (PI) (?A)
                 (?A) (PHI) (PHI) (SG) (PI) (PI) (DLTA) (DLTA)
                 (SG) (PI) (PI) (SG) (PI) (PI) (SG) (PHI) (PHI)
                 (DLTA) (DLTA) (PI) (PI) (SG) (SG) (PI) (PI) (DLTA)
                 (DLTA) (PHI) (PHI) (SG) (DLTA) (DLTA) (PI) (PI)
                 (DLTA) (DLTA) (SG) (PI) (PI) (SG) (?A) (?A) (PHI)
                 (PHI) (?A) (?A) (?B) (?B) (PI) (PI) (PHI) (PHI)
                 (DLTA) (DLTA) (SG) (PI) (PI) (DLTA) (DLTA) (SG)
                 (SG) (SG) (PI) (PI) (DLTA) (DLTA) (PI) (PI) (SG)
                 (PI) (PI) (SG) (PHI) (PHI) (DLTA) (DLTA) (PI)
                 (PI) (SG) (?A) (?A) (PHI) (PHI) (DLTA) (DLTA)
                 (SG) (PI) (PI) (?A) (?A) (?B) (?B) (PHI) (PHI)
                 (DLTA) (DLTA) (SG) (PI) (PI) (DLTA) (DLTA) (SG)
                 (PI) (PI) (SG) (PI) (PI) (SG) (SG) (PHI) (PHI)
                 (DLTA) (DLTA) (PI) (PI) (DLTA) (DLTA) (SG) (PI)
                 (PI) (SG) (PI) (PI) (SG) (?A) (?A) (PHI) (PHI)
                 (DLTA) (DLTA) (PI) (PI) (SG) (?A) (?A) (?B) (?B)
                 (PHI) (PHI) (DLTA) (DLTA) (SG) (PI) (PI) (SG)
                 (DLTA) (DLTA) (PI) (PI) (SG) (PI) (PI) (SG) (SG)
                 (DLTA) (DLTA) (PI) (PI) (SG) (PI) (PI) (SG) (SG)
                 (DLTA) (DLTA) (PI) (PI) (SG) (SG) (PI) (PI) (SG)
                 (PI) (PI) (SG) (DLTA) (DLTA) (PI) (PI) (SG) (SG)
                 (PI) (PI) (SG) (SG) (DLTA) (DLTA) (PI) (PI) (SG)
                 (PI) (PI) (SG) (SG) (PI) (PI) (SG) (SG) (PI) (PI)
                 (SG) (SG) (PI) (PI) (SG) (SG) (SG) (PI) (PI) (SG)
                 (SG) (SG) (SG) (SG)
 The electronic state is 1-SG.
 Alpha  occ. eigenvalues -- -332.56030 -41.74406 -35.88571 -35.87920 -35.87920
 Alpha  occ. eigenvalues --   -5.24321  -3.46903  -3.43244  -3.43244  -0.63793
 Alpha  occ. eigenvalues --   -0.57202  -0.57202  -0.54389  -0.54389  -0.32406
 Alpha virt. eigenvalues --    0.01029   0.02659   0.02659   0.02834   0.05891
 Alpha virt. eigenvalues --    0.08744   0.08744   0.09195   0.13157   0.13157
 Alpha virt. eigenvalues --    0.13283   0.14067   0.14067   0.19840   0.23186
 Alpha virt. eigenvalues --    0.25038   0.25038   0.28892   0.32939   0.32939
 Alpha virt. eigenvalues --    0.40316   0.44634   0.44634   0.45854   0.45854
 Alpha virt. eigenvalues --    0.51607   0.58176   0.69367   0.70604   0.70604
 Alpha virt. eigenvalues --    0.73878   0.73878   0.81331   0.81331   0.83508
 Alpha virt. eigenvalues --    0.99659   0.99659   1.04352   1.13913   1.13913
 Alpha virt. eigenvalues --    1.15017   1.15017   1.17368   1.17368   1.23974
 Alpha virt. eigenvalues --    1.23974   1.24179   1.35425   1.50250   1.63767
 Alpha virt. eigenvalues --    1.63767   1.71632   1.71632   1.97277   1.97277
 Alpha virt. eigenvalues --    1.98009   1.98009   2.06322   2.11986   2.43300
 Alpha virt. eigenvalues --    2.43300   2.57444   2.62800   2.62800   2.70973
 Alpha virt. eigenvalues --    2.71492   2.71492   2.95037   2.95037   2.96671
 Alpha virt. eigenvalues --    2.96671   3.03241   3.03241   3.08337   3.22028
 Alpha virt. eigenvalues --    3.30516   3.30516   3.32790   3.32790   3.42679
 Alpha virt. eigenvalues --    3.42679   3.69317   3.69317   4.14995   4.19039
 Alpha virt. eigenvalues --    4.19039   4.36152   4.36152   4.55464   5.00316
 Alpha virt. eigenvalues --    5.00316   5.28445   6.48509   6.48509   6.50991
 Alpha virt. eigenvalues --    6.62544   6.62544   6.71878   6.71878   6.78813
 Alpha virt. eigenvalues --    6.78813   6.79414   7.09860   7.38914   7.38914
 Alpha virt. eigenvalues --    7.48898   7.48898   7.51603   7.51603   7.58462
 Alpha virt. eigenvalues --    7.69627   7.69627   8.29843   8.29843   8.35544
 Alpha virt. eigenvalues --    8.35544   8.37610   8.73777   8.73777   8.83780
 Alpha virt. eigenvalues --    9.13360   9.13360   9.27461   9.27461   9.31994
 Alpha virt. eigenvalues --    9.31994   9.33252   9.33252   9.38091   9.38091
 Alpha virt. eigenvalues --    9.68837   9.68837   9.70088   9.70088  10.01086
 Alpha virt. eigenvalues --   10.74233  10.74233  11.16287  11.16287  11.61071
 Alpha virt. eigenvalues --   13.01819  13.16746  13.27738  13.27738  13.82044
 Alpha virt. eigenvalues --   13.82044  14.08529  14.08529  14.20559  14.34406
 Alpha virt. eigenvalues --   14.34406  14.99822  18.35371  18.35371  18.50999
 Alpha virt. eigenvalues --   18.50999  19.06582  19.06582  21.04050  21.59270
 Alpha virt. eigenvalues --   21.59270  21.67797  21.67797  21.86275  21.86275
 Alpha virt. eigenvalues --   22.41613  22.47913  22.47913  23.43839  23.43839
 Alpha virt. eigenvalues --   23.44730  23.44730  23.55655  23.55655  24.05089
 Alpha virt. eigenvalues --   24.05089  24.26840  24.43292  24.43292  25.92233
 Alpha virt. eigenvalues --   25.92233  26.02018  26.08098  26.08098  26.86139
 Alpha virt. eigenvalues --   27.35023  27.35023  28.07503  28.73599  45.09028
 Alpha virt. eigenvalues --   45.09028  45.19828  45.19828  45.36956  45.36956
 Alpha virt. eigenvalues --   45.43541  45.43541  45.72621  45.75520  45.75520
 Alpha virt. eigenvalues --   46.91263  49.32136  49.32136  49.43457  49.58130
 Alpha virt. eigenvalues --   49.58130  49.63766  49.63766  49.74976  49.74976
 Alpha virt. eigenvalues --   50.12957  50.12957  50.30363  54.17117  54.17117
 Alpha virt. eigenvalues --   54.17575  54.17575  54.23357  54.23357  54.51766
 Alpha virt. eigenvalues --   54.51766  54.56553  54.72663  54.72663  56.51118
 Alpha virt. eigenvalues --   76.40999  76.40999  76.55402  76.55402  76.76456
 Alpha virt. eigenvalues --   86.00214  86.00214  86.20449 121.85716 130.76774
 Alpha virt. eigenvalues --  130.76774 130.90437 130.90437 131.10425 148.35363
 Alpha virt. eigenvalues --  148.35363 148.57225 158.07490 252.52405 252.52405
 Alpha virt. eigenvalues --  252.64456 252.64456 252.81591 264.50321 264.52508
 Alpha virt. eigenvalues --  264.52508 283.89910 502.59429 502.59429 502.67717
 Alpha virt. eigenvalues --  591.37098 591.37098 591.46737 591.46737 591.60877
 Alpha virt. eigenvalues --  672.370731013.103421013.103421013.187461551.00699
 Alpha virt. eigenvalues -- 1774.009531774.009531774.071031774.071031774.16021
 Alpha virt. eigenvalues -- 2129.571402129.571402129.641703445.739324600.32523
 Alpha virt. eigenvalues -- 4600.325234600.373027341.86728********************
 Alpha virt. eigenvalues -- **************************************************
 Alpha virt. eigenvalues -- **************************************************
 Alpha virt. eigenvalues -- ****************************************
     Molecular Orbital Coefficients:
                          11        12        13        14        15
                           O         O         O         O         O
     Eigenvalues --    -0.57202  -0.57202  -0.54389  -0.54389  -0.32406
   1 1   Cu 1S         -0.00000   0.00000   0.00000  -0.00000  -0.00000
   2        2S         -0.00000   0.00000   0.00000   0.00000  -0.00000
   3        3S         -0.00000   0.00000   0.00000  -0.00000  -0.00001
   4        4S         -0.00000   0.00000   0.00000   0.00000  -0.00003
   5        5S         -0.00000   0.00000   0.00000  -0.00000  -0.00007
   6        6S         -0.00000   0.00000   0.00000   0.00000  -0.00016
   7        7S         -0.00000   0.00000   0.00000   0.00000  -0.00038
   8        8S         -0.00000   0.00000   0.00000   0.00000  -0.00093
   9        9S         -0.00000   0.00000   0.00000   0.00000  -0.00218
  10       10S         -0.00000   0.00000   0.00000   0.00000  -0.00480
  11       11S         -0.00000   0.00000   0.00000   0.00000  -0.00923
  12       12S         -0.00000   0.00000   0.00000  -0.00000  -0.01401
  13       13S         -0.00000   0.00000  -0.00000   0.00000  -0.01001
  14       14S          0.00000  -0.00000   0.00000  -0.00000   0.02185
  15       15S          0.00000  -0.00000  -0.00000  -0.00000   0.07720
  16       16S         -0.00000  -0.00000   0.00000  -0.00000   0.10469
  17       17S         -0.00000   0.00000   0.00000  -0.00000  -0.06630
  18       18S          0.00000   0.00000  -0.00000  -0.00000  -0.15761
  19       19S         -0.00000   0.00000   0.00000   0.00000  -0.17129
  20       20S         -0.00000  -0.00000   0.00000  -0.00000   0.26121
  21       21S         -0.00000  -0.00000  -0.00000   0.00000   0.39673
  22       22S         -0.00000   0.00000   0.00000  -0.00000   0.11838
  23       23S          0.00000  -0.00000  -0.00000   0.00000  -0.03842
  24       24S         -0.00000  -0.00000   0.00000   0.00000  -0.04597
  25       25S          0.00000   0.00000   0.00000  -0.00000  -0.00607
  26       26PX        -0.00000  -0.00000  -0.00000   0.00000   0.00000
  27       26PY        -0.00000   0.00000   0.00000  -0.00000  -0.00000
  28       26PZ         0.00000   0.00000  -0.00000  -0.00000  -0.00000
  29       27PX        -0.00000  -0.00000  -0.00000   0.00000   0.00000
  30       27PY        -0.00000   0.00000  -0.00000  -0.00000  -0.00000
  31       27PZ         0.00000   0.00000   0.00000  -0.00000  -0.00001
  32       28PX        -0.00000  -0.00000  -0.00000   0.00000  -0.00000
  33       28PY        -0.00000   0.00000   0.00000  -0.00000  -0.00000
  34       28PZ        -0.00000   0.00000   0.00000  -0.00000  -0.00003
  35       29PX        -0.00000  -0.00000  -0.00000   0.00000   0.00000
  36       29PY        -0.00000   0.00000  -0.00000  -0.00000  -0.00000
  37       29PZ         0.00000   0.00000   0.00000  -0.00000  -0.00010
  38       30PX        -0.00000  -0.00001  -0.00000   0.00000   0.00000
  39       30PY        -0.00001   0.00000   0.00000  -0.00000  -0.00000
  40       30PZ         0.00000   0.00000   0.00000  -0.00000  -0.00033
  41       31PX        -0.00000  -0.00002  -0.00000   0.00000   0.00000
  42       31PY        -0.00002   0.00000  -0.00000  -0.00000  -0.00000
  43       31PZ         0.00000   0.00000   0.00000  -0.00000  -0.00101
  44       32PX        -0.00001  -0.00006  -0.00000   0.00000   0.00000
  45       32PY        -0.00006   0.00001   0.00000  -0.00000  -0.00000
  46       32PZ         0.00000   0.00000   0.00000  -0.00000  -0.00267
  47       33PX        -0.00002  -0.00012  -0.00000   0.00000   0.00000
  48       33PY        -0.00012   0.00002   0.00000  -0.00000  -0.00000
  49       33PZ         0.00000   0.00000   0.00000  -0.00000  -0.00589
  50       34PX        -0.00003  -0.00024  -0.00000   0.00000  -0.00000
  51       34PY        -0.00024   0.00003   0.00000  -0.00000  -0.00000
  52       34PZ         0.00000   0.00000   0.00000  -0.00000  -0.01000
  53       35PX        -0.00002  -0.00012  -0.00000   0.00000   0.00000
  54       35PY        -0.00012   0.00002  -0.00000  -0.00000  -0.00000
  55       35PZ         0.00000   0.00000  -0.00000  -0.00000  -0.01197
  56       36PX         0.00009   0.00066  -0.00000  -0.00000   0.00000
  57       36PY         0.00066  -0.00009  -0.00000  -0.00000  -0.00000
  58       36PZ         0.00000   0.00000  -0.00000  -0.00000  -0.00358
  59       37PX        -0.00001  -0.00008   0.00000  -0.00000  -0.00000
  60       37PY        -0.00008   0.00001   0.00000   0.00000   0.00000
  61       37PZ        -0.00000  -0.00000   0.00000   0.00000   0.02048
  62       38PX         0.00015   0.00105   0.00000  -0.00000   0.00000
  63       38PY         0.00105  -0.00015   0.00000   0.00000   0.00000
  64       38PZ        -0.00000  -0.00000   0.00000   0.00000   0.03827
  65       39PX        -0.00002  -0.00016   0.00000  -0.00000   0.00000
  66       39PY        -0.00016   0.00002  -0.00000   0.00000   0.00000
  67       39PZ         0.00000  -0.00000  -0.00000  -0.00000   0.04028
  68       40PX         0.00042   0.00297   0.00000  -0.00000   0.00000
  69       40PY         0.00297  -0.00042   0.00000   0.00000   0.00000
  70       40PZ         0.00000  -0.00000  -0.00000   0.00000   0.00860
  71       41PX         0.00150   0.01068   0.00000   0.00000   0.00000
  72       41PY         0.01068  -0.00150   0.00000  -0.00000  -0.00000
  73       41PZ         0.00000   0.00000  -0.00000  -0.00000  -0.06023
  74       42PX         0.00000   0.00002  -0.00000   0.00000   0.00000
  75       42PY         0.00002  -0.00000  -0.00000  -0.00000  -0.00000
  76       42PZ         0.00000   0.00000  -0.00000  -0.00000  -0.04797
  77       43PX        -0.00015  -0.00109  -0.00000   0.00000   0.00000
  78       43PY        -0.00109   0.00015  -0.00000  -0.00000  -0.00000
  79       43PZ        -0.00000  -0.00000  -0.00000   0.00000  -0.00677
  80       44PX        -0.00009  -0.00064  -0.00000   0.00000  -0.00000
  81       44PY        -0.00064   0.00009   0.00000  -0.00000   0.00000
  82       44PZ        -0.00000  -0.00000   0.00000   0.00000   0.00084
  83       45PX         0.00000   0.00003  -0.00000   0.00000  -0.00000
  84       45PY         0.00003  -0.00000  -0.00000  -0.00000  -0.00000
  85       45PZ         0.00000   0.00000  -0.00000  -0.00000  -0.00053
  86       46PX         0.00004   0.00027  -0.00000   0.00000   0.00000
  87       46PY         0.00027  -0.00004  -0.00000  -0.00000  -0.00000
  88       46PZ         0.00000  -0.00000  -0.00000  -0.00000   0.00049
  89       47D 0       -0.00000  -0.00000  -0.00000   0.00000  -0.00012
  90       47D+1        0.00004   0.00028   0.00000  -0.00000  -0.00000
  91       47D-1        0.00028  -0.00004   0.00000   0.00000  -0.00000
  92       47D+2       -0.00000   0.00000   0.00001   0.00028   0.00000
  93       47D-2       -0.00000  -0.00000   0.00028  -0.00001  -0.00000
  94       48D 0       -0.00000  -0.00000  -0.00000   0.00000  -0.00102
  95       48D+1        0.00034   0.00240   0.00000  -0.00000  -0.00000
  96       48D-1        0.00240  -0.00034   0.00000   0.00000  -0.00000
  97       48D+2       -0.00000   0.00000   0.00009   0.00244   0.00000
  98       48D-2       -0.00000  -0.00000   0.00244  -0.00009  -0.00000
  99       49D 0       -0.00000  -0.00000  -0.00000   0.00000  -0.00534
 100       49D+1        0.00176   0.01253   0.00000  -0.00000  -0.00000
 101       49D-1        0.01253  -0.00176   0.00000   0.00000  -0.00000
 102       49D+2       -0.00000   0.00000   0.00049   0.01274   0.00000
 103       49D-2       -0.00000  -0.00000   0.01274  -0.00049  -0.00000
 104       50D 0       -0.00000  -0.00000  -0.00000   0.00000  -0.01864
 105       50D+1        0.00615   0.04381   0.00000  -0.00000  -0.00000
 106       50D-1        0.04381  -0.00615   0.00000   0.00000  -0.00000
 107       50D+2       -0.00000   0.00000   0.00170   0.04462   0.00000
 108       50D-2       -0.00000  -0.00000   0.04462  -0.00170  -0.00000
 109       51D 0       -0.00000  -0.00000  -0.00000   0.00000  -0.04868
 110       51D+1        0.01600   0.11394   0.00000  -0.00000  -0.00000
 111       51D-1        0.11394  -0.01600   0.00000   0.00000  -0.00000
 112       51D+2       -0.00000   0.00000   0.00442   0.11555   0.00000
 113       51D-2       -0.00000  -0.00000   0.11555  -0.00442  -0.00000
 114       52D 0       -0.00000  -0.00000  -0.00000   0.00000  -0.09250
 115       52D+1        0.02998   0.21347   0.00000  -0.00000  -0.00000
 116       52D-1        0.21347  -0.02998   0.00000   0.00000  -0.00000
 117       52D+2       -0.00000   0.00000   0.00818   0.21407   0.00000
 118       52D-2       -0.00000  -0.00000   0.21407  -0.00818  -0.00000
 119       53D 0       -0.00000  -0.00000  -0.00000   0.00000  -0.12250
 120       53D+1        0.03990   0.28413   0.00000  -0.00000  -0.00000
 121       53D-1        0.28413  -0.03990   0.00000   0.00000  -0.00000
 122       53D+2       -0.00000   0.00000   0.01098   0.28733   0.00000
 123       53D-2       -0.00000  -0.00000   0.28733  -0.01098  -0.00000
 124       54D 0       -0.00000  -0.00000  -0.00000   0.00000  -0.12466
 125       54D+1        0.04089   0.29116   0.00000  -0.00000  -0.00000
 126       54D-1        0.29116  -0.04089   0.00000   0.00000  -0.00000
 127       54D+2       -0.00000   0.00000   0.01129   0.29539   0.00000
 128       54D-2       -0.00000  -0.00000   0.29539  -0.01129  -0.00000
 129       55D 0       -0.00000  -0.00000  -0.00000   0.00000  -0.10143
 130       55D+1        0.03304   0.23525   0.00000  -0.00000  -0.00000
 131       55D-1        0.23525  -0.03304   0.00000   0.00000  -0.00000
 132       55D+2       -0.00000   0.00000   0.00908   0.23756   0.00000
 133       55D-2       -0.00000  -0.00000   0.23756  -0.00908  -0.00000
 134       56D 0       -0.00000  -0.00000  -0.00000   0.00000  -0.05629
 135       56D+1        0.01853   0.13196   0.00000  -0.00000   0.00000
 136       56D-1        0.13196  -0.01853   0.00000   0.00000  -0.00000
 137       56D+2       -0.00000   0.00000   0.00533   0.13944   0.00000
 138       56D-2       -0.00000  -0.00000   0.13944  -0.00533   0.00000
 139       57D 0       -0.00000  -0.00000   0.00000   0.00000  -0.02498
 140       57D+1        0.00490   0.03492   0.00000  -0.00000   0.00000
 141       57D-1        0.03492  -0.00490  -0.00000   0.00000   0.00000
 142       57D+2       -0.00000   0.00000   0.00146   0.03810   0.00000
 143       57D-2       -0.00000  -0.00000   0.03810  -0.00146   0.00000
 144       58D 0       -0.00000  -0.00000   0.00000   0.00000   0.00093
 145       58D+1       -0.00008  -0.00059  -0.00000   0.00000  -0.00000
 146       58D-1       -0.00059   0.00008  -0.00000  -0.00000   0.00000
 147       58D+2       -0.00000   0.00000   0.00003   0.00091   0.00000
 148       58D-2       -0.00000  -0.00000   0.00091  -0.00003   0.00000
 149       59D 0       -0.00000  -0.00000   0.00000   0.00000   0.00225
 150       59D+1       -0.00018  -0.00127  -0.00000   0.00000  -0.00000
 151       59D-1       -0.00127   0.00018  -0.00000  -0.00000   0.00000
 152       59D+2       -0.00000   0.00000   0.00006   0.00167  -0.00000
 153       59D-2       -0.00000  -0.00000   0.00167  -0.00006   0.00000
 154       60D 0        0.00000  -0.00000   0.00000  -0.00000  -0.00460
 155       60D+1        0.00012   0.00085   0.00000   0.00000   0.00000
 156       60D-1        0.00085  -0.00012  -0.00000  -0.00000   0.00000
 157       60D+2       -0.00000   0.00000   0.00001   0.00039  -0.00000
 158       60D-2       -0.00000  -0.00000   0.00039  -0.00001   0.00000
 159       61F 0        0.00000   0.00000  -0.00000   0.00000  -0.00011
 160       61F+1       -0.00002  -0.00011  -0.00000   0.00000   0.00000
 161       61F-1       -0.00011   0.00002   0.00000   0.00000   0.00000
 162       61F+2       -0.00000   0.00000  -0.00000  -0.00004  -0.00000
 163       61F-2        0.00000   0.00000  -0.00004   0.00000   0.00000
 164       61F+3        0.00000   0.00000   0.00000   0.00000   0.00000
 165       61F-3       -0.00000   0.00000   0.00000   0.00000  -0.00000
 166       62F 0       -0.00000   0.00000  -0.00000  -0.00000  -0.00019
 167       62F+1       -0.00003  -0.00019  -0.00000   0.00000   0.00000
 168       62F-1       -0.00019   0.00003   0.00000   0.00000   0.00000
 169       62F+2       -0.00000   0.00000  -0.00000  -0.00013  -0.00000
 170       62F-2        0.00000  -0.00000  -0.00013   0.00000   0.00000
 171       62F+3        0.00000   0.00000   0.00000   0.00000  -0.00000
 172       62F-3       -0.00000   0.00000   0.00000   0.00000   0.00000
 173       63F 0       -0.00000  -0.00000   0.00000  -0.00000  -0.00127
 174       63F+1       -0.00016  -0.00117  -0.00000   0.00000   0.00000
 175       63F-1       -0.00117   0.00016   0.00000   0.00000   0.00000
 176       63F+2       -0.00000   0.00000  -0.00000  -0.00010  -0.00000
 177       63F-2        0.00000  -0.00000  -0.00010   0.00000   0.00000
 178       63F+3        0.00000   0.00000   0.00000   0.00000  -0.00000
 179       63F-3       -0.00000   0.00000   0.00000   0.00000   0.00000
 180       64F 0        0.00000   0.00000  -0.00000  -0.00000  -0.00528
 181       64F+1        0.00015   0.00107   0.00000   0.00000   0.00000
 182       64F-1        0.00107  -0.00015   0.00000   0.00000  -0.00000
 183       64F+2       -0.00000   0.00000   0.00008   0.00222  -0.00000
 184       64F-2       -0.00000  -0.00000   0.00222  -0.00008   0.00000
 185       64F+3        0.00000   0.00000   0.00000   0.00000  -0.00000
 186       64F-3       -0.00000   0.00000   0.00000   0.00000   0.00000
 187       65F 0       -0.00000   0.00000  -0.00000  -0.00000  -0.00814
 188       65F+1        0.00074   0.00528   0.00000  -0.00000   0.00000
 189       65F-1        0.00528  -0.00074   0.00000   0.00000  -0.00000
 190       65F+2       -0.00000   0.00000   0.00016   0.00425   0.00000
 191       65F-2       -0.00000  -0.00000   0.00425  -0.00016   0.00000
 192       65F+3       -0.00000  -0.00000  -0.00000   0.00000   0.00000
 193       65F-3       -0.00000   0.00000   0.00000  -0.00000  -0.00000
 194       66G 0       -0.00000  -0.00000   0.00000  -0.00000  -0.00002
 195       66G+1        0.00001   0.00011   0.00000  -0.00000  -0.00000
 196       66G-1        0.00011  -0.00001   0.00000   0.00000  -0.00000
 197       66G+2        0.00000   0.00000   0.00000   0.00010   0.00000
 198       66G-2       -0.00000  -0.00000   0.00010  -0.00000  -0.00000
 199       66G+3       -0.00000  -0.00000  -0.00000  -0.00000   0.00000
 200       66G-3        0.00000  -0.00000  -0.00000  -0.00000  -0.00000
 201       66G+4       -0.00000   0.00000  -0.00000  -0.00000  -0.00000
 202       66G-4        0.00000   0.00000  -0.00000  -0.00000   0.00000
 203       67G 0        0.00000   0.00000   0.00000   0.00000  -0.00017
 204       67G+1        0.00005   0.00036   0.00000  -0.00000  -0.00000
 205       67G-1        0.00036  -0.00005  -0.00000   0.00000  -0.00000
 206       67G+2        0.00000   0.00000   0.00001   0.00025   0.00000
 207       67G-2       -0.00000  -0.00000   0.00025  -0.00001  -0.00000
 208       67G+3       -0.00000  -0.00000  -0.00000  -0.00000   0.00000
 209       67G-3        0.00000   0.00000  -0.00000  -0.00000  -0.00000
 210       67G+4       -0.00000  -0.00000  -0.00000  -0.00000  -0.00000
 211       67G-4       -0.00000  -0.00000  -0.00000   0.00000  -0.00000
 212       68G 0       -0.00000  -0.00000  -0.00000   0.00000  -0.00011
 213       68G+1        0.00023   0.00161   0.00000  -0.00000  -0.00000
 214       68G-1        0.00161  -0.00023  -0.00000   0.00000  -0.00000
 215       68G+2        0.00000   0.00000   0.00004   0.00095   0.00000
 216       68G-2       -0.00000  -0.00000   0.00095  -0.00004  -0.00000
 217       68G+3       -0.00000  -0.00000  -0.00000  -0.00000   0.00000
 218       68G-3        0.00000  -0.00000  -0.00000  -0.00000  -0.00000
 219       68G+4        0.00000   0.00000  -0.00000  -0.00000   0.00000
 220       68G-4        0.00000   0.00000  -0.00000  -0.00000  -0.00000
 221       69G 0        0.00000   0.00000  -0.00000  -0.00000  -0.00006
 222       69G+1        0.00022   0.00157   0.00000  -0.00000  -0.00000
 223       69G-1        0.00157  -0.00022  -0.00000  -0.00000   0.00000
 224       69G+2        0.00000   0.00000   0.00004   0.00113   0.00000
 225       69G-2       -0.00000  -0.00000   0.00113  -0.00004  -0.00000
 226       69G+3        0.00000   0.00000  -0.00000  -0.00000   0.00000
 227       69G-3       -0.00000  -0.00000  -0.00000  -0.00000  -0.00000
 228       69G+4       -0.00000  -0.00000   0.00000   0.00000   0.00000
 229       69G-4       -0.00000  -0.00000   0.00000   0.00000   0.00000
 230       70H 0        0.00000  -0.00000  -0.00000   0.00000   0.00002
 231       70H+1       -0.00000  -0.00003  -0.00000   0.00000   0.00000
 232       70H-1       -0.00003   0.00000   0.00000   0.00000   0.00000
 233       70H+2       -0.00000  -0.00000  -0.00000  -0.00003  -0.00000
 234       70H-2        0.00000   0.00000  -0.00003   0.00000   0.00000
 235       70H+3        0.00000   0.00000   0.00000   0.00000  -0.00000
 236       70H-3       -0.00000   0.00000   0.00000   0.00000   0.00000
 237       70H+4       -0.00000   0.00000  -0.00000  -0.00000   0.00000
 238       70H-4        0.00000   0.00000  -0.00000   0.00000  -0.00000
 239       70H+5        0.00000   0.00000  -0.00000  -0.00000   0.00000
 240       70H-5        0.00000  -0.00000  -0.00000  -0.00000  -0.00000
 241       71H 0       -0.00000   0.00000   0.00000   0.00000   0.00006
 242       71H+1       -0.00002  -0.00016  -0.00000   0.00000   0.00000
 243       71H-1       -0.00016   0.00002  -0.00000  -0.00000   0.00000
 244       71H+2       -0.00000  -0.00000  -0.00000  -0.00005  -0.00000
 245       71H-2        0.00000   0.00000  -0.00005   0.00000   0.00000
 246       71H+3        0.00000  -0.00000   0.00000   0.00000  -0.00000
 247       71H-3        0.00000  -0.00000   0.00000   0.00000  -0.00000
 248       71H+4        0.00000  -0.00000  -0.00000  -0.00000  -0.00000
 249       71H-4        0.00000  -0.00000  -0.00000  -0.00000   0.00000
 250       71H+5        0.00000  -0.00000  -0.00000  -0.00000  -0.00000
 251       71H-5       -0.00000  -0.00000  -0.00000   0.00000  -0.00000
 252       72H 0        0.00000  -0.00000   0.00000  -0.00000  -0.00010
 253       72H+1       -0.00005  -0.00033  -0.00000   0.00000   0.00000
 254       72H-1       -0.00033   0.00005   0.00000   0.00000   0.00000
 255       72H+2       -0.00000  -0.00000  -0.00001  -0.00023  -0.00000
 256       72H-2        0.00000   0.00000  -0.00023   0.00001   0.00000
 257       72H+3        0.00000   0.00000   0.00000   0.00000  -0.00000
 258       72H-3       -0.00000   0.00000   0.00000   0.00000   0.00000
 259       72H+4       -0.00000   0.00000   0.00000   0.00000   0.00000
 260       72H-4       -0.00000   0.00000   0.00000   0.00000   0.00000
 261       72H+5        0.00000   0.00000  -0.00000   0.00000  -0.00000
 262       72H-5        0.00000  -0.00000   0.00000   0.00000  -0.00000
 263 2   H  1S         -0.00000  -0.00000  -0.00000   0.00000   0.00083
 264        2S         -0.00000  -0.00000  -0.00000   0.00000   0.00641
 265        3S         -0.00000  -0.00000  -0.00000   0.00000   0.03005
 266        4S         -0.00000  -0.00000  -0.00000   0.00000   0.09628
 267        5S          0.00000   0.00000  -0.00000   0.00000   0.14408
 268        6S          0.00000   0.00000   0.00000   0.00000   0.10594
 269        7S          0.00000  -0.00000  -0.00000  -0.00000   0.01514
 270        8PX        -0.00074  -0.00529  -0.00000   0.00000   0.00000
 271        8PY        -0.00529   0.00074   0.00000  -0.00000  -0.00000
 272        8PZ        -0.00000  -0.00000  -0.00000   0.00000  -0.00317
 273        9PX        -0.00152  -0.01085  -0.00000   0.00000   0.00000
 274        9PY        -0.01085   0.00152   0.00000  -0.00000  -0.00000
 275        9PZ         0.00000  -0.00000  -0.00000   0.00000  -0.00261
 276       10PX        -0.00207  -0.01471  -0.00000   0.00000   0.00000
 277       10PY        -0.01471   0.00207   0.00000   0.00000  -0.00000
 278       10PZ         0.00000   0.00000  -0.00000  -0.00000  -0.01439
 279       11PX         0.00012   0.00082  -0.00000  -0.00000   0.00000
 280       11PY         0.00082  -0.00012   0.00000   0.00000  -0.00000
 281       11PZ         0.00000   0.00000   0.00000   0.00000  -0.01749
 282       12D 0       -0.00000  -0.00000  -0.00000  -0.00000  -0.00157
 283       12D+1       -0.00037  -0.00262  -0.00000   0.00000   0.00000
 284       12D-1       -0.00262   0.00037  -0.00000  -0.00000   0.00000
 285       12D+2        0.00000   0.00000   0.00003   0.00071   0.00000
 286       12D-2       -0.00000  -0.00000   0.00071  -0.00003  -0.00000
 287       13D 0        0.00000   0.00000  -0.00000  -0.00000  -0.00151
 288       13D+1       -0.00038  -0.00268  -0.00000   0.00000   0.00000
 289       13D-1       -0.00268   0.00038  -0.00000  -0.00000  -0.00000
 290       13D+2        0.00000   0.00000   0.00006   0.00166   0.00000
 291       13D-2       -0.00000  -0.00000   0.00166  -0.00006  -0.00000
 292       14D 0       -0.00000  -0.00000  -0.00000  -0.00000  -0.00159
 293       14D+1       -0.00004  -0.00026  -0.00000   0.00000   0.00000
 294       14D-1       -0.00026   0.00004  -0.00000  -0.00000  -0.00000
 295       14D+2        0.00000   0.00000   0.00003   0.00089  -0.00000
 296       14D-2        0.00000   0.00000   0.00089  -0.00003  -0.00000
 297       15F 0       -0.00000  -0.00000  -0.00000   0.00000  -0.00065
 298       15F+1       -0.00014  -0.00102  -0.00000   0.00000  -0.00000
 299       15F-1       -0.00102   0.00014  -0.00000  -0.00000  -0.00000
 300       15F+2        0.00000   0.00000   0.00002   0.00060   0.00000
 301       15F-2       -0.00000  -0.00000   0.00060  -0.00002  -0.00000
 302       15F+3        0.00000  -0.00000   0.00000   0.00000  -0.00000
 303       15F-3       -0.00000   0.00000   0.00000   0.00000   0.00000
 304       16F 0       -0.00000   0.00000  -0.00000  -0.00000   0.00056
 305       16F+1        0.00007   0.00047  -0.00000   0.00000  -0.00000
 306       16F-1        0.00047  -0.00007  -0.00000  -0.00000  -0.00000
 307       16F+2       -0.00000   0.00000  -0.00000  -0.00000  -0.00000
 308       16F-2        0.00000  -0.00000  -0.00000   0.00000   0.00000
 309       16F+3       -0.00000  -0.00000   0.00000   0.00000  -0.00000
 310       16F-3        0.00000   0.00000   0.00000  -0.00000  -0.00000
                          16        17        18        19        20
                           V         V         V         V         V
     Eigenvalues --     0.01029   0.02659   0.02659   0.02834   0.05891
   1 1   Cu 1S         -0.00000  -0.00000  -0.00000  -0.00000   0.00000
   2        2S         -0.00000  -0.00000  -0.00000  -0.00000   0.00000
   3        3S         -0.00000  -0.00000  -0.00000  -0.00000   0.00000
   4        4S         -0.00000  -0.00000  -0.00000  -0.00000   0.00000
   5        5S         -0.00000  -0.00000  -0.00000  -0.00001   0.00001
   6        6S         -0.00000  -0.00000  -0.00000  -0.00002   0.00003
   7        7S         -0.00000  -0.00000  -0.00000  -0.00005   0.00006
   8        8S         -0.00001  -0.00000  -0.00000  -0.00011   0.00015
   9        9S         -0.00002  -0.00000  -0.00000  -0.00028   0.00035
  10       10S         -0.00006  -0.00000  -0.00000  -0.00058   0.00077
  11       11S         -0.00009  -0.00000  -0.00000  -0.00122   0.00146
  12       12S         -0.00019  -0.00000  -0.00000  -0.00159   0.00226
  13       13S         -0.00005  -0.00000  -0.00000  -0.00162   0.00154
  14       14S          0.00004   0.00000   0.00000   0.00381  -0.00337
  15       15S          0.00152   0.00000   0.00000   0.00606  -0.01241
  16       16S         -0.00828   0.00000  -0.00000   0.05501  -0.02171
  17       17S         -0.00460  -0.00000  -0.00000   0.00544   0.00246
  18       18S          0.00123   0.00000  -0.00000   0.00164  -0.01083
  19       19S          0.00055  -0.00000  -0.00000  -0.01514   0.04178
  20       20S         -0.87690  -0.00000   0.00000  -0.50265  -2.29761
  21       21S          2.76381   0.00000   0.00000  -2.93300   7.49194
  22       22S         -0.40399  -0.00000   0.00000  -2.98757  -2.73525
  23       23S          0.01023   0.00000   0.00000  -0.05100   0.01356
  24       24S          0.00293  -0.00000  -0.00000  -0.03618   0.05200
  25       25S          1.57870  -0.00000   0.00000  -5.10699   0.93108
  26       26PX         0.00000  -0.00000   0.00000   0.00000   0.00000
  27       26PY        -0.00000   0.00000   0.00000  -0.00000   0.00000
  28       26PZ         0.00000   0.00000   0.00000   0.00000  -0.00000
  29       27PX        -0.00000  -0.00000   0.00000  -0.00000  -0.00000
  30       27PY        -0.00000   0.00000   0.00000   0.00000  -0.00000
  31       27PZ         0.00000   0.00000   0.00000   0.00000  -0.00001
  32       28PX         0.00000  -0.00001   0.00001   0.00000   0.00000
  33       28PY        -0.00000   0.00001   0.00001  -0.00000   0.00000
  34       28PZ         0.00002   0.00000   0.00000   0.00000  -0.00003
  35       29PX         0.00000  -0.00002   0.00003  -0.00000  -0.00000
  36       29PY        -0.00000   0.00003   0.00002   0.00000  -0.00000
  37       29PZ         0.00007   0.00000   0.00000   0.00000  -0.00011
  38       30PX         0.00000  -0.00007   0.00011   0.00000   0.00000
  39       30PY        -0.00000   0.00011   0.00007  -0.00000   0.00000
  40       30PZ         0.00025   0.00000   0.00000   0.00003  -0.00038
  41       31PX         0.00000  -0.00018   0.00027  -0.00000  -0.00000
  42       31PY        -0.00000   0.00027   0.00018  -0.00000  -0.00000
  43       31PZ         0.00078   0.00000   0.00000   0.00005  -0.00115
  44       32PX         0.00000  -0.00061   0.00090   0.00000  -0.00000
  45       32PY        -0.00000   0.00090   0.00061  -0.00000  -0.00000
  46       32PZ         0.00200   0.00000   0.00000   0.00029  -0.00305
  47       33PX         0.00000  -0.00099   0.00146  -0.00000  -0.00000
  48       33PY        -0.00000   0.00146   0.00099  -0.00000  -0.00000
  49       33PZ         0.00464   0.00000   0.00000   0.00017  -0.00674
  50       34PX         0.00000  -0.00274   0.00406   0.00000   0.00000
  51       34PY        -0.00000   0.00406   0.00274  -0.00000   0.00000
  52       34PZ         0.00720   0.00000   0.00000   0.00169  -0.01142
  53       35PX        -0.00000   0.00138  -0.00205  -0.00000  -0.00000
  54       35PY        -0.00000  -0.00205  -0.00138   0.00000  -0.00000
  55       35PZ         0.01165   0.00000   0.00000  -0.00415  -0.01366
  56       36PX        -0.00000   0.02495  -0.03703  -0.00000  -0.00000
  57       36PY         0.00000  -0.03703  -0.02495   0.00000  -0.00000
  58       36PZ         0.02043   0.00000  -0.00000  -0.03382  -0.00236
  59       37PX         0.00000  -0.01600   0.02375   0.00000   0.00000
  60       37PY         0.00000   0.02375   0.01600  -0.00000   0.00000
  61       37PZ        -0.03110  -0.00000  -0.00000   0.02559   0.01971
  62       38PX         0.00000  -0.05758   0.08544   0.00000   0.00000
  63       38PY        -0.00000   0.08544   0.05758  -0.00000   0.00000
  64       38PZ        -0.08940  -0.00000   0.00000   0.08875   0.01648
  65       39PX        -0.00000   0.02194  -0.03255  -0.00000  -0.00000
  66       39PY         0.00000  -0.03255  -0.02194   0.00000  -0.00000
  67       39PZ        -0.01383  -0.00000  -0.00000  -0.02544   0.04835
  68       40PX        -0.00000  -0.00463   0.00687   0.00000   0.00000
  69       40PY         0.00000   0.00687   0.00463  -0.00000   0.00000
  70       40PZ        -0.01388  -0.00000  -0.00000   0.01862   0.04223
  71       41PX         0.00000   0.05913  -0.08773  -0.00000  -0.00000
  72       41PY        -0.00000  -0.08773  -0.05913   0.00000  -0.00000
  73       41PZ         0.46428   0.00000  -0.00000   0.19566   1.00580
  74       42PX         0.00000  -0.01769   0.02625  -0.00000  -0.00000
  75       42PY        -0.00000   0.02625   0.01769  -0.00000  -0.00000
  76       42PZ        -0.72250   0.00000  -0.00000   1.16841  -2.18307
  77       43PX         0.00000   0.23959  -0.35550  -0.00000  -0.00000
  78       43PY        -0.00000  -0.35550  -0.23959   0.00000  -0.00000
  79       43PZ        -0.21160   0.00000  -0.00000   1.00398  -1.25663
  80       44PX         0.00000  -0.02209   0.03278   0.00000   0.00000
  81       44PY        -0.00000   0.03278   0.02209  -0.00000   0.00000
  82       44PZ        -0.01578  -0.00000   0.00000   0.02949  -0.00001
  83       45PX        -0.00000   0.06962  -0.10331  -0.00000  -0.00000
  84       45PY         0.00000  -0.10331  -0.06962   0.00000  -0.00000
  85       45PZ         0.06134   0.00000  -0.00000  -0.09628   0.02433
  86       46PX         0.00000  -0.67150   0.99638   0.00000   0.00000
  87       46PY        -0.00000   0.99638   0.67150  -0.00000   0.00000
  88       46PZ         0.52594   0.00000  -0.00000   1.85012   1.23183
  89       47D 0        0.00003   0.00000   0.00000  -0.00000  -0.00003
  90       47D+1        0.00000   0.00000  -0.00000   0.00000   0.00000
  91       47D-1       -0.00000  -0.00000  -0.00000  -0.00000  -0.00000
  92       47D+2        0.00000   0.00000  -0.00000  -0.00000   0.00000
  93       47D-2       -0.00000   0.00000   0.00000   0.00000  -0.00000
  94       48D 0        0.00024   0.00000   0.00000  -0.00003  -0.00033
  95       48D+1        0.00000   0.00000  -0.00001   0.00000   0.00000
  96       48D-1       -0.00000  -0.00001  -0.00000  -0.00000  -0.00000
  97       48D+2        0.00000   0.00000  -0.00000  -0.00000   0.00000
  98       48D-2       -0.00000   0.00000   0.00000   0.00000  -0.00000
[...]
  89       47D 0        0.00000   0.00000   0.00000  -0.00000
  90       47D+1        0.00001   0.00000   0.00000  -0.00000
  91       47D-1        0.00001   0.00000   0.00000  -0.00000
  92       47D+2        0.00001   0.00000   0.00000  -0.00000
  93       47D-2        0.00001   0.00000   0.00000  -0.00000
  94       48D 0        0.00019   0.00009   0.00009  -0.00000
  95       48D+1        0.00023   0.00011   0.00011  -0.00000
  96       48D-1        0.00023   0.00011   0.00011  -0.00000
  97       48D+2        0.00023   0.00012   0.00012  -0.00000
  98       48D-2        0.00023   0.00012   0.00012  -0.00000
  99       49D 0        0.00286   0.00143   0.00143  -0.00000
 100       49D+1        0.00350   0.00175   0.00175  -0.00000
 101       49D-1        0.00350   0.00175   0.00175  -0.00000
 102       49D+2        0.00355   0.00178   0.00178  -0.00000
 103       49D-2        0.00355   0.00178   0.00178  -0.00000
 104       50D 0        0.02167   0.01083   0.01083   0.00000
 105       50D+1        0.02650   0.01325   0.01325  -0.00000
 106       50D-1        0.02650   0.01325   0.01325  -0.00000
 107       50D+2        0.02695   0.01347   0.01347  -0.00000
 108       50D-2        0.02695   0.01347   0.01347  -0.00000
 109       51D 0        0.09775   0.04887   0.04887  -0.00000
 110       51D+1        0.11838   0.05919   0.05919  -0.00000
 111       51D-1        0.11838   0.05919   0.05919  -0.00000
 112       51D+2        0.11980   0.05990   0.05990  -0.00000
 113       51D-2        0.11980   0.05990   0.05990  -0.00000
 114       52D 0        0.26778   0.13389   0.13389  -0.00000
 115       52D+1        0.31301   0.15651   0.15651  -0.00000
 116       52D-1        0.31301   0.15651   0.15651  -0.00000
 117       52D+2        0.31287   0.15643   0.15643  -0.00000
 118       52D-2        0.31287   0.15643   0.15643  -0.00000
 119       53D 0        0.42796   0.21398   0.21398  -0.00000
 120       53D+1        0.49701   0.24850   0.24850   0.00000
 121       53D-1        0.49701   0.24850   0.24850  -0.00000
 122       53D+2        0.49990   0.24995   0.24995  -0.00000
 123       53D-2        0.49990   0.24995   0.24995  -0.00000
 124       54D 0        0.45580   0.22790   0.22790  -0.00000
 125       54D+1        0.51629   0.25815   0.25815  -0.00000
 126       54D-1        0.51629   0.25815   0.25815  -0.00000
 127       54D+2        0.51880   0.25940   0.25940  -0.00000
 128       54D-2        0.51880   0.25940   0.25940   0.00000
 129       55D 0        0.33265   0.16632   0.16632  -0.00000
 130       55D+1        0.35442   0.17721   0.17721  -0.00000
 131       55D-1        0.35442   0.17721   0.17721  -0.00000
 132       55D+2        0.35234   0.17617   0.17617  -0.00000
 133       55D-2        0.35234   0.17617   0.17617  -0.00000
 134       56D 0        0.14188   0.07094   0.07094  -0.00000
 135       56D+1        0.13603   0.06801   0.06801  -0.00000
 136       56D-1        0.13603   0.06801   0.06801   0.00000
 137       56D+2        0.14084   0.07042   0.07042  -0.00000
 138       56D-2        0.14084   0.07042   0.07042  -0.00000
 139       57D 0        0.01784   0.00892   0.00892  -0.00000
 140       57D+1        0.01810   0.00905   0.00905  -0.00000
 141       57D-1        0.01810   0.00905   0.00905  -0.00000
 142       57D+2        0.01939   0.00969   0.00969   0.00000
 143       57D-2        0.01939   0.00969   0.00969  -0.00000
 144       58D 0       -0.00386  -0.00193  -0.00193   0.00000
 145       58D+1       -0.00075  -0.00038  -0.00038   0.00000
 146       58D-1       -0.00075  -0.00038  -0.00038   0.00000
 147       58D+2        0.00117   0.00058   0.00058  -0.00000
 148       58D-2        0.00117   0.00058   0.00058  -0.00000
 149       59D 0       -0.01311  -0.00656  -0.00656   0.00000
 150       59D+1       -0.00206  -0.00103  -0.00103   0.00000
 151       59D-1       -0.00206  -0.00103  -0.00103   0.00000
 152       59D+2        0.00268   0.00134   0.00134  -0.00000
 153       59D-2        0.00268   0.00134   0.00134  -0.00000
 154       60D 0       -0.00001  -0.00001  -0.00001  -0.00000
 155       60D+1        0.00017   0.00008   0.00008  -0.00000
 156       60D-1        0.00017   0.00008   0.00008  -0.00000
 157       60D+2        0.00008   0.00004   0.00004  -0.00000
 158       60D-2        0.00008   0.00004   0.00004  -0.00000
 159       61F 0        0.00000   0.00000   0.00000  -0.00000
 160       61F+1        0.00000   0.00000   0.00000  -0.00000
 161       61F-1        0.00000   0.00000   0.00000  -0.00000
 162       61F+2        0.00000   0.00000   0.00000   0.00000
 163       61F-2        0.00000   0.00000   0.00000   0.00000
 164       61F+3        0.00000   0.00000   0.00000  -0.00000
 165       61F-3        0.00000   0.00000   0.00000  -0.00000
 166       62F 0        0.00002   0.00001   0.00001  -0.00000
 167       62F+1        0.00000   0.00000   0.00000  -0.00000
 168       62F-1        0.00000   0.00000   0.00000  -0.00000
 169       62F+2       -0.00000  -0.00000  -0.00000   0.00000
 170       62F-2       -0.00000  -0.00000  -0.00000   0.00000
 171       62F+3        0.00000   0.00000   0.00000  -0.00000
 172       62F-3        0.00000   0.00000   0.00000  -0.00000
 173       63F 0        0.00041   0.00020   0.00020  -0.00000
 174       63F+1        0.00002   0.00001   0.00001  -0.00000
 175       63F-1        0.00002   0.00001   0.00001  -0.00000
 176       63F+2       -0.00000  -0.00000  -0.00000   0.00000
 177       63F-2       -0.00000  -0.00000  -0.00000   0.00000
 178       63F+3        0.00000   0.00000   0.00000  -0.00000
 179       63F-3        0.00000   0.00000   0.00000  -0.00000
 180       64F 0        0.00116   0.00058   0.00058  -0.00000
 181       64F+1       -0.00001  -0.00001  -0.00001   0.00000
 182       64F-1       -0.00001  -0.00001  -0.00001   0.00000
 183       64F+2        0.00001   0.00001   0.00001  -0.00000
 184       64F-2        0.00001   0.00001   0.00001  -0.00000
 185       64F+3        0.00000   0.00000   0.00000  -0.00000
 186       64F-3        0.00000   0.00000   0.00000  -0.00000
 187       65F 0        0.00132   0.00066   0.00066  -0.00000
 188       65F+1       -0.00006  -0.00003  -0.00003   0.00000
 189       65F-1       -0.00006  -0.00003  -0.00003  -0.00000
 190       65F+2        0.00003   0.00002   0.00002  -0.00000
 191       65F-2        0.00003   0.00002   0.00002  -0.00000
 192       65F+3        0.00000   0.00000   0.00000  -0.00000
 193       65F-3        0.00000   0.00000   0.00000   0.00000
 194       66G 0        0.00000   0.00000   0.00000  -0.00000
 195       66G+1        0.00000   0.00000   0.00000  -0.00000
 196       66G-1        0.00000   0.00000   0.00000  -0.00000
 197       66G+2        0.00000   0.00000   0.00000  -0.00000
 198       66G-2        0.00000   0.00000   0.00000   0.00000
 199       66G+3        0.00000   0.00000   0.00000  -0.00000
 200       66G-3        0.00000   0.00000   0.00000  -0.00000
 201       66G+4        0.00000   0.00000   0.00000  -0.00000
 202       66G-4        0.00000   0.00000   0.00000  -0.00000
 203       67G 0        0.00001   0.00000   0.00000  -0.00000
 204       67G+1        0.00000   0.00000   0.00000  -0.00000
 205       67G-1        0.00000   0.00000   0.00000  -0.00000
 206       67G+2        0.00000   0.00000   0.00000  -0.00000
 207       67G-2        0.00000   0.00000   0.00000  -0.00000
 208       67G+3        0.00000   0.00000   0.00000  -0.00000
 209       67G-3        0.00000   0.00000   0.00000  -0.00000
 210       67G+4        0.00000   0.00000   0.00000  -0.00000
 211       67G-4        0.00000   0.00000   0.00000  -0.00000
 212       68G 0        0.00012   0.00006   0.00006  -0.00000
 213       68G+1        0.00002   0.00001   0.00001  -0.00000
 214       68G-1        0.00002   0.00001   0.00001  -0.00000
 215       68G+2        0.00000   0.00000   0.00000  -0.00000
 216       68G-2        0.00000   0.00000   0.00000   0.00000
 217       68G+3        0.00000   0.00000   0.00000  -0.00000
 218       68G-3       -0.00000  -0.00000  -0.00000   0.00000
 219       68G+4        0.00000   0.00000   0.00000  -0.00000
 220       68G-4        0.00000   0.00000   0.00000  -0.00000
 221       69G 0        0.00016   0.00008   0.00008  -0.00000
 222       69G+1        0.00003   0.00002   0.00002   0.00000
 223       69G-1        0.00003   0.00002   0.00002   0.00000
 224       69G+2        0.00001   0.00000   0.00000  -0.00000
 225       69G-2        0.00001   0.00000   0.00000  -0.00000
 226       69G+3        0.00000   0.00000   0.00000  -0.00000
 227       69G-3        0.00000   0.00000   0.00000  -0.00000
 228       69G+4        0.00000   0.00000   0.00000  -0.00000
 229       69G-4       -0.00000  -0.00000  -0.00000   0.00000
 230       70H 0        0.00000   0.00000   0.00000   0.00000
 231       70H+1        0.00000   0.00000   0.00000  -0.00000
 232       70H-1        0.00000   0.00000   0.00000  -0.00000
 233       70H+2        0.00000   0.00000   0.00000  -0.00000
 234       70H-2        0.00000   0.00000   0.00000  -0.00000
 235       70H+3        0.00000   0.00000   0.00000  -0.00000
 236       70H-3       -0.00000  -0.00000  -0.00000   0.00000
 237       70H+4        0.00000   0.00000   0.00000   0.00000
 238       70H-4       -0.00000  -0.00000  -0.00000   0.00000
 239       70H+5        0.00000   0.00000   0.00000  -0.00000
 240       70H-5        0.00000   0.00000   0.00000  -0.00000
 241       71H 0        0.00000   0.00000   0.00000  -0.00000
 242       71H+1        0.00000   0.00000   0.00000  -0.00000
 243       71H-1        0.00000   0.00000   0.00000  -0.00000
 244       71H+2        0.00000   0.00000   0.00000  -0.00000
 245       71H-2        0.00000   0.00000   0.00000   0.00000
 246       71H+3       -0.00000  -0.00000  -0.00000   0.00000
 247       71H-3        0.00000   0.00000   0.00000  -0.00000
 248       71H+4        0.00000   0.00000   0.00000   0.00000
 249       71H-4       -0.00000  -0.00000  -0.00000   0.00000
 250       71H+5        0.00000   0.00000   0.00000  -0.00000
 251       71H-5        0.00000   0.00000   0.00000  -0.00000
 252       72H 0        0.00002   0.00001   0.00001  -0.00000
 253       72H+1        0.00000   0.00000   0.00000  -0.00000
 254       72H-1        0.00000   0.00000   0.00000  -0.00000
 255       72H+2        0.00000   0.00000   0.00000  -0.00000
 256       72H-2        0.00000   0.00000   0.00000  -0.00000
 257       72H+3        0.00000   0.00000   0.00000  -0.00000
 258       72H-3        0.00000   0.00000   0.00000  -0.00000
 259       72H+4        0.00000   0.00000   0.00000  -0.00000
 260       72H-4       -0.00000  -0.00000  -0.00000   0.00000
 261       72H+5        0.00000   0.00000   0.00000  -0.00000
 262       72H-5        0.00000   0.00000   0.00000  -0.00000
 263 2   H  1S          0.00026   0.00013   0.00013  -0.00000
 264        2S          0.00673   0.00337   0.00337  -0.00000
 265        3S          0.07242   0.03621   0.03621  -0.00000
 266        4S          0.32176   0.16088   0.16088  -0.00000
 267        5S          0.39178   0.19589   0.19589  -0.00000
 268        6S          0.21359   0.10679   0.10679  -0.00000
 269        7S          0.02145   0.01073   0.01073  -0.00000
 270        8PX         0.00167   0.00083   0.00083  -0.00000
 271        8PY         0.00167   0.00083   0.00083  -0.00000
 272        8PZ         0.00480   0.00240   0.00240  -0.00000
 273        9PX         0.00708   0.00354   0.00354   0.00000
 274        9PY         0.00708   0.00354   0.00354  -0.00000
 275        9PZ         0.00676   0.00338   0.00338  -0.00000
 276       10PX         0.00816   0.00408   0.00408  -0.00000
 277       10PY         0.00816   0.00408   0.00408  -0.00000
 278       10PZ         0.00954   0.00477   0.00477  -0.00000
 279       11PX        -0.00003  -0.00001  -0.00001  -0.00000
 280       11PY        -0.00003  -0.00001  -0.00001  -0.00000
 281       11PZ        -0.00656  -0.00328  -0.00328   0.00000
 282       12D 0        0.00203   0.00101   0.00101  -0.00000
 283       12D+1        0.00104   0.00052   0.00052  -0.00000
 284       12D-1        0.00104   0.00052   0.00052  -0.00000
 285       12D+2        0.00008   0.00004   0.00004  -0.00000
 286       12D-2        0.00008   0.00004   0.00004  -0.00000
 287       13D 0        0.00012   0.00006   0.00006   0.00000
 288       13D+1        0.00205   0.00102   0.00102  -0.00000
 289       13D-1        0.00205   0.00102   0.00102  -0.00000
 290       13D+2        0.00067   0.00033   0.00033  -0.00000
 291       13D-2        0.00067   0.00033   0.00033  -0.00000
 292       14D 0       -0.00017  -0.00008  -0.00008   0.00000
 293       14D+1        0.00000   0.00000   0.00000  -0.00000
 294       14D-1        0.00000   0.00000   0.00000   0.00000
 295       14D+2        0.00042   0.00021   0.00021  -0.00000
 296       14D-2        0.00042   0.00021   0.00021   0.00000
 297       15F 0        0.00089   0.00045   0.00045  -0.00000
 298       15F+1        0.00066   0.00033   0.00033  -0.00000
 299       15F-1        0.00066   0.00033   0.00033  -0.00000
 300       15F+2        0.00019   0.00009   0.00009  -0.00000
 301       15F-2        0.00019   0.00009   0.00009  -0.00000
 302       15F+3        0.00000   0.00000   0.00000  -0.00000
 303       15F-3        0.00000   0.00000   0.00000  -0.00000
 304       16F 0       -0.00093  -0.00047  -0.00047   0.00000
 305       16F+1        0.00021   0.00011   0.00011  -0.00000
 306       16F-1        0.00021   0.00011   0.00011  -0.00000
 307       16F+2       -0.00000  -0.00000  -0.00000   0.00000
 308       16F-2       -0.00000  -0.00000  -0.00000   0.00000
 309       16F+3        0.00000   0.00000   0.00000  -0.00000
 310       16F-3        0.00000   0.00000   0.00000   0.00000
          Condensed to atoms (all electrons):
               1          2
     1  Cu  28.414066   0.497056
     2  H    0.497056   0.591821
          Atomic-Atomic Spin Densities.
               1          2
     1  Cu   0.000000  -0.000000
     2  H   -0.000000  -0.000000
 Mulliken charges and spin densities:
               1          2
     1  Cu   0.088877  -0.000000
     2  H   -0.088877  -0.000000
 Sum of Mulliken charges =  -0.00000  -0.00000
 Mulliken charges and spin densities with hydrogens summed into heavy atoms:
               1          2
     1  Cu  -0.000000  -0.000000
 Electronic spatial extent (au):  <R**2>=             36.1193
 Charge=             -0.0000 electrons
 Dipole moment (field-independent basis, Debye):
    X=              0.0000    Y=              0.0000    Z=              2.7962  Tot=              2.7962
 Quadrupole moment (field-independent basis, Debye-Ang):
   XX=            -14.7331   YY=            -14.7331   ZZ=            -14.4723
   XY=              0.0000   XZ=              0.0000   YZ=              0.0000
 Traceless Quadrupole moment (field-independent basis, Debye-Ang):
   XX=             -0.0869   YY=             -0.0869   ZZ=              0.1738
   XY=              0.0000   XZ=              0.0000   YZ=              0.0000
 Octapole moment (field-independent basis, Debye-Ang**2):
  XXX=              0.0000  YYY=              0.0000  ZZZ=              7.8952  XYY=              0.0000
  XXY=              0.0000  XXZ=              2.3443  XZZ=              0.0000  YZZ=              0.0000
  YYZ=              2.3443  XYZ=             -0.0000
 Hexadecapole moment (field-independent basis, Debye-Ang**3):
 XXXX=            -20.2622 YYYY=            -20.2622 ZZZZ=            -26.6170 XXXY=              0.0000
 XXXZ=              0.0000 YYYX=              0.0000 YYYZ=              0.0000 ZZZX=              0.0000
 ZZZY=             -0.0000 XXYY=             -6.7541 XXZZ=             -7.8153 YYZZ=             -7.8153
 XXYZ=              0.0000 YYXZ=              0.0000 ZZXY=              0.0000
 N-N= 1.534613911668D+01 E-N=-4.076359150864D+03  KE= 1.739949293550D+03
 Orbital energies and kinetic energies (alpha):
                                 1                 2
  11         O                -0.572017          9.489894
  12         O                -0.572017          9.489894
  13         O                -0.543893          9.601708
  14         O                -0.543893          9.601707
  15         O                -0.324062          2.677803
  16         V                 0.010286          0.212739
  17         V                 0.026591          0.048369
  18         V                 0.026591          0.048369
  19         V                 0.028342          0.040862
  20         V                 0.058914          0.426431
 Total kinetic energy from orbitals= 1.739949293550D+03
 FoFCou: FMM=F IPFlag=           8 FMFlag=           0 FMFlg1=           0
         NFxFlg=           0 DoJE=F BraDBF=T KetDBF=F FulRan=T
         wScrn=  0.000000 ICntrl=   2000500 IOpCl=  0 I1Cent=           5 NGrid=           0
         NMat0=    1 NMatS0=      1 NMatT0=    0 NMatD0=    1 NMtDS0=    0 NMtDT0=    0
 Symmetry not used in FoFCou.
                          Isotropic Fermi Contact Couplings
        Atom                 a.u.       MegaHertz       Gauss      10(-4) cm-1
     1  Cu(63)             0.00000       0.00000       0.00000       0.00000
     2  H(1)               0.00000       0.00000       0.00000       0.00000
 --------------------------------------------------------
       Center         ----  Spin Dipole Couplings  ----
                      3XX-RR        3YY-RR        3ZZ-RR
 --------------------------------------------------------
     1   Atom        0.000000      0.000000      0.000000
     2   Atom        0.000000      0.000000      0.000000
 --------------------------------------------------------
                        XY            XZ            YZ
 --------------------------------------------------------
     1   Atom        0.000000      0.000000      0.000000
     2   Atom        0.000000      0.000000      0.000000
 --------------------------------------------------------


 ---------------------------------------------------------------------------------
              Anisotropic Spin Dipole Couplings in Principal Axis System
 ---------------------------------------------------------------------------------

       Atom             a.u.   MegaHertz   Gauss  10(-4) cm-1        Axes

              Baa     0.0000     0.000     0.000     0.000  1.0000  0.0000  0.0000
     1 Cu(63) Bbb     0.0000     0.000     0.000     0.000 -0.0000  1.0000  0.0000
              Bcc     0.0000     0.000     0.000     0.000  0.0000  0.0000  1.0000
 
              Baa     0.0000     0.000     0.000     0.000  1.0000  0.0000  0.0000
     2 H(1)   Bbb     0.0000     0.000     0.000     0.000 -0.0000  1.0000  0.0000
              Bcc     0.0000     0.000     0.000     0.000  0.0000  0.0000  1.0000
 

 ---------------------------------------------------------------------------------

 No NMR shielding tensors so no spin-rotation constants.
 Leave Link  601 at Sun Apr 22 21:55:14 2018, MaxMem= 21474836480 cpu:              24.0 elap:               0.8
 (Enter /home1/apps/gaussian/16rA.03/g16/l9999.exe)

 Test job not archived.
 1\1\GINC-C479-093\SP\ROCCSD(T)-FC1\Gen\Cu1H1\GWANG18\22-Apr-2018\0\\#P
  ROCCSD(T)=(MaxCyc=150, FrzINGC)/Gen SCF=(maxcycle=400, vshift=200) In
 tegral(DKHSO, NoXCTest) Pop=Regular MaxDisk=500GB Guess=Read IOp(5/15=
 2)\\CuH\\0,1\Cu,0,0.,0.,0.\H,0,0.,0.,1.\\Version=ES64L-G16RevA.03\Stat
 e=1-SG\HF=-1653.5781872\MP2=-1654.733056\MP3=-1654.5011164\PUHF=-1653.
 5781872\PMP2-0=-1654.733056\MP4SDQ=-1654.6706033\CCSD=-1654.5913074\CC
 SD(T)=-1654.6308866\RMSD=2.764e-09\PG=C*V [C*(H1Cu1)]\\@


 SILVERMAN'S PARADOX - IF MURPHY'S LAW CAN GO WRONG, IT WILL.
 Job cpu time:       0 days 14 hours 26 minutes 37.4 seconds.
 Elapsed time:       0 days  0 hours 27 minutes 13.5 seconds.
 File lengths (MBytes):  RWF=  31401 Int=      0 D2E=      0 Chk=     13 Scr=      1
 Normal termination of Gaussian 16 at Sun Apr 22 21:55:14 2018.
