 Entering Gaussian System, Link 0=g16
 Initial command:
 /home1/apps/gaussian/16rA.03/g16/l1.exe "/tmp/Gau-176352.inp" -scrdir="/tmp/"
 Entering Link 1 = /home1/apps/gaussian/16rA.03/g16/l1.exe PID=    176353.
  
 Copyright (c) 1988,1990,1992,1993,1995,1998,2003,2009,2016,
            Gaussian, Inc.  All Rights Reserved.
  
 This is part of the Gaussian(R) 16 program.  It is based on
 the Gaussian(R) 09 system (copyright 2009, Gaussian, Inc.),
 the Gaussian(R) 03 system (copyright 2003, Gaussian, Inc.),
 the Gaussian(R) 98 system (copyright 1998, Gaussian, Inc.),
 the Gaussian(R) 94 system (copyright 1995, Gaussian, Inc.),
 the Gaussian 92(TM) system (copyright 1992, Gaussian, Inc.),
 the Gaussian 90(TM) system (copyright 1990, Gaussian, Inc.),
 the Gaussian 88(TM) system (copyright 1988, Gaussian, Inc.),
 the Gaussian 86(TM) system (copyright 1986, Carnegie Mellon
 University), and the Gaussian 82(TM) system (copyright 1983,
 Carnegie Mellon University). Gaussian is a federally registered
 trademark of Gaussian, Inc.
  
 This software contains proprietary and confidential information,
 including trade secrets, belonging to Gaussian, Inc.
  
 This software is provided under written license and may be
 used, copied, transmitted, or stored only in accord with that
 written license.
  
 The following legend is applicable only to US Government
 contracts under FAR:
  
                    RESTRICTED RIGHTS LEGEND
  
 Use, reproduction and disclosure by the US Government is
 subject to restrictions as set forth in subparagraphs (a)
 and (c) of the Commercial Computer Software - Restricted
 Rights clause in FAR 52.227-19.
  
 Gaussian, Inc.
 340 Quinnipiac St., Bldg. 40, Wallingford CT 06492
  
  
 ---------------------------------------------------------------
 Warning -- This program may not be used in any manner that
 competes with the business of Gaussian, Inc. or will provide
 assistance to any competitor of Gaussian, Inc.  The licensee
 of this program is prohibited from giving any competitor of
 Gaussian, Inc. access to this program.  By using this program,
 the user acknowledges that Gaussian, Inc. is engaged in the
 business of creating and licensing software in the field of
 computational chemistry and represents and warrants to the
 licensee that it is not a competitor of Gaussian, Inc. and that
 it will not use this program in any manner prohibited above.
 ---------------------------------------------------------------
  

 Cite this work as:
 Gaussian 16, Revision A.03,
 M. J. Frisch, G. W. Trucks, H. B. Schlegel, G. E. Scuseria, 
 M. A. Robb, J. R. Cheeseman, G. Scalmani, V. Barone, 
 G. A. Petersson, H. Nakatsuji, X. Li, M. Caricato, A. V. Marenich, 
 J. Bloino, B. G. Janesko, R. Gomperts, B. Mennucci, H. P. Hratchian, 
 J. V. Ortiz, A. F. Izmaylov, J. L. Sonnenberg, D. Williams-Young, 
 F. Ding, F. Lipparini, F. Egidi, J. Goings, B. Peng, A. Petrone, 
 T. Henderson, D. Ranasinghe, V. G. Zakrzewski, J. Gao, N. Rega, 
 G. Zheng, W. Liang, M. Hada, M. Ehara, K. Toyota, R. Fukuda, 
 J. Hasegawa, M. Ishida, T. Nakajima, Y. Honda, O. Kitao, H. Nakai, 
 T. Vreven, K. Throssell, J. A. Montgomery, Jr., J. E. Peralta, 
 F. Ogliaro, M. J. Bearpark, J. J. Heyd, E. N. Brothers, K. N. Kudin, 
 V. N. Staroverov, T. A. Keith, R. Kobayashi, J. Normand, 
 K. Raghavachari, A. P. Rendell, J. C. Burant, S. S. Iyengar, 
 J. Tomasi, M. Cossi, J. M. Millam, M. Klene, C. Adamo, R. Cammi, 
 J. W. Ochterski, R. L. Martin, K. Morokuma, O. Farkas, 
 J. B. Foresman, and D. J. Fox, Gaussian, Inc., Wallingford CT, 2016.
 
 ******************************************
 Gaussian 16:  ES64L-G16RevA.03 25-Dec-2016
                30-Apr-2018 
 ******************************************
 %mem=80GB
 %cpu=0-31
 SetSPE:  set environment variable "MP_BIND" = "yes"
 SetSPE:  set environment variable "MP_BLIST" = "0,1,2,3,4,5,6,7,8,9,10,11,12,13,14,15,16,17,18,19,20,21,22,23,24,25,26,27,28,29,30,31"
 Will use up to   32 processors via shared memory.
 %chk=5z.chk
 %rwf=/scratch/04843/gwang18/znh/
 ----------------------------------------------------------------------
 #P ROCCSD(T)=(MaxCyc=150, Full)/Gen SCF=(maxcycle=400, vshift=200) Pse
 udo=Read Integral(NoXCTest) Pop=Regular MaxDisk=500GB Guess=Read IOp(5
 /15=2)
 ----------------------------------------------------------------------
 1/38=1,172=1/1;
 2/12=2,17=6,18=5,40=1/2;
 3/5=7,11=2,16=1,17=8,25=1,30=1,47=8,116=101/1,2,3;
 4/5=1/1;
 5/5=2,7=400,10=200,15=2,38=6/2;
 8/5=-1,6=4,9=120000,10=90/1,4;
 9/5=7,6=150,14=2/13;
 6//1;
 99/5=1,9=1/99;
 Leave Link    1 at Mon Apr 30 05:46:07 2018, MaxMem= 10737418240 cpu:               8.3 elap:               0.3
 (Enter /home1/apps/gaussian/16rA.03/g16/l101.exe)
 ---
 ZnH
 ---
 Symbolic Z-matrix:
 Charge =  0 Multiplicity = 2
 Zn                    0.        0.        0. 
 H                     0.        0.        1.2 
 
 ITRead=  0  0
 MicOpt= -1 -1
 NAtoms=      2 NQM=        2 NQMF=       0 NMMI=      0 NMMIF=      0
                NMic=       0 NMicF=      0.
                    Isotopes and Nuclear Properties:
 (Nuclear quadrupole moments (NQMom) in fm**2, nuclear magnetic moments (NMagM)
  in nuclear magnetons)

  Atom         1           2
 IAtWgt=          64           1
 AtmWgt=  63.9291454   1.0078250
 NucSpn=           0           1
 AtZEff=  -0.0000000  -0.0000000
 NQMom=    0.0000000   0.0000000
 NMagM=    0.0000000   2.7928460
 AtZNuc=  30.0000000   1.0000000
 Leave Link  101 at Mon Apr 30 05:46:08 2018, MaxMem= 10737418240 cpu:               3.4 elap:               0.1
 (Enter /home1/apps/gaussian/16rA.03/g16/l202.exe)
                          Input orientation:                          
 ---------------------------------------------------------------------
 Center     Atomic      Atomic             Coordinates (Angstroms)
 Number     Number       Type             X           Y           Z
 ---------------------------------------------------------------------
      1         30           0        0.000000    0.000000    0.000000
      2          1           0        0.000000    0.000000    1.200000
 ---------------------------------------------------------------------
 Stoichiometry    HZn(2)
 Framework group  C*V[C*(HZn)]
 Deg. of freedom     1
 Full point group                 C*V     NOp   4
 Largest Abelian subgroup         C2V     NOp   4
 Largest concise Abelian subgroup C1      NOp   1
                         Standard orientation:                         
 ---------------------------------------------------------------------
 Center     Atomic      Atomic             Coordinates (Angstroms)
 Number     Number       Type             X           Y           Z
 ---------------------------------------------------------------------
      1         30           0        0.000000    0.000000    0.038710
      2          1           0        0.000000    0.000000   -1.161290
 ---------------------------------------------------------------------
 Rotational constants (GHZ):           0.0000000         353.7225024         353.7225024
 Leave Link  202 at Mon Apr 30 05:46:08 2018, MaxMem= 10737418240 cpu:               0.7 elap:               0.1
 (Enter /home1/apps/gaussian/16rA.03/g16/l301.exe)
 General basis read from cards:  (5D, 7F)
 Centers:       1
 S 1 1.00
     Exponent=  1.8741300000D+08 Coefficients=  1.0000000000D+00
 S 1 1.00
     Exponent=  3.3512700000D+07 Coefficients=  1.0000000000D+00
 S 1 1.00
     Exponent=  7.5047500000D+06 Coefficients=  1.0000000000D+00
 S 1 1.00
     Exponent=  2.0178700000D+06 Coefficients=  1.0000000000D+00
 S 1 1.00
     Exponent=  6.2857800000D+05 Coefficients=  1.0000000000D+00
 S 1 1.00
     Exponent=  2.2016300000D+05 Coefficients=  1.0000000000D+00
 S 1 1.00
     Exponent=  8.4595200000D+04 Coefficients=  1.0000000000D+00
 S 1 1.00
     Exponent=  3.4955500000D+04 Coefficients=  1.0000000000D+00
 S 1 1.00
     Exponent=  1.5290300000D+04 Coefficients=  1.0000000000D+00
 S 1 1.00
     Exponent=  6.9949300000D+03 Coefficients=  1.0000000000D+00
 S 1 1.00
     Exponent=  3.3165900000D+03 Coefficients=  1.0000000000D+00
 S 1 1.00
     Exponent=  1.6192400000D+03 Coefficients=  1.0000000000D+00
 S 1 1.00
     Exponent=  8.1034300000D+02 Coefficients=  1.0000000000D+00
 S 1 1.00
     Exponent=  4.1439300000D+02 Coefficients=  1.0000000000D+00
 S 1 1.00
     Exponent=  2.1605800000D+02 Coefficients=  1.0000000000D+00
 S 1 1.00
     Exponent=  1.1463500000D+02 Coefficients=  1.0000000000D+00
 S 1 1.00
     Exponent=  6.1762300000D+01 Coefficients=  1.0000000000D+00
 S 1 1.00
     Exponent=  3.3692400000D+01 Coefficients=  1.0000000000D+00
 S 1 1.00
     Exponent=  1.8531500000D+01 Coefficients=  1.0000000000D+00
 S 1 1.00
     Exponent=  1.0214400000D+01 Coefficients=  1.0000000000D+00
 S 1 1.00
     Exponent=  5.5942800000D+00 Coefficients=  1.0000000000D+00
 S 1 1.00
     Exponent=  3.0096800000D+00 Coefficients=  1.0000000000D+00
 S 1 1.00
     Exponent=  1.5668400000D+00 Coefficients=  1.0000000000D+00
 S 1 1.00
     Exponent=  7.8143700000D-01 Coefficients=  1.0000000000D+00
 S 1 1.00
     Exponent=  2.5811800000D-01 Coefficients=  1.0000000000D+00
 S 1 1.00
     Exponent=  1.3855600000D-01 Coefficients=  1.0000000000D+00
 S 1 1.00
     Exponent=  6.6171000000D-02 Coefficients=  1.0000000000D+00
 S 1 1.00
     Exponent=  3.0986000000D-02 Coefficients=  1.0000000000D+00
 S 1 1.00
     Exponent=  1.0450800000D+01 Coefficients=  1.0000000000D+00
 S 1 1.00
     Exponent=  3.9198000000D+00 Coefficients=  1.0000000000D+00
 S 1 1.00
     Exponent=  1.4510000000D-02 Coefficients=  1.0000000000D+00
 P 1 1.00
     Exponent=  1.1034900000D+05 Coefficients=  1.0000000000D+00
 P 1 1.00
     Exponent=  2.6971300000D+04 Coefficients=  1.0000000000D+00
 P 1 1.00
     Exponent=  8.5600700000D+03 Coefficients=  1.0000000000D+00
 P 1 1.00
     Exponent=  3.2488000000D+03 Coefficients=  1.0000000000D+00
 P 1 1.00
     Exponent=  1.3894100000D+03 Coefficients=  1.0000000000D+00
 P 1 1.00
     Exponent=  6.4304300000D+02 Coefficients=  1.0000000000D+00
 P 1 1.00
     Exponent=  3.1400500000D+02 Coefficients=  1.0000000000D+00
 P 1 1.00
     Exponent=  1.5948900000D+02 Coefficients=  1.0000000000D+00
 P 1 1.00
     Exponent=  8.3666200000D+01 Coefficients=  1.0000000000D+00
 P 1 1.00
     Exponent=  4.5157400000D+01 Coefficients=  1.0000000000D+00
 P 1 1.00
     Exponent=  2.4963000000D+01 Coefficients=  1.0000000000D+00
 P 1 1.00
     Exponent=  1.4004300000D+01 Coefficients=  1.0000000000D+00
 P 1 1.00
     Exponent=  7.8326700000D+00 Coefficients=  1.0000000000D+00
 P 1 1.00
     Exponent=  4.2841000000D+00 Coefficients=  1.0000000000D+00
 P 1 1.00
     Exponent=  2.2890100000D+00 Coefficients=  1.0000000000D+00
 P 1 1.00
     Exponent=  1.1943600000D+00 Coefficients=  1.0000000000D+00
 P 1 1.00
     Exponent=  5.9425800000D-01 Coefficients=  1.0000000000D+00
 P 1 1.00
     Exponent=  2.2691400000D-01 Coefficients=  1.0000000000D+00
 P 1 1.00
     Exponent=  9.0179000000D-02 Coefficients=  1.0000000000D+00
 P 1 1.00
     Exponent=  3.5718000000D-02 Coefficients=  1.0000000000D+00
 P 1 1.00
     Exponent=  1.4897100000D+01 Coefficients=  1.0000000000D+00
 P 1 1.00
     Exponent=  4.7100000000D+00 Coefficients=  1.0000000000D+00
 P 1 1.00
     Exponent=  1.4150000000D-02 Coefficients=  1.0000000000D+00
 D 1 1.00
     Exponent=  8.5412230000D+02 Coefficients=  1.0000000000D+00
 D 1 1.00
     Exponent=  2.5794960000D+02 Coefficients=  1.0000000000D+00
 D 1 1.00
     Exponent=  1.0023190000D+02 Coefficients=  1.0000000000D+00
 D 1 1.00
     Exponent=  4.4176210000D+01 Coefficients=  1.0000000000D+00
 D 1 1.00
     Exponent=  2.0784760000D+01 Coefficients=  1.0000000000D+00
 D 1 1.00
     Exponent=  1.0227560000D+01 Coefficients=  1.0000000000D+00
 D 1 1.00
     Exponent=  5.1512410000D+00 Coefficients=  1.0000000000D+00
 D 1 1.00
     Exponent=  2.5908470000D+00 Coefficients=  1.0000000000D+00
 D 1 1.00
     Exponent=  1.2858010000D+00 Coefficients=  1.0000000000D+00
 D 1 1.00
     Exponent=  6.2534400000D-01 Coefficients=  1.0000000000D+00
 D 1 1.00
     Exponent=  2.9394300000D-01 Coefficients=  1.0000000000D+00
 D 1 1.00
     Exponent=  1.2899700000D-01 Coefficients=  1.0000000000D+00
 D 1 1.00
     Exponent=  1.1593600000D+01 Coefficients=  1.0000000000D+00
 D 1 1.00
     Exponent=  7.2491000000D+00 Coefficients=  1.0000000000D+00
 D 1 1.00
     Exponent=  5.6610000000D-02 Coefficients=  1.0000000000D+00
 F 1 1.00
     Exponent=  1.7862800000D+01 Coefficients=  1.0000000000D+00
 F 1 1.00
     Exponent=  8.0392000000D+00 Coefficients=  1.0000000000D+00
 F 1 1.00
     Exponent=  3.6180000000D+00 Coefficients=  1.0000000000D+00
 F 1 1.00
     Exponent=  1.6283000000D+00 Coefficients=  1.0000000000D+00
 F 1 1.00
     Exponent=  5.7210000000D-01 Coefficients=  1.0000000000D+00
 F 1 1.00
     Exponent=  2.0101000000D-01 Coefficients=  1.0000000000D+00
 G 1 1.00
     Exponent=  1.2540600000D+01 Coefficients=  1.0000000000D+00
 G 1 1.00
     Exponent=  6.2306000000D+00 Coefficients=  1.0000000000D+00
 G 1 1.00
     Exponent=  3.0956000000D+00 Coefficients=  1.0000000000D+00
 G 1 1.00
     Exponent=  1.1951000000D+00 Coefficients=  1.0000000000D+00
 G 1 1.00
     Exponent=  4.6139000000D-01 Coefficients=  1.0000000000D+00
 H 1 1.00
     Exponent=  1.1226100000D+01 Coefficients=  1.0000000000D+00
 H 1 1.00
     Exponent=  5.5189000000D+00 Coefficients=  1.0000000000D+00
 H 1 1.00
     Exponent=  2.4250000000D+00 Coefficients=  1.0000000000D+00
 H 1 1.00
     Exponent=  1.0655400000D+00 Coefficients=  1.0000000000D+00
 I 1 1.00
     Exponent=  1.1018800000D+01 Coefficients=  1.0000000000D+00
 I 1 1.00
     Exponent=  5.5487000000D+00 Coefficients=  1.0000000000D+00
 I 1 1.00
     Exponent=  2.7941400000D+00 Coefficients=  1.0000000000D+00
 ****
 Centers:       2
 S 1 1.00
     Exponent=  4.0200000000D+02 Coefficients=  1.0000000000D+00
 S 1 1.00
     Exponent=  6.0240000000D+01 Coefficients=  1.0000000000D+00
 S 1 1.00
     Exponent=  1.3730000000D+01 Coefficients=  1.0000000000D+00
 S 1 1.00
     Exponent=  3.9050000000D+00 Coefficients=  1.0000000000D+00
 S 1 1.00
     Exponent=  1.2830000000D+00 Coefficients=  1.0000000000D+00
 S 1 1.00
     Exponent=  4.6550000000D-01 Coefficients=  1.0000000000D+00
 S 1 1.00
     Exponent=  1.8110000000D-01 Coefficients=  1.0000000000D+00
 S 1 1.00
     Exponent=  7.2790000000D-02 Coefficients=  1.0000000000D+00
 S 1 1.00
     Exponent=  2.0700000000D-02 Coefficients=  1.0000000000D+00
 P 1 1.00
     Exponent=  4.5160000000D+00 Coefficients=  1.0000000000D+00
 P 1 1.00
     Exponent=  1.7120000000D+00 Coefficients=  1.0000000000D+00
 P 1 1.00
     Exponent=  6.4900000000D-01 Coefficients=  1.0000000000D+00
 P 1 1.00
     Exponent=  2.4600000000D-01 Coefficients=  1.0000000000D+00
 P 1 1.00
     Exponent=  7.4400000000D-02 Coefficients=  1.0000000000D+00
 D 1 1.00
     Exponent=  2.9500000000D+00 Coefficients=  1.0000000000D+00
 D 1 1.00
     Exponent=  1.2060000000D+00 Coefficients=  1.0000000000D+00
 D 1 1.00
     Exponent=  4.9300000000D-01 Coefficients=  1.0000000000D+00
 D 1 1.00
     Exponent=  1.5600000000D-01 Coefficients=  1.0000000000D+00
 F 1 1.00
     Exponent=  2.5060000000D+00 Coefficients=  1.0000000000D+00
 F 1 1.00
     Exponent=  8.7500000000D-01 Coefficients=  1.0000000000D+00
 F 1 1.00
     Exponent=  2.7400000000D-01 Coefficients=  1.0000000000D+00
 G 1 1.00
     Exponent=  2.3580000000D+00 Coefficients=  1.0000000000D+00
 G 1 1.00
     Exponent=  5.4300000000D-01 Coefficients=  1.0000000000D+00
 ****
 ======================================================================================================
                                       Pseudopotential Parameters
 ======================================================================================================
  Center     Atomic      Valence      Angular      Power
  Number     Number     Electrons     Momentum     of R      Exponent        Coefficient   SO-Coeffient
 ======================================================================================================
    1         30           20
                                      D and up 
                                                     1       35.8079762       20.00000000    0.00000000
                                                     3       34.5364608      716.15952324    0.00000000
                                                     2       28.6283018     -204.68393324    0.00000000
                                                     2        7.9623968        0.76026614    0.00000000
                                      S - D
                                                     2       14.6349869       95.87640437    0.00000000
                                                     2       35.0214136      431.70804303    0.00000000
                                      P - D
                                                     2       14.5742930       74.01270049    0.00000000
                                                     2       42.2297923      313.57770564    0.00000000
    2          1            1
                                      P and up 
                                                     2       21.7769666      -10.85192405    0.00000000
                                                     1       21.2435951        1.00000000    0.00000000
                                                     3       21.2435951       21.24359508    0.00000000
                                      S - P
                                                     2        1.0000000        0.00000000    0.00000000
 ======================================================================================================
 Ernie: Thresh=  0.10000D-02 Tol=  0.10000D-05 Strict=F.
 There are   248 symmetry adapted cartesian basis functions of A1  symmetry.
 There are    79 symmetry adapted cartesian basis functions of A2  symmetry.
 There are   137 symmetry adapted cartesian basis functions of B1  symmetry.
 There are   137 symmetry adapted cartesian basis functions of B2  symmetry.
 There are   169 symmetry adapted basis functions of A1  symmetry.
 There are    59 symmetry adapted basis functions of A2  symmetry.
 There are   100 symmetry adapted basis functions of B1  symmetry.
 There are   100 symmetry adapted basis functions of B2  symmetry.
   428 basis functions,   601 primitive gaussians,   601 cartesian basis functions
    11 alpha electrons       10 beta electrons
       nuclear repulsion energy         8.8196201820 Hartrees.
 IExCor=    0 DFT=F Ex=HF Corr=None ExCW=0 ScaHFX=  1.000000
 ScaDFX=  1.000000  1.000000  1.000000  1.000000 ScalE2=  1.000000  1.000000
 IRadAn=      5 IRanWt=     -1 IRanGd=            0 ICorTp=0 IEmpDi=  4
 NAtoms=    2 NActive=    2 NUniq=    2 SFac= 1.00D+00 NAtFMM=   60 NAOKFM=F Big=F
 Integral buffers will be    131072 words long.
 Raffenetti 2 integral format.
 Two-electron integral symmetry is turned on.
 Leave Link  301 at Mon Apr 30 05:46:09 2018, MaxMem= 10737418240 cpu:               9.4 elap:               0.3
 (Enter /home1/apps/gaussian/16rA.03/g16/l302.exe)
 NPDir=0 NMtPBC=     1 NCelOv=     1 NCel=       1 NClECP=     1 NCelD=      1
         NCelK=      1 NCelE2=     1 NClLst=     1 CellRange=     0.0.
 One-electron integrals computed using PRISM.
 One-electron integral symmetry used in STVInt
   4 Symmetry operations used in ECPInt.
 ECPInt:  NShTT=    6105 NPrTT=    6105 LenC2=    6017 LenP2D=    6016.
 LDataN:  DoStor=T MaxTD1=12 Len= 1566
 NBasis=   428 RedAO= T EigKep=  1.28D-06  NBF=   169    59   100   100
 NBsUse=   424 1.00D-06 EigRej=  1.04D-07 NBFU=   167    59    99    99
 Leave Link  302 at Mon Apr 30 05:46:19 2018, MaxMem= 10737418240 cpu:             294.7 elap:               9.3
 (Enter /home1/apps/gaussian/16rA.03/g16/l303.exe)
 DipDrv:  MaxL=1.
 Leave Link  303 at Mon Apr 30 05:46:20 2018, MaxMem= 10737418240 cpu:               4.9 elap:               0.3
 (Enter /home1/apps/gaussian/16rA.03/g16/l401.exe)
 Initial guess from the checkpoint file:  "5z.chk"
 B after Tr=     0.000000    0.000000    0.000000
         Rot=    1.000000    0.000000    0.000000    0.000000 Ang=   0.00 deg.
 Guess basis will be translated and rotated to current coordinates.
 JPrj=2 DoOrth=T DoCkMO=T.
 Initial guess orbital symmetries:
       Occupied  (SG) (SG) (PI) (PI) (SG) (DLTA) (DLTA) (PI) (PI)
                 (SG) (SG)
       Virtual   (PI) (PI) (SG) (SG) (PI) (PI) (SG) (SG) (PI) (PI)
                 (DLTA) (DLTA) (SG) (SG) (PI) (PI) (SG) (PI) (PI)
                 (SG) (SG) (PI) (PI) (DLTA) (DLTA) (SG) (DLTA)
                 (DLTA) (SG) (PI) (PI) (SG) (PI) (PI) (SG) (PHI)
                 (PHI) (PI) (PI) (DLTA) (DLTA) (SG) (PI) (PI) (SG)
                 (DLTA) (DLTA) (PHI) (PHI) (SG) (PI) (PI) (DLTA)
                 (DLTA) (PI) (PI) (SG) (SG) (SG) (DLTA) (DLTA)
                 (PI) (PI) (PI) (PI) (SG) (SG) (PHI) (PHI) (PI)
                 (PI) (DLTA) (DLTA) (PI) (PI) (DLTA) (DLTA) (?A)
                 (?A) (PHI) (PHI) (SG) (SG) (PI) (PI) (DLTA) (DLTA)
                 (SG) (PI) (PI) (SG) (PHI) (PHI) (SG) (DLTA) (DLTA)
                 (PI) (PI) (SG) (PI) (PI) (SG) (SG) (PHI) (PHI)
                 (DLTA) (DLTA) (PI) (PI) (DLTA) (DLTA) (DLTA) (DLTA)
                 (PI) (PI) (PI) (PI) (SG) (PI) (PI) (SG) (SG) (?A)
                 (?A) (PHI) (PHI) (DLTA) (DLTA) (SG) (?B) (?B)
                 (?A) (?A) (PHI) (PHI) (PI) (PI) (DLTA) (DLTA)
                 (SG) (PI) (PI) (SG) (PI) (PI) (SG) (DLTA) (DLTA)
                 (PI) (PI) (SG) (PHI) (PHI) (DLTA) (DLTA) (PI)
                 (PI) (SG) (SG) (?A) (?A) (PHI) (PHI) (DLTA) (DLTA)
                 (PI) (PI) (SG) (?B) (?B) (?A) (?A) (PHI) (PHI)
                 (DLTA) (DLTA) (PI) (PI) (SG) (SG) (DLTA) (DLTA)
                 (PI) (PI) (SG) (PI) (PI) (SG) (PHI) (PHI) (DLTA)
                 (DLTA) (PI) (PI) (SG) (SG) (?A) (?A) (PHI) (PHI)
                 (DLTA) (DLTA) (PI) (PI) (SG) (DLTA) (DLTA) (PI)
                 (PI) (SG) (?B) (?B) (?A) (?A) (PHI) (PHI) (DLTA)
                 (DLTA) (PI) (PI) (SG) (PI) (PI) (SG) (DLTA) (DLTA)
                 (PI) (PI) (SG) (SG) (PI) (PI) (SG) (SG) (DLTA)
                 (DLTA) (PI) (PI) (SG) (PI) (PI) (SG) (SG) (DLTA)
                 (DLTA) (PI) (PI) (SG) (SG) (PI) (PI) (SG) (SG)
                 (PI) (PI) (SG) (DLTA) (DLTA) (PI) (PI) (SG) (SG)
                 (PI) (PI) (SG) (DLTA) (DLTA) (PI) (PI) (SG) (SG)
                 (PI) (PI) (SG) (SG) (PI) (PI) (SG) (SG) (PI) (PI)
                 (SG) (SG) (PI) (PI) (SG) (SG) (PI) (PI) (SG) (SG)
                 (SG) (SG) (SG) (SG) (DLTA) (DLTA) (SG) (SG) (SG)
                 (DLTA) (SG) (SG) (SG) (SG) (DLTA) (DLTA) (SG)
                 (?A) (SG) (DLTA) (DLTA) (SG) (?A) (SG) (SG) (DLTA)
                 (?A) (SG) (DLTA) (SG) (SG) (DLTA) (SG) (SG) (?A)
                 (SG) (SG) (?A) (SG) (SG) (DLTA) (?A) (SG) (SG)
                 (?A) (SG) (SG) (DLTA) (DLTA) (DLTA) (DLTA) (DLTA)
                 (?A) (DLTA) (DLTA) (?A) (DLTA) (?A) (SG) (DLTA)
                 (DLTA) (?A) (?A) (DLTA) (?A) (SG) (SG) (?A) (PI)
                 (PI) (PI) (PHI) (PI) (PI) (PHI) (PI) (PI) (PHI)
                 (PI) (?B) (PHI) (PI) (PI) (PHI) (?B) (PI) (PHI)
                 (PI) (PHI) (PI) (PI) (PHI) (PHI) (?B) (?B) (PI)
                 (PI) (PI) (PHI) (PI) (PI) (PHI) (PI) (PI) (PHI)
                 (PI) (?B) (PHI) (PI) (PI) (PHI) (?B) (PI) (PHI)
                 (PI) (PHI) (PI) (PI) (PHI) (PHI) (?B) (?B)
 The electronic state of the initial guess is 2-SG.
 Leave Link  401 at Mon Apr 30 05:46:22 2018, MaxMem= 10737418240 cpu:              40.2 elap:               1.5
 (Enter /home1/apps/gaussian/16rA.03/g16/l502.exe)
 Keep R1 and R2 ints in memory in symmetry-blocked form, NReq=5277864979.
 FoFCou: FMM=F IPFlag=           8 FMFlag=           0 FMFlg1=           0
         NFxFlg=           0 DoJE=F BraDBF=F KetDBF=F FulRan=T
         wScrn=  0.000000 ICntrl=       600 IOpCl=  0 I1Cent=           0 NGrid=           0
         NMat0=    1 NMatS0=  91806 NMatT0=    0 NMatD0=    1 NMtDS0=    0 NMtDT0=    0
 Petite list used in FoFCou.
 Restricted open shell SCF:
 Using DIIS extrapolation, IDIIS=  1040.
 NGot= 10737418240 LenX=  8609582347 LenY=  8609220545
 Requested convergence on RMS density matrix=1.00D-08 within 400 cycles.
 Requested convergence on MAX density matrix=1.00D-06.
 Requested convergence on             energy=1.00D-06.
 Virtual orbitals will be shifted by   0.200 hartree.
 No special actions if energy rises.

 Cycle   1  Pass 1  IDiag  1:
 E= -225.742733113621    
 DIIS: error= 1.47D+00 at cycle   1 NSaved=   1.
 NSaved= 1 IEnMin= 1 EnMin= -225.742733113621     IErMin= 1 ErrMin= 1.47D+00
 ErrMax= 1.47D+00  0.00D+00 EMaxC= 1.00D-01 BMatC= 3.99D+02 BMatP= 3.99D+02
 IDIUse=3 WtCom= 0.00D+00 WtEn= 1.00D+00
 Coeff-Com:  0.100D+01
 Coeff-En:   0.100D+01
 Coeff:      0.100D+01
 Gap=     0.087 Goal=   None    Shift=    0.200
 GapD=    0.087 DampG=0.500 DampE=0.125 DampFc=0.1250 IDamp=-1.
 Damping current iteration by 1.25D-01
 RMSDP=1.24D-03 MaxDP=1.07D-01              OVMax= 1.23D-03

 Cycle   2  Pass 1  IDiag  1:
 E= -225.742759019622     Delta-E=       -0.000025906001 Rises=F Damp=T
 DIIS: error= 1.29D+00 at cycle   2 NSaved=   2.
 NSaved= 2 IEnMin= 2 EnMin= -225.742759019622     IErMin= 2 ErrMin= 1.29D+00
 ErrMax= 1.29D+00  0.00D+00 EMaxC= 1.00D-01 BMatC= 3.06D+02 BMatP= 3.99D+02
 IDIUse=3 WtCom= 0.00D+00 WtEn= 1.00D+00
 Coeff-Com: -0.700D+01 0.800D+01
 Coeff-En:   0.000D+00 0.100D+01
 Coeff:      0.000D+00 0.100D+01
 Gap=     0.086 Goal=   None    Shift=    0.200
 RMSDP=1.09D-03 MaxDP=9.41D-02 DE=-2.59D-05 OVMax= 1.36D-04

 Cycle   3  Pass 1  IDiag  1:
 E= -225.742943231519     Delta-E=       -0.000184211897 Rises=F Damp=F
 DIIS: error= 9.30D-05 at cycle   3 NSaved=   3.
 NSaved= 3 IEnMin= 3 EnMin= -225.742943231519     IErMin= 3 ErrMin= 9.30D-05
 ErrMax= 9.30D-05  0.00D+00 EMaxC= 1.00D-01 BMatC= 6.00D-07 BMatP= 3.06D+02
 IDIUse=1 WtCom= 1.00D+00 WtEn= 0.00D+00
 Coeff-Com: -0.105D-01 0.120D-01 0.999D+00
 Coeff:     -0.105D-01 0.120D-01 0.999D+00
 Gap=     0.086 Goal=   None    Shift=    0.200
 RMSDP=5.48D-05 MaxDP=1.42D-02 DE=-1.84D-04 OVMax= 1.87D-04

 Cycle   4  Pass 1  IDiag  1:
 E= -225.742943419316     Delta-E=       -0.000000187797 Rises=F Damp=F
 DIIS: error= 5.06D-06 at cycle   4 NSaved=   4.
 NSaved= 4 IEnMin= 4 EnMin= -225.742943419316     IErMin= 4 ErrMin= 5.06D-06
 ErrMax= 5.06D-06  0.00D+00 EMaxC= 1.00D-01 BMatC= 6.13D-09 BMatP= 6.00D-07
 IDIUse=1 WtCom= 1.00D+00 WtEn= 0.00D+00
 Coeff-Com: -0.488D-01 0.558D-01-0.767D-01 0.107D+01
 Coeff:     -0.488D-01 0.558D-01-0.767D-01 0.107D+01
 Gap=     0.086 Goal=   None    Shift=    0.200
 RMSDP=7.67D-06 MaxDP=1.38D-03 DE=-1.88D-07 OVMax= 3.29D-05

 Cycle   5  Pass 1  IDiag  1:
 E= -225.742943426150     Delta-E=       -0.000000006833 Rises=F Damp=F
 DIIS: error= 2.36D-06 at cycle   5 NSaved=   5.
 NSaved= 5 IEnMin= 5 EnMin= -225.742943426150     IErMin= 5 ErrMin= 2.36D-06
 ErrMax= 2.36D-06  0.00D+00 EMaxC= 1.00D-01 BMatC= 4.73D-10 BMatP= 6.13D-09
 IDIUse=1 WtCom= 1.00D+00 WtEn= 0.00D+00
 Coeff-Com: -0.558D-01 0.638D-01-0.267D-02-0.268D+00 0.126D+01
 Coeff:     -0.558D-01 0.638D-01-0.267D-02-0.268D+00 0.126D+01
 Gap=     0.086 Goal=   None    Shift=    0.200
 RMSDP=1.58D-06 MaxDP=2.30D-04 DE=-6.83D-09 OVMax= 1.37D-05

 Cycle   6  Pass 1  IDiag  1:
 E= -225.742943426683     Delta-E=       -0.000000000533 Rises=F Damp=F
 DIIS: error= 2.14D-06 at cycle   6 NSaved=   6.
 NSaved= 6 IEnMin= 6 EnMin= -225.742943426683     IErMin= 6 ErrMin= 2.14D-06
 ErrMax= 2.14D-06  0.00D+00 EMaxC= 1.00D-01 BMatC= 2.31D-10 BMatP= 4.73D-10
 IDIUse=1 WtCom= 1.00D+00 WtEn= 0.00D+00
 Coeff-Com: -0.557D-01 0.636D-01-0.102D-01-0.307D-01-0.966D-01 0.113D+01
 Coeff:     -0.557D-01 0.636D-01-0.102D-01-0.307D-01-0.966D-01 0.113D+01
 Gap=     0.086 Goal=   None    Shift=    0.200
 RMSDP=3.69D-07 MaxDP=8.36D-05 DE=-5.33D-10 OVMax= 6.40D-06

 Cycle   7  Pass 1  IDiag  1:
 E= -225.742943426761     Delta-E=       -0.000000000078 Rises=F Damp=F
 DIIS: error= 2.06D-06 at cycle   7 NSaved=   7.
 NSaved= 7 IEnMin= 7 EnMin= -225.742943426761     IErMin= 7 ErrMin= 2.06D-06
 ErrMax= 2.06D-06  0.00D+00 EMaxC= 1.00D-01 BMatC= 2.05D-10 BMatP= 2.31D-10
 IDIUse=1 WtCom= 1.00D+00 WtEn= 0.00D+00
 Coeff-Com: -0.545D-01 0.623D-01-0.122D-01 0.233D-01-0.249D+00 0.411D+00
 Coeff-Com:  0.819D+00
 Coeff:     -0.545D-01 0.623D-01-0.122D-01 0.233D-01-0.249D+00 0.411D+00
 Coeff:      0.819D+00
 Gap=     0.086 Goal=   None    Shift=    0.200
 RMSDP=2.02D-07 MaxDP=6.15D-05 DE=-7.78D-11 OVMax= 3.24D-06

 Cycle   8  Pass 1  IDiag  1:
 E= -225.742943426792     Delta-E=       -0.000000000031 Rises=F Damp=F
 DIIS: error= 2.00D-06 at cycle   8 NSaved=   8.
 NSaved= 8 IEnMin= 8 EnMin= -225.742943426792     IErMin= 8 ErrMin= 2.00D-06
 ErrMax= 2.00D-06  0.00D+00 EMaxC= 1.00D-01 BMatC= 1.88D-10 BMatP= 2.05D-10
 IDIUse=1 WtCom= 1.00D+00 WtEn= 0.00D+00
 Coeff-Com: -0.525D-01 0.600D-01-0.113D-01-0.956D-03-0.140D-01-0.167D+00
 Coeff-Com:  0.122D+00 0.106D+01
 Coeff:     -0.525D-01 0.600D-01-0.113D-01-0.956D-03-0.140D-01-0.167D+00
 Coeff:      0.122D+00 0.106D+01
 Gap=     0.086 Goal=   None    Shift=    0.200
 RMSDP=2.29D-07 MaxDP=7.33D-05 DE=-3.11D-11 OVMax= 1.92D-06

 Cycle   9  Pass 1  IDiag  1:
 E= -225.742943426817     Delta-E=       -0.000000000025 Rises=F Damp=F
 DIIS: error= 1.93D-06 at cycle   9 NSaved=   9.
 NSaved= 9 IEnMin= 9 EnMin= -225.742943426817     IErMin= 9 ErrMin= 1.93D-06
 ErrMax= 1.93D-06  0.00D+00 EMaxC= 1.00D-01 BMatC= 1.74D-10 BMatP= 1.88D-10
 IDIUse=1 WtCom= 1.00D+00 WtEn= 0.00D+00
 Coeff-Com: -0.501D-01 0.572D-01-0.102D-01-0.160D-01 0.595D-01-0.963D-01
 Coeff-Com: -0.124D+00-0.127D+00 0.131D+01
 Coeff:     -0.501D-01 0.572D-01-0.102D-01-0.160D-01 0.595D-01-0.963D-01
 Coeff:     -0.124D+00-0.127D+00 0.131D+01
 Gap=     0.086 Goal=   None    Shift=    0.200
 RMSDP=2.60D-07 MaxDP=8.39D-05 DE=-2.55D-11 OVMax= 1.43D-06

 Cycle  10  Pass 1  IDiag  1:
 E= -225.742943426843     Delta-E=       -0.000000000026 Rises=F Damp=F
 DIIS: error= 1.85D-06 at cycle  10 NSaved=  10.
 NSaved=10 IEnMin=10 EnMin= -225.742943426843     IErMin=10 ErrMin= 1.85D-06
 ErrMax= 1.85D-06  0.00D+00 EMaxC= 1.00D-01 BMatC= 1.59D-10 BMatP= 1.74D-10
 IDIUse=1 WtCom= 1.00D+00 WtEn= 0.00D+00
 Coeff-Com: -0.466D-01 0.532D-01-0.964D-02-0.885D-02 0.389D-02 0.412D-01
 Coeff-Com:  0.435D-01-0.148D+00-0.954D+00 0.203D+01
 Coeff:     -0.466D-01 0.532D-01-0.964D-02-0.885D-02 0.389D-02 0.412D-01
 Coeff:      0.435D-01-0.148D+00-0.954D+00 0.203D+01
 Gap=     0.086 Goal=   None    Shift=    0.200
 RMSDP=3.53D-07 MaxDP=1.14D-04 DE=-2.60D-11 OVMax= 1.60D-06

 Cycle  11  Pass 1  IDiag  1:
 E= -225.742943426876     Delta-E=       -0.000000000033 Rises=F Damp=F
 DIIS: error= 1.73D-06 at cycle  11 NSaved=  11.
 NSaved=11 IEnMin=11 EnMin= -225.742943426876     IErMin=11 ErrMin= 1.73D-06
 ErrMax= 1.73D-06  0.00D+00 EMaxC= 1.00D-01 BMatC= 1.40D-10 BMatP= 1.59D-10
 IDIUse=1 WtCom= 1.00D+00 WtEn= 0.00D+00
 Coeff-Com: -0.393D-01 0.449D-01-0.818D-02-0.503D-02-0.104D-01 0.283D-01
 Coeff-Com:  0.118D+00 0.634D-01-0.356D+00-0.201D+01 0.318D+01
 Coeff:     -0.393D-01 0.449D-01-0.818D-02-0.503D-02-0.104D-01 0.283D-01
 Coeff:      0.118D+00 0.634D-01-0.356D+00-0.201D+01 0.318D+01
 Gap=     0.086 Goal=   None    Shift=    0.200
 RMSDP=6.69D-07 MaxDP=2.15D-04 DE=-3.29D-11 OVMax= 2.86D-06

 Cycle  12  Pass 1  IDiag  1:
 E= -225.742943426931     Delta-E=       -0.000000000055 Rises=F Damp=F
 DIIS: error= 1.51D-06 at cycle  12 NSaved=  12.
 NSaved=12 IEnMin=12 EnMin= -225.742943426931     IErMin=12 ErrMin= 1.51D-06
 ErrMax= 1.51D-06  0.00D+00 EMaxC= 1.00D-01 BMatC= 1.07D-10 BMatP= 1.40D-10
 IDIUse=1 WtCom= 1.00D+00 WtEn= 0.00D+00
 Coeff-Com: -0.352D-01 0.403D-01-0.728D-02-0.516D-02-0.798D-02 0.310D-01
 Coeff-Com:  0.567D-01-0.167D-01-0.148D+00-0.847D+00 0.632D+00 0.131D+01
 Coeff:     -0.352D-01 0.403D-01-0.728D-02-0.516D-02-0.798D-02 0.310D-01
 Coeff:      0.567D-01-0.167D-01-0.148D+00-0.847D+00 0.632D+00 0.131D+01
 Gap=     0.086 Goal=   None    Shift=    0.200
 RMSDP=5.34D-07 MaxDP=1.72D-04 DE=-5.51D-11 OVMax= 2.51D-06

 Cycle  13  Pass 1  IDiag  1:
 E= -225.742943426972     Delta-E=       -0.000000000041 Rises=F Damp=F
 DIIS: error= 1.34D-06 at cycle  13 NSaved=  13.
 NSaved=13 IEnMin=13 EnMin= -225.742943426972     IErMin=13 ErrMin= 1.34D-06
 ErrMax= 1.34D-06  0.00D+00 EMaxC= 1.00D-01 BMatC= 8.44D-11 BMatP= 1.07D-10
 IDIUse=1 WtCom= 1.00D+00 WtEn= 0.00D+00
 Coeff-Com: -0.751D-02 0.859D-02-0.153D-02-0.263D-02 0.129D-01-0.409D-01
 Coeff-Com:  0.264D-01 0.146D+00 0.971D-01-0.524D+00-0.248D+00-0.507D+01
 Coeff-Com:  0.661D+01
 Coeff:     -0.751D-02 0.859D-02-0.153D-02-0.263D-02 0.129D-01-0.409D-01
 Coeff:      0.264D-01 0.146D+00 0.971D-01-0.524D+00-0.248D+00-0.507D+01
 Coeff:      0.661D+01
 Gap=     0.086 Goal=   None    Shift=    0.200
 RMSDP=2.23D-06 MaxDP=7.17D-04 DE=-4.08D-11 OVMax= 8.91D-06

 Cycle  14  Pass 1  IDiag  1:
 E= -225.742943427082     Delta-E=       -0.000000000110 Rises=F Damp=F
 DIIS: error= 5.88D-07 at cycle  14 NSaved=  14.
 NSaved=14 IEnMin=14 EnMin= -225.742943427082     IErMin=14 ErrMin= 5.88D-07
 ErrMax= 5.88D-07  0.00D+00 EMaxC= 1.00D-01 BMatC= 1.75D-11 BMatP= 8.44D-11
 IDIUse=1 WtCom= 1.00D+00 WtEn= 0.00D+00
 Coeff-Com: -0.750D-02 0.857D-02-0.158D-02-0.152D-02 0.609D-02-0.287D-01
 Coeff-Com:  0.255D-01 0.154D+00 0.369D+00-0.138D+01-0.116D+01-0.300D+01
 Coeff-Com:  0.637D+01-0.358D+00
 Coeff:     -0.750D-02 0.857D-02-0.158D-02-0.152D-02 0.609D-02-0.287D-01
 Coeff:      0.255D-01 0.154D+00 0.369D+00-0.138D+01-0.116D+01-0.300D+01
 Coeff:      0.637D+01-0.358D+00
 Gap=     0.086 Goal=   None    Shift=    0.200
 RMSDP=7.27D-07 MaxDP=2.34D-04 DE=-1.10D-10 OVMax= 3.75D-06

 Cycle  15  Pass 1  IDiag  1:
 E= -225.742943427107     Delta-E=       -0.000000000025 Rises=F Damp=F
 DIIS: error= 3.78D-07 at cycle  15 NSaved=  15.
 NSaved=15 IEnMin=15 EnMin= -225.742943427107     IErMin=15 ErrMin= 3.78D-07
 ErrMax= 3.78D-07  0.00D+00 EMaxC= 1.00D-01 BMatC= 7.91D-12 BMatP= 1.75D-11
 IDIUse=1 WtCom= 1.00D+00 WtEn= 0.00D+00
 Coeff-Com: -0.689D-02 0.788D-02-0.148D-02-0.723D-03 0.216D-02-0.160D-01
 Coeff-Com:  0.219D-01 0.117D+00 0.277D+00-0.109D+01-0.118D+01-0.204D+01
 Coeff-Com:  0.505D+01-0.607D+00 0.464D+00
 Coeff:     -0.689D-02 0.788D-02-0.148D-02-0.723D-03 0.216D-02-0.160D-01
 Coeff:      0.219D-01 0.117D+00 0.277D+00-0.109D+01-0.118D+01-0.204D+01
 Coeff:      0.505D+01-0.607D+00 0.464D+00
 Gap=     0.086 Goal=   None    Shift=    0.200
 RMSDP=3.04D-07 MaxDP=9.91D-05 DE=-2.50D-11 OVMax= 2.09D-06

 Cycle  16  Pass 1  IDiag  1:
 E= -225.742943427115     Delta-E=       -0.000000000008 Rises=F Damp=F
 DIIS: error= 2.96D-07 at cycle  16 NSaved=  16.
 NSaved=16 IEnMin=16 EnMin= -225.742943427115     IErMin=16 ErrMin= 2.96D-07
 ErrMax= 2.96D-07  0.00D+00 EMaxC= 1.00D-01 BMatC= 4.76D-12 BMatP= 7.91D-12
 IDIUse=1 WtCom= 1.00D+00 WtEn= 0.00D+00
 Large coefficients: NSaved= 16 BigCof=    0.00 CofMax=   10.00 Det=-2.46D-15
 Inversion failed.  Reducing to 15 matrices.
 Coeff-Com: -0.166D-08 0.282D-04-0.172D-02 0.149D-01-0.335D-01-0.317D-01
 Coeff-Com:  0.163D-01 0.858D+00-0.160D+01-0.700D+00-0.160D+01 0.374D+01
 Coeff-Com: -0.266D+00-0.549D+00 0.116D+01
 Coeff:     -0.166D-08 0.282D-04-0.172D-02 0.149D-01-0.335D-01-0.317D-01
 Coeff:      0.163D-01 0.858D+00-0.160D+01-0.700D+00-0.160D+01 0.374D+01
 Coeff:     -0.266D+00-0.549D+00 0.116D+01
 Gap=     0.086 Goal=   None    Shift=    0.200
 RMSDP=6.34D-07 MaxDP=2.05D-04 DE=-7.70D-12 OVMax= 2.95D-06

 Cycle  17  Pass 1  IDiag  1:
 E= -225.742943427124     Delta-E=       -0.000000000009 Rises=F Damp=F
 DIIS: error= 9.19D-08 at cycle  17 NSaved=  16.
 NSaved=16 IEnMin=16 EnMin= -225.742943427124     IErMin=16 ErrMin= 9.19D-08
 ErrMax= 9.19D-08  0.00D+00 EMaxC= 1.00D-01 BMatC= 7.40D-13 BMatP= 4.76D-12
 IDIUse=1 WtCom= 1.00D+00 WtEn= 0.00D+00
 Large coefficients: NSaved= 16 BigCof=    0.00 CofMax=   10.00 Det=-2.41D-15
 Inversion failed.  Reducing to 15 matrices.
 Coeff-Com: -0.185D-04 0.752D-03-0.702D-02 0.197D-01 0.170D-01-0.211D-01
 Coeff-Com: -0.263D+00 0.379D+00 0.164D+00-0.515D+00 0.488D+00-0.340D+00
 Coeff-Com: -0.611D+00-0.481D+00 0.217D+01
 Coeff:     -0.185D-04 0.752D-03-0.702D-02 0.197D-01 0.170D-01-0.211D-01
 Coeff:     -0.263D+00 0.379D+00 0.164D+00-0.515D+00 0.488D+00-0.340D+00
 Coeff:     -0.611D+00-0.481D+00 0.217D+01
 Gap=     0.086 Goal=   None    Shift=    0.200
 RMSDP=2.13D-07 MaxDP=6.91D-05 DE=-8.67D-12 OVMax= 1.34D-06

 Cycle  18  Pass 1  IDiag  1:
 E= -225.742943427126     Delta-E=       -0.000000000002 Rises=F Damp=F
 DIIS: error= 4.48D-08 at cycle  18 NSaved=  16.
 NSaved=16 IEnMin=16 EnMin= -225.742943427126     IErMin=16 ErrMin= 4.48D-08
 ErrMax= 4.48D-08  0.00D+00 EMaxC= 1.00D-01 BMatC= 2.73D-13 BMatP= 7.40D-13
 IDIUse=1 WtCom= 1.00D+00 WtEn= 0.00D+00
 Large coefficients: NSaved= 16 BigCof=    0.00 CofMax=   10.00 Det=-2.59D-15
 Inversion failed.  Reducing to 15 matrices.
 Coeff-Com:  0.406D-03-0.537D-02 0.183D-01 0.134D-01-0.265D-01-0.232D+00
 Coeff-Com:  0.358D+00 0.146D+00-0.509D+00 0.496D+00-0.323D+00-0.621D+00
 Coeff-Com: -0.460D+00 0.209D+01 0.536D-01
 Coeff:      0.406D-03-0.537D-02 0.183D-01 0.134D-01-0.265D-01-0.232D+00
 Coeff:      0.358D+00 0.146D+00-0.509D+00 0.496D+00-0.323D+00-0.621D+00
 Coeff:     -0.460D+00 0.209D+01 0.536D-01
 Gap=     0.086 Goal=   None    Shift=    0.200
 RMSDP=8.03D-08 MaxDP=2.63D-05 DE=-1.93D-12 OVMax= 7.34D-07

 Cycle  19  Pass 1  IDiag  1:
 E= -225.742943427126     Delta-E=       -0.000000000001 Rises=F Damp=F
 DIIS: error= 2.58D-08 at cycle  19 NSaved=  16.
 NSaved=16 IEnMin=16 EnMin= -225.742943427126     IErMin=16 ErrMin= 2.58D-08
 ErrMax= 2.58D-08  0.00D+00 EMaxC= 1.00D-01 BMatC= 6.18D-14 BMatP= 2.73D-13
 IDIUse=1 WtCom= 1.00D+00 WtEn= 0.00D+00
 Large coefficients: NSaved= 16 BigCof=    0.00 CofMax=   10.00 Det=-2.37D-15
 Inversion failed.  Reducing to 15 matrices.
 Coeff-Com: -0.109D-02 0.536D-02 0.362D-02 0.123D-01-0.951D-01 0.999D-01
 Coeff-Com: -0.643D-01-0.203D+00 0.424D+00-0.481D-01-0.454D+00-0.201D+00
 Coeff-Com:  0.579D+00-0.164D-02 0.944D+00
 Coeff:     -0.109D-02 0.536D-02 0.362D-02 0.123D-01-0.951D-01 0.999D-01
 Coeff:     -0.643D-01-0.203D+00 0.424D+00-0.481D-01-0.454D+00-0.201D+00
 Coeff:      0.579D+00-0.164D-02 0.944D+00
 Gap=     0.086 Goal=   None    Shift=    0.200
 RMSDP=3.38D-08 MaxDP=1.12D-05 DE=-5.68D-13 OVMax= 4.19D-07

 Cycle  20  Pass 1  IDiag  1:
 E= -225.742943427126     Delta-E=        0.000000000000 Rises=F Damp=F
 DIIS: error= 1.48D-08 at cycle  20 NSaved=  16.
 NSaved=16 IEnMin=15 EnMin= -225.742943427126     IErMin=16 ErrMin= 1.48D-08
 ErrMax= 1.48D-08  0.00D+00 EMaxC= 1.00D-01 BMatC= 2.07D-14 BMatP= 6.18D-14
 IDIUse=1 WtCom= 1.00D+00 WtEn= 0.00D+00
 Large coefficients: NSaved= 16 BigCof=    0.00 CofMax=   10.00 Det=-2.12D-15
 Inversion failed.  Reducing to 15 matrices.
 Coeff-Com:  0.629D-03 0.230D-03 0.107D-01-0.886D-02-0.398D-02-0.123D+00
 Coeff-Com: -0.923D-02 0.239D+00 0.311D-01-0.270D+00-0.818D-01 0.729D-01
 Coeff-Com: -0.492D-02 0.221D+00 0.927D+00
 Coeff:      0.629D-03 0.230D-03 0.107D-01-0.886D-02-0.398D-02-0.123D+00
 Coeff:     -0.923D-02 0.239D+00 0.311D-01-0.270D+00-0.818D-01 0.729D-01
 Coeff:     -0.492D-02 0.221D+00 0.927D+00
 Gap=     0.086 Goal=   None    Shift=    0.200
 RMSDP=1.56D-08 MaxDP=5.18D-06 DE= 3.13D-13 OVMax= 2.44D-07

 Cycle  21  Pass 1  IDiag  1:
 E= -225.742943427126     Delta-E=       -0.000000000000 Rises=F Damp=F
 DIIS: error= 1.85D-08 at cycle  21 NSaved=  16.
 NSaved=16 IEnMin=16 EnMin= -225.742943427126     IErMin=15 ErrMin= 1.48D-08
 ErrMax= 1.85D-08  0.00D+00 EMaxC= 1.00D-01 BMatC= 4.86D-14 BMatP= 2.07D-14
 IDIUse=1 WtCom= 1.00D+00 WtEn= 0.00D+00
 Large coefficients: NSaved= 16 BigCof=    0.00 CofMax=   10.00 Det=-2.18D-15
 Inversion failed.  Reducing to 15 matrices.
 Coeff-Com:  0.431D-03 0.121D-01-0.206D-02-0.170D-01-0.119D+00-0.131D-01
 Coeff-Com:  0.241D+00 0.371D-01-0.261D+00-0.738D-01 0.333D-01 0.255D-01
 Coeff-Com:  0.191D+00 0.864D+00 0.817D-01
 Coeff:      0.431D-03 0.121D-01-0.206D-02-0.170D-01-0.119D+00-0.131D-01
 Coeff:      0.241D+00 0.371D-01-0.261D+00-0.738D-01 0.333D-01 0.255D-01
 Coeff:      0.191D+00 0.864D+00 0.817D-01
 Gap=     0.086 Goal=   None    Shift=    0.200
 RMSDP=7.92D-09 MaxDP=2.58D-06 DE=-4.26D-13 OVMax= 1.56D-07

 Cycle  22  Pass 1  IDiag  1:
 E= -225.742943427126     Delta-E=        0.000000000000 Rises=F Damp=F
 DIIS: error= 6.65D-09 at cycle  22 NSaved=  16.
 NSaved=16 IEnMin=15 EnMin= -225.742943427126     IErMin=16 ErrMin= 6.65D-09
 ErrMax= 6.65D-09  0.00D+00 EMaxC= 1.00D-01 BMatC= 5.51D-15 BMatP= 2.07D-14
 IDIUse=1 WtCom= 1.00D+00 WtEn= 0.00D+00
 Large coefficients: NSaved= 16 BigCof=    0.00 CofMax=   10.00 Det=-2.23D-15
 Inversion failed.  Reducing to 15 matrices.
 Coeff-Com:  0.529D-02 0.834D-02-0.175D-01-0.817D-01-0.257D-01 0.176D+00
 Coeff-Com:  0.340D-01-0.180D+00-0.235D-01 0.471D-02 0.194D-01 0.221D-01
 Coeff-Com:  0.529D+00 0.491D-01 0.481D+00
 Coeff:      0.529D-02 0.834D-02-0.175D-01-0.817D-01-0.257D-01 0.176D+00
 Coeff:      0.340D-01-0.180D+00-0.235D-01 0.471D-02 0.194D-01 0.221D-01
 Coeff:      0.529D+00 0.491D-01 0.481D+00
 Gap=     0.086 Goal=   None    Shift=    0.200
 RMSDP=4.19D-09 MaxDP=1.37D-06 DE= 8.53D-14 OVMax= 9.07D-08

 Cycle  23  Pass 1  IDiag  1:
 E= -225.742943427126     Delta-E=        0.000000000000 Rises=F Damp=F
 DIIS: error= 3.35D-09 at cycle  23 NSaved=  16.
 NSaved=16 IEnMin=14 EnMin= -225.742943427126     IErMin=16 ErrMin= 3.35D-09
 ErrMax= 3.35D-09  0.00D+00 EMaxC= 1.00D-01 BMatC= 2.11D-15 BMatP= 5.51D-15
 IDIUse=1 WtCom= 1.00D+00 WtEn= 0.00D+00
 Large coefficients: NSaved= 16 BigCof=    0.00 CofMax=   10.00 Det=-2.21D-15
 Inversion failed.  Reducing to 15 matrices.
 Coeff-Com:  0.612D-02 0.117D-01-0.879D-01 0.329D-02 0.972D-01 0.200D-01
 Coeff-Com: -0.564D-01-0.138D-01-0.590D-01 0.770D-02-0.414D-01 0.276D+00
 Coeff-Com:  0.229D-01 0.221D+00 0.593D+00
 Coeff:      0.612D-02 0.117D-01-0.879D-01 0.329D-02 0.972D-01 0.200D-01
 Coeff:     -0.564D-01-0.138D-01-0.590D-01 0.770D-02-0.414D-01 0.276D+00
 Coeff:      0.229D-01 0.221D+00 0.593D+00
 Gap=     0.086 Goal=   None    Shift=    0.200
 RMSDP=9.88D-09 MaxDP=8.64D-07 DE= 4.83D-13 OVMax= 1.18D-07

 SCF Done:  E(ROHF) =  -225.742943427     A.U. after   23 cycles
            NFock= 23  Conv=0.99D-08     -V/T= 2.4982
 <Sx>= 0.0000 <Sy>= 0.0000 <Sz>= 0.5000 <S**2>= 0.7500 S= 0.5000
 <L.S>=  0.00000000000    
 KE= 1.506763151459D+02 PE=-5.749202155841D+02 EE= 1.896813368290D+02
 Annihilation of the first spin contaminant:
 S**2 before annihilation     0.7500,   after     0.7500
 Leave Link  502 at Mon Apr 30 05:50:01 2018, MaxMem= 10737418240 cpu:            5975.7 elap:             218.7
 (Enter /home1/apps/gaussian/16rA.03/g16/l801.exe)
 Windowed orbitals will be sorted by symmetry type.
 GenMOA:  NOpAll=  4 NOp2=4 NOpUse=  4 JSym2X=1
 FoFJK:  IHMeth= 1 ICntrl=       0 DoSepK=F KAlg= 0 I1Cent=           0 FoldK=F
 IRaf=         0 NMat=       1 IRICut=       1 DoRegI=T DoRafI=F ISym2E= 1 IDoP0=0 IntGTp=1.
 FoFCou: FMM=F IPFlag=           8 FMFlag=      100000 FMFlg1=           0
         NFxFlg=           0 DoJE=F BraDBF=F KetDBF=F FulRan=T
         wScrn=  0.000000 ICntrl=         0 IOpCl=  1 I1Cent=           0 NGrid=           0
         NMat0=    1 NMatS0=      1 NMatT0=    0 NMatD0=    1 NMtDS0=    0 NMtDT0=    0
 Petite list used in FoFCou.
 <Sx>= 0.0000 <Sy>= 0.0000 <Sz>= 0.5000 <S**2>= 0.7500 S= 0.5000
 Range of M.O.s used for correlation:     1   424
 NBasis=   428 NAE=    11 NBE=    10 NFC=     0 NFV=     0
 NROrb=    424 NOA=    11 NOB=    10 NVA=   413 NVB=   414

 **** Warning!!: The largest alpha MO coefficient is  0.33035480D+03


 **** Warning!!: The largest beta MO coefficient is  0.33035973D+03

 Singles contribution to E2=   -0.7728637042D-03
 Leave Link  801 at Mon Apr 30 05:51:01 2018, MaxMem= 10737418240 cpu:            1888.2 elap:              59.1
 (Enter /home1/apps/gaussian/16rA.03/g16/l804.exe)
 Open-shell transformation, MDV= 10737418240 ITran=4 ISComp=2.
 Unit  1 TFree=       5552142 TCopy=       2552274.
 Semi-Direct transformation.
 ModeAB=           2 MOrb=            11 LenV=   10731954922
 LASXX=    104488099 LTotXX=   104488099 LenRXX=   104488099
 LTotAB=   105441286 MaxLAS=   843722264 LenRXY=   843722264
 NonZer=   858539792 LenScr=  1292860416 LnRSAI=           0
 LnScr1=           0 LExtra=    31418709 Total=   2272489488
 MaxDsk= 67108864000 SrtSym=           F ITran=            4
 DoSDTr:  NPSUse= 32
 JobTyp=1 Pass  1:  I=   1 to  11.
 (rs|ai) integrals will be sorted in core.
 Complete sort for first half transformation.
 First half transformation complete.
 Begin second half transformation for I=  10.
 Begin second half transformation for I=  10.
 Complete sort for second half transformation.
 Second half transformation complete.
 ModeAB=           2 MOrb=            10 LenV=   10731954922
 LASXX=     94955716 LTotXX=    94955716 LenRXX=   767020240
 LTotAB=    90848451 MaxLAS=   767020240 LenRXY=    90848451
 NonZer=   780490720 LenScr=  1175327744 LnRSAI=           0
 LnScr1=           0 LExtra=   979629072 Total=   3012825507
 MaxDsk= 67108864000 SrtSym=           F ITran=            4
 DoSDTr:  NPSUse= 32
 JobTyp=2 Pass  1:  I=   1 to  10.
 (rs|ai) integrals will be sorted in core.
 Complete sort for first half transformation.
 First half transformation complete.
 Begin second half transformation for I=  10.
 Begin second half transformation for I=  10.
 Complete sort for second half transformation.
 Second half transformation complete.
 Spin components of T(2) and E(2):
     alpha-alpha T2 =       0.1905189059D-01 E2=     -0.1717526890D+00
     alpha-beta  T2 =       0.7928614173D-01 E2=     -0.7901537026D+00
     beta-beta   T2 =       0.1651221092D-01 E2=     -0.1634412035D+00
 ANorm=    0.1056194406D+01
 E2 =    -0.1126120459D+01 EUMP2 =    -0.22686906388591D+03
 (S**2,0)=  0.75000D+00           (S**2,1)=  0.75000D+00
 E(PUHF)=      -0.22574294343D+03        E(PMP2)=      -0.22686906389D+03
 Leave Link  804 at Mon Apr 30 06:28:04 2018, MaxMem= 10737418240 cpu:           71094.3 elap:            2222.4
 (Enter /home1/apps/gaussian/16rA.03/g16/l913.exe)
 CIDS:  MDV= 10737418240.
 IFCWin=0 IBDFC=1 NFBD=     0     0 NFCmp=     0     0 NFFFC=     0     0
 Using original routines for 1st iteration.
 Using DD4UQ or CC4UQ for 2nd and later iterations.
 Keep R2 and R3 ints in memory in symmetry-blocked form, NReq=5277888631.
 FoFCou: FMM=F IPFlag=           8 FMFlag=           0 FMFlg1=           0
         NFxFlg=           0 DoJE=F BraDBF=F KetDBF=F FulRan=T
         wScrn=  0.000000 ICntrl=       600 IOpCl=  0 I1Cent=           0 NGrid=           0
         NMat0=    1 NMatS0=  91806 NMatT0=    0 NMatD0=    1 NMtDS0=    0 NMtDT0=    0
 Petite list used in FoFCou.
 CIDS: In Core Option IDoMem=           1.
 CCSD(T)
 =======
 Iterations= 150 Convergence= 0.100D-06
 Produce multiple copies of IABC intergrals
 Iteration Nr.   1
 **********************
 DD1Dir will call FoFMem   1 times, MxPair=       320
 NAB=   110 NAA=    55 NBB=    45.
 DD1Dir will call FoFMem   1 times, MxPair=       320
 NAB=   110 NAA=    55 NBB=    45.
 MP4(R+Q)= -0.13972037D+00
 Maximum subspace dimension=  5
 A-vector RMS=  7.0320635D-05 Max=  1.2262492D-03 conv= 1.00D-05.
 RLE energy=       -1.1306029553
 E3=        0.13520558D+00        EROMP3=      -0.22673385830D+03
 E4(SDQ)=  -0.80639742D-01        ROMP4(SDQ)=  -0.22681449804D+03
 VARIATIONAL ENERGIES WITH THE FIRST-ORDER WAVEFUNCTION:
 DE(Corr)=  -1.1305853     E(Corr)=     -226.87352876    
 NORM(A)=   0.10561996D+01
 Iteration Nr.   2
 **********************
 DD1Dir will call FoFMem   1 times, MxPair=       320
 NAB=   110 NAA=    55 NBB=    45.
 A-vector RMS=  2.2961659D-03 Max=  2.4536353D-02 conv= 1.00D-05.
 RLE energy=       -1.1096111643
 DE(Corr)= -0.98981027     E(CORR)=     -226.73275370     Delta= 1.41D-01
 NORM(A)=   0.10535396D+01
 Iteration Nr.   3
 **********************
 DD1Dir will call FoFMem   1 times, MxPair=       320
 NAB=   110 NAA=    55 NBB=    45.
 A-vector RMS=  1.8456902D-03 Max=  2.1743370D-02 conv= 1.00D-05.
 RLE energy=       -1.0682890568
 DE(Corr)= -0.99885265     E(CORR)=     -226.74179607     Delta=-9.04D-03
 NORM(A)=   0.10518464D+01
 Iteration Nr.   4
 **********************
 DD1Dir will call FoFMem   1 times, MxPair=       320
 NAB=   110 NAA=    55 NBB=    45.
 A-vector RMS=  1.0948653D-03 Max=  1.4751001D-02 conv= 1.00D-05.
 RLE energy=       -0.9825020713
 DE(Corr)=  -1.0199232     E(CORR)=     -226.76286658     Delta=-2.11D-02
 NORM(A)=   0.10646990D+01
 Iteration Nr.   5
 **********************
 DD1Dir will call FoFMem   1 times, MxPair=       320
 NAB=   110 NAA=    55 NBB=    45.
 A-vector RMS=  1.4125713D-03 Max=  1.3268678D-02 conv= 1.00D-05.
 RLE energy=       -1.0385341753
 DE(Corr)=  -1.0730190     E(CORR)=     -226.81596241     Delta=-5.31D-02
 NORM(A)=   0.10593856D+01
 Iteration Nr.   6
 **********************
 DD1Dir will call FoFMem   1 times, MxPair=       320
 NAB=   110 NAA=    55 NBB=    45.
 A-vector RMS=  9.9798379D-05 Max=  1.6690651D-03 conv= 1.00D-05.
 RLE energy=       -1.0401691827
 DE(Corr)=  -1.0411870     E(CORR)=     -226.78413045     Delta= 3.18D-02
 NORM(A)=   0.10588591D+01
 Iteration Nr.   7
 **********************
 DD1Dir will call FoFMem   1 times, MxPair=       320
 NAB=   110 NAA=    55 NBB=    45.
 A-vector RMS=  4.6151105D-05 Max=  1.2321833D-03 conv= 1.00D-05.
 RLE energy=       -1.0397824555
 DE(Corr)=  -1.0398240     E(CORR)=     -226.78276744     Delta= 1.36D-03
 NORM(A)=   0.10592566D+01
 Iteration Nr.   8
 **********************
 DD1Dir will call FoFMem   1 times, MxPair=       320
 NAB=   110 NAA=    55 NBB=    45.
 A-vector RMS=  2.8527482D-05 Max=  4.9617266D-04 conv= 1.00D-05.
 RLE energy=       -1.0399168122
 DE(Corr)=  -1.0400228     E(CORR)=     -226.78296620     Delta=-1.99D-04
 NORM(A)=   0.10593720D+01
 Iteration Nr.   9
 **********************
 DD1Dir will call FoFMem   1 times, MxPair=       320
 NAB=   110 NAA=    55 NBB=    45.
 A-vector RMS=  1.2801655D-05 Max=  1.6994597D-04 conv= 1.00D-05.
 RLE energy=       -1.0399561284
 DE(Corr)=  -1.0399333     E(CORR)=     -226.78287676     Delta= 8.94D-05
 NORM(A)=   0.10594537D+01
 Iteration Nr.  10
 **********************
 DD1Dir will call FoFMem   1 times, MxPair=       320
 NAB=   110 NAA=    55 NBB=    45.
 A-vector RMS=  5.0115683D-06 Max=  9.1981195D-05 conv= 1.00D-05.
 RLE energy=       -1.0399559936
 DE(Corr)=  -1.0399558     E(CORR)=     -226.78289927     Delta=-2.25D-05
 NORM(A)=   0.10594423D+01
 Iteration Nr.  11
 **********************
 DD1Dir will call FoFMem   1 times, MxPair=       320
 NAB=   110 NAA=    55 NBB=    45.
 A-vector RMS=  2.5624885D-06 Max=  5.1539989D-05 conv= 1.00D-05.
 RLE energy=       -1.0399455231
 DE(Corr)=  -1.0399495     E(CORR)=     -226.78289292     Delta= 6.35D-06
 NORM(A)=   0.10594253D+01
 Iteration Nr.  12
 **********************
 DD1Dir will call FoFMem   1 times, MxPair=       320
 NAB=   110 NAA=    55 NBB=    45.
 A-vector RMS=  7.5353172D-07 Max=  1.7855147D-05 conv= 1.00D-05.
 RLE energy=       -1.0399479414
 DE(Corr)=  -1.0399485     E(CORR)=     -226.78289193     Delta= 9.83D-07
 NORM(A)=   0.10594223D+01
 Iteration Nr.  13
 **********************
 DD1Dir will call FoFMem   1 times, MxPair=       320
 NAB=   110 NAA=    55 NBB=    45.
 A-vector RMS=  3.7611450D-07 Max=  6.6932478D-06 conv= 1.00D-05.
 RLE energy=       -1.0399465824
 DE(Corr)=  -1.0399466     E(CORR)=     -226.78289003     Delta= 1.90D-06
 NORM(A)=   0.10594215D+01
 Iteration Nr.  14
 **********************
 DD1Dir will call FoFMem   1 times, MxPair=       320
 NAB=   110 NAA=    55 NBB=    45.
 A-vector RMS=  2.1870315D-07 Max=  4.7923102D-06 conv= 1.00D-05.
 RLE energy=       -1.0399458855
 DE(Corr)=  -1.0399463     E(CORR)=     -226.78288969     Delta= 3.42D-07
 NORM(A)=   0.10594214D+01
 Iteration Nr.  15
 **********************
 DD1Dir will call FoFMem   1 times, MxPair=       320
 NAB=   110 NAA=    55 NBB=    45.
 A-vector RMS=  6.6500190D-08 Max=  1.0535079D-06 conv= 1.00D-05.
 RLE energy=       -1.0399464588
 DE(Corr)=  -1.0399466     E(CORR)=     -226.78289000     Delta=-3.05D-07
 NORM(A)=   0.10594218D+01
 Iteration Nr.  16
 **********************
 DD1Dir will call FoFMem   1 times, MxPair=       320
 NAB=   110 NAA=    55 NBB=    45.
 A-vector RMS=  4.5135169D-08 Max=  8.9242344D-07 conv= 1.00D-05.
 RLE energy=       -1.0399465121
 DE(Corr)=  -1.0399465     E(CORR)=     -226.78288992     Delta= 7.47D-08
 NORM(A)=   0.10594220D+01
 CI/CC converged in   16 iterations to DelEn= 7.47D-08 Conv= 1.00D-07 ErrA1= 4.51D-08 Conv= 1.00D-05
 Wavefunction amplitudes converged. E(Corr)=     -226.78288992    
 Largest amplitude= 5.91D-02
 Time for triples=   204092.26 seconds.
 T4(CCSD)= -0.32776220D-01
 T5(CCSD)=  0.31177511D-02
 CCSD(T)= -0.22681254839D+03
 Discarding MO integrals.
 Leave Link  913 at Mon Apr 30 08:35:41 2018, MaxMem= 10737418240 cpu:          243904.5 elap:            7657.2
 (Enter /home1/apps/gaussian/16rA.03/g16/l601.exe)
 Copying SCF densities to generalized density rwf, IOpCl= 0 IROHF=1.

 **********************************************************************

            Population analysis using the SCF density.

 **********************************************************************

 Orbital symmetries:
       Occupied  (SG) (SG) (PI) (PI) (SG) (DLTA) (DLTA) (PI) (PI)
                 (SG) (SG)
       Virtual   (SG) (PI) (PI) (SG) (PI) (PI) (SG) (SG) (SG) (PI)
                 (PI) (DLTA) (DLTA) (SG) (PI) (PI) (SG) (PI) (PI)
                 (SG) (SG) (SG) (PI) (PI) (DLTA) (DLTA) (DLTA)
                 (DLTA) (SG) (SG) (PI) (PI) (PI) (PI) (PHI) (PHI)
                 (PI) (PI) (DLTA) (DLTA) (SG) (SG) (SG) (PI) (PI)
                 (SG) (DLTA) (DLTA) (PHI) (PHI) (SG) (PI) (PI)
                 (DLTA) (DLTA) (PI) (PI) (SG) (SG) (DLTA) (DLTA)
                 (PI) (PI) (?A) (?A) (PI) (PI) (SG) (PHI) (PHI)
                 (PI) (PI) (DLTA) (DLTA) (PHI) (PHI) (SG) (SG)
                 (SG) (PI) (PI) (DLTA) (DLTA) (DLTA) (DLTA) (?A)
                 (?A) (PI) (PI) (SG) (PI) (PI) (SG) (PHI) (PHI)
                 (DLTA) (DLTA) (SG) (PI) (PI) (SG) (PHI) (PHI)
                 (SG) (DLTA) (DLTA) (PI) (PI) (SG) (PI) (PI) (DLTA)
                 (DLTA) (PHI) (PHI) (PI) (PI) (SG) (?B) (?B) (?A)
                 (?A) (DLTA) (DLTA) (SG) (?A) (?A) (PI) (PI) (PHI)
                 (PHI) (DLTA) (DLTA) (SG) (PI) (PI) (DLTA) (DLTA)
                 (PHI) (PHI) (SG) (PI) (PI) (SG) (PI) (PI) (DLTA)
                 (DLTA) (SG) (PI) (PI) (SG) (SG) (SG) (PI) (PI)
                 (DLTA) (DLTA) (PHI) (PHI) (PI) (PI) (SG) (?A)
                 (?A) (PHI) (PHI) (SG) (DLTA) (DLTA) (PI) (PI)
                 (PHI) (PHI) (DLTA) (DLTA) (SG) (PI) (PI) (DLTA)
                 (DLTA) (DLTA) (DLTA) (PI) (PI) (SG) (?A) (?A)
                 (PHI) (PHI) (?B) (?B) (?A) (?A) (PI) (PI) (SG)
                 (PHI) (PHI) (DLTA) (DLTA) (DLTA) (DLTA) (SG) (PI)
                 (PI) (SG) (PI) (PI) (PI) (PI) (SG) (SG) (?B) (?B)
                 (?A) (?A) (PHI) (PHI) (SG) (DLTA) (DLTA) (SG)
                 (SG) (PI) (PI) (SG) (DLTA) (DLTA) (PI) (PI) (SG)
                 (PI) (PI) (SG) (PHI) (PHI) (DLTA) (DLTA) (PI)
                 (PI) (SG) (?A) (?A) (PHI) (PHI) (DLTA) (DLTA)
                 (PI) (PI) (SG) (?B) (?B) (?A) (?A) (PHI) (PHI)
                 (DLTA) (DLTA) (SG) (PI) (PI) (SG) (SG) (SG) (SG)
                 (?B) (?B) (?A) (?A) (PHI) (PHI) (DLTA) (DLTA)
                 (PI) (PI) (SG) (DLTA) (DLTA) (PI) (PI) (SG) (PI)
                 (PI) (SG) (?A) (?A) (PHI) (PHI) (DLTA) (DLTA)
                 (PI) (PI) (SG) (PHI) (PHI) (DLTA) (DLTA) (SG)
                 (PI) (PI) (SG) (?B) (?B) (?A) (?A) (PHI) (PHI)
                 (DLTA) (DLTA) (PI) (PI) (SG) (DLTA) (DLTA) (PI)
                 (PI) (SG) (SG) (SG) (?B) (?B) (?A) (?A) (PHI)
                 (PHI) (DLTA) (DLTA) (PI) (PI) (SG) (PI) (PI) (SG)
                 (DLTA) (DLTA) (PI) (PI) (SG) (SG) (SG) (PI) (PI)
                 (SG) (DLTA) (DLTA) (PI) (PI) (SG) (SG) (PI) (PI)
                 (SG) (SG) (DLTA) (DLTA) (PI) (PI) (SG) (PI) (PI)
                 (SG) (SG) (SG) (PI) (PI) (SG) (DLTA) (DLTA) (PI)
                 (PI) (SG) (SG) (PI) (PI) (SG) (SG) (PI) (PI) (SG)
                 (DLTA) (DLTA) (PI) (PI) (SG) (SG) (PI) (PI) (SG)
                 (SG) (SG) (PI) (PI) (SG) (SG) (PI) (PI) (SG) (SG)
                 (PI) (PI) (SG) (SG) (SG) (PI) (PI) (SG) (SG) (SG)
                 (SG) (SG) (SG) (SG)
 The electronic state is 2-SG.
 Alpha  occ. eigenvalues --   -5.89027  -3.97376  -3.96582  -3.96582  -0.83554
 Alpha  occ. eigenvalues --   -0.80860  -0.80860  -0.80790  -0.80790  -0.48997
 Alpha  occ. eigenvalues --   -0.26596
 Alpha virt. eigenvalues --    0.01973   0.01973   0.02106   0.03397   0.06405
 Alpha virt. eigenvalues --    0.06405   0.06964   0.11887   0.13998   0.15306
 Alpha virt. eigenvalues --    0.15306   0.15543   0.15543   0.19195   0.20458
 Alpha virt. eigenvalues --    0.20458   0.24210   0.26939   0.26939   0.36524
 Alpha virt. eigenvalues --    0.38047   0.44440   0.44517   0.44517   0.47137
 Alpha virt. eigenvalues --    0.47137   0.54568   0.54568   0.56819   0.60951
 Alpha virt. eigenvalues --    0.63334   0.63334   0.66235   0.66235   0.75604
 Alpha virt. eigenvalues --    0.75604   0.87405   0.87405   0.89654   0.89654
 Alpha virt. eigenvalues --    0.90026   0.98494   1.04973   1.05159   1.05159
 Alpha virt. eigenvalues --    1.15996   1.20794   1.20794   1.25735   1.25735
 Alpha virt. eigenvalues --    1.29375   1.37616   1.37616   1.44373   1.44373
 Alpha virt. eigenvalues --    1.46768   1.46768   1.48858   1.82139   1.89433
 Alpha virt. eigenvalues --    1.89433   1.95304   1.95304   2.16883   2.16883
 Alpha virt. eigenvalues --    2.18627   2.18627   2.19853   2.26512   2.26512
 Alpha virt. eigenvalues --    2.34369   2.34369   2.36180   2.36180   2.40389
 Alpha virt. eigenvalues --    2.40389   2.40904   2.57512   2.69314   2.83010
 Alpha virt. eigenvalues --    2.83010   2.85816   2.85816   3.00418   3.00418
 Alpha virt. eigenvalues --    3.01020   3.01020   3.01967   3.01967   3.03835
 Alpha virt. eigenvalues --    3.26244   3.26244   3.43881   3.46051   3.46051
 Alpha virt. eigenvalues --    3.47814   3.47814   3.64956   3.90345   3.90345
 Alpha virt. eigenvalues --    3.91552   4.21983   4.21983   4.55336   4.84500
 Alpha virt. eigenvalues --    4.84500   5.11284   5.11284   5.20016   5.49571
 Alpha virt. eigenvalues --    5.49571   5.57561   5.57561   5.84922   5.84922
 Alpha virt. eigenvalues --    5.88525   5.88525   5.91912   5.95644   5.95644
 Alpha virt. eigenvalues --    6.07993   6.07993   6.08344   6.08344   6.10177
 Alpha virt. eigenvalues --    6.14707   6.14707   6.21968   6.21968   6.24552
 Alpha virt. eigenvalues --    6.24552   6.35749   6.35749   6.41316   6.44658
 Alpha virt. eigenvalues --    6.44658   6.57690   6.57690   6.71841   6.71841
 Alpha virt. eigenvalues --    6.78881   6.80655   6.80655   7.46986   7.60156
 Alpha virt. eigenvalues --    7.60156   7.79375   7.79375   8.09486   8.90491
 Alpha virt. eigenvalues --    8.90491   9.13715   9.69306  11.38321  12.82293
 Alpha virt. eigenvalues --   12.82293  12.88435  12.88435  12.90459  12.90459
 Alpha virt. eigenvalues --   12.96387  12.96387  13.07879  13.14487  13.14487
 Alpha virt. eigenvalues --   13.25378  13.25378  13.26562  13.36835  13.36835
 Alpha virt. eigenvalues --   13.46160  13.46160  13.57754  13.57754  13.68978
 Alpha virt. eigenvalues --   13.68978  13.84238  14.03436  14.03436  14.03836
 Alpha virt. eigenvalues --   14.03836  14.30221  14.30221  14.41481  14.41481
 Alpha virt. eigenvalues --   14.46625  14.98325  14.98325  15.08901  15.08901
 Alpha virt. eigenvalues --   15.11731  15.11731  15.18140  15.18140  15.32361
 Alpha virt. eigenvalues --   15.32361  15.35643  15.45394  15.45394  15.53578
 Alpha virt. eigenvalues --   15.53578  15.84130  15.84130  16.01011  16.15231
 Alpha virt. eigenvalues --   16.15231  16.32877  17.30551  17.30551  17.75726
 Alpha virt. eigenvalues --   17.75726  17.78429  17.78429  17.78647  17.78647
 Alpha virt. eigenvalues --   17.79809  17.79809  18.00790  18.00790  18.13402
 Alpha virt. eigenvalues --   19.13098  19.13098  19.25219  20.34414  20.86351
 Alpha virt. eigenvalues --   20.86351  21.92056  25.98909  25.98909  26.09959
 Alpha virt. eigenvalues --   26.09959  26.30040  26.51675  26.51675  28.01859
 Alpha virt. eigenvalues --   31.06777  31.06777  31.21472  31.21472  31.98647
 Alpha virt. eigenvalues --   31.98647  32.79343  32.88733  32.88733  32.94442
 Alpha virt. eigenvalues --   32.94442  33.21331  33.21331  33.80675  33.80675
 Alpha virt. eigenvalues --   34.20053  34.29381  34.29381  34.33149  34.33149
 Alpha virt. eigenvalues --   34.49173  34.49173  34.65542  34.65542  34.85283
 Alpha virt. eigenvalues --   34.96016  34.96016  36.60033  38.00313  40.87560
 Alpha virt. eigenvalues --   40.87560  40.87784  40.87784  40.88326  40.88326
 Alpha virt. eigenvalues --   40.94806  40.94806  41.31047  41.31047  41.87585
 Alpha virt. eigenvalues --   41.87585  42.05180  47.09771  47.09771  47.24150
 Alpha virt. eigenvalues --   47.24150  47.60886  49.92674  49.92674  51.45135
 Alpha virt. eigenvalues --   69.50935  69.50935  69.55179  69.55179  69.74907
 Alpha virt. eigenvalues --   69.74907  70.13843  70.13843  70.50070  72.55422
 Alpha virt. eigenvalues --   72.55422  72.66095  72.66095  73.09106  73.21168
 Alpha virt. eigenvalues --   73.21168  74.00332  74.10426  74.10426  74.13056
 Alpha virt. eigenvalues --   74.13056  74.23505  74.23505  74.34101  74.34101
 Alpha virt. eigenvalues --   74.51954  74.51954  75.06996  80.60920  80.60920
 Alpha virt. eigenvalues --   80.74889  80.74889  81.18752  86.39789  86.39789
 Alpha virt. eigenvalues --   86.40208  86.40208  86.40691  86.40691  86.44159
 Alpha virt. eigenvalues --   86.44159  86.63682  86.63682  86.95540  86.95540
 Alpha virt. eigenvalues --   87.00090  90.92011  90.92011  92.52029 133.87472
 Alpha virt. eigenvalues --  133.87472 134.00345 134.00345 134.39459 140.54141
 Alpha virt. eigenvalues --  142.41267 165.21465 165.21465 166.81665 233.77566
 Alpha virt. eigenvalues --  233.77566 233.89281 233.89281 234.25461 262.81069
 Alpha virt. eigenvalues --  298.05485 298.05485 299.57795 435.35929 477.50271
 Alpha virt. eigenvalues --  477.50271 477.60032 477.60032 477.90435 529.58741
 Alpha virt. eigenvalues --  529.58741 531.04960 707.74815 817.98970 945.49817
 Alpha virt. eigenvalues --  945.49817 946.930671180.738541180.738541180.81349
 Alpha virt. eigenvalues -- 1180.813491181.056311192.543081732.017971732.01797
 Alpha virt. eigenvalues -- 1733.416052080.756973307.857653307.857653309.18741
 Alpha virt. eigenvalues -- 3676.583233676.583233676.633133676.633133676.79650
 Alpha virt. eigenvalues -- 3766.248126687.679006687.679006688.911927082.08953
 Alpha virt. eigenvalues -- **************************************************
 Alpha virt. eigenvalues -- **************************************************
 Alpha virt. eigenvalues -- **************************************************
 Alpha virt. eigenvalues -- **************************************************
 Alpha virt. eigenvalues -- ******************************
     Molecular Orbital Coefficients:
                           6         7         8         9        10
                           O         O         O         O         O
     Eigenvalues --    -0.80860  -0.80860  -0.80790  -0.80790  -0.48997
   1 1   Zn 1S          0.00000   0.00000   0.00000   0.00000  -0.00000
   2        2S         -0.00000   0.00000   0.00000   0.00000   0.00000
   3        3S          0.00000   0.00000   0.00000   0.00000  -0.00000
   4        4S         -0.00000   0.00000   0.00000   0.00000   0.00000
   5        5S          0.00000   0.00000   0.00000   0.00000  -0.00000
   6        6S         -0.00000   0.00000   0.00000   0.00000   0.00000
   7        7S          0.00000   0.00000   0.00000   0.00000  -0.00000
   8        8S         -0.00000   0.00000   0.00000   0.00000   0.00000
   9        9S          0.00000   0.00000   0.00000   0.00000  -0.00000
  10       10S         -0.00000   0.00000   0.00000   0.00000   0.00000
  11       11S          0.00000   0.00000   0.00000   0.00000  -0.00001
  12       12S         -0.00000   0.00000   0.00000   0.00000   0.00003
  13       13S          0.00000   0.00000   0.00000   0.00000  -0.00007
  14       14S         -0.00000   0.00000   0.00000   0.00000   0.00018
  15       15S          0.00000   0.00000   0.00000   0.00000  -0.00046
  16       16S         -0.00000   0.00000   0.00000   0.00000   0.00118
  17       17S          0.00000   0.00000   0.00000   0.00000  -0.00101
  18       18S          0.00000   0.00000   0.00000   0.00000  -0.01512
  19       19S         -0.00000   0.00000   0.00000   0.00000   0.02540
  20       20S         -0.00000   0.00000   0.00000   0.00000   0.03417
  21       21S          0.00000   0.00000   0.00000   0.00000   0.00559
  22       22S          0.00000   0.00000   0.00000   0.00000  -0.09250
  23       23S          0.00000   0.00000   0.00000   0.00000  -0.18064
  24       24S          0.00000   0.00000   0.00000   0.00000  -0.11058
  25       25S         -0.00000   0.00000   0.00000   0.00000   0.11617
  26       26S          0.00000   0.00000   0.00000   0.00000   0.23617
  27       27S          0.00000   0.00000   0.00000   0.00000   0.14035
  28       28S          0.00000   0.00000   0.00000   0.00000   0.00135
  29       29S         -0.00000   0.00000   0.00000   0.00000   0.03617
  30       30S         -0.00000   0.00000   0.00000   0.00000  -0.02439
  31       31S          0.00000   0.00000   0.00000   0.00000  -0.00026
  32       32PX         0.00000   0.00000   0.00000  -0.00000   0.00000
  33       32PY         0.00000   0.00000  -0.00000   0.00000   0.00000
  34       32PZ        -0.00000   0.00000   0.00000   0.00000   0.00000
  35       33PX         0.00000   0.00000   0.00000   0.00000   0.00000
  36       33PY         0.00000   0.00000   0.00000   0.00000   0.00000
  37       33PZ         0.00000   0.00000   0.00000   0.00000  -0.00000
  38       34PX         0.00000   0.00000   0.00000  -0.00000   0.00000
  39       34PY         0.00000   0.00000  -0.00000   0.00000   0.00000
  40       34PZ        -0.00000   0.00000   0.00000   0.00000   0.00000
  41       35PX         0.00000   0.00000   0.00000   0.00000   0.00000
  42       35PY         0.00000   0.00000   0.00000   0.00000   0.00000
  43       35PZ         0.00000   0.00000   0.00000   0.00000  -0.00000
  44       36PX         0.00000   0.00000   0.00000  -0.00000   0.00000
  45       36PY         0.00000   0.00000  -0.00000   0.00000   0.00000
  46       36PZ        -0.00000   0.00000   0.00000   0.00000   0.00001
  47       37PX         0.00000   0.00000   0.00000   0.00000   0.00000
  48       37PY         0.00000   0.00000   0.00000   0.00000   0.00000
  49       37PZ         0.00000   0.00000   0.00000   0.00000  -0.00002
  50       38PX         0.00000   0.00000   0.00000  -0.00000   0.00000
  51       38PY         0.00000   0.00000  -0.00000   0.00000   0.00000
  52       38PZ        -0.00000   0.00000   0.00000   0.00000   0.00006
  53       39PX         0.00000   0.00000   0.00000   0.00000   0.00000
  54       39PY         0.00000   0.00000   0.00000   0.00000   0.00000
  55       39PZ         0.00000   0.00000   0.00000   0.00000  -0.00018
  56       40PX         0.00000   0.00000   0.00000  -0.00000   0.00000
  57       40PY         0.00000   0.00000  -0.00000   0.00000   0.00000
  58       40PZ        -0.00000   0.00000   0.00000   0.00000   0.00064
  59       41PX         0.00000   0.00000   0.00000   0.00001   0.00000
  60       41PY         0.00000   0.00000   0.00001   0.00000   0.00000
  61       41PZ         0.00000   0.00000   0.00000   0.00000  -0.00084
  62       42PX         0.00000   0.00000   0.00000  -0.00013   0.00000
  63       42PY         0.00000   0.00000  -0.00013   0.00000   0.00000
  64       42PZ         0.00000   0.00000   0.00000   0.00000  -0.00425
  65       43PX         0.00000   0.00000   0.00000  -0.00090   0.00000
  66       43PY         0.00000   0.00000  -0.00090   0.00000   0.00000
  67       43PZ        -0.00000   0.00000   0.00000   0.00000  -0.00071
  68       44PX         0.00000   0.00000   0.00000   0.00013   0.00000
  69       44PY         0.00000   0.00000   0.00013   0.00000   0.00000
  70       44PZ        -0.00000   0.00000   0.00000   0.00000   0.00689
  71       45PX         0.00000   0.00000   0.00000  -0.00123   0.00000
  72       45PY         0.00000   0.00000  -0.00123   0.00000   0.00000
  73       45PZ        -0.00000   0.00000   0.00000   0.00000   0.02774
  74       46PX         0.00000   0.00000   0.00000   0.00105   0.00000
  75       46PY         0.00000   0.00000   0.00105   0.00000   0.00000
  76       46PZ        -0.00000   0.00000   0.00000   0.00000   0.05459
  77       47PX         0.00000   0.00000   0.00000  -0.00002   0.00000
  78       47PY         0.00000   0.00000  -0.00002   0.00000   0.00000
  79       47PZ        -0.00000   0.00000   0.00000   0.00000   0.04138
  80       48PX         0.00000   0.00000   0.00000   0.00027   0.00000
  81       48PY         0.00000   0.00000   0.00027   0.00000   0.00000
  82       48PZ         0.00000   0.00000   0.00000   0.00000  -0.00436
  83       49PX         0.00000   0.00000   0.00000  -0.00157   0.00000
  84       49PY         0.00000   0.00000  -0.00157   0.00000   0.00000
  85       49PZ        -0.00000   0.00000   0.00000   0.00000  -0.07678
  86       50PX         0.00000   0.00000   0.00000  -0.00017   0.00000
  87       50PY         0.00000   0.00000  -0.00017   0.00000   0.00000
  88       50PZ        -0.00000   0.00000   0.00000   0.00000  -0.06244
  89       51PX         0.00000   0.00000   0.00000   0.00041   0.00000
  90       51PY         0.00000   0.00000   0.00041   0.00000   0.00000
  91       51PZ        -0.00000   0.00000   0.00000   0.00000  -0.00737
  92       52PX         0.00000   0.00000   0.00000   0.00084   0.00000
  93       52PY         0.00000   0.00000   0.00084   0.00000   0.00000
  94       52PZ         0.00000   0.00000   0.00000   0.00000  -0.00571
  95       53PX         0.00000   0.00000   0.00000   0.00149   0.00000
  96       53PY         0.00000   0.00000   0.00149   0.00000   0.00000
  97       53PZ         0.00000   0.00000   0.00000   0.00000   0.01473
  98       54PX         0.00000   0.00000   0.00000  -0.00007   0.00000
  99       54PY         0.00000   0.00000  -0.00007   0.00000   0.00000
 100       54PZ        -0.00000   0.00000   0.00000   0.00000   0.00021
 101       55D 0        0.00000   0.00000   0.00000   0.00000   0.00000
 102       55D+1        0.00000   0.00000   0.00000  -0.00000   0.00000
 103       55D-1        0.00000   0.00000  -0.00000   0.00000   0.00000
 104       55D+2       -0.00000   0.00000   0.00000   0.00000  -0.00000
 105       55D-2        0.00000  -0.00000   0.00000   0.00000   0.00000
 106       56D 0        0.00000   0.00000   0.00000   0.00000   0.00000
 107       56D+1        0.00000   0.00000   0.00000  -0.00000   0.00000
 108       56D-1        0.00000   0.00000  -0.00000   0.00000   0.00000
 109       56D+2       -0.00000   0.00000   0.00000   0.00000   0.00000
 110       56D-2        0.00000  -0.00000   0.00000   0.00000   0.00000
 111       57D 0       -0.00000   0.00000   0.00000   0.00000  -0.00016
 112       57D+1        0.00000   0.00000   0.00000   0.00057   0.00000
 113       57D-1        0.00000   0.00000   0.00057   0.00000   0.00000
 114       57D+2        0.00057   0.00000   0.00000   0.00000   0.00000
 115       57D-2        0.00000   0.00057   0.00000   0.00000   0.00000
 116       58D 0       -0.00000   0.00000   0.00000   0.00000  -0.00379
 117       58D+1        0.00000   0.00000   0.00000   0.01362   0.00000
 118       58D-1        0.00000   0.00000   0.01362   0.00000   0.00000
 119       58D+2        0.01367   0.00000   0.00000   0.00000   0.00000
 120       58D-2        0.00000   0.01367   0.00000   0.00000   0.00000
 121       59D 0       -0.00000   0.00000   0.00000   0.00000  -0.02089
 122       59D+1        0.00000   0.00000   0.00000   0.07549   0.00000
 123       59D-1        0.00000   0.00000   0.07549   0.00000   0.00000
 124       59D+2        0.07569   0.00000   0.00000   0.00000   0.00000
 125       59D-2        0.00000   0.07569   0.00000   0.00000   0.00000
 126       60D 0       -0.00000   0.00000   0.00000   0.00000  -0.04806
 127       60D+1        0.00000   0.00000   0.00000   0.18107   0.00000
 128       60D-1        0.00000   0.00000   0.18107   0.00000   0.00000
 129       60D+2        0.18048   0.00000   0.00000   0.00000   0.00000
 130       60D-2        0.00000   0.18048   0.00000   0.00000   0.00000
 131       61D 0       -0.00000   0.00000   0.00000   0.00000  -0.06841
 132       61D+1        0.00000   0.00000   0.00000   0.25007   0.00000
 133       61D-1        0.00000   0.00000   0.25007   0.00000   0.00000
 134       61D+2        0.25031   0.00000   0.00000   0.00000   0.00000
 135       61D-2        0.00000   0.25031   0.00000   0.00000   0.00000
 136       62D 0       -0.00000   0.00000   0.00000   0.00000  -0.08058
 137       62D+1        0.00000   0.00000   0.00000   0.28933   0.00000
 138       62D-1        0.00000   0.00000   0.28933   0.00000   0.00000
 139       62D+2        0.29045   0.00000   0.00000   0.00000   0.00000
 140       62D-2        0.00000   0.29045   0.00000   0.00000   0.00000
 141       63D 0       -0.00000   0.00000   0.00000   0.00000  -0.07257
 142       63D+1        0.00000   0.00000   0.00000   0.27094   0.00000
 143       63D-1        0.00000   0.00000   0.27094   0.00000   0.00000
 144       63D+2        0.27114   0.00000   0.00000   0.00000   0.00000
 145       63D-2        0.00000   0.27114   0.00000   0.00000   0.00000
 146       64D 0       -0.00000   0.00000   0.00000   0.00000  -0.05486
 147       64D+1        0.00000   0.00000   0.00000   0.19228   0.00000
 148       64D-1        0.00000   0.00000   0.19228   0.00000   0.00000
 149       64D+2        0.19391   0.00000   0.00000   0.00000   0.00000
 150       64D-2        0.00000   0.19391   0.00000   0.00000   0.00000
 151       65D 0       -0.00000   0.00000   0.00000   0.00000  -0.02445
 152       65D+1        0.00000   0.00000   0.00000   0.09164   0.00000
 153       65D-1        0.00000   0.00000   0.09164   0.00000   0.00000
 154       65D+2        0.09235   0.00000   0.00000   0.00000   0.00000
 155       65D-2        0.00000   0.09235   0.00000   0.00000   0.00000
 156       66D 0        0.00000   0.00000   0.00000   0.00000  -0.00271
 157       66D+1        0.00000   0.00000   0.00000   0.01898   0.00000
 158       66D-1        0.00000   0.00000   0.01898   0.00000   0.00000
 159       66D+2        0.01760   0.00000   0.00000   0.00000   0.00000
 160       66D-2        0.00000   0.01760   0.00000   0.00000   0.00000
 161       67D 0        0.00000   0.00000   0.00000   0.00000   0.00400
 162       67D+1        0.00000   0.00000   0.00000  -0.01972   0.00000
 163       67D-1        0.00000   0.00000  -0.01972   0.00000   0.00000
 164       67D+2       -0.01902   0.00000   0.00000   0.00000  -0.00000
 165       67D-2        0.00000  -0.01902   0.00000   0.00000   0.00000
 166       68D 0        0.00000   0.00000   0.00000   0.00000   0.00171
 167       68D+1        0.00000   0.00000   0.00000  -0.01170   0.00000
 168       68D-1        0.00000   0.00000  -0.01170   0.00000   0.00000
 169       68D+2       -0.01093   0.00000   0.00000   0.00000  -0.00000
 170       68D-2        0.00000  -0.01093   0.00000   0.00000   0.00000
 171       69D 0        0.00000   0.00000   0.00000   0.00000   0.00370
 172       69D+1        0.00000   0.00000   0.00000   0.00020   0.00000
 173       69D-1        0.00000   0.00000   0.00020   0.00000   0.00000
 174       69D+2       -0.00000   0.00000   0.00000   0.00000   0.00000
 175       69D-2        0.00000  -0.00000   0.00000   0.00000   0.00000
 176       70F 0       -0.00000   0.00000   0.00000   0.00000  -0.00005
 177       70F+1        0.00000   0.00000   0.00000   0.00003   0.00000
 178       70F-1        0.00000   0.00000   0.00003   0.00000   0.00000
 179       70F+2        0.00003   0.00000   0.00000   0.00000   0.00000
 180       70F-2        0.00000   0.00003   0.00000   0.00000   0.00000
 181       70F+3        0.00000   0.00000   0.00000  -0.00000   0.00000
 182       70F-3        0.00000   0.00000  -0.00000   0.00000   0.00000
 183       71F 0        0.00000   0.00000   0.00000   0.00000  -0.00025
 184       71F+1        0.00000   0.00000   0.00000   0.00006   0.00000
 185       71F-1        0.00000   0.00000   0.00006   0.00000   0.00000
 186       71F+2        0.00009   0.00000   0.00000   0.00000   0.00000
 187       71F-2        0.00000   0.00009   0.00000   0.00000   0.00000
 188       71F+3        0.00000   0.00000   0.00000  -0.00000   0.00000
 189       71F-3        0.00000   0.00000   0.00000   0.00000   0.00000
 190       72F 0       -0.00000   0.00000   0.00000   0.00000  -0.00058
 191       72F+1        0.00000   0.00000   0.00000   0.00024   0.00000
 192       72F-1        0.00000   0.00000   0.00024   0.00000   0.00000
 193       72F+2        0.00017   0.00000   0.00000   0.00000   0.00000
 194       72F-2        0.00000   0.00017   0.00000   0.00000   0.00000
 195       72F+3        0.00000   0.00000   0.00000  -0.00000   0.00000
 196       72F-3        0.00000   0.00000   0.00000   0.00000   0.00000
 197       73F 0        0.00000   0.00000   0.00000   0.00000  -0.00224
 198       73F+1        0.00000   0.00000   0.00000  -0.00004   0.00000
 199       73F-1        0.00000   0.00000  -0.00004   0.00000   0.00000
 200       73F+2        0.00039   0.00000   0.00000   0.00000   0.00000
 201       73F-2        0.00000   0.00039   0.00000   0.00000   0.00000
 202       73F+3        0.00000   0.00000   0.00000  -0.00000   0.00000
 203       73F-3        0.00000   0.00000   0.00000   0.00000   0.00000
 204       74F 0        0.00000   0.00000   0.00000   0.00000  -0.00191
 205       74F+1        0.00000   0.00000   0.00000   0.00031   0.00000
 206       74F-1        0.00000   0.00000   0.00031   0.00000   0.00000
 207       74F+2        0.00065   0.00000   0.00000   0.00000   0.00000
 208       74F-2        0.00000   0.00065   0.00000   0.00000   0.00000
 209       74F+3        0.00000   0.00000   0.00000  -0.00000   0.00000
 210       74F-3        0.00000   0.00000   0.00000   0.00000   0.00000
 211       75F 0       -0.00000   0.00000   0.00000   0.00000  -0.00098
 212       75F+1        0.00000   0.00000   0.00000  -0.00023   0.00000
 213       75F-1        0.00000   0.00000  -0.00023   0.00000   0.00000
 214       75F+2       -0.00002   0.00000   0.00000   0.00000   0.00000
 215       75F-2        0.00000  -0.00002   0.00000   0.00000   0.00000
 216       75F+3        0.00000   0.00000   0.00000  -0.00000   0.00000
 217       75F-3        0.00000   0.00000  -0.00000   0.00000   0.00000
 218       76G 0        0.00000   0.00000   0.00000   0.00000   0.00002
 219       76G+1        0.00000   0.00000   0.00000  -0.00002   0.00000
 220       76G-1        0.00000   0.00000  -0.00002   0.00000   0.00000
 221       76G+2       -0.00001   0.00000   0.00000   0.00000  -0.00000
 222       76G-2        0.00000  -0.00001   0.00000   0.00000   0.00000
 223       76G+3        0.00000   0.00000   0.00000  -0.00000   0.00000
 224       76G-3        0.00000   0.00000  -0.00000   0.00000   0.00000
 225       76G+4       -0.00000   0.00000   0.00000   0.00000   0.00000
 226       76G-4        0.00000  -0.00000   0.00000   0.00000   0.00000
 227       77G 0       -0.00000   0.00000   0.00000   0.00000  -0.00000
 228       77G+1        0.00000   0.00000   0.00000  -0.00007   0.00000
[...]
 208       74F-2        0.00000   0.00000   0.00000   0.00000
 209       74F+3        0.00000   0.00000   0.00000   0.00000
 210       74F-3        0.00000   0.00000   0.00000   0.00000
 211       75F 0        0.00038   0.00016   0.00023  -0.00007
 212       75F+1        0.00000   0.00000   0.00000   0.00000
 213       75F-1        0.00000   0.00000   0.00000   0.00000
 214       75F+2        0.00000   0.00000   0.00000  -0.00000
 215       75F-2        0.00000   0.00000   0.00000   0.00000
 216       75F+3        0.00000   0.00000   0.00000   0.00000
 217       75F-3        0.00000   0.00000   0.00000   0.00000
 218       76G 0        0.00000   0.00000   0.00000   0.00000
 219       76G+1        0.00000   0.00000   0.00000   0.00000
 220       76G-1        0.00000   0.00000   0.00000   0.00000
 221       76G+2        0.00000   0.00000   0.00000   0.00000
 222       76G-2        0.00000   0.00000   0.00000   0.00000
 223       76G+3        0.00000   0.00000   0.00000   0.00000
 224       76G-3        0.00000   0.00000   0.00000   0.00000
 225       76G+4       -0.00000  -0.00000  -0.00000   0.00000
 226       76G-4        0.00000   0.00000   0.00000   0.00000
 227       77G 0       -0.00000  -0.00000  -0.00000  -0.00000
 228       77G+1       -0.00000  -0.00000  -0.00000  -0.00000
 229       77G-1       -0.00000  -0.00000  -0.00000  -0.00000
 230       77G+2        0.00000   0.00000   0.00000  -0.00000
 231       77G-2        0.00000   0.00000   0.00000   0.00000
 232       77G+3        0.00000   0.00000   0.00000   0.00000
 233       77G-3        0.00000   0.00000   0.00000   0.00000
 234       77G+4        0.00000   0.00000   0.00000   0.00000
 235       77G-4        0.00000   0.00000   0.00000   0.00000
 236       78G 0        0.00000   0.00000   0.00000   0.00000
 237       78G+1        0.00000   0.00000   0.00000   0.00000
 238       78G-1        0.00000   0.00000   0.00000   0.00000
 239       78G+2       -0.00000  -0.00000  -0.00000  -0.00000
 240       78G-2       -0.00000  -0.00000  -0.00000  -0.00000
 241       78G+3        0.00000   0.00000   0.00000   0.00000
 242       78G-3        0.00000   0.00000   0.00000   0.00000
 243       78G+4       -0.00000  -0.00000  -0.00000   0.00000
 244       78G-4        0.00000   0.00000   0.00000   0.00000
 245       79G 0        0.00003   0.00002   0.00002  -0.00000
 246       79G+1        0.00000   0.00000   0.00000   0.00000
 247       79G-1        0.00000   0.00000   0.00000   0.00000
 248       79G+2        0.00000   0.00000   0.00000   0.00000
 249       79G-2        0.00000   0.00000   0.00000   0.00000
 250       79G+3        0.00000   0.00000   0.00000   0.00000
 251       79G-3        0.00000   0.00000   0.00000   0.00000
 252       79G+4        0.00000   0.00000   0.00000   0.00000
 253       79G-4        0.00000   0.00000   0.00000   0.00000
 254       80G 0       -0.00004  -0.00003  -0.00000  -0.00003
 255       80G+1       -0.00001  -0.00000  -0.00000  -0.00000
 256       80G-1       -0.00001  -0.00000  -0.00000  -0.00000
 257       80G+2        0.00000   0.00000   0.00000   0.00000
 258       80G-2        0.00000   0.00000   0.00000  -0.00000
 259       80G+3        0.00000   0.00000   0.00000   0.00000
 260       80G-3        0.00000   0.00000   0.00000   0.00000
 261       80G+4       -0.00000  -0.00000  -0.00000  -0.00000
 262       80G-4        0.00000   0.00000   0.00000   0.00000
 263       81H 0        0.00000   0.00000   0.00000  -0.00000
 264       81H+1        0.00000   0.00000   0.00000   0.00000
 265       81H-1        0.00000   0.00000   0.00000  -0.00000
 266       81H+2        0.00000   0.00000   0.00000   0.00000
 267       81H-2        0.00000   0.00000   0.00000   0.00000
 268       81H+3        0.00000   0.00000   0.00000   0.00000
 269       81H-3        0.00000   0.00000   0.00000   0.00000
 270       81H+4       -0.00000  -0.00000  -0.00000  -0.00000
 271       81H-4        0.00000   0.00000   0.00000   0.00000
 272       81H+5       -0.00000  -0.00000  -0.00000   0.00000
 273       81H-5       -0.00000  -0.00000  -0.00000  -0.00000
 274       82H 0       -0.00000  -0.00000  -0.00000   0.00000
 275       82H+1       -0.00000  -0.00000  -0.00000  -0.00000
 276       82H-1       -0.00000  -0.00000  -0.00000  -0.00000
 277       82H+2       -0.00000  -0.00000  -0.00000   0.00000
 278       82H-2       -0.00000  -0.00000  -0.00000  -0.00000
 279       82H+3       -0.00000  -0.00000  -0.00000  -0.00000
 280       82H-3        0.00000   0.00000   0.00000   0.00000
 281       82H+4        0.00000   0.00000   0.00000   0.00000
 282       82H-4        0.00000   0.00000   0.00000   0.00000
 283       82H+5        0.00000   0.00000   0.00000   0.00000
 284       82H-5        0.00000   0.00000   0.00000   0.00000
 285       83H 0        0.00000   0.00000   0.00000   0.00000
 286       83H+1        0.00000   0.00000   0.00000   0.00000
 287       83H-1        0.00000   0.00000   0.00000   0.00000
 288       83H+2        0.00000   0.00000   0.00000  -0.00000
 289       83H-2        0.00000   0.00000   0.00000   0.00000
 290       83H+3        0.00000   0.00000   0.00000   0.00000
 291       83H-3        0.00000   0.00000   0.00000   0.00000
 292       83H+4       -0.00000  -0.00000  -0.00000  -0.00000
 293       83H-4        0.00000   0.00000   0.00000   0.00000
 294       83H+5       -0.00000  -0.00000  -0.00000  -0.00000
 295       83H-5       -0.00000  -0.00000  -0.00000  -0.00000
 296       84H 0        0.00000   0.00000   0.00000  -0.00000
 297       84H+1        0.00000   0.00000   0.00000   0.00000
 298       84H-1        0.00000   0.00000   0.00000   0.00000
 299       84H+2        0.00000   0.00000   0.00000   0.00000
 300       84H-2        0.00000   0.00000   0.00000   0.00000
 301       84H+3        0.00000   0.00000   0.00000   0.00000
 302       84H-3        0.00000   0.00000   0.00000   0.00000
 303       84H+4        0.00000   0.00000   0.00000   0.00000
 304       84H-4        0.00000   0.00000   0.00000   0.00000
 305       84H+5        0.00000   0.00000   0.00000   0.00000
 306       84H-5        0.00000   0.00000   0.00000   0.00000
 307       85I 0        0.00000   0.00000   0.00000  -0.00000
 308       85I+1        0.00000   0.00000   0.00000   0.00000
 309       85I-1        0.00000   0.00000   0.00000   0.00000
 310       85I+2        0.00000   0.00000   0.00000   0.00000
 311       85I-2        0.00000   0.00000   0.00000   0.00000
 312       85I+3        0.00000   0.00000   0.00000   0.00000
 313       85I-3        0.00000   0.00000   0.00000   0.00000
 314       85I+4        0.00000   0.00000   0.00000   0.00000
 315       85I-4        0.00000   0.00000   0.00000   0.00000
 316       85I+5       -0.00000  -0.00000  -0.00000   0.00000
 317       85I-5        0.00000   0.00000   0.00000   0.00000
 318       85I+6        0.00000   0.00000   0.00000   0.00000
 319       85I-6        0.00000   0.00000   0.00000   0.00000
 320       86I 0       -0.00000  -0.00000  -0.00000   0.00000
 321       86I+1       -0.00000  -0.00000  -0.00000  -0.00000
 322       86I-1       -0.00000  -0.00000  -0.00000   0.00000
 323       86I+2       -0.00000  -0.00000  -0.00000  -0.00000
 324       86I-2       -0.00000  -0.00000  -0.00000  -0.00000
 325       86I+3        0.00000   0.00000   0.00000   0.00000
 326       86I-3        0.00000   0.00000   0.00000   0.00000
 327       86I+4       -0.00000  -0.00000  -0.00000   0.00000
 328       86I-4        0.00000   0.00000   0.00000   0.00000
 329       86I+5        0.00000   0.00000   0.00000   0.00000
 330       86I-5        0.00000   0.00000   0.00000   0.00000
 331       86I+6       -0.00000  -0.00000  -0.00000  -0.00000
 332       86I-6        0.00000   0.00000   0.00000   0.00000
 333       87I 0        0.00000   0.00000   0.00000  -0.00000
 334       87I+1        0.00000   0.00000   0.00000   0.00000
 335       87I-1        0.00000   0.00000   0.00000   0.00000
 336       87I+2        0.00000   0.00000   0.00000   0.00000
 337       87I-2        0.00000   0.00000   0.00000   0.00000
 338       87I+3       -0.00000  -0.00000  -0.00000  -0.00000
 339       87I-3        0.00000   0.00000   0.00000   0.00000
 340       87I+4        0.00000   0.00000   0.00000  -0.00000
 341       87I-4        0.00000   0.00000   0.00000   0.00000
 342       87I+5        0.00000   0.00000   0.00000   0.00000
 343       87I-5       -0.00000  -0.00000  -0.00000  -0.00000
 344       87I+6        0.00000   0.00000   0.00000   0.00000
 345       87I-6        0.00000   0.00000   0.00000   0.00000
 346 2   H  1S         -0.00000  -0.00000  -0.00000  -0.00000
 347        2S          0.00009   0.00005   0.00004   0.00001
 348        3S          0.00459   0.00244   0.00215   0.00029
 349        4S          0.03241   0.01721   0.01520   0.00201
 350        5S          0.15883   0.08409   0.07474   0.00935
 351        6S          0.44439   0.23614   0.20826   0.02788
 352        7S          0.53245   0.28201   0.25044   0.03157
 353        8S          0.12266   0.05342   0.06924  -0.01582
 354        9S          0.00554   0.00398   0.00156   0.00242
 355       10PX         0.00003   0.00002   0.00002   0.00000
 356       10PY         0.00003   0.00002   0.00002   0.00000
 357       10PZ         0.00017   0.00008   0.00008   0.00000
 358       11PX         0.00045   0.00023   0.00023   0.00000
 359       11PY         0.00045   0.00023   0.00023   0.00000
 360       11PZ         0.00189   0.00095   0.00094   0.00001
 361       12PX         0.00277   0.00139   0.00139   0.00000
 362       12PY         0.00277   0.00139   0.00139   0.00000
 363       12PZ         0.00432   0.00177   0.00255  -0.00079
 364       13PX         0.00148   0.00074   0.00074   0.00000
 365       13PY         0.00148   0.00074   0.00074   0.00000
 366       13PZ         0.00021  -0.00202   0.00222  -0.00424
 367       14PX         0.00007   0.00003   0.00003   0.00000
 368       14PY         0.00007   0.00003   0.00003   0.00000
 369       14PZ        -0.00226  -0.00262   0.00036  -0.00298
 370       15D 0        0.00012   0.00006   0.00006   0.00000
 371       15D+1        0.00004   0.00002   0.00002   0.00000
 372       15D-1        0.00004   0.00002   0.00002   0.00000
 373       15D+2        0.00000   0.00000   0.00000   0.00000
 374       15D-2        0.00000   0.00000   0.00000   0.00000
 375       16D 0        0.00049   0.00023   0.00026  -0.00004
 376       16D+1        0.00063   0.00032   0.00032   0.00000
 377       16D-1        0.00063   0.00032   0.00032   0.00000
 378       16D+2        0.00005   0.00002   0.00002  -0.00000
 379       16D-2        0.00005   0.00002   0.00002   0.00000
 380       17D 0       -0.00105  -0.00059  -0.00047  -0.00012
 381       17D+1        0.00074   0.00037   0.00037   0.00000
 382       17D-1        0.00074   0.00037   0.00037   0.00000
 383       17D+2        0.00016   0.00008   0.00008   0.00000
 384       17D-2        0.00016   0.00008   0.00008   0.00000
 385       18D 0        0.00153   0.00153  -0.00000   0.00154
 386       18D+1       -0.00004  -0.00002  -0.00002  -0.00000
 387       18D-1       -0.00004  -0.00002  -0.00002  -0.00000
 388       18D+2       -0.00002  -0.00001  -0.00001   0.00000
 389       18D-2       -0.00002  -0.00001  -0.00001  -0.00000
 390       19F 0        0.00007   0.00003   0.00003  -0.00000
 391       19F+1        0.00005   0.00002   0.00002   0.00000
 392       19F-1        0.00005   0.00002   0.00002   0.00000
 393       19F+2        0.00000   0.00000   0.00000   0.00000
 394       19F-2        0.00000   0.00000   0.00000   0.00000
 395       19F+3        0.00000   0.00000   0.00000   0.00000
 396       19F-3        0.00000   0.00000   0.00000   0.00000
 397       20F 0        0.00027   0.00013   0.00013  -0.00000
 398       20F+1        0.00025   0.00013   0.00013   0.00000
 399       20F-1        0.00025   0.00013   0.00013   0.00000
 400       20F+2        0.00010   0.00005   0.00005  -0.00000
 401       20F-2        0.00010   0.00005   0.00005   0.00000
 402       20F+3        0.00000   0.00000   0.00000   0.00000
 403       20F-3        0.00000   0.00000   0.00000   0.00000
 404       21F 0        0.00006   0.00006  -0.00000   0.00007
 405       21F+1       -0.00013  -0.00006  -0.00006  -0.00000
 406       21F-1       -0.00013  -0.00006  -0.00006  -0.00000
 407       21F+2        0.00001   0.00000   0.00000   0.00000
 408       21F-2        0.00001   0.00000   0.00000   0.00000
 409       21F+3        0.00000   0.00000   0.00000   0.00000
 410       21F-3        0.00000   0.00000   0.00000   0.00000
 411       22G 0        0.00004   0.00002   0.00002  -0.00000
 412       22G+1        0.00002   0.00001   0.00001   0.00000
 413       22G-1        0.00002   0.00001   0.00001   0.00000
 414       22G+2        0.00000   0.00000   0.00000   0.00000
 415       22G-2        0.00000   0.00000   0.00000   0.00000
 416       22G+3        0.00000   0.00000   0.00000   0.00000
 417       22G-3       -0.00000  -0.00000  -0.00000  -0.00000
 418       22G+4        0.00000   0.00000   0.00000   0.00000
 419       22G-4       -0.00000  -0.00000  -0.00000  -0.00000
 420       23G 0        0.00006   0.00002   0.00004  -0.00002
 421       23G+1       -0.00002  -0.00001  -0.00001  -0.00000
 422       23G-1       -0.00002  -0.00001  -0.00001  -0.00000
 423       23G+2        0.00003   0.00001   0.00001  -0.00000
 424       23G-2        0.00003   0.00001   0.00001   0.00000
 425       23G+3        0.00000   0.00000   0.00000   0.00000
 426       23G-3        0.00000   0.00000   0.00000   0.00000
 427       23G+4       -0.00000  -0.00000  -0.00000  -0.00000
 428       23G-4        0.00000   0.00000   0.00000   0.00000
          Condensed to atoms (all electrons):
               1          2
     1  Zn  19.461068   0.218695
     2  H    0.218695   1.101542
          Atomic-Atomic Spin Densities.
               1          2
     1  Zn   1.125645  -0.176778
     2  H   -0.176778   0.227910
 Mulliken charges and spin densities:
               1          2
     1  Zn   0.320237   0.948867
     2  H   -0.320237   0.051133
 Sum of Mulliken charges =  -0.00000   1.00000
 Mulliken charges and spin densities with hydrogens summed into heavy atoms:
               1          2
     1  Zn  -0.000000   1.000000
 Electronic spatial extent (au):  <R**2>=             41.6350
 Charge=             -0.0000 electrons
 Dipole moment (field-independent basis, Debye):
    X=              0.0000    Y=              0.0000    Z=             -0.2640  Tot=              0.2640
 Quadrupole moment (field-independent basis, Debye-Ang):
   XX=            -14.4297   YY=            -14.4297   ZZ=            -20.5195
   XY=              0.0000   XZ=              0.0000   YZ=              0.0000
 Traceless Quadrupole moment (field-independent basis, Debye-Ang):
   XX=              2.0299   YY=              2.0299   ZZ=             -4.0598
   XY=              0.0000   XZ=              0.0000   YZ=              0.0000
 Octapole moment (field-independent basis, Debye-Ang**2):
  XXX=              0.0000  YYY=              0.0000  ZZZ=             -2.7414  XYY=              0.0000
  XXY=              0.0000  XXZ=             -1.1155  XZZ=              0.0000  YZZ=              0.0000
  YYZ=             -1.1155  XYZ=              0.0000
 Hexadecapole moment (field-independent basis, Debye-Ang**3):
 XXXX=            -20.0181 YYYY=            -20.0181 ZZZZ=            -57.6421 XXXY=              0.0000
 XXXZ=              0.0000 YYYX=              0.0000 YYYZ=              0.0000 ZZZX=              0.0000
 ZZZY=              0.0000 XXYY=             -6.6727 XXZZ=            -12.6558 YYZZ=            -12.6558
 XXYZ=              0.0000 YYXZ=              0.0000 ZZXY=              0.0000
 N-N= 8.819620182000D+00 E-N=-5.749202154862D+02  KE= 1.506763151459D+02
 Symmetry A1   KE= 6.271876325383D+01
 Symmetry A2   KE= 2.182665521511D+01
 Symmetry B1   KE= 3.306544834421D+01
 Symmetry B2   KE= 3.306544833790D+01
 Symmetry A1   SP= 1.000000000000D+00
 Symmetry A2   SP= 1.361389367294D-16
 Symmetry B1   SP= 4.402126509140D-16
 Symmetry B2   SP= 5.445309679439D-16
 Orbital energies and kinetic energies (alpha):
                                 1                 2
   6         O                -0.808598         10.913328
   7         O                -0.808598         10.913328
   8         O                -0.807896         10.855268
   9         O                -0.807896         10.855268
  10         O                -0.489971          1.450741
  11         O                -0.265956          0.581692
  12         V                 0.019730          0.032136
  13         V                 0.019730          0.057246
  14         V                 0.021058          0.057246
  15         V                 0.033965          0.047185
  16         V                 0.064046          0.190291
 Total kinetic energy from orbitals= 1.512580067305D+02
                          Isotropic Fermi Contact Couplings
        Atom                 a.u.       MegaHertz       Gauss      10(-4) cm-1
     1  Zn(67)             0.00001       0.00280       0.00100       0.00093
     2  H(1)               0.02665     119.13772      42.51130      39.74007
 --------------------------------------------------------
       Center         ----  Spin Dipole Couplings  ----
                      3XX-RR        3YY-RR        3ZZ-RR
 --------------------------------------------------------
     1   Atom       -0.029459     -0.029459      0.058917
     2   Atom       -0.005440     -0.005440      0.010880
 --------------------------------------------------------
                        XY            XZ            YZ
 --------------------------------------------------------
     1   Atom        0.000000      0.000000      0.000000
     2   Atom        0.000000      0.000000      0.000000
 --------------------------------------------------------


 ---------------------------------------------------------------------------------
              Anisotropic Spin Dipole Couplings in Principal Axis System
 ---------------------------------------------------------------------------------

       Atom             a.u.   MegaHertz   Gauss  10(-4) cm-1        Axes

              Baa    -0.0295    -0.985    -0.352    -0.329 -0.0000  1.0000  0.0000
     1 Zn(67) Bbb    -0.0295    -0.985    -0.352    -0.329  1.0000  0.0000  0.0000
              Bcc     0.0589     1.971     0.703     0.657  0.0000  0.0000  1.0000
 
              Baa    -0.0054    -2.902    -1.036    -0.968 -0.0000  1.0000  0.0000
     2 H(1)   Bbb    -0.0054    -2.902    -1.036    -0.968  1.0000  0.0000  0.0000
              Bcc     0.0109     5.805     2.071     1.936  0.0000  0.0000  1.0000
 

 ---------------------------------------------------------------------------------

 No NMR shielding tensors so no spin-rotation constants.
 Leave Link  601 at Mon Apr 30 08:35:56 2018, MaxMem= 10737418240 cpu:             419.5 elap:              13.6
 (Enter /home1/apps/gaussian/16rA.03/g16/l9999.exe)

 Test job not archived.
 1\1\GINC-C445-131\SP\ROCCSD(T)-Full\Gen\H1Zn1(2)\GWANG18\30-Apr-2018\0
 \\#P ROCCSD(T)=(MaxCyc=150, Full)/Gen SCF=(maxcycle=400, vshift=200) P
 seudo=Read Integral(NoXCTest) Pop=Regular MaxDisk=500GB Guess=Read IOp
 (5/15=2)\\ZnH\\0,2\Zn,0,0.,0.,0.\H,0,0.,0.,1.2\\Version=ES64L-G16RevA.
 03\State=2-SG\HF=-225.7429434\MP2=-226.8690639\MP3=-226.7338583\PUHF=-
 225.7429434\PMP2-0=-226.8690639\MP4SDQ=-226.814498\CCSD=-226.7828899\C
 CSD(T)=-226.8125484\RMSD=9.880e-09\PG=C*V [C*(H1Zn1)]\\@


 LIVE PURE, SPEAK TRUE, RIGHT WRONG, FOLLOW THE KING...
 ELSE, WHEREFORE BORN......
           IDYLLS OF THE KING, TENNYSON
 Job cpu time:       3 days 17 hours 54 minutes 12.2 seconds.
 Elapsed time:       0 days  2 hours 49 minutes 43.1 seconds.
 File lengths (MBytes):  RWF=  29390 Int=      0 D2E=      0 Chk=     22 Scr=      1
 Normal termination of Gaussian 16 at Mon Apr 30 08:35:56 2018.
