 Entering Gaussian System, Link 0=g16
 Initial command:
 /home1/apps/gaussian/16rA.03/g16/l1.exe "/tmp/Gau-29216.inp" -scrdir="/tmp/"
 Entering Link 1 = /home1/apps/gaussian/16rA.03/g16/l1.exe PID=     29217.
  
 Copyright (c) 1988,1990,1992,1993,1995,1998,2003,2009,2016,
            Gaussian, Inc.  All Rights Reserved.
  
 This is part of the Gaussian(R) 16 program.  It is based on
 the Gaussian(R) 09 system (copyright 2009, Gaussian, Inc.),
 the Gaussian(R) 03 system (copyright 2003, Gaussian, Inc.),
 the Gaussian(R) 98 system (copyright 1998, Gaussian, Inc.),
 the Gaussian(R) 94 system (copyright 1995, Gaussian, Inc.),
 the Gaussian 92(TM) system (copyright 1992, Gaussian, Inc.),
 the Gaussian 90(TM) system (copyright 1990, Gaussian, Inc.),
 the Gaussian 88(TM) system (copyright 1988, Gaussian, Inc.),
 the Gaussian 86(TM) system (copyright 1986, Carnegie Mellon
 University), and the Gaussian 82(TM) system (copyright 1983,
 Carnegie Mellon University). Gaussian is a federally registered
 trademark of Gaussian, Inc.
  
 This software contains proprietary and confidential information,
 including trade secrets, belonging to Gaussian, Inc.
  
 This software is provided under written license and may be
 used, copied, transmitted, or stored only in accord with that
 written license.
  
 The following legend is applicable only to US Government
 contracts under FAR:
  
                    RESTRICTED RIGHTS LEGEND
  
 Use, reproduction and disclosure by the US Government is
 subject to restrictions as set forth in subparagraphs (a)
 and (c) of the Commercial Computer Software - Restricted
 Rights clause in FAR 52.227-19.
  
 Gaussian, Inc.
 340 Quinnipiac St., Bldg. 40, Wallingford CT 06492
  
  
 ---------------------------------------------------------------
 Warning -- This program may not be used in any manner that
 competes with the business of Gaussian, Inc. or will provide
 assistance to any competitor of Gaussian, Inc.  The licensee
 of this program is prohibited from giving any competitor of
 Gaussian, Inc. access to this program.  By using this program,
 the user acknowledges that Gaussian, Inc. is engaged in the
 business of creating and licensing software in the field of
 computational chemistry and represents and warrants to the
 licensee that it is not a competitor of Gaussian, Inc. and that
 it will not use this program in any manner prohibited above.
 ---------------------------------------------------------------
  

 Cite this work as:
 Gaussian 16, Revision A.03,
 M. J. Frisch, G. W. Trucks, H. B. Schlegel, G. E. Scuseria, 
 M. A. Robb, J. R. Cheeseman, G. Scalmani, V. Barone, 
 G. A. Petersson, H. Nakatsuji, X. Li, M. Caricato, A. V. Marenich, 
 J. Bloino, B. G. Janesko, R. Gomperts, B. Mennucci, H. P. Hratchian, 
 J. V. Ortiz, A. F. Izmaylov, J. L. Sonnenberg, D. Williams-Young, 
 F. Ding, F. Lipparini, F. Egidi, J. Goings, B. Peng, A. Petrone, 
 T. Henderson, D. Ranasinghe, V. G. Zakrzewski, J. Gao, N. Rega, 
 G. Zheng, W. Liang, M. Hada, M. Ehara, K. Toyota, R. Fukuda, 
 J. Hasegawa, M. Ishida, T. Nakajima, Y. Honda, O. Kitao, H. Nakai, 
 T. Vreven, K. Throssell, J. A. Montgomery, Jr., J. E. Peralta, 
 F. Ogliaro, M. J. Bearpark, J. J. Heyd, E. N. Brothers, K. N. Kudin, 
 V. N. Staroverov, T. A. Keith, R. Kobayashi, J. Normand, 
 K. Raghavachari, A. P. Rendell, J. C. Burant, S. S. Iyengar, 
 J. Tomasi, M. Cossi, J. M. Millam, M. Klene, C. Adamo, R. Cammi, 
 J. W. Ochterski, R. L. Martin, K. Morokuma, O. Farkas, 
 J. B. Foresman, and D. J. Fox, Gaussian, Inc., Wallingford CT, 2016.
 
 ******************************************
 Gaussian 16:  ES64L-G16RevA.03 25-Dec-2016
                21-Apr-2018 
 ******************************************
 %mem=80GB
 %cpu=0-31
 SetSPE:  set environment variable "MP_BIND" = "yes"
 SetSPE:  set environment variable "MP_BLIST" = "0,1,2,3,4,5,6,7,8,9,10,11,12,13,14,15,16,17,18,19,20,21,22,23,24,25,26,27,28,29,30,31"
 Will use up to   32 processors via shared memory.
 %chk=tz.chk
 %rwf=/scratch/04843/gwang18/znh/
 ----------------------------------------------------------------------
 #P ROCCSD(T)=(MaxCyc=150, Full)/Gen SCF=(maxcycle=400, vshift=200) Pse
 udo=Read Integral(NoXCTest) Pop=Regular MaxDisk=500GB Guess=Read IOp(5
 /15=2)
 ----------------------------------------------------------------------
 1/38=1,172=1/1;
 2/12=2,17=6,18=5,40=1/2;
 3/5=7,11=2,16=1,17=8,25=1,30=1,47=8,116=101/1,2,3;
 4/5=1/1;
 5/5=2,7=400,10=200,15=2,38=6/2;
 8/5=-1,6=4,9=120000,10=90/1,4;
 9/5=7,6=150,14=2/13;
 6//1;
 99/5=1,9=1/99;
 Leave Link    1 at Sat Apr 21 10:42:47 2018, MaxMem= 10737418240 cpu:               8.8 elap:               0.3
 (Enter /home1/apps/gaussian/16rA.03/g16/l101.exe)
 ---
 ZnH
 ---
 Symbolic Z-matrix:
 Charge =  0 Multiplicity = 2
 Zn                    0.        0.        0. 
 H                     0.        0.        1.2 
 
 ITRead=  0  0
 MicOpt= -1 -1
 NAtoms=      2 NQM=        2 NQMF=       0 NMMI=      0 NMMIF=      0
                NMic=       0 NMicF=      0.
                    Isotopes and Nuclear Properties:
 (Nuclear quadrupole moments (NQMom) in fm**2, nuclear magnetic moments (NMagM)
  in nuclear magnetons)

  Atom         1           2
 IAtWgt=          64           1
 AtmWgt=  63.9291454   1.0078250
 NucSpn=           0           1
 AtZEff=  -0.0000000  -0.0000000
 NQMom=    0.0000000   0.0000000
 NMagM=    0.0000000   2.7928460
 AtZNuc=  30.0000000   1.0000000
 Leave Link  101 at Sat Apr 21 10:42:48 2018, MaxMem= 10737418240 cpu:               3.5 elap:               0.1
 (Enter /home1/apps/gaussian/16rA.03/g16/l202.exe)
                          Input orientation:                          
 ---------------------------------------------------------------------
 Center     Atomic      Atomic             Coordinates (Angstroms)
 Number     Number       Type             X           Y           Z
 ---------------------------------------------------------------------
      1         30           0        0.000000    0.000000    0.000000
      2          1           0        0.000000    0.000000    1.200000
 ---------------------------------------------------------------------
 Stoichiometry    HZn(2)
 Framework group  C*V[C*(HZn)]
 Deg. of freedom     1
 Full point group                 C*V     NOp   4
 Largest Abelian subgroup         C2V     NOp   4
 Largest concise Abelian subgroup C1      NOp   1
                         Standard orientation:                         
 ---------------------------------------------------------------------
 Center     Atomic      Atomic             Coordinates (Angstroms)
 Number     Number       Type             X           Y           Z
 ---------------------------------------------------------------------
      1         30           0        0.000000    0.000000    0.038710
      2          1           0        0.000000    0.000000   -1.161290
 ---------------------------------------------------------------------
 Rotational constants (GHZ):           0.0000000         353.7225024         353.7225024
 Leave Link  202 at Sat Apr 21 10:42:49 2018, MaxMem= 10737418240 cpu:               0.8 elap:               1.0
 (Enter /home1/apps/gaussian/16rA.03/g16/l301.exe)
 General basis read from cards:  (5D, 7F)
 Centers:       1
 S 1 1.00
     Exponent=  5.8200210000D+06 Coefficients=  1.0000000000D+00
 S 1 1.00
     Exponent=  8.7152340000D+05 Coefficients=  1.0000000000D+00
 S 1 1.00
     Exponent=  1.9833500000D+05 Coefficients=  1.0000000000D+00
 S 1 1.00
     Exponent=  5.6176310000D+04 Coefficients=  1.0000000000D+00
 S 1 1.00
     Exponent=  1.8325820000D+04 Coefficients=  1.0000000000D+00
 S 1 1.00
     Exponent=  6.6149550000D+03 Coefficients=  1.0000000000D+00
 S 1 1.00
     Exponent=  2.5791990000D+03 Coefficients=  1.0000000000D+00
 S 1 1.00
     Exponent=  1.0688490000D+03 Coefficients=  1.0000000000D+00
 S 1 1.00
     Exponent=  4.6510450000D+02 Coefficients=  1.0000000000D+00
 S 1 1.00
     Exponent=  2.1041300000D+02 Coefficients=  1.0000000000D+00
 S 1 1.00
     Exponent=  9.7616290000D+01 Coefficients=  1.0000000000D+00
 S 1 1.00
     Exponent=  4.4380200000D+01 Coefficients=  1.0000000000D+00
 S 1 1.00
     Exponent=  2.1423080000D+01 Coefficients=  1.0000000000D+00
 S 1 1.00
     Exponent=  1.0308910000D+01 Coefficients=  1.0000000000D+00
 S 1 1.00
     Exponent=  4.5536450000D+00 Coefficients=  1.0000000000D+00
 S 1 1.00
     Exponent=  2.1328210000D+00 Coefficients=  1.0000000000D+00
 S 1 1.00
     Exponent=  9.2969700000D-01 Coefficients=  1.0000000000D+00
 S 1 1.00
     Exponent=  1.9214700000D-01 Coefficients=  1.0000000000D+00
 S 1 1.00
     Exponent=  8.7595000000D-02 Coefficients=  1.0000000000D+00
 S 1 1.00
     Exponent=  3.7702000000D-02 Coefficients=  1.0000000000D+00
 S 1 1.00
     Exponent=  7.0381000000D+00 Coefficients=  1.0000000000D+00
 S 1 1.00
     Exponent=  1.8099000000D+00 Coefficients=  1.0000000000D+00
 S 1 1.00
     Exponent=  1.6230000000D-02 Coefficients=  1.0000000000D+00
 P 1 1.00
     Exponent=  2.4411980000D+04 Coefficients=  1.0000000000D+00
 P 1 1.00
     Exponent=  5.7785180000D+03 Coefficients=  1.0000000000D+00
 P 1 1.00
     Exponent=  1.8768620000D+03 Coefficients=  1.0000000000D+00
 P 1 1.00
     Exponent=  7.1823610000D+02 Coefficients=  1.0000000000D+00
 P 1 1.00
     Exponent=  3.0483270000D+02 Coefficients=  1.0000000000D+00
 P 1 1.00
     Exponent=  1.3904530000D+02 Coefficients=  1.0000000000D+00
 P 1 1.00
     Exponent=  6.6804170000D+01 Coefficients=  1.0000000000D+00
 P 1 1.00
     Exponent=  3.3206990000D+01 Coefficients=  1.0000000000D+00
 P 1 1.00
     Exponent=  1.6928160000D+01 Coefficients=  1.0000000000D+00
 P 1 1.00
     Exponent=  8.6962290000D+00 Coefficients=  1.0000000000D+00
 P 1 1.00
     Exponent=  4.3505100000D+00 Coefficients=  1.0000000000D+00
 P 1 1.00
     Exponent=  2.1165230000D+00 Coefficients=  1.0000000000D+00
 P 1 1.00
     Exponent=  9.9538700000D-01 Coefficients=  1.0000000000D+00
 P 1 1.00
     Exponent=  3.7811200000D-01 Coefficients=  1.0000000000D+00
 P 1 1.00
     Exponent=  1.3457900000D-01 Coefficients=  1.0000000000D+00
 P 1 1.00
     Exponent=  4.6282000000D-02 Coefficients=  1.0000000000D+00
 P 1 1.00
     Exponent=  1.0150100000D+01 Coefficients=  1.0000000000D+00
 P 1 1.00
     Exponent=  2.3451000000D+00 Coefficients=  1.0000000000D+00
 P 1 1.00
     Exponent=  1.5920000000D-02 Coefficients=  1.0000000000D+00
 D 1 1.00
     Exponent=  2.0561770000D+02 Coefficients=  1.0000000000D+00
 D 1 1.00
     Exponent=  6.1449810000D+01 Coefficients=  1.0000000000D+00
 D 1 1.00
     Exponent=  2.3056890000D+01 Coefficients=  1.0000000000D+00
 D 1 1.00
     Exponent=  9.5777390000D+00 Coefficients=  1.0000000000D+00
 D 1 1.00
     Exponent=  4.1337340000D+00 Coefficients=  1.0000000000D+00
 D 1 1.00
     Exponent=  1.7475180000D+00 Coefficients=  1.0000000000D+00
 D 1 1.00
     Exponent=  6.9956000000D-01 Coefficients=  1.0000000000D+00
 D 1 1.00
     Exponent=  2.5160800000D-01 Coefficients=  1.0000000000D+00
 D 1 1.00
     Exponent=  7.7440000000D+00 Coefficients=  1.0000000000D+00
 D 1 1.00
     Exponent=  3.9663000000D+00 Coefficients=  1.0000000000D+00
 D 1 1.00
     Exponent=  9.0490000000D-02 Coefficients=  1.0000000000D+00
 F 1 1.00
     Exponent=  1.0327000000D+01 Coefficients=  1.0000000000D+00
 F 1 1.00
     Exponent=  4.0202000000D+00 Coefficients=  1.0000000000D+00
 F 1 1.00
     Exponent=  1.4851000000D+00 Coefficients=  1.0000000000D+00
 F 1 1.00
     Exponent=  5.4861000000D-01 Coefficients=  1.0000000000D+00
 G 1 1.00
     Exponent=  9.2538000000D+00 Coefficients=  1.0000000000D+00
 G 1 1.00
     Exponent=  4.1144000000D+00 Coefficients=  1.0000000000D+00
 G 1 1.00
     Exponent=  1.8293300000D+00 Coefficients=  1.0000000000D+00
 ****
 Centers:       2
 S 1 1.00
     Exponent=  3.3870000000D+01 Coefficients=  1.0000000000D+00
 S 1 1.00
     Exponent=  5.0950000000D+00 Coefficients=  1.0000000000D+00
 S 1 1.00
     Exponent=  1.1590000000D+00 Coefficients=  1.0000000000D+00
 S 1 1.00
     Exponent=  3.2580000000D-01 Coefficients=  1.0000000000D+00
 S 1 1.00
     Exponent=  1.0270000000D-01 Coefficients=  1.0000000000D+00
 S 1 1.00
     Exponent=  2.5260000000D-02 Coefficients=  1.0000000000D+00
 P 1 1.00
     Exponent=  1.4070000000D+00 Coefficients=  1.0000000000D+00
 P 1 1.00
     Exponent=  3.8800000000D-01 Coefficients=  1.0000000000D+00
 P 1 1.00
     Exponent=  1.0200000000D-01 Coefficients=  1.0000000000D+00
 D 1 1.00
     Exponent=  1.0570000000D+00 Coefficients=  1.0000000000D+00
 D 1 1.00
     Exponent=  2.4700000000D-01 Coefficients=  1.0000000000D+00
 ****
 ======================================================================================================
                                       Pseudopotential Parameters
 ======================================================================================================
  Center     Atomic      Valence      Angular      Power
  Number     Number     Electrons     Momentum     of R      Exponent        Coefficient   SO-Coeffient
 ======================================================================================================
    1         30           20
                                      D and up 
                                                     1       35.8079762       20.00000000    0.00000000
                                                     3       34.5364608      716.15952324    0.00000000
                                                     2       28.6283018     -204.68393324    0.00000000
                                                     2        7.9623968        0.76026614    0.00000000
                                      S - D
                                                     2       14.6349869       95.87640437    0.00000000
                                                     2       35.0214136      431.70804303    0.00000000
                                      P - D
                                                     2       14.5742930       74.01270049    0.00000000
                                                     2       42.2297923      313.57770564    0.00000000
    2          1            1
                                      P and up 
                                                     2       21.7769666      -10.85192405    0.00000000
                                                     1       21.2435951        1.00000000    0.00000000
                                                     3       21.2435951       21.24359508    0.00000000
                                      S - P
                                                     2        1.0000000        0.00000000    0.00000000
 ======================================================================================================
 Ernie: Thresh=  0.10000D-02 Tol=  0.10000D-05 Strict=F.
 There are   120 symmetry adapted cartesian basis functions of A1  symmetry.
 There are    26 symmetry adapted cartesian basis functions of A2  symmetry.
 There are    56 symmetry adapted cartesian basis functions of B1  symmetry.
 There are    56 symmetry adapted cartesian basis functions of B2  symmetry.
 There are    94 symmetry adapted basis functions of A1  symmetry.
 There are    23 symmetry adapted basis functions of A2  symmetry.
 There are    49 symmetry adapted basis functions of B1  symmetry.
 There are    49 symmetry adapted basis functions of B2  symmetry.
   215 basis functions,   258 primitive gaussians,   258 cartesian basis functions
    11 alpha electrons       10 beta electrons
       nuclear repulsion energy         8.8196201820 Hartrees.
 IExCor=    0 DFT=F Ex=HF Corr=None ExCW=0 ScaHFX=  1.000000
 ScaDFX=  1.000000  1.000000  1.000000  1.000000 ScalE2=  1.000000  1.000000
 IRadAn=      5 IRanWt=     -1 IRanGd=            0 ICorTp=0 IEmpDi=  4
 NAtoms=    2 NActive=    2 NUniq=    2 SFac= 1.00D+00 NAtFMM=   60 NAOKFM=F Big=F
 Integral buffers will be    131072 words long.
 Raffenetti 2 integral format.
 Two-electron integral symmetry is turned on.
 Leave Link  301 at Sat Apr 21 10:42:50 2018, MaxMem= 10737418240 cpu:               7.4 elap:               0.3
 (Enter /home1/apps/gaussian/16rA.03/g16/l302.exe)
 NPDir=0 NMtPBC=     1 NCelOv=     1 NCel=       1 NClECP=     1 NCelD=      1
         NCelK=      1 NCelE2=     1 NClLst=     1 CellRange=     0.0.
 One-electron integrals computed using PRISM.
 One-electron integral symmetry used in STVInt
   4 Symmetry operations used in ECPInt.
 ECPInt:  NShTT=    2556 NPrTT=    2556 LenC2=    2535 LenP2D=    2534.
 LDataN:  DoStor=T MaxTD1= 8 Len=  415
 NBasis=   215 RedAO= T EigKep=  3.28D-06  NBF=    94    23    49    49
 NBsUse=   215 1.00D-06 EigRej= -1.00D+00 NBFU=    94    23    49    49
 Leave Link  302 at Sat Apr 21 10:42:51 2018, MaxMem= 10737418240 cpu:              29.4 elap:               1.0
 (Enter /home1/apps/gaussian/16rA.03/g16/l303.exe)
 DipDrv:  MaxL=1.
 Leave Link  303 at Sat Apr 21 10:42:52 2018, MaxMem= 10737418240 cpu:               2.0 elap:               0.1
 (Enter /home1/apps/gaussian/16rA.03/g16/l401.exe)
 Initial guess from the checkpoint file:  "tz.chk"
 B after Tr=     0.000000    0.000000    0.000000
         Rot=    1.000000    0.000000    0.000000    0.000000 Ang=   0.00 deg.
 Guess basis will be translated and rotated to current coordinates.
 JPrj=2 DoOrth=T DoCkMO=T.
 Initial guess orbital symmetries:
       Occupied  (SG) (PI) (PI) (SG) (DLTA) (DLTA) (SG) (PI) (PI)
                 (SG) (SG)
       Virtual   (PI) (PI) (SG) (SG) (PI) (PI) (SG) (SG) (SG) (PI)
                 (PI) (DLTA) (DLTA) (SG) (PI) (PI) (SG) (PI) (PI)
                 (SG) (SG) (SG) (DLTA) (DLTA) (PI) (PI) (DLTA)
                 (DLTA) (SG) (PI) (PI) (PI) (PI) (SG) (PI) (PI)
                 (SG) (SG) (PHI) (PHI) (DLTA) (DLTA) (PI) (PI)
                 (SG) (SG) (SG) (DLTA) (DLTA) (PI) (PI) (SG) (PI)
                 (PI) (SG) (DLTA) (DLTA) (PI) (PI) (PI) (PI) (SG)
                 (SG) (PHI) (PHI) (DLTA) (DLTA) (PI) (PI) (SG)
                 (DLTA) (DLTA) (PI) (PI) (SG) (?A) (?A) (PHI) (PHI)
                 (DLTA) (DLTA) (PI) (PI) (SG) (SG) (PI) (PI) (SG)
                 (SG) (PHI) (PHI) (DLTA) (DLTA) (PI) (PI) (SG)
                 (DLTA) (DLTA) (PI) (PI) (SG) (PI) (PI) (SG) (SG)
                 (?A) (?A) (PHI) (PHI) (DLTA) (DLTA) (PI) (PI)
                 (SG) (DLTA) (DLTA) (PI) (PI) (SG) (PHI) (PHI)
                 (DLTA) (DLTA) (PI) (PI) (SG) (PI) (PI) (SG) (SG)
                 (?A) (?A) (PHI) (PHI) (DLTA) (DLTA) (PI) (PI)
                 (SG) (DLTA) (DLTA) (PI) (PI) (SG) (SG) (PI) (PI)
                 (SG) (SG) (DLTA) (DLTA) (PI) (PI) (SG) (PI) (PI)
                 (SG) (SG) (PI) (PI) (SG) (DLTA) (DLTA) (PI) (PI)
                 (SG) (SG) (PI) (PI) (SG) (SG) (DLTA) (DLTA) (PI)
                 (PI) (SG) (PI) (PI) (SG) (SG) (PI) (PI) (SG) (SG)
                 (PI) (PI) (SG) (SG) (PI) (PI) (SG) (SG) (PI) (PI)
                 (SG) (SG) (SG) (PI) (PI) (SG) (SG) (SG) (SG) (SG)
 The electronic state of the initial guess is 2-SG.
 Leave Link  401 at Sat Apr 21 10:42:52 2018, MaxMem= 10737418240 cpu:              10.8 elap:               0.4
 (Enter /home1/apps/gaussian/16rA.03/g16/l502.exe)
 Keep R1 and R2 ints in memory in symmetry-blocked form, NReq=338797193.
 FoFCou: FMM=F IPFlag=           8 FMFlag=           0 FMFlg1=           0
         NFxFlg=           0 DoJE=F BraDBF=F KetDBF=F FulRan=T
         wScrn=  0.000000 ICntrl=       600 IOpCl=  0 I1Cent=           0 NGrid=           0
         NMat0=    1 NMatS0=  23220 NMatT0=    0 NMatD0=    1 NMtDS0=    0 NMtDT0=    0
 Petite list used in FoFCou.
 Restricted open shell SCF:
 Using DIIS extrapolation, IDIIS=  1040.
 NGot= 10737418240 LenX= 10598929943 LenY= 10598862938
 Requested convergence on RMS density matrix=1.00D-08 within 400 cycles.
 Requested convergence on MAX density matrix=1.00D-06.
 Requested convergence on             energy=1.00D-06.
 Virtual orbitals will be shifted by   0.200 hartree.
 No special actions if energy rises.

 Cycle   1  Pass 1  IDiag  1:
 E= -225.718089454877    
 DIIS: error= 1.84D-01 at cycle   1 NSaved=   1.
 NSaved= 1 IEnMin= 1 EnMin= -225.718089454877     IErMin= 1 ErrMin= 1.84D-01
 ErrMax= 1.84D-01  0.00D+00 EMaxC= 1.00D-01 BMatC= 1.10D+00 BMatP= 1.10D+00
 IDIUse=3 WtCom= 0.00D+00 WtEn= 1.00D+00
 Coeff-Com:  0.100D+01
 Coeff-En:   0.100D+01
 Coeff:      0.100D+01
 Gap=     0.093 Goal=   None    Shift=    0.200
 GapD=    0.093 DampG=0.500 DampE=0.125 DampFc=0.1250 IDamp=-1.
 Damping current iteration by 1.25D-01
 RMSDP=5.97D-04 MaxDP=3.05D-02              OVMax= 3.39D-02

 Cycle   2  Pass 1  IDiag  1:
 E= -225.720862137048     Delta-E=       -0.002772682171 Rises=F Damp=T
 DIIS: error= 1.61D-01 at cycle   2 NSaved=   2.
 NSaved= 2 IEnMin= 2 EnMin= -225.720862137048     IErMin= 2 ErrMin= 1.61D-01
 ErrMax= 1.61D-01  0.00D+00 EMaxC= 1.00D-01 BMatC= 8.45D-01 BMatP= 1.10D+00
 IDIUse=3 WtCom= 0.00D+00 WtEn= 1.00D+00
 Coeff-Com: -0.701D+01 0.801D+01
 Coeff-En:   0.000D+00 0.100D+01
 Coeff:      0.000D+00 0.100D+01
 Gap=     0.089 Goal=   None    Shift=    0.200
 RMSDP=5.52D-04 MaxDP=2.70D-02 DE=-2.77D-03 OVMax= 4.93D-03

 Cycle   3  Pass 1  IDiag  1:
 E= -225.740877817807     Delta-E=       -0.020015680759 Rises=F Damp=F
 DIIS: error= 5.04D-03 at cycle   3 NSaved=   3.
 NSaved= 3 IEnMin= 3 EnMin= -225.740877817807     IErMin= 3 ErrMin= 5.04D-03
 ErrMax= 5.04D-03  0.00D+00 EMaxC= 1.00D-01 BMatC= 1.20D-03 BMatP= 8.45D-01
 IDIUse=3 WtCom= 9.50D-01 WtEn= 5.04D-02
 Coeff-Com:  0.335D+00-0.386D+00 0.105D+01
 Coeff-En:   0.000D+00 0.000D+00 0.100D+01
 Coeff:      0.318D+00-0.366D+00 0.105D+01
 Gap=     0.091 Goal=   None    Shift=    0.200
 RMSDP=1.62D-04 MaxDP=1.10D-02 DE=-2.00D-02 OVMax= 1.34D-02

 Cycle   4  Pass 1  IDiag  1:
 E= -225.741464384992     Delta-E=       -0.000586567185 Rises=F Damp=F
 DIIS: error= 3.98D-03 at cycle   4 NSaved=   4.
 NSaved= 4 IEnMin= 4 EnMin= -225.741464384992     IErMin= 4 ErrMin= 3.98D-03
 ErrMax= 3.98D-03  0.00D+00 EMaxC= 1.00D-01 BMatC= 7.53D-04 BMatP= 1.20D-03
 IDIUse=3 WtCom= 9.60D-01 WtEn= 3.98D-02
 Coeff-Com: -0.749D+00 0.855D+00 0.319D+00 0.575D+00
 Coeff-En:   0.000D+00 0.000D+00 0.000D+00 0.100D+01
 Coeff:     -0.720D+00 0.821D+00 0.307D+00 0.592D+00
 Gap=     0.090 Goal=   None    Shift=    0.200
 RMSDP=7.63D-05 MaxDP=9.22D-03 DE=-5.87D-04 OVMax= 3.43D-03

 Cycle   5  Pass 1  IDiag  1:
 E= -225.741646888831     Delta-E=       -0.000182503838 Rises=F Damp=F
 DIIS: error= 7.96D-04 at cycle   5 NSaved=   5.
 NSaved= 5 IEnMin= 5 EnMin= -225.741646888831     IErMin= 5 ErrMin= 7.96D-04
 ErrMax= 7.96D-04  0.00D+00 EMaxC= 1.00D-01 BMatC= 3.04D-05 BMatP= 7.53D-04
 IDIUse=3 WtCom= 9.92D-01 WtEn= 7.96D-03
 Coeff-Com: -0.544D+00 0.622D+00-0.141D+00 0.231D-01 0.104D+01
 Coeff-En:   0.000D+00 0.000D+00 0.000D+00 0.000D+00 0.100D+01
 Coeff:     -0.540D+00 0.617D+00-0.140D+00 0.230D-01 0.104D+01
 Gap=     0.089 Goal=   None    Shift=    0.200
 RMSDP=4.12D-05 MaxDP=4.91D-03 DE=-1.83D-04 OVMax= 1.83D-03

 Cycle   6  Pass 1  IDiag  1:
 E= -225.741696809014     Delta-E=       -0.000049920184 Rises=F Damp=F
 DIIS: error= 3.65D-04 at cycle   6 NSaved=   6.
 NSaved= 6 IEnMin= 6 EnMin= -225.741696809014     IErMin= 6 ErrMin= 3.65D-04
 ErrMax= 3.65D-04  0.00D+00 EMaxC= 1.00D-01 BMatC= 1.09D-05 BMatP= 3.04D-05
 IDIUse=3 WtCom= 9.96D-01 WtEn= 3.65D-03
 Coeff-Com: -0.552D+00 0.632D+00-0.164D+00-0.443D-01-0.217D+00 0.135D+01
 Coeff-En:   0.000D+00 0.000D+00 0.000D+00 0.000D+00 0.000D+00 0.100D+01
 Coeff:     -0.550D+00 0.629D+00-0.163D+00-0.441D-01-0.216D+00 0.134D+01
 Gap=     0.089 Goal=   None    Shift=    0.200
 RMSDP=2.32D-05 MaxDP=2.53D-03 DE=-4.99D-05 OVMax= 1.27D-03

 Cycle   7  Pass 1  IDiag  1:
 E= -225.741713490021     Delta-E=       -0.000016681007 Rises=F Damp=F
 DIIS: error= 3.29D-04 at cycle   7 NSaved=   7.
 NSaved= 7 IEnMin= 7 EnMin= -225.741713490021     IErMin= 7 ErrMin= 3.29D-04
 ErrMax= 3.29D-04  0.00D+00 EMaxC= 1.00D-01 BMatC= 5.58D-06 BMatP= 1.09D-05
 IDIUse=3 WtCom= 9.97D-01 WtEn= 3.29D-03
 Coeff-Com: -0.542D+00 0.619D+00-0.904D-01 0.974D-03-0.180D+00 0.171D-01
 Coeff-Com:  0.117D+01
 Coeff-En:   0.000D+00 0.000D+00 0.000D+00 0.000D+00 0.000D+00 0.000D+00
 Coeff-En:   0.100D+01
 Coeff:     -0.540D+00 0.617D+00-0.901D-01 0.971D-03-0.179D+00 0.170D-01
 Coeff:      0.117D+01
 Gap=     0.089 Goal=   None    Shift=    0.200
 RMSDP=7.59D-06 MaxDP=5.83D-04 DE=-1.67D-05 OVMax= 5.80D-04

 Cycle   8  Pass 1  IDiag  1:
 E= -225.741716971234     Delta-E=       -0.000003481213 Rises=F Damp=F
 DIIS: error= 3.16D-04 at cycle   8 NSaved=   8.
 NSaved= 8 IEnMin= 8 EnMin= -225.741716971234     IErMin= 8 ErrMin= 3.16D-04
 ErrMax= 3.16D-04  0.00D+00 EMaxC= 1.00D-01 BMatC= 4.88D-06 BMatP= 5.58D-06
 IDIUse=3 WtCom= 9.97D-01 WtEn= 3.16D-03
 Coeff-Com: -0.540D+00 0.617D+00-0.913D-01-0.186D-02-0.155D+00 0.546D-01
 Coeff-Com:  0.839D+00 0.277D+00
 Coeff-En:   0.000D+00 0.000D+00 0.000D+00 0.000D+00 0.000D+00 0.000D+00
 Coeff-En:   0.000D+00 0.100D+01
 Coeff:     -0.538D+00 0.615D+00-0.910D-01-0.186D-02-0.154D+00 0.544D-01
 Coeff:      0.837D+00 0.279D+00
 Gap=     0.089 Goal=   None    Shift=    0.200
 RMSDP=3.61D-06 MaxDP=3.78D-04 DE=-3.48D-06 OVMax= 2.62D-04

 Cycle   9  Pass 1  IDiag  1:
 E= -225.741717767696     Delta-E=       -0.000000796462 Rises=F Damp=F
 DIIS: error= 3.12D-04 at cycle   9 NSaved=   9.
 NSaved= 9 IEnMin= 9 EnMin= -225.741717767696     IErMin= 9 ErrMin= 3.12D-04
 ErrMax= 3.12D-04  0.00D+00 EMaxC= 1.00D-01 BMatC= 4.72D-06 BMatP= 4.88D-06
 IDIUse=3 WtCom= 9.97D-01 WtEn= 3.12D-03
 Coeff-Com: -0.514D+00 0.588D+00-0.882D-01 0.794D-02-0.179D+00 0.753D-01
 Coeff-Com:  0.148D+01-0.495D+01 0.458D+01
 Coeff-En:   0.000D+00 0.000D+00 0.000D+00 0.000D+00 0.000D+00 0.000D+00
 Coeff-En:   0.000D+00 0.000D+00 0.100D+01
 Coeff:     -0.513D+00 0.586D+00-0.879D-01 0.791D-02-0.178D+00 0.750D-01
 Coeff:      0.148D+01-0.494D+01 0.457D+01
 Gap=     0.089 Goal=   None    Shift=    0.200
 RMSDP=2.60D-06 MaxDP=1.87D-04 DE=-7.96D-07 OVMax= 3.30D-04

 Cycle  10  Pass 1  IDiag  1:
 E= -225.741719271577     Delta-E=       -0.000001503881 Rises=F Damp=F
 DIIS: error= 2.98D-04 at cycle  10 NSaved=  10.
 NSaved=10 IEnMin=10 EnMin= -225.741719271577     IErMin=10 ErrMin= 2.98D-04
 ErrMax= 2.98D-04  0.00D+00 EMaxC= 1.00D-01 BMatC= 4.33D-06 BMatP= 4.72D-06
 IDIUse=3 WtCom= 9.97D-01 WtEn= 2.98D-03
 Coeff-Com: -0.461D+00 0.527D+00-0.776D-01 0.526D-02-0.143D+00 0.624D-01
 Coeff-Com:  0.100D+01-0.216D+01-0.897D+00 0.314D+01
 Coeff-En:   0.000D+00 0.000D+00 0.000D+00 0.000D+00 0.000D+00 0.000D+00
 Coeff-En:   0.000D+00 0.000D+00 0.000D+00 0.100D+01
 Coeff:     -0.459D+00 0.525D+00-0.774D-01 0.524D-02-0.143D+00 0.622D-01
 Coeff:      0.100D+01-0.215D+01-0.894D+00 0.313D+01
 Gap=     0.089 Goal=   None    Shift=    0.200
 RMSDP=7.41D-06 MaxDP=7.04D-04 DE=-1.50D-06 OVMax= 6.06D-04

 Cycle  11  Pass 1  IDiag  1:
 E= -225.741722289215     Delta-E=       -0.000003017638 Rises=F Damp=F
 DIIS: error= 2.71D-04 at cycle  11 NSaved=  11.
 NSaved=11 IEnMin=11 EnMin= -225.741722289215     IErMin=11 ErrMin= 2.71D-04
 ErrMax= 2.71D-04  0.00D+00 EMaxC= 1.00D-01 BMatC= 3.63D-06 BMatP= 4.33D-06
 IDIUse=3 WtCom= 9.97D-01 WtEn= 2.71D-03
 Coeff-Com: -0.315D+00 0.360D+00-0.512D-01 0.597D-02-0.140D+00 0.924D-01
 Coeff-Com:  0.795D+00-0.278D+01 0.382D+01-0.594D+01 0.515D+01
 Coeff-En:   0.000D+00 0.000D+00 0.000D+00 0.000D+00 0.000D+00 0.000D+00
 Coeff-En:   0.000D+00 0.000D+00 0.000D+00 0.000D+00 0.100D+01
 Coeff:     -0.314D+00 0.359D+00-0.511D-01 0.595D-02-0.140D+00 0.922D-01
 Coeff:      0.793D+00-0.277D+01 0.381D+01-0.593D+01 0.514D+01
 Gap=     0.089 Goal=   None    Shift=    0.200
 RMSDP=1.04D-05 MaxDP=1.22D-03 DE=-3.02D-06 OVMax= 1.40D-03

 Cycle  12  Pass 1  IDiag  1:
 E= -225.741728957650     Delta-E=       -0.000006668435 Rises=F Damp=F
 DIIS: error= 2.03D-04 at cycle  12 NSaved=  12.
 NSaved=12 IEnMin=12 EnMin= -225.741728957650     IErMin=12 ErrMin= 2.03D-04
 ErrMax= 2.03D-04  0.00D+00 EMaxC= 1.00D-01 BMatC= 2.17D-06 BMatP= 3.63D-06
 IDIUse=3 WtCom= 9.98D-01 WtEn= 2.03D-03
 Coeff-Com: -0.244D+00 0.279D+00-0.399D-01 0.671D-02-0.109D+00 0.759D-01
 Coeff-Com:  0.991D+00-0.530D+01 0.722D+01-0.358D+01-0.445D+00 0.214D+01
 Coeff-En:   0.000D+00 0.000D+00 0.000D+00 0.000D+00 0.000D+00 0.000D+00
 Coeff-En:   0.000D+00 0.000D+00 0.000D+00 0.000D+00 0.000D+00 0.100D+01
 Coeff:     -0.243D+00 0.278D+00-0.398D-01 0.670D-02-0.109D+00 0.758D-01
 Coeff:      0.989D+00-0.529D+01 0.720D+01-0.357D+01-0.444D+00 0.214D+01
 Gap=     0.089 Goal=   None    Shift=    0.200
 RMSDP=1.33D-05 MaxDP=1.35D-03 DE=-6.67D-06 OVMax= 1.20D-03

 Cycle  13  Pass 1  IDiag  1:
 E= -225.741732757782     Delta-E=       -0.000003800132 Rises=F Damp=F
 DIIS: error= 1.54D-04 at cycle  13 NSaved=  13.
 NSaved=13 IEnMin=13 EnMin= -225.741732757782     IErMin=13 ErrMin= 1.54D-04
 ErrMax= 1.54D-04  0.00D+00 EMaxC= 1.00D-01 BMatC= 1.32D-06 BMatP= 2.17D-06
 IDIUse=3 WtCom= 9.98D-01 WtEn= 1.54D-03
 Coeff-Com: -0.763D-01 0.871D-01-0.900D-02 0.838D-02-0.558D-01-0.145D-01
 Coeff-Com:  0.533D+00-0.786D+00-0.530D+00-0.959D+00 0.318D+01-0.459D+01
 Coeff-Com:  0.421D+01
 Coeff-En:   0.000D+00 0.000D+00 0.000D+00 0.000D+00 0.000D+00 0.000D+00
 Coeff-En:   0.000D+00 0.000D+00 0.000D+00 0.000D+00 0.000D+00 0.000D+00
 Coeff-En:   0.100D+01
 Coeff:     -0.762D-01 0.870D-01-0.899D-02 0.837D-02-0.557D-01-0.144D-01
 Coeff:      0.532D+00-0.785D+00-0.529D+00-0.958D+00 0.318D+01-0.458D+01
 Coeff:      0.420D+01
 Gap=     0.089 Goal=   None    Shift=    0.200
 RMSDP=1.83D-05 MaxDP=2.05D-03 DE=-3.80D-06 OVMax= 1.79D-03

 Cycle  14  Pass 1  IDiag  1:
 E= -225.741736566653     Delta-E=       -0.000003808871 Rises=F Damp=F
 DIIS: error= 7.57D-05 at cycle  14 NSaved=  14.
 NSaved=14 IEnMin=14 EnMin= -225.741736566653     IErMin=14 ErrMin= 7.57D-05
 ErrMax= 7.57D-05  0.00D+00 EMaxC= 1.00D-01 BMatC= 4.15D-07 BMatP= 1.32D-06
 IDIUse=1 WtCom= 1.00D+00 WtEn= 0.00D+00
 Coeff-Com: -0.769D-01 0.879D-01-0.109D-01 0.500D-02-0.335D-01-0.203D-01
 Coeff-Com:  0.301D+00 0.119D+00-0.129D+01-0.111D+01 0.454D+01-0.517D+01
 Coeff-Com:  0.246D+01 0.120D+01
 Coeff:     -0.769D-01 0.879D-01-0.109D-01 0.500D-02-0.335D-01-0.203D-01
 Coeff:      0.301D+00 0.119D+00-0.129D+01-0.111D+01 0.454D+01-0.517D+01
 Coeff:      0.246D+01 0.120D+01
 Gap=     0.089 Goal=   None    Shift=    0.200
 RMSDP=1.14D-05 MaxDP=1.60D-03 DE=-3.81D-06 OVMax= 8.71D-04

 Cycle  15  Pass 1  IDiag  1:
 E= -225.741737427047     Delta-E=       -0.000000860395 Rises=F Damp=F
 DIIS: error= 5.39D-05 at cycle  15 NSaved=  15.
 NSaved=15 IEnMin=15 EnMin= -225.741737427047     IErMin=15 ErrMin= 5.39D-05
 ErrMax= 5.39D-05  0.00D+00 EMaxC= 1.00D-01 BMatC= 2.09D-07 BMatP= 4.15D-07
 IDIUse=1 WtCom= 1.00D+00 WtEn= 0.00D+00
 Coeff-Com: -0.108D-01 0.124D-01-0.271D-02 0.606D-03-0.135D-01 0.154D-01
 Coeff-Com: -0.453D-01 0.646D-01 0.154D+01-0.369D+01 0.233D+01 0.234D+00
 Coeff-Com: -0.553D+00-0.177D+01 0.289D+01
 Coeff:     -0.108D-01 0.124D-01-0.271D-02 0.606D-03-0.135D-01 0.154D-01
 Coeff:     -0.453D-01 0.646D-01 0.154D+01-0.369D+01 0.233D+01 0.234D+00
 Coeff:     -0.553D+00-0.177D+01 0.289D+01
 Gap=     0.089 Goal=   None    Shift=    0.200
 RMSDP=1.15D-05 MaxDP=9.76D-04 DE=-8.60D-07 OVMax= 9.29D-04

 Cycle  16  Pass 1  IDiag  1:
 E= -225.741738123097     Delta-E=       -0.000000696050 Rises=F Damp=F
 DIIS: error= 2.64D-05 at cycle  16 NSaved=  16.
 NSaved=16 IEnMin=16 EnMin= -225.741738123097     IErMin=16 ErrMin= 2.64D-05
 ErrMax= 2.64D-05  0.00D+00 EMaxC= 1.00D-01 BMatC= 5.78D-08 BMatP= 2.09D-07
 IDIUse=1 WtCom= 1.00D+00 WtEn= 0.00D+00
 Coeff-Com: -0.122D-01 0.140D-01-0.213D-02 0.207D-02-0.765D-02 0.615D-02
 Coeff-Com:  0.489D-01-0.239D+00 0.356D+00-0.533D+00 0.765D+00-0.164D+01
 Coeff-Com:  0.198D+01-0.109D+01-0.508D+00 0.186D+01
 Coeff:     -0.122D-01 0.140D-01-0.213D-02 0.207D-02-0.765D-02 0.615D-02
 Coeff:      0.489D-01-0.239D+00 0.356D+00-0.533D+00 0.765D+00-0.164D+01
 Coeff:      0.198D+01-0.109D+01-0.508D+00 0.186D+01
 Gap=     0.089 Goal=   None    Shift=    0.200
 RMSDP=8.03D-06 MaxDP=9.40D-04 DE=-6.96D-07 OVMax= 4.62D-04

 Cycle  17  Pass 1  IDiag  1:
 E= -225.741738302693     Delta-E=       -0.000000179596 Rises=F Damp=F
 DIIS: error= 1.63D-05 at cycle  17 NSaved=  17.
 NSaved=17 IEnMin=17 EnMin= -225.741738302693     IErMin=17 ErrMin= 1.63D-05
 ErrMax= 1.63D-05  0.00D+00 EMaxC= 1.00D-01 BMatC= 2.22D-08 BMatP= 5.78D-08
 IDIUse=1 WtCom= 1.00D+00 WtEn= 0.00D+00
 Coeff-Com: -0.169D-02 0.192D-02 0.438D-03 0.143D-02-0.331D-02-0.110D-01
 Coeff-Com:  0.112D+00-0.217D+00-0.193D+00 0.318D+00 0.249D+00-0.932D+00
 Coeff-Com:  0.922D+00 0.370D+00-0.968D+00-0.133D+01 0.269D+01
 Coeff:     -0.169D-02 0.192D-02 0.438D-03 0.143D-02-0.331D-02-0.110D-01
 Coeff:      0.112D+00-0.217D+00-0.193D+00 0.318D+00 0.249D+00-0.932D+00
 Coeff:      0.922D+00 0.370D+00-0.968D+00-0.133D+01 0.269D+01
 Gap=     0.089 Goal=   None    Shift=    0.200
 RMSDP=4.41D-06 MaxDP=3.54D-04 DE=-1.80D-07 OVMax= 3.26D-04

 Cycle  18  Pass 1  IDiag  1:
 E= -225.741738381403     Delta-E=       -0.000000078710 Rises=F Damp=F
 DIIS: error= 1.02D-05 at cycle  18 NSaved=  18.
 NSaved=18 IEnMin=18 EnMin= -225.741738381403     IErMin=18 ErrMin= 1.02D-05
 ErrMax= 1.02D-05  0.00D+00 EMaxC= 1.00D-01 BMatC= 7.51D-09 BMatP= 2.22D-08
 IDIUse=1 WtCom= 1.00D+00 WtEn= 0.00D+00
 Coeff-Com:  0.680D-03-0.777D-03 0.680D-03 0.622D-03-0.721D-02 0.131D-02
 Coeff-Com:  0.361D-01-0.107D+00 0.360D+00-0.658D+00 0.671D+00-0.196D+00
 Coeff-Com: -0.161D+00-0.430D+00 0.453D+00 0.133D+01-0.383D+01 0.354D+01
 Coeff:      0.680D-03-0.777D-03 0.680D-03 0.622D-03-0.721D-02 0.131D-02
 Coeff:      0.361D-01-0.107D+00 0.360D+00-0.658D+00 0.671D+00-0.196D+00
 Coeff:     -0.161D+00-0.430D+00 0.453D+00 0.133D+01-0.383D+01 0.354D+01
 Gap=     0.089 Goal=   None    Shift=    0.200
 RMSDP=3.78D-06 MaxDP=3.75D-04 DE=-7.87D-08 OVMax= 1.87D-04

 Cycle  19  Pass 1  IDiag  1:
 E= -225.741738405461     Delta-E=       -0.000000024059 Rises=F Damp=F
 DIIS: error= 6.31D-06 at cycle  19 NSaved=  19.
 NSaved=19 IEnMin=19 EnMin= -225.741738405461     IErMin=19 ErrMin= 6.31D-06
 ErrMax= 6.31D-06  0.00D+00 EMaxC= 1.00D-01 BMatC= 2.66D-09 BMatP= 7.51D-09
 IDIUse=1 WtCom= 1.00D+00 WtEn= 0.00D+00
 Coeff-Com: -0.573D-03 0.655D-03 0.190D-03 0.392D-03-0.389D-02 0.472D-02
 Coeff-Com: -0.385D-02 0.303D-01-0.235D-01 0.182D-01 0.104D+00-0.275D+00
 Coeff-Com:  0.274D+00-0.172D+00-0.189D+00 0.108D+01-0.192D+01-0.225D+00
 Coeff-Com:  0.230D+01
 Coeff:     -0.573D-03 0.655D-03 0.190D-03 0.392D-03-0.389D-02 0.472D-02
 Coeff:     -0.385D-02 0.303D-01-0.235D-01 0.182D-01 0.104D+00-0.275D+00
 Coeff:      0.274D+00-0.172D+00-0.189D+00 0.108D+01-0.192D+01-0.225D+00
 Coeff:      0.230D+01
 Gap=     0.089 Goal=   None    Shift=    0.200
 RMSDP=1.76D-06 MaxDP=1.62D-04 DE=-2.41D-08 OVMax= 1.03D-04

 Cycle  20  Pass 1  IDiag  1:
 E= -225.741738413645     Delta-E=       -0.000000008184 Rises=F Damp=F
 DIIS: error= 3.88D-06 at cycle  20 NSaved=  20.
 NSaved=20 IEnMin=20 EnMin= -225.741738413645     IErMin=20 ErrMin= 3.88D-06
 ErrMax= 3.88D-06  0.00D+00 EMaxC= 1.00D-01 BMatC= 1.06D-09 BMatP= 2.66D-09
 IDIUse=1 WtCom= 1.00D+00 WtEn= 0.00D+00
 Coeff-Com:  0.604D-03-0.690D-03 0.225D-03-0.121D-03-0.259D-03 0.106D-02
 Coeff-Com: -0.761D-02 0.768D-01-0.200D+00 0.194D+00 0.571D-02-0.166D+00
 Coeff-Com:  0.826D-01 0.156D+00-0.232D+00 0.191D+00-0.324D+00 0.777D+00
 Coeff-Com: -0.311D+01 0.356D+01
 Coeff:      0.604D-03-0.690D-03 0.225D-03-0.121D-03-0.259D-03 0.106D-02
 Coeff:     -0.761D-02 0.768D-01-0.200D+00 0.194D+00 0.571D-02-0.166D+00
 Coeff:      0.826D-01 0.156D+00-0.232D+00 0.191D+00-0.324D+00 0.777D+00
 Coeff:     -0.311D+01 0.356D+01
 Gap=     0.089 Goal=   None    Shift=    0.200
 RMSDP=1.22D-06 MaxDP=1.09D-04 DE=-8.18D-09 OVMax= 6.74D-05

 Cycle  21  Pass 1  IDiag  1:
 E= -225.741738416932     Delta-E=       -0.000000003287 Rises=F Damp=F
 DIIS: error= 2.48D-06 at cycle  21 NSaved=  20.
 NSaved=20 IEnMin=20 EnMin= -225.741738416932     IErMin=20 ErrMin= 2.48D-06
 ErrMax= 2.48D-06  0.00D+00 EMaxC= 1.00D-01 BMatC= 4.42D-10 BMatP= 1.06D-09
 IDIUse=1 WtCom= 1.00D+00 WtEn= 0.00D+00
 Coeff-Com:  0.416D-07 0.168D-03 0.138D-06-0.147D-02 0.789D-03 0.594D-02
 Coeff-Com: -0.217D-02-0.325D-01 0.244D-01 0.885D-01-0.808D-01-0.354D-01
 Coeff-Com: -0.824D-02-0.223D-02 0.289D+00-0.666D+00 0.108D+01-0.130D+01
 Coeff-Com: -0.848D+00 0.250D+01
 Coeff:      0.416D-07 0.168D-03 0.138D-06-0.147D-02 0.789D-03 0.594D-02
 Coeff:     -0.217D-02-0.325D-01 0.244D-01 0.885D-01-0.808D-01-0.354D-01
 Coeff:     -0.824D-02-0.223D-02 0.289D+00-0.666D+00 0.108D+01-0.130D+01
 Coeff:     -0.848D+00 0.250D+01
 Gap=     0.089 Goal=   None    Shift=    0.200
 RMSDP=6.07D-07 MaxDP=6.13D-05 DE=-3.29D-09 OVMax= 3.87D-05

 Cycle  22  Pass 1  IDiag  1:
 E= -225.741738418207     Delta-E=       -0.000000001274 Rises=F Damp=F
 DIIS: error= 1.57D-06 at cycle  22 NSaved=  20.
 NSaved=20 IEnMin=20 EnMin= -225.741738418207     IErMin=20 ErrMin= 1.57D-06
 ErrMax= 1.57D-06  0.00D+00 EMaxC= 1.00D-01 BMatC= 1.85D-10 BMatP= 4.42D-10
 IDIUse=1 WtCom= 1.00D+00 WtEn= 0.00D+00
 Coeff-Com:  0.671D-04 0.319D-04-0.219D-03-0.631D-03 0.345D-02 0.285D-02
 Coeff-Com: -0.284D-01 0.456D-01-0.313D-01 0.494D-02 0.136D-01 0.279D-01
 Coeff-Com: -0.739D-01 0.869D-01-0.891D-01-0.619D-01 0.149D+00 0.173D+00
 Coeff-Com: -0.249D+01 0.326D+01
 Coeff:      0.671D-04 0.319D-04-0.219D-03-0.631D-03 0.345D-02 0.285D-02
 Coeff:     -0.284D-01 0.456D-01-0.313D-01 0.494D-02 0.136D-01 0.279D-01
 Coeff:     -0.739D-01 0.869D-01-0.891D-01-0.619D-01 0.149D+00 0.173D+00
 Coeff:     -0.249D+01 0.326D+01
 Gap=     0.089 Goal=   None    Shift=    0.200
 RMSDP=3.91D-07 MaxDP=3.51D-05 DE=-1.27D-09 OVMax= 2.43D-05

 Cycle  23  Pass 1  IDiag  1:
 E= -225.741738418728     Delta-E=       -0.000000000521 Rises=F Damp=F
 DIIS: error= 9.95D-07 at cycle  23 NSaved=  20.
 NSaved=20 IEnMin=20 EnMin= -225.741738418728     IErMin=20 ErrMin= 9.95D-07
 ErrMax= 9.95D-07  0.00D+00 EMaxC= 1.00D-01 BMatC= 7.53D-11 BMatP= 1.85D-10
 IDIUse=1 WtCom= 1.00D+00 WtEn= 0.00D+00
 Coeff-Com:  0.172D-04 0.312D-03-0.637D-03 0.800D-03 0.817D-02-0.341D-01
 Coeff-Com:  0.473D-01-0.318D-01-0.197D-01 0.435D-01 0.317D-01-0.696D-01
 Coeff-Com:  0.364D-01 0.159D-01 0.127D-02-0.529D+00 0.101D+01-0.106D+01
 Coeff-Com: -0.512D+00 0.207D+01
 Coeff:      0.172D-04 0.312D-03-0.637D-03 0.800D-03 0.817D-02-0.341D-01
 Coeff:      0.473D-01-0.318D-01-0.197D-01 0.435D-01 0.317D-01-0.696D-01
 Coeff:      0.364D-01 0.159D-01 0.127D-02-0.529D+00 0.101D+01-0.106D+01
 Coeff:     -0.512D+00 0.207D+01
 Gap=     0.089 Goal=   None    Shift=    0.200
 RMSDP=2.36D-07 MaxDP=2.08D-05 DE=-5.21D-10 OVMax= 1.57D-05

 Cycle  24  Pass 1  IDiag  1:
 E= -225.741738418945     Delta-E=       -0.000000000217 Rises=F Damp=F
 DIIS: error= 6.31D-07 at cycle  24 NSaved=  20.
 NSaved=20 IEnMin=20 EnMin= -225.741738418945     IErMin=20 ErrMin= 6.31D-07
 ErrMax= 6.31D-07  0.00D+00 EMaxC= 1.00D-01 BMatC= 3.19D-11 BMatP= 7.53D-11
 IDIUse=1 WtCom= 1.00D+00 WtEn= 0.00D+00
 Coeff-Com: -0.349D-04-0.273D-03 0.258D-02-0.881D-02 0.127D-01-0.125D-01
 Coeff-Com:  0.308D-02 0.239D-03 0.884D-02-0.133D-01 0.379D-02 0.352D-01
 Coeff-Com: -0.511D-01 0.718D-01-0.107D+00 0.239D-01-0.306D+00 0.873D+00
 Coeff-Com: -0.234D+01 0.281D+01
 Coeff:     -0.349D-04-0.273D-03 0.258D-02-0.881D-02 0.127D-01-0.125D-01
 Coeff:      0.308D-02 0.239D-03 0.884D-02-0.133D-01 0.379D-02 0.352D-01
 Coeff:     -0.511D-01 0.718D-01-0.107D+00 0.239D-01-0.306D+00 0.873D+00
 Coeff:     -0.234D+01 0.281D+01
 Gap=     0.089 Goal=   None    Shift=    0.200
 RMSDP=1.50D-07 MaxDP=1.59D-05 DE=-2.17D-10 OVMax= 1.02D-05

 Cycle  25  Pass 1  IDiag  1:
 E= -225.741738419038     Delta-E=       -0.000000000092 Rises=F Damp=F
 DIIS: error= 4.06D-07 at cycle  25 NSaved=  20.
 NSaved=20 IEnMin=20 EnMin= -225.741738419038     IErMin=20 ErrMin= 4.06D-07
 ErrMax= 4.06D-07  0.00D+00 EMaxC= 1.00D-01 BMatC= 1.34D-11 BMatP= 3.19D-11
 IDIUse=1 WtCom= 1.00D+00 WtEn= 0.00D+00
 Coeff-Com:  0.529D-05-0.128D-02 0.466D-02-0.280D-02-0.241D-03-0.356D-03
 Coeff-Com:  0.291D-02-0.594D-02 0.146D-02 0.204D-02 0.106D-01-0.201D-01
 Coeff-Com:  0.317D-01-0.404D-01 0.440D-01-0.356D+00 0.610D+00-0.158D+00
 Coeff-Com: -0.200D+01 0.287D+01
 Coeff:      0.529D-05-0.128D-02 0.466D-02-0.280D-02-0.241D-03-0.356D-03
 Coeff:      0.291D-02-0.594D-02 0.146D-02 0.204D-02 0.106D-01-0.201D-01
 Coeff:      0.317D-01-0.404D-01 0.440D-01-0.356D+00 0.610D+00-0.158D+00
 Coeff:     -0.200D+01 0.287D+01
 Gap=     0.089 Goal=   None    Shift=    0.200
 RMSDP=9.86D-08 MaxDP=1.10D-05 DE=-9.24D-11 OVMax= 6.64D-06

 Cycle  26  Pass 1  IDiag  1:
 E= -225.741738419077     Delta-E=       -0.000000000039 Rises=F Damp=F
 DIIS: error= 2.63D-07 at cycle  26 NSaved=  20.
 NSaved=20 IEnMin=20 EnMin= -225.741738419077     IErMin=20 ErrMin= 2.63D-07
 ErrMax= 2.63D-07  0.00D+00 EMaxC= 1.00D-01 BMatC= 5.86D-12 BMatP= 1.34D-11
 IDIUse=1 WtCom= 1.00D+00 WtEn= 0.00D+00
 Large coefficients: NSaved= 20 BigCof=    0.00 CofMax=   10.00 Det=-3.58D-15
 Inversion failed.  Reducing to 19 matrices.
 Large coefficients: NSaved= 19 BigCof=    0.00 CofMax=   10.00 Det=-6.14D-15
 Inversion failed.  Reducing to 18 matrices.
 Large coefficients: NSaved= 18 BigCof=    0.00 CofMax=   10.00 Det=-6.75D-15
 Inversion failed.  Reducing to 17 matrices.
 Large coefficients: NSaved= 17 BigCof=    0.00 CofMax=   10.00 Det=-7.11D-15
 Inversion failed.  Reducing to 16 matrices.
 Large coefficients: NSaved= 16 BigCof=    0.00 CofMax=   10.00 Det=-7.26D-15
 Inversion failed.  Reducing to 15 matrices.
 Coeff-Com: -0.413D-03-0.160D-02 0.186D-02 0.268D-02 0.182D-02-0.133D-01
 Coeff-Com:  0.368D-01-0.544D-01 0.970D-01-0.245D+00 0.215D+00-0.281D+00
 Coeff-Com:  0.369D+00-0.147D+01 0.234D+01
 Coeff:     -0.413D-03-0.160D-02 0.186D-02 0.268D-02 0.182D-02-0.133D-01
 Coeff:      0.368D-01-0.544D-01 0.970D-01-0.245D+00 0.215D+00-0.281D+00
 Coeff:      0.369D+00-0.147D+01 0.234D+01
 Gap=     0.089 Goal=   None    Shift=    0.200
 RMSDP=6.35D-08 MaxDP=7.86D-06 DE=-3.90D-11 OVMax= 4.34D-06

 Cycle  27  Pass 1  IDiag  1:
 E= -225.741738419094     Delta-E=       -0.000000000017 Rises=F Damp=F
 DIIS: error= 1.70D-07 at cycle  27 NSaved=  16.
 NSaved=16 IEnMin=16 EnMin= -225.741738419094     IErMin=16 ErrMin= 1.70D-07
 ErrMax= 1.70D-07  0.00D+00 EMaxC= 1.00D-01 BMatC= 2.54D-12 BMatP= 5.86D-12
 IDIUse=1 WtCom= 1.00D+00 WtEn= 0.00D+00
 Large coefficients: NSaved= 16 BigCof=    0.00 CofMax=   10.00 Det=-1.94D-15
 Inversion failed.  Reducing to 15 matrices.
 Coeff-Com:  0.108D-03-0.947D-03 0.208D-03 0.686D-02-0.131D-01 0.189D-01
 Coeff-Com: -0.326D-01 0.221D-01-0.304D-01 0.162D+00-0.297D+00 0.814D-01
 Coeff-Com:  0.179D+00-0.176D+01 0.266D+01
 Coeff:      0.108D-03-0.947D-03 0.208D-03 0.686D-02-0.131D-01 0.189D-01
 Coeff:     -0.326D-01 0.221D-01-0.304D-01 0.162D+00-0.297D+00 0.814D-01
 Coeff:      0.179D+00-0.176D+01 0.266D+01
 Gap=     0.089 Goal=   None    Shift=    0.200
 RMSDP=4.35D-08 MaxDP=5.70D-06 DE=-1.69D-11 OVMax= 2.85D-06

 Cycle  28  Pass 1  IDiag  1:
 E= -225.741738419100     Delta-E=       -0.000000000007 Rises=F Damp=F
 DIIS: error= 1.11D-07 at cycle  28 NSaved=  16.
 NSaved=16 IEnMin=16 EnMin= -225.741738419100     IErMin=16 ErrMin= 1.11D-07
 ErrMax= 1.11D-07  0.00D+00 EMaxC= 1.00D-01 BMatC= 1.13D-12 BMatP= 2.54D-12
 IDIUse=1 WtCom= 1.00D+00 WtEn= 0.00D+00
 Large coefficients: NSaved= 16 BigCof=    0.00 CofMax=   10.00 Det=-5.33D-16
 Inversion failed.  Reducing to 15 matrices.
 Coeff-Com: -0.907D-03 0.150D-03 0.296D-02-0.315D-02 0.866D-02-0.984D-02
 Coeff-Com:  0.135D-01-0.664D-01 0.112D+00-0.438D-01-0.363D+00 0.718D+00
 Coeff-Com: -0.610D+00-0.118D+01 0.242D+01
 Coeff:     -0.907D-03 0.150D-03 0.296D-02-0.315D-02 0.866D-02-0.984D-02
 Coeff:      0.135D-01-0.664D-01 0.112D+00-0.438D-01-0.363D+00 0.718D+00
 Coeff:     -0.610D+00-0.118D+01 0.242D+01
 Gap=     0.089 Goal=   None    Shift=    0.200
 RMSDP=2.88D-08 MaxDP=3.85D-06 DE=-6.93D-12 OVMax= 1.88D-06

 Cycle  29  Pass 1  IDiag  1:
 E= -225.741738419104     Delta-E=       -0.000000000004 Rises=F Damp=F
 DIIS: error= 7.25D-08 at cycle  29 NSaved=  16.
 NSaved=16 IEnMin=16 EnMin= -225.741738419104     IErMin=16 ErrMin= 7.25D-08
 ErrMax= 7.25D-08  0.00D+00 EMaxC= 1.00D-01 BMatC= 5.00D-13 BMatP= 1.13D-12
 IDIUse=1 WtCom= 1.00D+00 WtEn= 0.00D+00
 Large coefficients: NSaved= 16 BigCof=    0.00 CofMax=   10.00 Det=-1.58D-16
 Inversion failed.  Reducing to 15 matrices.
 Coeff-Com: -0.128D-03 0.922D-03-0.315D-02 0.525D-02-0.633D-02 0.131D-01
 Coeff-Com: -0.278D-01 0.610D-01-0.558D-01-0.142D-01-0.890D-01 0.158D+00
 Coeff-Com:  0.339D+00-0.270D+01 0.332D+01
 Coeff:     -0.128D-03 0.922D-03-0.315D-02 0.525D-02-0.633D-02 0.131D-01
 Coeff:     -0.278D-01 0.610D-01-0.558D-01-0.142D-01-0.890D-01 0.158D+00
 Coeff:      0.339D+00-0.270D+01 0.332D+01
 Gap=     0.089 Goal=   None    Shift=    0.200
 RMSDP=1.95D-08 MaxDP=2.66D-06 DE=-3.69D-12 OVMax= 1.25D-06

 Cycle  30  Pass 1  IDiag  1:
 E= -225.741738419105     Delta-E=       -0.000000000001 Rises=F Damp=F
 DIIS: error= 4.72D-08 at cycle  30 NSaved=  16.
 NSaved=16 IEnMin=16 EnMin= -225.741738419105     IErMin=16 ErrMin= 4.72D-08
 ErrMax= 4.72D-08  0.00D+00 EMaxC= 1.00D-01 BMatC= 2.23D-13 BMatP= 5.00D-13
 IDIUse=1 WtCom= 1.00D+00 WtEn= 0.00D+00
 Large coefficients: NSaved= 16 BigCof=    0.00 CofMax=   10.00 Det=-3.21D-17
 Inversion failed.  Reducing to 15 matrices.
 Coeff-Com:  0.494D-03-0.186D-02 0.257D-02-0.175D-02 0.407D-02-0.183D-01
 Coeff-Com:  0.520D-01-0.366D-01-0.838D-01 0.292D+00-0.664D+00 0.572D+00
 Coeff-Com:  0.304D+00-0.254D+01 0.312D+01
 Coeff:      0.494D-03-0.186D-02 0.257D-02-0.175D-02 0.407D-02-0.183D-01
 Coeff:      0.520D-01-0.366D-01-0.838D-01 0.292D+00-0.664D+00 0.572D+00
 Coeff:      0.304D+00-0.254D+01 0.312D+01
 Gap=     0.089 Goal=   None    Shift=    0.200
 RMSDP=1.32D-08 MaxDP=1.80D-06 DE=-1.19D-12 OVMax= 8.24D-07

 Cycle  31  Pass 1  IDiag  1:
 E= -225.741738419105     Delta-E=       -0.000000000000 Rises=F Damp=F
 DIIS: error= 3.11D-08 at cycle  31 NSaved=  16.
 NSaved=16 IEnMin=16 EnMin= -225.741738419105     IErMin=16 ErrMin= 3.11D-08
 ErrMax= 3.11D-08  0.00D+00 EMaxC= 1.00D-01 BMatC= 9.90D-14 BMatP= 2.23D-13
 IDIUse=1 WtCom= 1.00D+00 WtEn= 0.00D+00
 Large coefficients: NSaved= 16 BigCof=    0.00 CofMax=   10.00 Det=-1.88D-17
 Inversion failed.  Reducing to 15 matrices.
 Coeff-Com: -0.119D-03-0.562D-03 0.144D-02 0.316D-02-0.105D-01 0.325D-01
 Coeff-Com: -0.445D-01 0.814D-02 0.682D-01-0.207D+00 0.241D+00-0.239D+00
 Coeff-Com: -0.286D+00-0.734D+00 0.217D+01
 Coeff:     -0.119D-03-0.562D-03 0.144D-02 0.316D-02-0.105D-01 0.325D-01
 Coeff:     -0.445D-01 0.814D-02 0.682D-01-0.207D+00 0.241D+00-0.239D+00
 Coeff:     -0.286D+00-0.734D+00 0.217D+01
 Gap=     0.089 Goal=   None    Shift=    0.200
 RMSDP=9.08D-09 MaxDP=1.23D-06 DE=-1.14D-13 OVMax= 5.48D-07

 Cycle  32  Pass 1  IDiag  1:
 E= -225.741738419107     Delta-E=       -0.000000000001 Rises=F Damp=F
 DIIS: error= 2.05D-08 at cycle  32 NSaved=  16.
 NSaved=16 IEnMin=16 EnMin= -225.741738419107     IErMin=16 ErrMin= 2.05D-08
 ErrMax= 2.05D-08  0.00D+00 EMaxC= 1.00D-01 BMatC= 4.39D-14 BMatP= 9.90D-14
 IDIUse=1 WtCom= 1.00D+00 WtEn= 0.00D+00
 Large coefficients: NSaved= 16 BigCof=    0.00 CofMax=   10.00 Det=-1.33D-17
 Inversion failed.  Reducing to 15 matrices.
 Coeff-Com: -0.430D-03 0.115D-02 0.662D-03-0.468D-02 0.158D-01-0.215D-01
 Coeff-Com:  0.163D-01 0.192D-02-0.172D-01 0.218D-01-0.222D+00 0.328D+00
 Coeff-Com: -0.393D+00-0.132D+01 0.259D+01
 Coeff:     -0.430D-03 0.115D-02 0.662D-03-0.468D-02 0.158D-01-0.215D-01
 Coeff:      0.163D-01 0.192D-02-0.172D-01 0.218D-01-0.222D+00 0.328D+00
 Coeff:     -0.393D+00-0.132D+01 0.259D+01
 Gap=     0.089 Goal=   None    Shift=    0.200
 RMSDP=6.11D-09 MaxDP=8.12D-07 DE=-1.08D-12 OVMax= 3.64D-07

 SCF Done:  E(ROHF) =  -225.741738419     A.U. after   32 cycles
            NFock= 32  Conv=0.61D-08     -V/T= 2.4982
 <Sx>= 0.0000 <Sy>= 0.0000 <Sz>= 0.5000 <S**2>= 0.7500 S= 0.5000
 <L.S>=  0.00000000000    
 KE= 1.506740368565D+02 PE=-5.749140110058D+02 EE= 1.896786155482D+02
 Annihilation of the first spin contaminant:
 S**2 before annihilation     0.7500,   after     0.7500
 Leave Link  502 at Sat Apr 21 10:43:10 2018, MaxMem= 10737418240 cpu:             444.6 elap:              16.9
 (Enter /home1/apps/gaussian/16rA.03/g16/l801.exe)
 Windowed orbitals will be sorted by symmetry type.
 GenMOA:  NOpAll=  4 NOp2=4 NOpUse=  4 JSym2X=1
 FoFJK:  IHMeth= 1 ICntrl=       0 DoSepK=F KAlg= 0 I1Cent=           0 FoldK=F
 IRaf=         0 NMat=       1 IRICut=       1 DoRegI=T DoRafI=F ISym2E= 1 IDoP0=0 IntGTp=1.
 FoFCou: FMM=F IPFlag=           8 FMFlag=      100000 FMFlg1=           0
         NFxFlg=           0 DoJE=F BraDBF=F KetDBF=F FulRan=T
         wScrn=  0.000000 ICntrl=         0 IOpCl=  1 I1Cent=           0 NGrid=           0
         NMat0=    1 NMatS0=      1 NMatT0=    0 NMatD0=    1 NMtDS0=    0 NMtDT0=    0
 Petite list used in FoFCou.
 <Sx>= 0.0000 <Sy>= 0.0000 <Sz>= 0.5000 <S**2>= 0.7500 S= 0.5000
 Range of M.O.s used for correlation:     1   215
 NBasis=   215 NAE=    11 NBE=    10 NFC=     0 NFV=     0
 NROrb=    215 NOA=    11 NOB=    10 NVA=   204 NVB=   205

 **** Warning!!: The largest alpha MO coefficient is  0.20481969D+03


 **** Warning!!: The largest beta MO coefficient is  0.20481961D+03

 Singles contribution to E2=   -0.7657174969D-03
 Leave Link  801 at Sat Apr 21 10:43:13 2018, MaxMem= 10737418240 cpu:              98.5 elap:               3.1
 (Enter /home1/apps/gaussian/16rA.03/g16/l804.exe)
 Open-shell transformation, MDV= 10737418240 ITran=4 ISComp=2.
 Unit  1 TFree=       1390958 TCopy=       1099022.
 Semi-Direct transformation.
 ModeAB=           2 MOrb=            11 LenV=   10735913157
 LASXX=     13597211 LTotXX=    13597211 LenRXX=    13597211
 LTotAB=    13870998 MaxLAS=    79017015 LenRXY=    79017015
 NonZer=    80667785 LenScr=   121752064 LnRSAI=           0
 LnScr1=           0 LExtra=     7890925 Total=    222257215
 MaxDsk= 67108864000 SrtSym=           F ITran=            4
 DoSDTr:  NPSUse= 32
 JobTyp=1 Pass  1:  I=   1 to  11.
 (rs|ai) integrals will be sorted in core.
 Complete sort for first half transformation.
 First half transformation complete.
 Begin second half transformation for I=  10.
 Begin second half transformation for I=  10.
 Complete sort for second half transformation.
 Second half transformation complete.
 ModeAB=           2 MOrb=            10 LenV=   10735913157
 LASXX=     12352723 LTotXX=    12352723 LenRXX=    71833650
 LTotAB=    11326585 MaxLAS=    71833650 LenRXY=    11326585
 NonZer=    73334350 LenScr=   110775808 LnRSAI=           0
 LnScr1=           0 LExtra=   100505151 Total=    294441194
 MaxDsk= 67108864000 SrtSym=           F ITran=            4
 DoSDTr:  NPSUse= 32
 JobTyp=2 Pass  1:  I=   1 to  10.
 (rs|ai) integrals will be sorted in core.
 Complete sort for first half transformation.
 First half transformation complete.
 Begin second half transformation for I=  10.
 Begin second half transformation for I=  10.
 Complete sort for second half transformation.
 Second half transformation complete.
 Spin components of T(2) and E(2):
     alpha-alpha T2 =       0.1875971258D-01 E2=     -0.1650767300D+00
     alpha-beta  T2 =       0.7713899384D-01 E2=     -0.7216876109D+00
     beta-beta   T2 =       0.1630485194D-01 E2=     -0.1571308364D+00
 ANorm=    0.1054938223D+01
 E2 =    -0.1044660895D+01 EUMP2 =    -0.22678639931386D+03
 (S**2,0)=  0.75000D+00           (S**2,1)=  0.75000D+00
 E(PUHF)=      -0.22574173842D+03        E(PMP2)=      -0.22678639931D+03
 Leave Link  804 at Sat Apr 21 10:45:10 2018, MaxMem= 10737418240 cpu:            3728.2 elap:             116.6
 (Enter /home1/apps/gaussian/16rA.03/g16/l913.exe)
 CIDS:  MDV= 10737418240.
 IFCWin=0 IBDFC=1 NFBD=     0     0 NFCmp=     0     0 NFFFC=     0     0
 Using original routines for 1st iteration.
 Using DD4UQ or CC4UQ for 2nd and later iterations.
 Keep R2 and R3 ints in memory in symmetry-blocked form, NReq=338810218.
 FoFCou: FMM=F IPFlag=           8 FMFlag=           0 FMFlg1=           0
         NFxFlg=           0 DoJE=F BraDBF=F KetDBF=F FulRan=T
         wScrn=  0.000000 ICntrl=       600 IOpCl=  0 I1Cent=           0 NGrid=           0
         NMat0=    1 NMatS0=  23220 NMatT0=    0 NMatD0=    1 NMtDS0=    0 NMtDT0=    0
 Petite list used in FoFCou.
 CIDS: In Core Option IDoMem=           1.
 CCSD(T)
 =======
 Iterations= 150 Convergence= 0.100D-06
 Produce multiple copies of IABC intergrals
 Iteration Nr.   1
 **********************
 DD1Dir will call FoFMem   1 times, MxPair=       320
 NAB=   110 NAA=    55 NBB=    45.
 DD1Dir will call FoFMem   1 times, MxPair=       320
 NAB=   110 NAA=    55 NBB=    45.
 MP4(R+Q)= -0.13816770D+00
 Maximum subspace dimension=  5
 A-vector RMS=  1.0094573D-04 Max=  1.3197223D-03 conv= 1.00D-05.
 RLE energy=       -1.0513990493
 E3=        0.13142695D+00        EROMP3=      -0.22665497237D+03
 E4(SDQ)=  -0.82898246D-01        ROMP4(SDQ)=  -0.22673787061D+03
 VARIATIONAL ENERGIES WITH THE FIRST-ORDER WAVEFUNCTION:
 DE(Corr)=  -1.0513561     E(Corr)=     -226.79309453    
 NORM(A)=   0.10553077D+01
 Iteration Nr.   2
 **********************
 DD1Dir will call FoFMem   1 times, MxPair=       320
 NAB=   110 NAA=    55 NBB=    45.
 A-vector RMS=  3.3700887D-03 Max=  2.5582810D-02 conv= 1.00D-05.
 RLE energy=       -1.0312845851
 DE(Corr)= -0.91377555     E(CORR)=     -226.65551397     Delta= 1.38D-01
 NORM(A)=   0.10527453D+01
 Iteration Nr.   3
 **********************
 DD1Dir will call FoFMem   1 times, MxPair=       320
 NAB=   110 NAA=    55 NBB=    45.
 A-vector RMS=  2.7206878D-03 Max=  2.2823744D-02 conv= 1.00D-05.
 RLE energy=       -0.9889440045
 DE(Corr)= -0.92258606     E(CORR)=     -226.66432447     Delta=-8.81D-03
 NORM(A)=   0.10511753D+01
 Iteration Nr.   4
 **********************
 DD1Dir will call FoFMem   1 times, MxPair=       320
 NAB=   110 NAA=    55 NBB=    45.
 A-vector RMS=  1.5280094D-03 Max=  1.4884815D-02 conv= 1.00D-05.
 RLE energy=       -0.9015870665
 DE(Corr)= -0.94490323     E(CORR)=     -226.68664165     Delta=-2.23D-02
 NORM(A)=   0.10666574D+01
 Iteration Nr.   5
 **********************
 DD1Dir will call FoFMem   1 times, MxPair=       320
 NAB=   110 NAA=    55 NBB=    45.
 A-vector RMS=  2.3481331D-03 Max=  1.4612758D-02 conv= 1.00D-05.
 RLE energy=       -0.9631417518
 DE(Corr)=  -1.0012217     E(CORR)=     -226.74296009     Delta=-5.63D-02
 NORM(A)=   0.10590458D+01
 Iteration Nr.   6
 **********************
 DD1Dir will call FoFMem   1 times, MxPair=       320
 NAB=   110 NAA=    55 NBB=    45.
 A-vector RMS=  1.4764170D-04 Max=  1.7481799D-03 conv= 1.00D-05.
 RLE energy=       -0.9641492840
 DE(Corr)= -0.96475326     E(CORR)=     -226.70649168     Delta= 3.65D-02
 NORM(A)=   0.10585011D+01
 Iteration Nr.   7
 **********************
 DD1Dir will call FoFMem   1 times, MxPair=       320
 NAB=   110 NAA=    55 NBB=    45.
 A-vector RMS=  6.5592452D-05 Max=  1.3118451D-03 conv= 1.00D-05.
 RLE energy=       -0.9636236189
 DE(Corr)= -0.96366615     E(CORR)=     -226.70540457     Delta= 1.09D-03
 NORM(A)=   0.10589146D+01
 Iteration Nr.   8
 **********************
 DD1Dir will call FoFMem   1 times, MxPair=       320
 NAB=   110 NAA=    55 NBB=    45.
 A-vector RMS=  3.9471359D-05 Max=  4.6546310D-04 conv= 1.00D-05.
 RLE energy=       -0.9638003308
 DE(Corr)= -0.96392297     E(CORR)=     -226.70566139     Delta=-2.57D-04
 NORM(A)=   0.10590365D+01
 Iteration Nr.   9
 **********************
 DD1Dir will call FoFMem   1 times, MxPair=       320
 NAB=   110 NAA=    55 NBB=    45.
 A-vector RMS=  1.7474714D-05 Max=  1.7058774D-04 conv= 1.00D-05.
 RLE energy=       -0.9638382683
 DE(Corr)= -0.96381703     E(CORR)=     -226.70555545     Delta= 1.06D-04
 NORM(A)=   0.10591214D+01
 Iteration Nr.  10
 **********************
 DD1Dir will call FoFMem   1 times, MxPair=       320
 NAB=   110 NAA=    55 NBB=    45.
 A-vector RMS=  7.4924814D-06 Max=  9.9840719D-05 conv= 1.00D-05.
 RLE energy=       -0.9638330387
 DE(Corr)= -0.96384093     E(CORR)=     -226.70557935     Delta=-2.39D-05
 NORM(A)=   0.10591077D+01
 Iteration Nr.  11
 **********************
 DD1Dir will call FoFMem   1 times, MxPair=       320
 NAB=   110 NAA=    55 NBB=    45.
 A-vector RMS=  3.9817752D-06 Max=  4.8053269D-05 conv= 1.00D-05.
 RLE energy=       -0.9638293604
 DE(Corr)= -0.96383584     E(CORR)=     -226.70557426     Delta= 5.09D-06
 NORM(A)=   0.10590933D+01
 Iteration Nr.  12
 **********************
 DD1Dir will call FoFMem   1 times, MxPair=       320
 NAB=   110 NAA=    55 NBB=    45.
 A-vector RMS=  1.2586278D-06 Max=  2.2258940D-05 conv= 1.00D-05.
 RLE energy=       -0.9638319522
 DE(Corr)= -0.96383241     E(CORR)=     -226.70557083     Delta= 3.43D-06
 NORM(A)=   0.10590896D+01
 Iteration Nr.  13
 **********************
 DD1Dir will call FoFMem   1 times, MxPair=       320
 NAB=   110 NAA=    55 NBB=    45.
 A-vector RMS=  4.2356295D-07 Max=  5.9488135D-06 conv= 1.00D-05.
 RLE energy=       -0.9638300907
 DE(Corr)= -0.96383040     E(CORR)=     -226.70556881     Delta= 2.01D-06
 NORM(A)=   0.10590885D+01
 Iteration Nr.  14
 **********************
 DD1Dir will call FoFMem   1 times, MxPair=       320
 NAB=   110 NAA=    55 NBB=    45.
 A-vector RMS=  2.8275465D-07 Max=  3.8613448D-06 conv= 1.00D-05.
 RLE energy=       -0.9638297525
 DE(Corr)= -0.96383007     E(CORR)=     -226.70556849     Delta= 3.23D-07
 NORM(A)=   0.10590885D+01
 Iteration Nr.  15
 **********************
 DD1Dir will call FoFMem   1 times, MxPair=       320
 NAB=   110 NAA=    55 NBB=    45.
 A-vector RMS=  1.0147729D-07 Max=  1.3079357D-06 conv= 1.00D-05.
 RLE energy=       -0.9638302562
 DE(Corr)= -0.96383033     E(CORR)=     -226.70556875     Delta=-2.62D-07
 NORM(A)=   0.10590889D+01
 Iteration Nr.  16
 **********************
 DD1Dir will call FoFMem   1 times, MxPair=       320
 NAB=   110 NAA=    55 NBB=    45.
 A-vector RMS=  5.9591644D-08 Max=  9.6766452D-07 conv= 1.00D-05.
 RLE energy=       -0.9638303072
 DE(Corr)= -0.96383028     E(CORR)=     -226.70556870     Delta= 5.46D-08
 NORM(A)=   0.10590892D+01
 CI/CC converged in   16 iterations to DelEn= 5.46D-08 Conv= 1.00D-07 ErrA1= 5.96D-08 Conv= 1.00D-05
 Wavefunction amplitudes converged. E(Corr)=     -226.70556870    
 Largest amplitude= 6.14D-02
 Time for triples=    18732.31 seconds.
 T4(CCSD)= -0.30568227D-01
 T5(CCSD)=  0.33327329D-02
 CCSD(T)= -0.22673280419D+03
 Discarding MO integrals.
 Leave Link  913 at Sat Apr 21 10:58:41 2018, MaxMem= 10737418240 cpu:           25917.8 elap:             810.6
 (Enter /home1/apps/gaussian/16rA.03/g16/l601.exe)
 Copying SCF densities to generalized density rwf, IOpCl= 0 IROHF=1.

 **********************************************************************

            Population analysis using the SCF density.

 **********************************************************************

 Orbital symmetries:
       Occupied  (SG) (SG) (PI) (PI) (SG) (DLTA) (DLTA) (PI) (PI)
                 (SG) (SG)
       Virtual   (PI) (PI) (SG) (SG) (PI) (PI) (SG) (SG) (SG) (PI)
                 (PI) (DLTA) (DLTA) (SG) (PI) (PI) (SG) (PI) (PI)
                 (SG) (SG) (SG) (PI) (PI) (DLTA) (DLTA) (DLTA)
                 (DLTA) (SG) (PI) (PI) (PI) (PI) (SG) (PI) (PI)
                 (SG) (SG) (PHI) (PHI) (DLTA) (DLTA) (SG) (PI)
                 (PI) (SG) (DLTA) (DLTA) (PI) (PI) (SG) (SG) (PI)
                 (PI) (DLTA) (DLTA) (SG) (PI) (PI) (PI) (PI) (SG)
                 (SG) (PHI) (PHI) (DLTA) (DLTA) (PI) (PI) (SG)
                 (DLTA) (DLTA) (PI) (PI) (SG) (?A) (?A) (PHI) (PHI)
                 (DLTA) (DLTA) (SG) (PI) (PI) (PI) (PI) (SG) (SG)
                 (SG) (PHI) (PHI) (DLTA) (DLTA) (PI) (PI) (SG)
                 (DLTA) (DLTA) (PI) (PI) (SG) (PI) (PI) (SG) (SG)
                 (?A) (?A) (PHI) (PHI) (DLTA) (DLTA) (PI) (PI)
                 (SG) (DLTA) (DLTA) (PI) (PI) (SG) (PHI) (PHI)
                 (DLTA) (DLTA) (PI) (PI) (SG) (PI) (PI) (SG) (SG)
                 (?A) (?A) (PHI) (PHI) (DLTA) (DLTA) (PI) (PI)
                 (SG) (DLTA) (DLTA) (PI) (PI) (SG) (SG) (PI) (PI)
                 (SG) (SG) (DLTA) (DLTA) (PI) (PI) (SG) (PI) (PI)
                 (SG) (SG) (PI) (PI) (SG) (DLTA) (DLTA) (PI) (PI)
                 (SG) (SG) (PI) (PI) (SG) (SG) (DLTA) (DLTA) (PI)
                 (PI) (SG) (PI) (PI) (SG) (SG) (PI) (PI) (SG) (SG)
                 (PI) (PI) (SG) (SG) (PI) (PI) (SG) (SG) (PI) (PI)
                 (SG) (SG) (SG) (PI) (PI) (SG) (SG) (SG) (SG) (SG)
 The electronic state is 2-SG.
 Alpha  occ. eigenvalues --   -5.89037  -3.97389  -3.96598  -3.96598  -0.83558
 Alpha  occ. eigenvalues --   -0.80863  -0.80863  -0.80796  -0.80796  -0.49000
 Alpha  occ. eigenvalues --   -0.26594
 Alpha virt. eigenvalues --    0.02164   0.02164   0.02578   0.04155   0.07781
 Alpha virt. eigenvalues --    0.07781   0.08957   0.16089   0.19231   0.24433
 Alpha virt. eigenvalues --    0.24433   0.25157   0.25157   0.26906   0.28459
 Alpha virt. eigenvalues --    0.28459   0.35625   0.40159   0.40159   0.57084
 Alpha virt. eigenvalues --    0.59218   0.68828   0.82254   0.82254   0.85845
 Alpha virt. eigenvalues --    0.85845   0.92780   0.92780   0.99668   1.06453
 Alpha virt. eigenvalues --    1.06453   1.10715   1.10715   1.13559   1.43151
 Alpha virt. eigenvalues --    1.43151   1.44470   1.72861   1.85639   1.85639
 Alpha virt. eigenvalues --    2.04435   2.04435   2.29690   2.46219   2.46219
 Alpha virt. eigenvalues --    2.54873   2.74795   2.74795   2.76181   2.76181
 Alpha virt. eigenvalues --    2.84070   3.27941   3.53120   3.53120   3.92318
 Alpha virt. eigenvalues --    3.92318   3.98312   4.26911   4.26911   4.55076
 Alpha virt. eigenvalues --    4.55076   4.64141   5.16313   5.33819   5.33819
 Alpha virt. eigenvalues --    5.44468   5.44468   5.72566   5.72566   6.40418
 Alpha virt. eigenvalues --    7.23746   7.23746   7.27134   7.27134   7.60281
 Alpha virt. eigenvalues --    7.74959   7.74959   7.75199   7.75199   7.85271
 Alpha virt. eigenvalues --    7.85271   8.09836   8.50796   8.50796   8.85294
 Alpha virt. eigenvalues --    8.85294   8.98645   9.29657  11.21836  13.74024
 Alpha virt. eigenvalues --   13.74024  13.81433  13.81433  13.97501  13.97501
 Alpha virt. eigenvalues --   14.50900  16.00704  16.00704  16.04825  16.04825
 Alpha virt. eigenvalues --   16.40312  18.65394  18.65394  19.03832  19.10089
 Alpha virt. eigenvalues --   20.20893  20.20893  20.21141  20.21141  20.25894
 Alpha virt. eigenvalues --   20.25894  20.58523  20.58523  21.12822  31.33707
 Alpha virt. eigenvalues --   31.33707  31.37622  31.37622  31.69235  35.53149
 Alpha virt. eigenvalues --   35.53149  35.58482  35.58482  35.68615  35.68615
 Alpha virt. eigenvalues --   35.89811  36.19426  36.19426  36.62436  40.11738
 Alpha virt. eigenvalues --   47.06480  47.06480  47.06921  47.06921  47.09950
 Alpha virt. eigenvalues --   47.09950  47.30550  47.30550  47.58216  57.04857
 Alpha virt. eigenvalues --   57.04857  57.08729  57.08729  57.39005  64.32181
 Alpha virt. eigenvalues --   67.23806  67.23806  67.59000  82.71781 104.26265
 Alpha virt. eigenvalues --  104.26265 104.29923 104.29923 104.57844 122.35629
 Alpha virt. eigenvalues --  122.35629 122.68202 175.55863 226.19878 226.19878
 Alpha virt. eigenvalues --  226.48449 237.71363 237.71363 237.74312 237.74312
 Alpha virt. eigenvalues --  237.96716 335.41945 421.68475 421.68475 421.93617
 Alpha virt. eigenvalues --  578.42623 792.57266 792.57266 792.59107 792.59107
 Alpha virt. eigenvalues --  792.73384 794.96637 794.96637 795.202461043.65006
 Alpha virt. eigenvalues -- 1566.358691566.358691566.577672015.266493328.44745
 Alpha virt. eigenvalues -- 3328.447453328.646614173.075857881.572317881.57231
 Alpha virt. eigenvalues -- 7881.746179287.35742******************************
 Alpha virt. eigenvalues -- **************************************************
 Alpha virt. eigenvalues -- ****************************************
     Molecular Orbital Coefficients:
                           6         7         8         9        10
                           O         O         O         O         O
     Eigenvalues --    -0.80863  -0.80863  -0.80796  -0.80796  -0.49000
   1 1   Zn 1S          0.00000  -0.00000   0.00000   0.00000   0.00000
   2        2S          0.00000   0.00000   0.00000   0.00000  -0.00000
   3        3S          0.00000  -0.00000   0.00000   0.00000   0.00000
   4        4S          0.00000  -0.00000   0.00000   0.00000  -0.00000
   5        5S          0.00000   0.00000   0.00000   0.00000   0.00000
   6        6S          0.00000  -0.00000   0.00000   0.00000  -0.00001
   7        7S          0.00000   0.00000   0.00000   0.00000   0.00002
   8        8S          0.00000  -0.00000   0.00000   0.00000  -0.00007
   9        9S          0.00000   0.00000   0.00000   0.00000   0.00020
  10       10S          0.00000  -0.00000   0.00000   0.00000  -0.00065
  11       11S          0.00000   0.00000   0.00000   0.00000   0.00246
  12       12S          0.00000  -0.00000   0.00000   0.00000  -0.01221
  13       13S          0.00000   0.00000   0.00000   0.00000   0.01111
  14       14S          0.00000  -0.00000   0.00000   0.00000   0.08692
  15       15S          0.00000  -0.00000   0.00000   0.00000  -0.06305
  16       16S          0.00000   0.00000   0.00000   0.00000  -0.07742
  17       17S          0.00000   0.00000   0.00000   0.00000  -0.13588
  18       18S          0.00000   0.00000   0.00000   0.00000   0.26319
  19       19S          0.00000  -0.00000   0.00000   0.00000   0.20676
  20       20S          0.00000   0.00000   0.00000   0.00000   0.03477
  21       21S          0.00000   0.00000   0.00000   0.00000   0.00773
  22       22S          0.00000  -0.00000   0.00000   0.00000  -0.12785
  23       23S          0.00000   0.00000   0.00000   0.00000  -0.00399
  24       24PX         0.00000   0.00000  -0.00000   0.00000   0.00000
  25       24PY         0.00000   0.00000   0.00000  -0.00000   0.00000
  26       24PZ         0.00000  -0.00000   0.00000   0.00000   0.00000
  27       25PX         0.00000   0.00000   0.00000   0.00000   0.00000
  28       25PY         0.00000   0.00000   0.00000   0.00000   0.00000
  29       25PZ         0.00000   0.00000   0.00000   0.00000  -0.00000
  30       26PX         0.00000   0.00000  -0.00000   0.00000   0.00000
  31       26PY         0.00000   0.00000   0.00000  -0.00000   0.00000
  32       26PZ         0.00000  -0.00000   0.00000   0.00000   0.00000
  33       27PX         0.00000   0.00000   0.00000   0.00000   0.00000
  34       27PY         0.00000   0.00000   0.00000   0.00000   0.00000
  35       27PZ         0.00000   0.00000   0.00000   0.00000  -0.00000
  36       28PX         0.00000   0.00000  -0.00000   0.00000   0.00000
  37       28PY         0.00000   0.00000   0.00000  -0.00000   0.00000
  38       28PZ         0.00000  -0.00000   0.00000   0.00000   0.00002
  39       29PX         0.00000   0.00000   0.00000   0.00000   0.00000
  40       29PY         0.00000   0.00000   0.00000   0.00000   0.00000
  41       29PZ         0.00000   0.00000   0.00000   0.00000  -0.00008
  42       30PX         0.00000   0.00000   0.00000   0.00000   0.00000
  43       30PY         0.00000   0.00000   0.00000   0.00000   0.00000
  44       30PZ         0.00000  -0.00000   0.00000   0.00000   0.00076
  45       31PX         0.00000   0.00000  -0.00002   0.00000   0.00000
  46       31PY         0.00000   0.00000   0.00000  -0.00002   0.00000
  47       31PZ         0.00000   0.00000   0.00000   0.00000  -0.00347
  48       32PX         0.00000   0.00000  -0.00015   0.00000   0.00000
  49       32PY         0.00000   0.00000   0.00000  -0.00015   0.00000
  50       32PZ         0.00000  -0.00000   0.00000   0.00000  -0.00582
  51       33PX         0.00000   0.00000  -0.00046   0.00000   0.00000
  52       33PY         0.00000   0.00000   0.00000  -0.00046   0.00000
  53       33PZ         0.00000  -0.00000   0.00000   0.00000   0.02014
  54       34PX         0.00000   0.00000   0.00102   0.00000   0.00000
  55       34PY         0.00000   0.00000   0.00000   0.00102   0.00000
  56       34PZ         0.00000  -0.00000   0.00000   0.00000   0.04137
  57       35PX         0.00000   0.00000   0.00486   0.00000   0.00000
  58       35PY         0.00000   0.00000   0.00000   0.00486   0.00000
  59       35PZ         0.00000  -0.00000   0.00000   0.00000   0.04438
  60       36PX         0.00000   0.00000  -0.00017   0.00000   0.00000
  61       36PY         0.00000   0.00000   0.00000  -0.00017   0.00000
  62       36PZ         0.00000  -0.00000   0.00000   0.00000   0.03803
  63       37PX         0.00000   0.00000  -0.00173   0.00000   0.00000
  64       37PY         0.00000   0.00000   0.00000  -0.00173   0.00000
  65       37PZ         0.00000  -0.00000   0.00000   0.00000  -0.05020
  66       38PX         0.00000   0.00000   0.00022   0.00000   0.00000
  67       38PY         0.00000   0.00000   0.00000   0.00022   0.00000
  68       38PZ         0.00000   0.00000   0.00000   0.00000  -0.10311
  69       39PX         0.00000   0.00000   0.00173   0.00000   0.00000
  70       39PY         0.00000   0.00000   0.00000   0.00173   0.00000
  71       39PZ         0.00000   0.00000   0.00000   0.00000  -0.02093
  72       40PX         0.00000   0.00000   0.00047   0.00000   0.00000
  73       40PY         0.00000   0.00000   0.00000   0.00047   0.00000
  74       40PZ         0.00000   0.00000   0.00000   0.00000  -0.01411
  75       41PX         0.00000   0.00000  -0.00413   0.00000   0.00000
  76       41PY         0.00000   0.00000   0.00000  -0.00413   0.00000
  77       41PZ         0.00000   0.00000   0.00000   0.00000   0.01897
  78       42PX         0.00000   0.00000  -0.00031   0.00000   0.00000
  79       42PY         0.00000   0.00000   0.00000  -0.00031   0.00000
  80       42PZ         0.00000  -0.00000   0.00000   0.00000  -0.00011
  81       43D 0        0.00000   0.00000   0.00000   0.00000   0.00003
  82       43D+1        0.00000   0.00000  -0.00009   0.00000   0.00000
  83       43D-1        0.00000   0.00000   0.00000  -0.00009   0.00000
  84       43D+2        0.00000  -0.00009   0.00000   0.00000  -0.00000
  85       43D-2       -0.00009   0.00000   0.00000   0.00000   0.00000
  86       44D 0        0.00000  -0.00000   0.00000   0.00000  -0.00183
  87       44D+1        0.00000   0.00000   0.00661   0.00000   0.00000
  88       44D-1        0.00000   0.00000   0.00000   0.00661   0.00000
  89       44D+2        0.00000   0.00662   0.00000   0.00000   0.00000
  90       44D-2        0.00662   0.00000   0.00000   0.00000   0.00000
  91       45D 0        0.00000  -0.00000   0.00000   0.00000  -0.02102
  92       45D+1        0.00000   0.00000   0.07573   0.00000   0.00000
  93       45D-1        0.00000   0.00000   0.00000   0.07573   0.00000
  94       45D+2        0.00000   0.07599   0.00000   0.00000   0.00000
  95       45D-2        0.07599   0.00000   0.00000   0.00000   0.00000
  96       46D 0        0.00000  -0.00000   0.00000   0.00000  -0.05928
  97       46D+1        0.00000   0.00000   0.21360   0.00000   0.00000
  98       46D-1        0.00000   0.00000   0.00000   0.21360   0.00000
  99       46D+2        0.00000   0.21385   0.00000   0.00000   0.00000
 100       46D-2        0.21385   0.00000   0.00000   0.00000   0.00000
 101       47D 0        0.00000  -0.00000   0.00000   0.00000  -0.09861
 102       47D+1        0.00000   0.00000   0.35632   0.00000   0.00000
 103       47D-1        0.00000   0.00000   0.00000   0.35632   0.00000
 104       47D+2        0.00000   0.35070   0.00000   0.00000   0.00000
 105       47D-2        0.35070   0.00000   0.00000   0.00000   0.00000
 106       48D 0        0.00000  -0.00000   0.00000   0.00000  -0.09894
 107       48D+1        0.00000   0.00000   0.36064   0.00000   0.00000
 108       48D-1        0.00000   0.00000   0.00000   0.36064   0.00000
 109       48D+2        0.00000   0.36129   0.00000   0.00000   0.00000
 110       48D-2        0.36129   0.00000   0.00000   0.00000   0.00000
 111       49D 0        0.00000  -0.00000   0.00000   0.00000  -0.07050
 112       49D+1        0.00000   0.00000   0.27373   0.00000   0.00000
 113       49D-1        0.00000   0.00000   0.00000   0.27373   0.00000
 114       49D+2        0.00000   0.27446   0.00000   0.00000  -0.00000
 115       49D-2        0.27446   0.00000   0.00000   0.00000   0.00000
 116       50D 0        0.00000  -0.00000   0.00000   0.00000  -0.02773
 117       50D+1        0.00000   0.00000   0.10057   0.00000   0.00000
 118       50D-1        0.00000   0.00000   0.00000   0.10057   0.00000
 119       50D+2        0.00000   0.10117   0.00000   0.00000  -0.00000
 120       50D-2        0.10117   0.00000   0.00000   0.00000   0.00000
 121       51D 0        0.00000   0.00000   0.00000   0.00000   0.00371
 122       51D+1        0.00000   0.00000  -0.01355   0.00000   0.00000
 123       51D-1        0.00000   0.00000   0.00000  -0.01355   0.00000
 124       51D+2        0.00000  -0.01285   0.00000   0.00000  -0.00000
 125       51D-2       -0.01285   0.00000   0.00000   0.00000   0.00000
 126       52D 0        0.00000   0.00000   0.00000   0.00000   0.00663
 127       52D+1        0.00000   0.00000  -0.02456   0.00000   0.00000
 128       52D-1        0.00000   0.00000   0.00000  -0.02456   0.00000
 129       52D+2        0.00000  -0.01809   0.00000   0.00000  -0.00000
 130       52D-2       -0.01809   0.00000   0.00000   0.00000   0.00000
 131       53D 0        0.00000  -0.00000   0.00000   0.00000   0.00825
 132       53D+1        0.00000   0.00000   0.00331   0.00000   0.00000
 133       53D-1        0.00000   0.00000   0.00000   0.00331   0.00000
 134       53D+2        0.00000   0.00332   0.00000   0.00000   0.00000
 135       53D-2        0.00332   0.00000   0.00000   0.00000   0.00000
 136       54F 0        0.00000   0.00000   0.00000   0.00000  -0.00020
 137       54F+1        0.00000   0.00000   0.00006   0.00000   0.00000
 138       54F-1        0.00000   0.00000   0.00000   0.00006   0.00000
 139       54F+2        0.00000   0.00009   0.00000   0.00000  -0.00000
 140       54F-2        0.00009   0.00000   0.00000   0.00000   0.00000
 141       54F+3        0.00000   0.00000  -0.00000   0.00000   0.00000
 142       54F-3        0.00000   0.00000   0.00000   0.00000   0.00000
 143       55F 0        0.00000  -0.00000   0.00000   0.00000  -0.00070
 144       55F+1        0.00000   0.00000   0.00026   0.00000   0.00000
 145       55F-1        0.00000   0.00000   0.00000   0.00026   0.00000
 146       55F+2        0.00000   0.00018   0.00000   0.00000   0.00000
 147       55F-2        0.00018   0.00000   0.00000   0.00000   0.00000
 148       55F+3        0.00000   0.00000  -0.00000   0.00000   0.00000
 149       55F-3        0.00000   0.00000   0.00000   0.00000   0.00000
 150       56F 0        0.00000   0.00000   0.00000   0.00000  -0.00278
 151       56F+1        0.00000   0.00000  -0.00009   0.00000   0.00000
 152       56F-1        0.00000   0.00000   0.00000  -0.00009   0.00000
 153       56F+2        0.00000   0.00055   0.00000   0.00000  -0.00000
 154       56F-2        0.00055   0.00000   0.00000   0.00000   0.00000
 155       56F+3        0.00000   0.00000  -0.00000   0.00000   0.00000
 156       56F-3        0.00000   0.00000   0.00000   0.00000   0.00000
 157       57F 0        0.00000   0.00000   0.00000   0.00000  -0.00413
 158       57F+1        0.00000   0.00000  -0.00065   0.00000   0.00000
 159       57F-1        0.00000   0.00000   0.00000  -0.00065   0.00000
 160       57F+2        0.00000   0.00011   0.00000   0.00000   0.00000
 161       57F-2        0.00011   0.00000   0.00000   0.00000   0.00000
 162       57F+3        0.00000   0.00000  -0.00000   0.00000   0.00000
 163       57F-3        0.00000   0.00000   0.00000   0.00000   0.00000
 164       58G 0        0.00000   0.00000   0.00000   0.00000   0.00004
 165       58G+1        0.00000   0.00000  -0.00004   0.00000   0.00000
 166       58G-1        0.00000   0.00000   0.00000  -0.00004   0.00000
 167       58G+2        0.00000  -0.00004   0.00000   0.00000   0.00000
 168       58G-2       -0.00004   0.00000   0.00000   0.00000   0.00000
 169       58G+3        0.00000   0.00000   0.00000   0.00000   0.00000
 170       58G-3        0.00000   0.00000   0.00000   0.00000   0.00000
 171       58G+4        0.00000   0.00000   0.00000   0.00000   0.00000
 172       58G-4        0.00000   0.00000   0.00000   0.00000   0.00000
 173       59G 0        0.00000  -0.00000   0.00000   0.00000   0.00003
 174       59G+1        0.00000   0.00000  -0.00008   0.00000   0.00000
 175       59G-1        0.00000   0.00000   0.00000  -0.00008   0.00000
 176       59G+2        0.00000   0.00003   0.00000   0.00000  -0.00000
 177       59G-2        0.00003   0.00000   0.00000   0.00000   0.00000
 178       59G+3        0.00000   0.00000  -0.00000   0.00000   0.00000
 179       59G-3        0.00000   0.00000   0.00000  -0.00000   0.00000
 180       59G+4        0.00000  -0.00000   0.00000   0.00000  -0.00000
 181       59G-4       -0.00000   0.00000   0.00000   0.00000   0.00000
 182       60G 0        0.00000  -0.00000   0.00000   0.00000   0.00044
 183       60G+1        0.00000   0.00000   0.00019   0.00000   0.00000
 184       60G-1        0.00000   0.00000   0.00000   0.00019   0.00000
 185       60G+2        0.00000  -0.00016   0.00000   0.00000   0.00000
 186       60G-2       -0.00016   0.00000   0.00000   0.00000   0.00000
 187       60G+3        0.00000   0.00000   0.00000   0.00000   0.00000
 188       60G-3        0.00000   0.00000   0.00000   0.00000   0.00000
 189       60G+4        0.00000  -0.00000   0.00000   0.00000   0.00000
 190       60G-4       -0.00000   0.00000   0.00000   0.00000   0.00000
 191 2   H  1S          0.00000  -0.00000   0.00000   0.00000   0.00324
 192        2S          0.00000  -0.00000   0.00000   0.00000   0.03483
 193        3S          0.00000  -0.00000   0.00000   0.00000   0.13771
 194        4S          0.00000  -0.00000   0.00000   0.00000   0.32268
 195        5S          0.00000  -0.00000   0.00000   0.00000   0.19414
 196        6S          0.00000  -0.00000   0.00000   0.00000   0.00524
 197        7PX         0.00000   0.00000  -0.00518   0.00000   0.00000
 198        7PY         0.00000   0.00000   0.00000  -0.00518   0.00000
 199        7PZ         0.00000  -0.00000   0.00000   0.00000   0.00612
 200        8PX         0.00000   0.00000  -0.00606   0.00000   0.00000
 201        8PY         0.00000   0.00000   0.00000  -0.00606   0.00000
 202        8PZ         0.00000  -0.00000   0.00000   0.00000   0.02621
 203        9PX         0.00000   0.00000  -0.00427   0.00000   0.00000
 204        9PY         0.00000   0.00000   0.00000  -0.00427   0.00000
 205        9PZ         0.00000  -0.00000   0.00000   0.00000   0.00595
 206       10D 0        0.00000  -0.00000   0.00000   0.00000   0.00152
 207       10D+1        0.00000   0.00000  -0.00211   0.00000   0.00000
 208       10D-1        0.00000   0.00000   0.00000  -0.00211   0.00000
 209       10D+2        0.00000   0.00073   0.00000   0.00000  -0.00000
 210       10D-2        0.00073   0.00000   0.00000   0.00000   0.00000
 211       11D 0        0.00000  -0.00000   0.00000   0.00000   0.00215
 212       11D+1        0.00000   0.00000  -0.00162   0.00000   0.00000
 213       11D-1        0.00000   0.00000   0.00000  -0.00162   0.00000
 214       11D+2        0.00000  -0.00058   0.00000   0.00000   0.00000
 215       11D-2       -0.00058   0.00000   0.00000   0.00000   0.00000
                          11        12        13        14        15
                           O         V         V         V         V
     Eigenvalues --    -0.26594   0.02164   0.02164   0.02578   0.04155
   1 1   Zn 1S          0.00000   0.00000   0.00000   0.00000  -0.00000
   2        2S         -0.00000   0.00000   0.00000  -0.00000   0.00000
[...]
 211       11D 0        0.00005
 212       11D+1        0.00000   0.00001
 213       11D-1        0.00000   0.00000   0.00001
 214       11D+2        0.00000   0.00000   0.00000   0.00000
 215       11D-2        0.00000   0.00000   0.00000   0.00000   0.00000
     Gross orbital populations:
                         Total     Alpha     Beta      Spin
   1 1   Zn 1S         -0.00000  -0.00000  -0.00000  -0.00000
   2        2S          0.00000   0.00000   0.00000   0.00000
   3        3S         -0.00000  -0.00000  -0.00000  -0.00000
   4        4S          0.00000   0.00000   0.00000   0.00000
   5        5S         -0.00000  -0.00000  -0.00000  -0.00000
   6        6S          0.00000   0.00000   0.00000   0.00000
   7        7S         -0.00000  -0.00000  -0.00000  -0.00000
   8        8S          0.00000   0.00000   0.00000   0.00000
   9        9S         -0.00000  -0.00000  -0.00000  -0.00000
  10       10S          0.00002   0.00001   0.00001   0.00000
  11       11S         -0.00030  -0.00015  -0.00015  -0.00000
  12       12S          0.00573   0.00289   0.00284   0.00004
  13       13S         -0.01344  -0.00677  -0.00667  -0.00009
  14       14S         -0.33968  -0.17111  -0.16857  -0.00254
  15       15S          0.25138   0.12606   0.12532   0.00073
  16       16S          1.41189   0.70952   0.70237   0.00716
  17       17S          0.62655   0.30879   0.31776  -0.00897
  18       18S          0.42966   0.25999   0.16967   0.09033
  19       19S          0.62585   0.47620   0.14965   0.32655
  20       20S          0.16392   0.14301   0.02091   0.12210
  21       21S          0.03725   0.01909   0.01816   0.00093
  22       22S          0.00088  -0.00029   0.00117  -0.00146
  23       23S         -0.00363  -0.00185  -0.00178  -0.00007
  24       24PX         0.00000   0.00000   0.00000   0.00000
  25       24PY         0.00000   0.00000   0.00000  -0.00000
  26       24PZ         0.00000   0.00000   0.00000   0.00000
  27       25PX        -0.00000  -0.00000  -0.00000  -0.00000
  28       25PY        -0.00000  -0.00000  -0.00000  -0.00000
  29       25PZ        -0.00000  -0.00000  -0.00000  -0.00000
  30       26PX         0.00000   0.00000   0.00000   0.00000
  31       26PY         0.00000   0.00000   0.00000   0.00000
  32       26PZ         0.00000   0.00000   0.00000   0.00000
  33       27PX        -0.00000  -0.00000  -0.00000  -0.00000
  34       27PY        -0.00000  -0.00000  -0.00000   0.00000
  35       27PZ        -0.00000  -0.00000  -0.00000  -0.00000
  36       28PX         0.00000   0.00000   0.00000   0.00000
  37       28PY         0.00000   0.00000   0.00000   0.00000
  38       28PZ         0.00000   0.00000   0.00000   0.00000
  39       29PX        -0.00002  -0.00001  -0.00001  -0.00000
  40       29PY        -0.00002  -0.00001  -0.00001  -0.00000
  41       29PZ        -0.00002  -0.00001  -0.00001  -0.00000
  42       30PX         0.00067   0.00034   0.00034   0.00000
  43       30PY         0.00067   0.00034   0.00034   0.00000
  44       30PZ         0.00069   0.00035   0.00034   0.00001
  45       31PX        -0.00839  -0.00419  -0.00419  -0.00000
  46       31PY        -0.00839  -0.00419  -0.00419  -0.00000
  47       31PZ        -0.00860  -0.00435  -0.00425  -0.00010
  48       32PX        -0.03351  -0.01676  -0.01676  -0.00000
  49       32PY        -0.03351  -0.01676  -0.01676  -0.00000
  50       32PZ        -0.03491  -0.01760  -0.01731  -0.00029
  51       33PX         0.15770   0.07885   0.07885   0.00000
  52       33PY         0.15770   0.07885   0.07885   0.00000
  53       33PZ         0.15619   0.07954   0.07665   0.00288
  54       34PX         0.58383   0.29191   0.29191   0.00000
  55       34PY         0.58383   0.29191   0.29191   0.00000
  56       34PZ         0.60280   0.30352   0.29928   0.00424
  57       35PX         0.74791   0.37395   0.37395   0.00000
  58       35PY         0.74791   0.37395   0.37395   0.00000
  59       35PZ         0.79271   0.39653   0.39618   0.00036
  60       36PX         0.45635   0.22818   0.22818   0.00000
  61       36PY         0.45635   0.22818   0.22818   0.00000
  62       36PZ         0.43420   0.21306   0.22114  -0.00808
  63       37PX         0.03531   0.01766   0.01766   0.00000
  64       37PY         0.03531   0.01766   0.01766   0.00000
  65       37PZ         0.11185   0.07756   0.03429   0.04327
  66       38PX        -0.00085  -0.00042  -0.00042  -0.00000
  67       38PY        -0.00085  -0.00042  -0.00042  -0.00000
  68       38PZ         0.32841   0.27809   0.05032   0.22777
  69       39PX         0.00010   0.00005   0.00005   0.00000
  70       39PY         0.00010   0.00005   0.00005   0.00000
  71       39PZ         0.15814   0.15098   0.00716   0.14382
  72       40PX        -0.10117  -0.05058  -0.05058  -0.00000
  73       40PY        -0.10117  -0.05058  -0.05058  -0.00000
  74       40PZ        -0.09911  -0.05054  -0.04857  -0.00197
  75       41PX         0.16206   0.08103   0.08103   0.00000
  76       41PY         0.16206   0.08103   0.08103   0.00000
  77       41PZ         0.12645   0.06510   0.06134   0.00376
  78       42PX        -0.00001  -0.00000  -0.00000  -0.00000
  79       42PY        -0.00001  -0.00000  -0.00000  -0.00000
  80       42PZ         0.00310   0.00313  -0.00003   0.00316
  81       43D 0       -0.00001  -0.00000  -0.00000  -0.00000
  82       43D+1       -0.00001  -0.00000  -0.00000  -0.00000
  83       43D-1       -0.00001  -0.00000  -0.00000  -0.00000
  84       43D+2       -0.00001  -0.00000  -0.00000  -0.00000
  85       43D-2       -0.00001  -0.00000  -0.00000  -0.00000
  86       44D 0        0.00186   0.00094   0.00093   0.00001
  87       44D+1        0.00193   0.00096   0.00096   0.00000
  88       44D-1        0.00193   0.00096   0.00096   0.00000
  89       44D+2        0.00194   0.00097   0.00097   0.00000
  90       44D-2        0.00194   0.00097   0.00097   0.00000
  91       45D 0        0.05422   0.02725   0.02696   0.00029
  92       45D+1        0.05627   0.02814   0.02814   0.00000
  93       45D-1        0.05627   0.02814   0.02814   0.00000
  94       45D+2        0.05663   0.02831   0.02831   0.00000
  95       45D-2        0.05663   0.02831   0.02831   0.00000
  96       46D 0        0.26847   0.13493   0.13353   0.00140
  97       46D+1        0.27564   0.13782   0.13782   0.00000
  98       46D-1        0.27564   0.13782   0.13782   0.00000
  99       46D+2        0.27674   0.13837   0.13837   0.00000
 100       46D-2        0.27674   0.13837   0.13837   0.00000
 101       47D 0        0.64858   0.32559   0.32299   0.00261
 102       47D+1        0.60820   0.30410   0.30410   0.00000
 103       47D-1        0.60820   0.30410   0.30410   0.00000
 104       47D+2        0.60003   0.30002   0.30002   0.00000
 105       47D-2        0.60003   0.30002   0.30002   0.00000
 106       48D 0        0.63153   0.31711   0.31441   0.00270
 107       48D+1        0.64214   0.32107   0.32107   0.00000
 108       48D-1        0.64214   0.32107   0.32107   0.00000
 109       48D+2        0.64393   0.32196   0.32196   0.00000
 110       48D-2        0.64393   0.32196   0.32196   0.00000
 111       49D 0        0.38538   0.19300   0.19238   0.00062
 112       49D+1        0.39029   0.19514   0.19514   0.00000
 113       49D-1        0.39029   0.19514   0.19514   0.00000
 114       49D+2        0.38986   0.19493   0.19493   0.00000
 115       49D-2        0.38986   0.19493   0.19493   0.00000
 116       50D 0        0.07579   0.03703   0.03876  -0.00173
 117       50D+1        0.08016   0.04008   0.04008   0.00000
 118       50D-1        0.08016   0.04008   0.04008   0.00000
 119       50D+2        0.07942   0.03971   0.03971   0.00000
 120       50D-2        0.07942   0.03971   0.03971   0.00000
 121       51D 0       -0.02337  -0.01171  -0.01165  -0.00006
 122       51D+1       -0.01920  -0.00960  -0.00960  -0.00000
 123       51D-1       -0.01920  -0.00960  -0.00960  -0.00000
 124       51D+2       -0.01825  -0.00912  -0.00912  -0.00000
 125       51D-2       -0.01825  -0.00912  -0.00912  -0.00000
 126       52D 0       -0.10113  -0.05047  -0.05067   0.00020
 127       52D+1       -0.04224  -0.02112  -0.02112  -0.00000
 128       52D-1       -0.04224  -0.02112  -0.02112  -0.00000
 129       52D+2       -0.03119  -0.01559  -0.01559  -0.00000
 130       52D-2       -0.03119  -0.01559  -0.01559  -0.00000
 131       53D 0        0.00277   0.00033   0.00244  -0.00211
 132       53D+1        0.00102   0.00051   0.00051   0.00000
 133       53D-1        0.00102   0.00051   0.00051   0.00000
 134       53D+2        0.00099   0.00050   0.00050   0.00000
 135       53D-2        0.00099   0.00050   0.00050   0.00000
 136       54F 0        0.00000   0.00000   0.00000   0.00000
 137       54F+1        0.00000   0.00000   0.00000   0.00000
 138       54F-1        0.00000   0.00000   0.00000   0.00000
 139       54F+2        0.00000   0.00000   0.00000   0.00000
 140       54F-2        0.00000   0.00000   0.00000   0.00000
 141       54F+3        0.00000   0.00000   0.00000   0.00000
 142       54F-3        0.00000   0.00000   0.00000   0.00000
 143       55F 0        0.00001   0.00001   0.00001   0.00000
 144       55F+1       -0.00000  -0.00000  -0.00000   0.00000
 145       55F-1       -0.00000  -0.00000  -0.00000  -0.00000
 146       55F+2        0.00000   0.00000   0.00000   0.00000
 147       55F-2        0.00000   0.00000   0.00000   0.00000
 148       55F+3       -0.00000  -0.00000  -0.00000  -0.00000
 149       55F-3        0.00000   0.00000   0.00000   0.00000
 150       56F 0        0.00033   0.00018   0.00015   0.00003
 151       56F+1        0.00000   0.00000   0.00000   0.00000
 152       56F-1        0.00000   0.00000   0.00000   0.00000
 153       56F+2        0.00000   0.00000   0.00000   0.00000
 154       56F-2        0.00000   0.00000   0.00000   0.00000
 155       56F+3        0.00000   0.00000   0.00000   0.00000
 156       56F-3        0.00000   0.00000   0.00000   0.00000
 157       57F 0        0.00127   0.00070   0.00057   0.00014
 158       57F+1        0.00001   0.00000   0.00000   0.00000
 159       57F-1        0.00001   0.00000   0.00000   0.00000
 160       57F+2        0.00000   0.00000   0.00000  -0.00000
 161       57F-2        0.00000   0.00000   0.00000   0.00000
 162       57F+3        0.00000   0.00000   0.00000   0.00000
 163       57F-3       -0.00000  -0.00000  -0.00000  -0.00000
 164       58G 0        0.00000   0.00000   0.00000   0.00000
 165       58G+1        0.00000   0.00000   0.00000   0.00000
 166       58G-1        0.00000   0.00000   0.00000   0.00000
 167       58G+2        0.00000   0.00000   0.00000   0.00000
 168       58G-2        0.00000   0.00000   0.00000   0.00000
 169       58G+3       -0.00000  -0.00000  -0.00000  -0.00000
 170       58G-3       -0.00000  -0.00000  -0.00000  -0.00000
 171       58G+4        0.00000   0.00000   0.00000   0.00000
 172       58G-4       -0.00000  -0.00000  -0.00000  -0.00000
 173       59G 0        0.00000   0.00000   0.00000   0.00000
 174       59G+1       -0.00000  -0.00000  -0.00000  -0.00000
 175       59G-1       -0.00000  -0.00000  -0.00000  -0.00000
 176       59G+2       -0.00000  -0.00000  -0.00000  -0.00000
 177       59G-2       -0.00000  -0.00000  -0.00000  -0.00000
 178       59G+3       -0.00000  -0.00000  -0.00000  -0.00000
 179       59G-3       -0.00000  -0.00000  -0.00000  -0.00000
 180       59G+4       -0.00000  -0.00000  -0.00000  -0.00000
 181       59G-4        0.00000   0.00000   0.00000   0.00000
 182       60G 0        0.00002   0.00001   0.00001   0.00000
 183       60G+1        0.00000   0.00000   0.00000   0.00000
 184       60G-1        0.00000   0.00000   0.00000   0.00000
 185       60G+2        0.00000   0.00000   0.00000   0.00000
 186       60G-2        0.00000   0.00000   0.00000   0.00000
 187       60G+3        0.00000   0.00000   0.00000   0.00000
 188       60G-3       -0.00000  -0.00000  -0.00000  -0.00000
 189       60G+4        0.00000   0.00000   0.00000   0.00000
 190       60G-4       -0.00000  -0.00000  -0.00000  -0.00000
 191 2   H  1S          0.00090   0.00048   0.00042   0.00006
 192        2S          0.03033   0.01611   0.01422   0.00189
 193        3S          0.23269   0.12312   0.10957   0.01355
 194        4S          0.66643   0.35375   0.31268   0.04107
 195        5S          0.35069   0.17610   0.17459   0.00151
 196        6S          0.00976   0.00638   0.00338   0.00299
 197        7PX         0.00120   0.00060   0.00060   0.00000
 198        7PY         0.00120   0.00060   0.00060   0.00000
 199        7PZ         0.00445   0.00223   0.00221   0.00002
 200        8PX         0.00264   0.00132   0.00132   0.00000
 201        8PY         0.00264   0.00132   0.00132   0.00000
 202        8PZ         0.00480   0.00116   0.00364  -0.00248
 203        9PX         0.00082   0.00041   0.00041   0.00000
 204        9PY         0.00082   0.00041   0.00041   0.00000
 205        9PZ        -0.01431  -0.01510   0.00079  -0.01588
 206       10D 0        0.00118   0.00057   0.00061  -0.00004
 207       10D+1        0.00091   0.00045   0.00045   0.00000
 208       10D-1        0.00091   0.00045   0.00045   0.00000
 209       10D+2        0.00009   0.00004   0.00004   0.00000
 210       10D-2        0.00009   0.00004   0.00004   0.00000
 211       11D 0       -0.00062  -0.00046  -0.00015  -0.00031
 212       11D+1        0.00025   0.00013   0.00013   0.00000
 213       11D-1        0.00025   0.00013   0.00013   0.00000
 214       11D+2       -0.00018  -0.00009  -0.00009  -0.00000
 215       11D-2       -0.00018  -0.00009  -0.00009  -0.00000
          Condensed to atoms (all electrons):
               1          2
     1  Zn  19.483554   0.218708
     2  H    0.218708   1.079029
          Atomic-Atomic Spin Densities.
               1          2
     1  Zn   1.141965  -0.184349
     2  H   -0.184349   0.226732
 Mulliken charges and spin densities:
               1          2
     1  Zn   0.297737   0.957616
     2  H   -0.297737   0.042384
 Sum of Mulliken charges =  -0.00000   1.00000
 Mulliken charges and spin densities with hydrogens summed into heavy atoms:
               1          2
     1  Zn  -0.000000   1.000000
 Electronic spatial extent (au):  <R**2>=             41.6411
 Charge=             -0.0000 electrons
 Dipole moment (field-independent basis, Debye):
    X=              0.0000    Y=              0.0000    Z=             -0.2622  Tot=              0.2622
 Quadrupole moment (field-independent basis, Debye-Ang):
   XX=            -14.4376   YY=            -14.4376   ZZ=            -20.5120
   XY=              0.0000   XZ=              0.0000   YZ=              0.0000
 Traceless Quadrupole moment (field-independent basis, Debye-Ang):
   XX=              2.0248   YY=              2.0248   ZZ=             -4.0496
   XY=              0.0000   XZ=              0.0000   YZ=              0.0000
 Octapole moment (field-independent basis, Debye-Ang**2):
  XXX=              0.0000  YYY=              0.0000  ZZZ=             -2.6950  XYY=              0.0000
  XXY=              0.0000  XXZ=             -1.1172  XZZ=              0.0000  YZZ=              0.0000
  YYZ=             -1.1172  XYZ=              0.0000
 Hexadecapole moment (field-independent basis, Debye-Ang**3):
 XXXX=            -20.0862 YYYY=            -20.0862 ZZZZ=            -57.4660 XXXY=              0.0000
 XXXZ=              0.0000 YYYX=              0.0000 YYYZ=              0.0000 ZZZX=              0.0000
 ZZZY=              0.0000 XXYY=             -6.6954 XXZZ=            -12.6526 YYZZ=            -12.6526
 XXYZ=              0.0000 YYXZ=              0.0000 ZZXY=              0.0000
 N-N= 8.819620182000D+00 E-N=-5.749140104564D+02  KE= 1.506740368565D+02
 Symmetry A1   KE= 6.271699145931D+01
 Symmetry A2   KE= 2.182625570398D+01
 Symmetry B1   KE= 3.306539484476D+01
 Symmetry B2   KE= 3.306539484571D+01
 Symmetry A1   SP= 1.000000000000D+00
 Symmetry A2   SP= 3.879948174860D-16
 Symmetry B1   SP= 7.586980568112D-16
 Symmetry B2   SP= 7.556169500245D-16
 Orbital energies and kinetic energies (alpha):
                                 1                 2
   6         O                -0.808630         10.913128
   7         O                -0.808630         10.913128
   8         O                -0.807960         10.855180
   9         O                -0.807960         10.855180
  10         O                -0.489998          1.450035
  11         O                -0.265941          0.581960
  12         V                 0.021644          0.069611
  13         V                 0.021644          0.069611
  14         V                 0.025783          0.040908
  15         V                 0.041554          0.063720
  16         V                 0.077808          0.230635
 Total kinetic energy from orbitals= 1.512559969508D+02
                          Isotropic Fermi Contact Couplings
        Atom                 a.u.       MegaHertz       Gauss      10(-4) cm-1
     1  Zn(67)             0.00001       0.00278       0.00099       0.00093
     2  H(1)               0.02713     121.27706      43.27467      40.45367
 --------------------------------------------------------
       Center         ----  Spin Dipole Couplings  ----
                      3XX-RR        3YY-RR        3ZZ-RR
 --------------------------------------------------------
     1   Atom       -0.029462     -0.029462      0.058924
     2   Atom       -0.005489     -0.005489      0.010978
 --------------------------------------------------------
                        XY            XZ            YZ
 --------------------------------------------------------
     1   Atom        0.000000      0.000000      0.000000
     2   Atom        0.000000      0.000000      0.000000
 --------------------------------------------------------


 ---------------------------------------------------------------------------------
              Anisotropic Spin Dipole Couplings in Principal Axis System
 ---------------------------------------------------------------------------------

       Atom             a.u.   MegaHertz   Gauss  10(-4) cm-1        Axes

              Baa    -0.0295    -0.986    -0.352    -0.329  1.0000  0.0000  0.0000
     1 Zn(67) Bbb    -0.0295    -0.986    -0.352    -0.329 -0.0000  1.0000  0.0000
              Bcc     0.0589     1.971     0.703     0.657  0.0000  0.0000  1.0000
 
              Baa    -0.0055    -2.929    -1.045    -0.977  1.0000  0.0000  0.0000
     2 H(1)   Bbb    -0.0055    -2.929    -1.045    -0.977 -0.0000  1.0000  0.0000
              Bcc     0.0110     5.857     2.090     1.954  0.0000  0.0000  1.0000
 

 ---------------------------------------------------------------------------------

 No NMR shielding tensors so no spin-rotation constants.
 Leave Link  601 at Sat Apr 21 10:58:44 2018, MaxMem= 10737418240 cpu:              89.4 elap:               2.9
 (Enter /home1/apps/gaussian/16rA.03/g16/l9999.exe)

 Test job not archived.
 1\1\GINC-C427-081\SP\ROCCSD(T)-Full\Gen\H1Zn1(2)\GWANG18\21-Apr-2018\0
 \\#P ROCCSD(T)=(MaxCyc=150, Full)/Gen SCF=(maxcycle=400, vshift=200) P
 seudo=Read Integral(NoXCTest) Pop=Regular MaxDisk=500GB Guess=Read IOp
 (5/15=2)\\ZnH\\0,2\Zn,0,0.,0.,0.\H,0,0.,0.,1.2\\Version=ES64L-G16RevA.
 03\State=2-SG\HF=-225.7417384\MP2=-226.7863993\MP3=-226.6549724\PUHF=-
 225.7417384\PMP2-0=-226.7863993\MP4SDQ=-226.7378706\CCSD=-226.7055687\
 CCSD(T)=-226.7328042\RMSD=6.107e-09\PG=C*V [C*(H1Zn1)]\\@


 WORK FAITHFULLY FOR EIGHT HOURS A DAY AND DON'T WORRY.
 IN TIME YOU MAY BECOME BOSS AND WORK TWELVE HOURS A DAY
 AND HAVE ALL THE WORRY.
 Job cpu time:       0 days  8 hours 25 minutes 47.0 seconds.
 Elapsed time:       0 days  0 hours 15 minutes 53.4 seconds.
 File lengths (MBytes):  RWF=   3417 Int=      0 D2E=      0 Chk=      6 Scr=      1
 Normal termination of Gaussian 16 at Sat Apr 21 10:58:45 2018.
