 Entering Gaussian System, Link 0=g16
 Initial command:
 /home1/apps/gaussian/16rA.03/g16/l1.exe "/tmp/Gau-120775.inp" -scrdir="/tmp/"
 Entering Link 1 = /home1/apps/gaussian/16rA.03/g16/l1.exe PID=    120776.
  
 Copyright (c) 1988,1990,1992,1993,1995,1998,2003,2009,2016,
            Gaussian, Inc.  All Rights Reserved.
  
 This is part of the Gaussian(R) 16 program.  It is based on
 the Gaussian(R) 09 system (copyright 2009, Gaussian, Inc.),
 the Gaussian(R) 03 system (copyright 2003, Gaussian, Inc.),
 the Gaussian(R) 98 system (copyright 1998, Gaussian, Inc.),
 the Gaussian(R) 94 system (copyright 1995, Gaussian, Inc.),
 the Gaussian 92(TM) system (copyright 1992, Gaussian, Inc.),
 the Gaussian 90(TM) system (copyright 1990, Gaussian, Inc.),
 the Gaussian 88(TM) system (copyright 1988, Gaussian, Inc.),
 the Gaussian 86(TM) system (copyright 1986, Carnegie Mellon
 University), and the Gaussian 82(TM) system (copyright 1983,
 Carnegie Mellon University). Gaussian is a federally registered
 trademark of Gaussian, Inc.
  
 This software contains proprietary and confidential information,
 including trade secrets, belonging to Gaussian, Inc.
  
 This software is provided under written license and may be
 used, copied, transmitted, or stored only in accord with that
 written license.
  
 The following legend is applicable only to US Government
 contracts under FAR:
  
                    RESTRICTED RIGHTS LEGEND
  
 Use, reproduction and disclosure by the US Government is
 subject to restrictions as set forth in subparagraphs (a)
 and (c) of the Commercial Computer Software - Restricted
 Rights clause in FAR 52.227-19.
  
 Gaussian, Inc.
 340 Quinnipiac St., Bldg. 40, Wallingford CT 06492
  
  
 ---------------------------------------------------------------
 Warning -- This program may not be used in any manner that
 competes with the business of Gaussian, Inc. or will provide
 assistance to any competitor of Gaussian, Inc.  The licensee
 of this program is prohibited from giving any competitor of
 Gaussian, Inc. access to this program.  By using this program,
 the user acknowledges that Gaussian, Inc. is engaged in the
 business of creating and licensing software in the field of
 computational chemistry and represents and warrants to the
 licensee that it is not a competitor of Gaussian, Inc. and that
 it will not use this program in any manner prohibited above.
 ---------------------------------------------------------------
  

 Cite this work as:
 Gaussian 16, Revision A.03,
 M. J. Frisch, G. W. Trucks, H. B. Schlegel, G. E. Scuseria, 
 M. A. Robb, J. R. Cheeseman, G. Scalmani, V. Barone, 
 G. A. Petersson, H. Nakatsuji, X. Li, M. Caricato, A. V. Marenich, 
 J. Bloino, B. G. Janesko, R. Gomperts, B. Mennucci, H. P. Hratchian, 
 J. V. Ortiz, A. F. Izmaylov, J. L. Sonnenberg, D. Williams-Young, 
 F. Ding, F. Lipparini, F. Egidi, J. Goings, B. Peng, A. Petrone, 
 T. Henderson, D. Ranasinghe, V. G. Zakrzewski, J. Gao, N. Rega, 
 G. Zheng, W. Liang, M. Hada, M. Ehara, K. Toyota, R. Fukuda, 
 J. Hasegawa, M. Ishida, T. Nakajima, Y. Honda, O. Kitao, H. Nakai, 
 T. Vreven, K. Throssell, J. A. Montgomery, Jr., J. E. Peralta, 
 F. Ogliaro, M. J. Bearpark, J. J. Heyd, E. N. Brothers, K. N. Kudin, 
 V. N. Staroverov, T. A. Keith, R. Kobayashi, J. Normand, 
 K. Raghavachari, A. P. Rendell, J. C. Burant, S. S. Iyengar, 
 J. Tomasi, M. Cossi, J. M. Millam, M. Klene, C. Adamo, R. Cammi, 
 J. W. Ochterski, R. L. Martin, K. Morokuma, O. Farkas, 
 J. B. Foresman, and D. J. Fox, Gaussian, Inc., Wallingford CT, 2016.
 
 ******************************************
 Gaussian 16:  ES64L-G16RevA.03 25-Dec-2016
                25-Mar-2018 
 ******************************************
 %mem=80GB
 %cpu=0-31
 SetSPE:  set environment variable "MP_BIND" = "yes"
 SetSPE:  set environment variable "MP_BLIST" = "0,1,2,3,4,5,6,7,8,9,10,11,12,13,14,15,16,17,18,19,20,21,22,23,24,25,26,27,28,29,30,31"
 Will use up to   32 processors via shared memory.
 %chk=qz.chk
 %rwf=/scratch/04843/gwang18/feo/
 ----------------------------------------------------------------------
 #P ROCCSD(T)=(MaxCyc=150, Full)/Gen SCF=(maxcycle=400) Pseudo=Read Int
 egral(NoXCTest) Pop=Regular MaxDisk=500GB
 ----------------------------------------------------------------------
 1/38=1,172=1/1;
 2/12=2,17=6,18=5,40=1/2;
 3/5=7,11=2,16=1,17=8,25=1,30=1,47=8,116=101/1,2,3;
 4//1;
 5/5=2,7=400,38=5/2;
 8/5=-1,6=4,9=120000,10=90/1,4;
 9/5=7,6=150,14=2/13;
 6//1;
 99/5=1,9=1/99;
 Leave Link    1 at Sun Mar 25 07:17:05 2018, MaxMem= 10737418240 cpu:               7.7 elap:               0.3
 (Enter /home1/apps/gaussian/16rA.03/g16/l101.exe)
 ---
 FeO
 ---
 Symbolic Z-matrix:
 Charge =  0 Multiplicity = 5
 Fe                    0.        0.        0. 
 O                     0.        0.        1.2 
 
 ITRead=  0  0
 MicOpt= -1 -1
 NAtoms=      2 NQM=        2 NQMF=       0 NMMI=      0 NMMIF=      0
                NMic=       0 NMicF=      0.
                    Isotopes and Nuclear Properties:
 (Nuclear quadrupole moments (NQMom) in fm**2, nuclear magnetic moments (NMagM)
  in nuclear magnetons)

  Atom         1           2
 IAtWgt=          56          16
 AtmWgt=  55.9349393  15.9949146
 NucSpn=           0           0
 AtZEff=  -0.0000000  -0.0000000
 NQMom=    0.0000000   0.0000000
 NMagM=    0.0000000   0.0000000
 AtZNuc=  26.0000000   8.0000000
 Leave Link  101 at Sun Mar 25 07:17:05 2018, MaxMem= 10737418240 cpu:               3.1 elap:               0.1
 (Enter /home1/apps/gaussian/16rA.03/g16/l202.exe)
                          Input orientation:                          
 ---------------------------------------------------------------------
 Center     Atomic      Atomic             Coordinates (Angstroms)
 Number     Number       Type             X           Y           Z
 ---------------------------------------------------------------------
      1         26           0        0.000000    0.000000    0.000000
      2          8           0        0.000000    0.000000    1.200000
 ---------------------------------------------------------------------
 Stoichiometry    FeO(5)
 Framework group  C*V[C*(OFe)]
 Deg. of freedom     1
 Full point group                 C*V     NOp   4
 Largest Abelian subgroup         C2V     NOp   4
 Largest concise Abelian subgroup C1      NOp   1
                         Standard orientation:                         
 ---------------------------------------------------------------------
 Center     Atomic      Atomic             Coordinates (Angstroms)
 Number     Number       Type             X           Y           Z
 ---------------------------------------------------------------------
      1         26           0        0.000000    0.000000    0.282353
      2          8           0        0.000000    0.000000   -0.917647
 ---------------------------------------------------------------------
 Rotational constants (GHZ):           0.0000000          28.2162171          28.2162171
 Leave Link  202 at Sun Mar 25 07:17:05 2018, MaxMem= 10737418240 cpu:               0.7 elap:               0.1
 (Enter /home1/apps/gaussian/16rA.03/g16/l301.exe)
 General basis read from cards:  (5D, 7F)
 Centers:       1
 S 1 1.00
     Exponent=  1.3277140000D+07 Coefficients=  1.0000000000D+00
 S 1 1.00
     Exponent=  1.9878880000D+06 Coefficients=  1.0000000000D+00
 S 1 1.00
     Exponent=  4.5238710000D+05 Coefficients=  1.0000000000D+00
 S 1 1.00
     Exponent=  1.2814370000D+05 Coefficients=  1.0000000000D+00
 S 1 1.00
     Exponent=  4.1809170000D+04 Coefficients=  1.0000000000D+00
 S 1 1.00
     Exponent=  1.5095330000D+04 Coefficients=  1.0000000000D+00
 S 1 1.00
     Exponent=  5.8884380000D+03 Coefficients=  1.0000000000D+00
 S 1 1.00
     Exponent=  2.4428760000D+03 Coefficients=  1.0000000000D+00
 S 1 1.00
     Exponent=  1.0658570000D+03 Coefficients=  1.0000000000D+00
 S 1 1.00
     Exponent=  4.8490960000D+02 Coefficients=  1.0000000000D+00
 S 1 1.00
     Exponent=  2.2845850000D+02 Coefficients=  1.0000000000D+00
 S 1 1.00
     Exponent=  1.1074530000D+02 Coefficients=  1.0000000000D+00
 S 1 1.00
     Exponent=  5.4431160000D+01 Coefficients=  1.0000000000D+00
 S 1 1.00
     Exponent=  2.5010960000D+01 Coefficients=  1.0000000000D+00
 S 1 1.00
     Exponent=  1.2592620000D+01 Coefficients=  1.0000000000D+00
 S 1 1.00
     Exponent=  6.3232020000D+00 Coefficients=  1.0000000000D+00
 S 1 1.00
     Exponent=  2.8833840000D+00 Coefficients=  1.0000000000D+00
 S 1 1.00
     Exponent=  1.3828680000D+00 Coefficients=  1.0000000000D+00
 S 1 1.00
     Exponent=  6.3220100000D-01 Coefficients=  1.0000000000D+00
 S 1 1.00
     Exponent=  1.4923800000D-01 Coefficients=  1.0000000000D+00
 S 1 1.00
     Exponent=  6.8494000000D-02 Coefficients=  1.0000000000D+00
 S 1 1.00
     Exponent=  3.0381000000D-02 Coefficients=  1.0000000000D+00
 S 1 1.00
     Exponent=  5.7900000000D+00 Coefficients=  1.0000000000D+00
 S 1 1.00
     Exponent=  1.7335000000D+00 Coefficients=  1.0000000000D+00
 S 1 1.00
     Exponent=  1.3480000000D-02 Coefficients=  1.0000000000D+00
 P 1 1.00
     Exponent=  3.8282050000D+04 Coefficients=  1.0000000000D+00
 P 1 1.00
     Exponent=  9.0615560000D+03 Coefficients=  1.0000000000D+00
 P 1 1.00
     Exponent=  2.9444500000D+03 Coefficients=  1.0000000000D+00
 P 1 1.00
     Exponent=  1.1281580000D+03 Coefficients=  1.0000000000D+00
 P 1 1.00
     Exponent=  4.8033800000D+02 Coefficients=  1.0000000000D+00
 P 1 1.00
     Exponent=  2.2013680000D+02 Coefficients=  1.0000000000D+00
 P 1 1.00
     Exponent=  1.0654820000D+02 Coefficients=  1.0000000000D+00
 P 1 1.00
     Exponent=  5.3742620000D+01 Coefficients=  1.0000000000D+00
 P 1 1.00
     Exponent=  2.7863180000D+01 Coefficients=  1.0000000000D+00
 P 1 1.00
     Exponent=  1.4743820000D+01 Coefficients=  1.0000000000D+00
 P 1 1.00
     Exponent=  7.8933510000D+00 Coefficients=  1.0000000000D+00
 P 1 1.00
     Exponent=  4.1794970000D+00 Coefficients=  1.0000000000D+00
 P 1 1.00
     Exponent=  2.1656690000D+00 Coefficients=  1.0000000000D+00
 P 1 1.00
     Exponent=  1.0972400000D+00 Coefficients=  1.0000000000D+00
 P 1 1.00
     Exponent=  5.3608500000D-01 Coefficients=  1.0000000000D+00
 P 1 1.00
     Exponent=  2.0245300000D-01 Coefficients=  1.0000000000D+00
 P 1 1.00
     Exponent=  8.1695000000D-02 Coefficients=  1.0000000000D+00
 P 1 1.00
     Exponent=  3.2614000000D-02 Coefficients=  1.0000000000D+00
 P 1 1.00
     Exponent=  8.3687000000D+00 Coefficients=  1.0000000000D+00
 P 1 1.00
     Exponent=  2.2601000000D+00 Coefficients=  1.0000000000D+00
 P 1 1.00
     Exponent=  1.3020000000D-02 Coefficients=  1.0000000000D+00
 D 1 1.00
     Exponent=  3.5099500000D+02 Coefficients=  1.0000000000D+00
 D 1 1.00
     Exponent=  1.0366700000D+02 Coefficients=  1.0000000000D+00
 D 1 1.00
     Exponent=  3.9704300000D+01 Coefficients=  1.0000000000D+00
 D 1 1.00
     Exponent=  1.7031000000D+01 Coefficients=  1.0000000000D+00
 D 1 1.00
     Exponent=  7.7890200000D+00 Coefficients=  1.0000000000D+00
 D 1 1.00
     Exponent=  3.6995500000D+00 Coefficients=  1.0000000000D+00
 D 1 1.00
     Exponent=  1.7553200000D+00 Coefficients=  1.0000000000D+00
 D 1 1.00
     Exponent=  8.1284500000D-01 Coefficients=  1.0000000000D+00
 D 1 1.00
     Exponent=  3.6144100000D-01 Coefficients=  1.0000000000D+00
 D 1 1.00
     Exponent=  1.5134600000D-01 Coefficients=  1.0000000000D+00
 D 1 1.00
     Exponent=  5.7513000000D-02 Coefficients=  1.0000000000D+00
 D 1 1.00
     Exponent=  5.4967000000D+00 Coefficients=  1.0000000000D+00
 D 1 1.00
     Exponent=  2.8925000000D+00 Coefficients=  1.0000000000D+00
 D 1 1.00
     Exponent=  2.1860000000D-02 Coefficients=  1.0000000000D+00
 F 1 1.00
     Exponent=  7.7828000000D+00 Coefficients=  1.0000000000D+00
 F 1 1.00
     Exponent=  3.2584000000D+00 Coefficients=  1.0000000000D+00
 F 1 1.00
     Exponent=  1.3641000000D+00 Coefficients=  1.0000000000D+00
 F 1 1.00
     Exponent=  4.5640000000D-01 Coefficients=  1.0000000000D+00
 F 1 1.00
     Exponent=  1.5270000000D-01 Coefficients=  1.0000000000D+00
 G 1 1.00
     Exponent=  6.3816000000D+00 Coefficients=  1.0000000000D+00
 G 1 1.00
     Exponent=  2.7717000000D+00 Coefficients=  1.0000000000D+00
 G 1 1.00
     Exponent=  1.0505000000D+00 Coefficients=  1.0000000000D+00
 G 1 1.00
     Exponent=  3.9815000000D-01 Coefficients=  1.0000000000D+00
 H 1 1.00
     Exponent=  5.8964000000D+00 Coefficients=  1.0000000000D+00
 H 1 1.00
     Exponent=  2.3448000000D+00 Coefficients=  1.0000000000D+00
 H 1 1.00
     Exponent=  9.3245000000D-01 Coefficients=  1.0000000000D+00
 ****
 Centers:       2
 S 1 1.00
     Exponent=  6.1420000000D+04 Coefficients=  1.0000000000D+00
 S 1 1.00
     Exponent=  9.1990000000D+03 Coefficients=  1.0000000000D+00
 S 1 1.00
     Exponent=  2.0910000000D+03 Coefficients=  1.0000000000D+00
 S 1 1.00
     Exponent=  5.9090000000D+02 Coefficients=  1.0000000000D+00
 S 1 1.00
     Exponent=  1.9230000000D+02 Coefficients=  1.0000000000D+00
 S 1 1.00
     Exponent=  6.9320000000D+01 Coefficients=  1.0000000000D+00
 S 1 1.00
     Exponent=  2.6970000000D+01 Coefficients=  1.0000000000D+00
 S 1 1.00
     Exponent=  1.1100000000D+01 Coefficients=  1.0000000000D+00
 S 1 1.00
     Exponent=  4.6820000000D+00 Coefficients=  1.0000000000D+00
 S 1 1.00
     Exponent=  1.4280000000D+00 Coefficients=  1.0000000000D+00
 S 1 1.00
     Exponent=  5.5470000000D-01 Coefficients=  1.0000000000D+00
 S 1 1.00
     Exponent=  2.0670000000D-01 Coefficients=  1.0000000000D+00
 S 1 1.00
     Exponent=  1.2974000000D+01 Coefficients=  1.0000000000D+00
 S 1 1.00
     Exponent=  3.4900000000D+01 Coefficients=  1.0000000000D+00
 S 1 1.00
     Exponent=  9.3881000000D+01 Coefficients=  1.0000000000D+00
 S 1 1.00
     Exponent=  6.9590000000D-02 Coefficients=  1.0000000000D+00
 P 1 1.00
     Exponent=  6.3420000000D+01 Coefficients=  1.0000000000D+00
 P 1 1.00
     Exponent=  1.4660000000D+01 Coefficients=  1.0000000000D+00
 P 1 1.00
     Exponent=  4.4590000000D+00 Coefficients=  1.0000000000D+00
 P 1 1.00
     Exponent=  1.5310000000D+00 Coefficients=  1.0000000000D+00
 P 1 1.00
     Exponent=  5.3020000000D-01 Coefficients=  1.0000000000D+00
 P 1 1.00
     Exponent=  1.7500000000D-01 Coefficients=  1.0000000000D+00
 P 1 1.00
     Exponent=  1.4475000000D+01 Coefficients=  1.0000000000D+00
 P 1 1.00
     Exponent=  4.2730000000D+01 Coefficients=  1.0000000000D+00
 P 1 1.00
     Exponent=  1.2614000000D+02 Coefficients=  1.0000000000D+00
 P 1 1.00
     Exponent=  5.3480000000D-02 Coefficients=  1.0000000000D+00
 D 1 1.00
     Exponent=  3.7750000000D+00 Coefficients=  1.0000000000D+00
 D 1 1.00
     Exponent=  1.3000000000D+00 Coefficients=  1.0000000000D+00
 D 1 1.00
     Exponent=  4.4400000000D-01 Coefficients=  1.0000000000D+00
 D 1 1.00
     Exponent=  1.4927000000D+01 Coefficients=  1.0000000000D+00
 D 1 1.00
     Exponent=  5.7544000000D+01 Coefficients=  1.0000000000D+00
 D 1 1.00
     Exponent=  1.5400000000D-01 Coefficients=  1.0000000000D+00
 F 1 1.00
     Exponent=  2.6660000000D+00 Coefficients=  1.0000000000D+00
 F 1 1.00
     Exponent=  8.5900000000D-01 Coefficients=  1.0000000000D+00
 F 1 1.00
     Exponent=  2.6483000000D+01 Coefficients=  1.0000000000D+00
 F 1 1.00
     Exponent=  3.2400000000D-01 Coefficients=  1.0000000000D+00
 G 1 1.00
     Exponent=  1.8460000000D+00 Coefficients=  1.0000000000D+00
 G 1 1.00
     Exponent=  7.1400000000D-01 Coefficients=  1.0000000000D+00
 ****
 ======================================================================================================
                                       Pseudopotential Parameters
 ======================================================================================================
  Center     Atomic      Valence      Angular      Power
  Number     Number     Electrons     Momentum     of R      Exponent        Coefficient   SO-Coeffient
 ======================================================================================================
    1         26           16
                                      F and up 
                                                     2        1.0000000        0.00000000    0.00000000
                                      S - F
                                                     2       20.9300000      253.74958800    0.00000000
                                                     2        9.4450000       37.92284500    0.00000000
                                      P - F
                                                     2       21.7600000      161.03681200    0.00000000
                                                     2        9.1780000       27.65129800    0.00000000
                                      D - F
                                                     2       25.9000000      -24.43127600    0.00000000
                                                     2        8.8350000       -1.43425100    0.00000000
    2          8            6
                                      F and up 
                                                     2        1.0000000        0.00000000    0.00000000
                                      S - F
                                                     2       12.9686000       73.60860000    0.00000000
                                      P - F
                                                     2       15.2430000       -3.91720000    0.00000000
                                      D - F
                                                     2        9.6172000       -0.65590000    0.00000000
 ======================================================================================================
 Ernie: Thresh=  0.10000D-02 Tol=  0.10000D-05 Strict=F.
 There are   213 symmetry adapted cartesian basis functions of A1  symmetry.
 There are    56 symmetry adapted cartesian basis functions of A2  symmetry.
 There are   114 symmetry adapted cartesian basis functions of B1  symmetry.
 There are   114 symmetry adapted cartesian basis functions of B2  symmetry.
 There are   157 symmetry adapted basis functions of A1  symmetry.
 There are    47 symmetry adapted basis functions of A2  symmetry.
 There are    90 symmetry adapted basis functions of B1  symmetry.
 There are    90 symmetry adapted basis functions of B2  symmetry.
   384 basis functions,   497 primitive gaussians,   497 cartesian basis functions
    13 alpha electrons        9 beta electrons
       nuclear repulsion energy        42.3341768736 Hartrees.
 IExCor=    0 DFT=F Ex=HF Corr=None ExCW=0 ScaHFX=  1.000000
 ScaDFX=  1.000000  1.000000  1.000000  1.000000 ScalE2=  1.000000  1.000000
 IRadAn=      5 IRanWt=     -1 IRanGd=            0 ICorTp=0 IEmpDi=  4
 NAtoms=    2 NActive=    2 NUniq=    2 SFac= 1.00D+00 NAtFMM=   60 NAOKFM=F Big=F
 Integral buffers will be    131072 words long.
 Raffenetti 2 integral format.
 Two-electron integral symmetry is turned on.
 Leave Link  301 at Sun Mar 25 07:17:06 2018, MaxMem= 10737418240 cpu:               9.6 elap:               0.3
 (Enter /home1/apps/gaussian/16rA.03/g16/l302.exe)
 NPDir=0 NMtPBC=     1 NCelOv=     1 NCel=       1 NClECP=     1 NCelD=      1
         NCelK=      1 NCelE2=     1 NClLst=     1 CellRange=     0.0.
 One-electron integrals computed using PRISM.
 One-electron integral symmetry used in STVInt
   4 Symmetry operations used in ECPInt.
 ECPInt:  NShTT=    6105 NPrTT=    6105 LenC2=    5680 LenP2D=    5679.
 LDataN:  DoStor=T MaxTD1=10 Len=  848
 NBasis=   384 RedAO= T EigKep=  1.37D-06  NBF=   157    47    90    90
 NBsUse=   380 1.00D-06 EigRej=  4.04D-07 NBFU=   155    47    89    89
 Leave Link  302 at Sun Mar 25 07:17:10 2018, MaxMem= 10737418240 cpu:             127.0 elap:               4.0
 (Enter /home1/apps/gaussian/16rA.03/g16/l303.exe)
 DipDrv:  MaxL=1.
 Leave Link  303 at Sun Mar 25 07:17:10 2018, MaxMem= 10737418240 cpu:               3.9 elap:               0.2
 (Enter /home1/apps/gaussian/16rA.03/g16/l401.exe)
 ExpMin= 1.30D-02 ExpMax= 1.33D+07 ExpMxC= 1.33D+07 IAcc=4 IRadAn=    399590 AccDes= 0.00D+00
 Harris functional with IExCor=  205 and IRadAn=  399590 diagonalized for initial guess.
 HarFok:  IExCor=  205 AccDes= 0.00D+00 IRadAn=    399590 IDoV= 1 UseB2=F ITyADJ=14
 ICtDFT=  3500011 ScaDFX=  1.000000  1.000000  1.000000  1.000000
 FoFCou: FMM=F IPFlag=           8 FMFlag=      100000 FMFlg1=           0
         NFxFlg=           0 DoJE=T BraDBF=F KetDBF=T FulRan=T
         wScrn=  0.000000 ICntrl=       500 IOpCl=  0 I1Cent=   200000004 NGrid=           0
         NMat0=    1 NMatS0=      1 NMatT0=    0 NMatD0=    1 NMtDS0=    0 NMtDT0=    0
 Petite list used in FoFCou.
 Harris En= -139.952095874555    
 JPrj=0 DoOrth=F DoCkMO=F.
 Initial guess orbital symmetries:
       Occupied  (SG) (SG) (PI) (PI) (SG) (PI) (PI) (SG) (DLTA)
                 (DLTA) (SG) (PI) (PI)
       Virtual   (SG) (PI) (PI) (SG) (SG) (PI) (PI) (DLTA) (DLTA)
                 (PI) (PI) (SG) (SG) (SG) (PI) (PI) (SG) (PI) (PI)
                 (DLTA) (DLTA) (SG) (PI) (PI) (SG) (SG) (DLTA)
                 (DLTA) (SG) (PI) (PI) (PHI) (PHI) (DLTA) (DLTA)
                 (SG) (PI) (PI) (PI) (PI) (SG) (DLTA) (DLTA) (PI)
                 (PI) (SG) (SG) (PI) (PI) (SG) (DLTA) (DLTA) (PHI)
                 (PHI) (SG) (PI) (PI) (SG) (DLTA) (DLTA) (PI) (PI)
                 (DLTA) (DLTA) (SG) (PHI) (PHI) (SG) (PI) (PI)
                 (?A) (?A) (DLTA) (DLTA) (PI) (PI) (PHI) (PHI)
                 (SG) (PI) (PI) (SG) (PI) (PI) (SG) (DLTA) (DLTA)
                 (SG) (DLTA) (DLTA) (PI) (PI) (?A) (?A) (PI) (PI)
                 (SG) (PHI) (PHI) (SG) (DLTA) (DLTA) (SG) (PI)
                 (PI) (PHI) (PHI) (DLTA) (DLTA) (SG) (PI) (PI)
                 (PI) (PI) (SG) (PHI) (PHI) (DLTA) (DLTA) (DLTA)
                 (DLTA) (?A) (?A) (?B) (?B) (SG) (PHI) (PHI) (PI)
                 (PI) (?A) (?A) (SG) (PI) (PI) (DLTA) (DLTA) (SG)
                 (PHI) (PHI) (PI) (PI) (DLTA) (DLTA) (SG) (PI)
                 (PI) (SG) (SG) (DLTA) (DLTA) (PI) (PI) (SG) (PI)
                 (PI) (SG) (?A) (?A) (PHI) (PHI) (DLTA) (DLTA)
                 (PI) (PI) (SG) (PHI) (PHI) (PHI) (PHI) (SG) (DLTA)
                 (DLTA) (DLTA) (DLTA) (PI) (PI) (PI) (PI) (DLTA)
                 (DLTA) (SG) (PI) (PI) (?A) (?A) (PHI) (PHI) (SG)
                 (SG) (DLTA) (DLTA) (PI) (PI) (?B) (?B) (?A) (?A)
                 (PI) (PI) (PHI) (PHI) (SG) (DLTA) (DLTA) (DLTA)
                 (DLTA) (PI) (PI) (SG) (PI) (PI) (SG) (SG) (SG)
                 (PI) (PI) (SG) (DLTA) (DLTA) (PI) (PI) (PI) (PI)
                 (SG) (SG) (PHI) (PHI) (DLTA) (DLTA) (PI) (PI)
                 (SG) (?A) (?A) (PHI) (PHI) (DLTA) (DLTA) (SG)
                 (PI) (PI) (SG) (?B) (?B) (?A) (?A) (PHI) (PHI)
                 (DLTA) (DLTA) (PI) (PI) (SG) (SG) (DLTA) (DLTA)
                 (PI) (PI) (DLTA) (DLTA) (SG) (PI) (PI) (SG) (PI)
                 (PI) (SG) (SG) (PI) (PI) (SG) (SG) (DLTA) (DLTA)
                 (PI) (PI) (SG) (PI) (PI) (SG) (PHI) (PHI) (DLTA)
                 (DLTA) (PI) (PI) (SG) (SG) (SG) (PI) (PI) (SG)
                 (DLTA) (DLTA) (PI) (PI) (SG) (PI) (PI) (SG) (SG)
                 (DLTA) (DLTA) (PI) (PI) (SG) (SG) (PI) (PI) (SG)
                 (PI) (PI) (SG) (SG) (DLTA) (DLTA) (PI) (PI) (SG)
                 (SG) (PI) (PI) (SG) (SG) (PI) (PI) (SG) (SG) (SG)
                 (PI) (PI) (SG) (DLTA) (DLTA) (PI) (PI) (SG) (SG)
                 (PI) (PI) (SG) (SG) (SG) (PI) (PI) (SG) (SG) (SG)
                 (PI) (PI) (SG) (SG) (SG) (PI) (PI) (SG) (SG) (PI)
                 (PI) (SG) (SG) (SG) (SG) (SG) (SG) (SG)
 Leave Link  401 at Sun Mar 25 07:17:13 2018, MaxMem= 10737418240 cpu:              73.7 elap:               2.4
 (Enter /home1/apps/gaussian/16rA.03/g16/l502.exe)
 Keep R1 and R2 ints in memory in symmetry-blocked form, NReq=3425113631.
 FoFCou: FMM=F IPFlag=           8 FMFlag=           0 FMFlg1=           0
         NFxFlg=           0 DoJE=F BraDBF=F KetDBF=F FulRan=T
         wScrn=  0.000000 ICntrl=       600 IOpCl=  0 I1Cent=           0 NGrid=           0
         NMat0=    1 NMatS0=  73920 NMatT0=    0 NMatD0=    1 NMtDS0=    0 NMtDT0=    0
 Petite list used in FoFCou.
 Restricted open shell SCF:
 Using DIIS extrapolation, IDIIS=  1040.
 NGot= 10737418240 LenX=  9351085953 LenY=  9350838447
 Requested convergence on RMS density matrix=1.00D-08 within 400 cycles.
 Requested convergence on MAX density matrix=1.00D-06.
 Requested convergence on             energy=1.00D-06.
 No special actions if energy rises.

 Cycle   1  Pass 1  IDiag  1:
 E= -138.399034301294    
 DIIS: error= 4.63D-02 at cycle   1 NSaved=   1.
 NSaved= 1 IEnMin= 1 EnMin= -138.399034301294     IErMin= 1 ErrMin= 4.63D-02
 ErrMax= 4.63D-02  0.00D+00 EMaxC= 1.00D-01 BMatC= 3.21D-01 BMatP= 3.21D-01
 IDIUse=3 WtCom= 5.37D-01 WtEn= 4.63D-01
 Coeff-Com:  0.100D+01
 Coeff-En:   0.100D+01
 Coeff:      0.100D+01
 Gap=     0.080 Goal=   None    Shift=    0.000
 GapD=    0.080 DampG=0.500 DampE=0.250 DampFc=0.1250 IDamp=-1.
 Damping current iteration by 1.25D-01
 RMSDP=1.42D-03 MaxDP=8.80D-02              OVMax= 4.09D-01

 Cycle   2  Pass 1  IDiag  1:
 E= -138.421880800315     Delta-E=       -0.022846499021 Rises=F Damp=T
 DIIS: error= 3.09D-02 at cycle   2 NSaved=   2.
 NSaved= 2 IEnMin= 2 EnMin= -138.421880800315     IErMin= 2 ErrMin= 3.09D-02
 ErrMax= 3.09D-02  0.00D+00 EMaxC= 1.00D-01 BMatC= 1.83D-01 BMatP= 3.21D-01
 IDIUse=3 WtCom= 6.91D-01 WtEn= 3.09D-01
 Coeff-Com: -0.179D+01 0.279D+01
 Coeff-En:   0.000D+00 0.100D+01
 Coeff:     -0.124D+01 0.224D+01
 Gap=     0.041 Goal=   None    Shift=    0.000
 RMSDP=1.99D-03 MaxDP=2.18D-01 DE=-2.28D-02 OVMax= 5.45D-01

 Cycle   3  Pass 1  IDiag  1:
 E= -138.331227252436     Delta-E=        0.090653547879 Rises=F Damp=F
 DIIS: error= 7.49D-02 at cycle   3 NSaved=   3.
 NSaved= 3 IEnMin= 2 EnMin= -138.421880800315     IErMin= 2 ErrMin= 3.09D-02
 ErrMax= 7.49D-02  0.00D+00 EMaxC= 1.00D-01 BMatC= 2.22D-01 BMatP= 1.83D-01
 IDIUse=2 WtCom= 0.00D+00 WtEn= 1.00D+00
 Coeff-En:   0.000D+00 0.647D+00 0.353D+00
 Coeff:      0.000D+00 0.647D+00 0.353D+00
 Gap=     0.085 Goal=   None    Shift=    0.000
 RMSDP=2.02D-03 MaxDP=1.07D-01 DE= 9.07D-02 OVMax= 4.74D-01

 Cycle   4  Pass 1  IDiag  1:
 E= -138.469786299708     Delta-E=       -0.138559047272 Rises=F Damp=F
 DIIS: error= 3.59D-02 at cycle   4 NSaved=   4.
 NSaved= 4 IEnMin= 4 EnMin= -138.469786299708     IErMin= 2 ErrMin= 3.09D-02
 ErrMax= 3.59D-02  0.00D+00 EMaxC= 1.00D-01 BMatC= 1.32D-01 BMatP= 1.83D-01
 IDIUse=3 WtCom= 6.41D-01 WtEn= 3.59D-01
 Coeff-Com: -0.552D+00 0.915D+00 0.291D+00 0.346D+00
 Coeff-En:   0.000D+00 0.000D+00 0.352D+00 0.648D+00
 Coeff:     -0.354D+00 0.586D+00 0.313D+00 0.455D+00
 Gap=     0.098 Goal=   None    Shift=    0.000
 RMSDP=8.00D-04 MaxDP=5.98D-02 DE=-1.39D-01 OVMax= 1.42D-01

 Cycle   5  Pass 1  IDiag  1:
 E= -138.544357707013     Delta-E=       -0.074571407305 Rises=F Damp=F
 DIIS: error= 2.29D-02 at cycle   5 NSaved=   5.
 NSaved= 5 IEnMin= 5 EnMin= -138.544357707013     IErMin= 5 ErrMin= 2.29D-02
 ErrMax= 2.29D-02  0.00D+00 EMaxC= 1.00D-01 BMatC= 2.59D-02 BMatP= 1.32D-01
 IDIUse=3 WtCom= 7.71D-01 WtEn= 2.29D-01
 EnCoef did     3 forward-backward iterations
 Coeff-Com: -0.509D+00 0.613D+00 0.822D-01 0.197D+00 0.616D+00
 Coeff-En:   0.000D+00 0.000D+00 0.113D+00 0.141D+00 0.746D+00
 Coeff:     -0.392D+00 0.472D+00 0.893D-01 0.184D+00 0.646D+00
 Gap=     0.077 Goal=   None    Shift=    0.000
 RMSDP=6.01D-04 MaxDP=5.20D-02 DE=-7.46D-02 OVMax= 1.32D-01

 Cycle   6  Pass 1  IDiag  1:
 E= -138.551401783535     Delta-E=       -0.007044076522 Rises=F Damp=F
 DIIS: error= 6.22D-03 at cycle   6 NSaved=   6.
 NSaved= 6 IEnMin= 6 EnMin= -138.551401783535     IErMin= 6 ErrMin= 6.22D-03
 ErrMax= 6.22D-03  0.00D+00 EMaxC= 1.00D-01 BMatC= 6.00D-03 BMatP= 2.59D-02
 IDIUse=3 WtCom= 9.38D-01 WtEn= 6.22D-02
 Coeff-Com: -0.479D+00 0.541D+00 0.148D-01 0.618D-01 0.456D+00 0.405D+00
 Coeff-En:   0.000D+00 0.000D+00 0.000D+00 0.000D+00 0.373D+00 0.627D+00
 Coeff:     -0.449D+00 0.508D+00 0.138D-01 0.579D-01 0.451D+00 0.419D+00
 Gap=     0.063 Goal=   None    Shift=    0.000
 RMSDP=4.24D-04 MaxDP=4.47D-02 DE=-7.04D-03 OVMax= 1.31D-01

 Cycle   7  Pass 1  IDiag  1:
 E= -138.555757124163     Delta-E=       -0.004355340628 Rises=F Damp=F
 DIIS: error= 1.16D-02 at cycle   7 NSaved=   7.
 NSaved= 7 IEnMin= 7 EnMin= -138.555757124163     IErMin= 6 ErrMin= 6.22D-03
 ErrMax= 1.16D-02  0.00D+00 EMaxC= 1.00D-01 BMatC= 5.23D-03 BMatP= 6.00D-03
 IDIUse=3 WtCom= 9.38D-01 WtEn= 6.22D-02
 Coeff-Com: -0.453D+00 0.517D+00-0.302D-02-0.196D-02 0.219D+00 0.382D+00
 Coeff-Com:  0.340D+00
 Coeff-En:   0.000D+00 0.000D+00 0.000D+00 0.000D+00 0.000D+00 0.410D+00
 Coeff-En:   0.590D+00
 Coeff:     -0.425D+00 0.485D+00-0.283D-02-0.183D-02 0.205D+00 0.384D+00
 Coeff:      0.356D+00
 Gap=     0.063 Goal=   None    Shift=    0.000
 RMSDP=5.65D-04 MaxDP=4.79D-02 DE=-4.36D-03 OVMax= 7.20D-02

 Cycle   8  Pass 1  IDiag  1:
 E= -138.560082296192     Delta-E=       -0.004325172029 Rises=F Damp=F
 DIIS: error= 9.26D-03 at cycle   8 NSaved=   8.
 NSaved= 8 IEnMin= 8 EnMin= -138.560082296192     IErMin= 6 ErrMin= 6.22D-03
 ErrMax= 9.26D-03  0.00D+00 EMaxC= 1.00D-01 BMatC= 3.00D-03 BMatP= 5.23D-03
 IDIUse=3 WtCom= 9.38D-01 WtEn= 6.22D-02
 EnCoef did     6 forward-backward iterations
 Coeff-Com: -0.356D+00 0.420D+00-0.261D-01-0.608D-01-0.113D+00 0.186D+00
 Coeff-Com:  0.283D+00 0.667D+00
 Coeff-En:   0.000D+00 0.000D+00 0.000D+00 0.000D+00 0.000D+00 0.162D+00
 Coeff-En:   0.288D+00 0.551D+00
 Coeff:     -0.334D+00 0.394D+00-0.245D-01-0.570D-01-0.106D+00 0.185D+00
 Coeff:      0.283D+00 0.660D+00
 Gap=     0.061 Goal=   None    Shift=    0.000
 RMSDP=3.25D-04 MaxDP=2.24D-02 DE=-4.33D-03 OVMax= 4.53D-02

 Cycle   9  Pass 1  IDiag  1:
 E= -138.562853163968     Delta-E=       -0.002770867776 Rises=F Damp=F
 DIIS: error= 7.30D-03 at cycle   9 NSaved=   9.
 NSaved= 9 IEnMin= 9 EnMin= -138.562853163968     IErMin= 6 ErrMin= 6.22D-03
 ErrMax= 7.30D-03  0.00D+00 EMaxC= 1.00D-01 BMatC= 1.82D-03 BMatP= 3.00D-03
 IDIUse=3 WtCom= 9.38D-01 WtEn= 6.22D-02
 EnCoef did   100 forward-backward iterations
 Coeff-Com: -0.266D+00 0.321D+00-0.239D-01-0.730D-01-0.183D+00 0.107D+00
 Coeff-Com: -0.622D-01 0.546D+00 0.634D+00
 Coeff-En:   0.000D+00 0.000D+00 0.657D-02 0.000D+00 0.000D+00 0.127D+00
 Coeff-En:   0.000D+00 0.545D-02 0.861D+00
 Coeff:     -0.250D+00 0.301D+00-0.220D-01-0.685D-01-0.172D+00 0.109D+00
 Coeff:     -0.584D-01 0.513D+00 0.648D+00
 Gap=     0.065 Goal=   None    Shift=    0.000
 RMSDP=2.10D-04 MaxDP=2.03D-02 DE=-2.77D-03 OVMax= 3.76D-02

 Cycle  10  Pass 1  IDiag  1:
 E= -138.565341511303     Delta-E=       -0.002488347335 Rises=F Damp=F
 DIIS: error= 3.84D-03 at cycle  10 NSaved=  10.
 NSaved=10 IEnMin=10 EnMin= -138.565341511303     IErMin=10 ErrMin= 3.84D-03
 ErrMax= 3.84D-03  0.00D+00 EMaxC= 1.00D-01 BMatC= 8.94D-04 BMatP= 1.82D-03
 IDIUse=3 WtCom= 9.62D-01 WtEn= 3.84D-02
 Coeff-Com: -0.195D+00 0.230D+00 0.361D-02-0.488D-01-0.527D-02 0.105D+00
 Coeff-Com: -0.339D+00-0.138D+00 0.567D+00 0.820D+00
 Coeff-En:   0.000D+00 0.000D+00 0.211D-01 0.000D+00 0.000D+00 0.000D+00
 Coeff-En:   0.000D+00 0.000D+00 0.000D+00 0.979D+00
 Coeff:     -0.188D+00 0.222D+00 0.428D-02-0.469D-01-0.506D-02 0.101D+00
 Coeff:     -0.326D+00-0.133D+00 0.545D+00 0.826D+00
 Gap=     0.071 Goal=   None    Shift=    0.000
 RMSDP=1.97D-04 MaxDP=1.76D-02 DE=-2.49D-03 OVMax= 3.48D-02

 Cycle  11  Pass 1  IDiag  1:
 E= -138.567057796629     Delta-E=       -0.001716285326 Rises=F Damp=F
 DIIS: error= 2.95D-03 at cycle  11 NSaved=  11.
 NSaved=11 IEnMin=11 EnMin= -138.567057796629     IErMin=11 ErrMin= 2.95D-03
 ErrMax= 2.95D-03  0.00D+00 EMaxC= 1.00D-01 BMatC= 4.83D-04 BMatP= 8.94D-04
 IDIUse=3 WtCom= 9.71D-01 WtEn= 2.95D-02
 Coeff-Com: -0.151D+00 0.168D+00 0.184D-01-0.159D-01 0.177D+00 0.244D-01
 Coeff-Com: -0.165D+00-0.518D+00-0.171D+00 0.658D+00 0.976D+00
 Coeff-En:   0.000D+00 0.000D+00 0.000D+00 0.000D+00 0.000D+00 0.000D+00
 Coeff-En:   0.000D+00 0.000D+00 0.000D+00 0.000D+00 0.100D+01
 Coeff:     -0.146D+00 0.163D+00 0.178D-01-0.154D-01 0.172D+00 0.236D-01
 Coeff:     -0.160D+00-0.503D+00-0.166D+00 0.638D+00 0.976D+00
 Gap=     0.075 Goal=   None    Shift=    0.000
 RMSDP=1.79D-04 MaxDP=1.80D-02 DE=-1.72D-03 OVMax= 3.75D-02

 Cycle  12  Pass 1  IDiag  1:
 E= -138.568158597613     Delta-E=       -0.001100800984 Rises=F Damp=F
 DIIS: error= 1.97D-03 at cycle  12 NSaved=  12.
 NSaved=12 IEnMin=12 EnMin= -138.568158597613     IErMin=12 ErrMin= 1.97D-03
 ErrMax= 1.97D-03  0.00D+00 EMaxC= 1.00D-01 BMatC= 3.45D-04 BMatP= 4.83D-04
 IDIUse=3 WtCom= 9.80D-01 WtEn= 1.97D-02
 Coeff-Com: -0.120D+00 0.134D+00 0.102D-01-0.678D-02 0.126D+00-0.857D-01
 Coeff-Com:  0.355D-01-0.315D+00-0.286D+00 0.143D+00 0.630D+00 0.736D+00
 Coeff-En:   0.000D+00 0.000D+00 0.000D+00 0.000D+00 0.000D+00 0.000D+00
 Coeff-En:   0.000D+00 0.000D+00 0.000D+00 0.000D+00 0.000D+00 0.100D+01
 Coeff:     -0.118D+00 0.131D+00 0.997D-02-0.665D-02 0.124D+00-0.840D-01
 Coeff:      0.348D-01-0.309D+00-0.281D+00 0.140D+00 0.617D+00 0.742D+00
 Gap=     0.075 Goal=   None    Shift=    0.000
 RMSDP=1.18D-04 MaxDP=1.91D-02 DE=-1.10D-03 OVMax= 2.25D-02

 Cycle  13  Pass 1  IDiag  1:
 E= -138.568703968479     Delta-E=       -0.000545370866 Rises=F Damp=F
 DIIS: error= 1.50D-03 at cycle  13 NSaved=  13.
 NSaved=13 IEnMin=13 EnMin= -138.568703968479     IErMin=13 ErrMin= 1.50D-03
 ErrMax= 1.50D-03  0.00D+00 EMaxC= 1.00D-01 BMatC= 2.33D-04 BMatP= 3.45D-04
 IDIUse=3 WtCom= 9.85D-01 WtEn= 1.50D-02
 Coeff-Com: -0.885D-01 0.100D+00 0.470D-02 0.962D-03 0.626D-01-0.132D+00
 Coeff-Com:  0.104D+00-0.138D+00-0.193D+00-0.133D+00 0.135D+00 0.734D+00
 Coeff-Com:  0.543D+00
 Coeff-En:   0.000D+00 0.000D+00 0.000D+00 0.000D+00 0.000D+00 0.000D+00
 Coeff-En:   0.000D+00 0.000D+00 0.000D+00 0.000D+00 0.000D+00 0.000D+00
 Coeff-En:   0.100D+01
 Coeff:     -0.871D-01 0.986D-01 0.463D-02 0.947D-03 0.617D-01-0.130D+00
 Coeff:      0.103D+00-0.136D+00-0.191D+00-0.131D+00 0.133D+00 0.723D+00
 Coeff:      0.550D+00
 Gap=     0.076 Goal=   None    Shift=    0.000
 RMSDP=8.63D-05 MaxDP=8.72D-03 DE=-5.45D-04 OVMax= 1.96D-02

 Cycle  14  Pass 1  IDiag  1:
 E= -138.569150988450     Delta-E=       -0.000447019971 Rises=F Damp=F
 DIIS: error= 1.66D-03 at cycle  14 NSaved=  14.
 NSaved=14 IEnMin=14 EnMin= -138.569150988450     IErMin=13 ErrMin= 1.50D-03
 ErrMax= 1.66D-03  0.00D+00 EMaxC= 1.00D-01 BMatC= 1.15D-04 BMatP= 2.33D-04
 IDIUse=3 WtCom= 9.85D-01 WtEn= 1.50D-02
 Coeff-Com: -0.626D-01 0.726D-01 0.518D-04 0.200D-02 0.256D-01-0.525D-01
 Coeff-Com:  0.298D-01-0.816D-01-0.450D-01-0.183D-01-0.188D-01 0.729D-01
 Coeff-Com:  0.207D+00 0.869D+00
 Coeff-En:   0.000D+00 0.000D+00 0.000D+00 0.000D+00 0.000D+00 0.000D+00
 Coeff-En:   0.000D+00 0.000D+00 0.000D+00 0.000D+00 0.000D+00 0.000D+00
 Coeff-En:   0.000D+00 0.100D+01
 Coeff:     -0.616D-01 0.715D-01 0.510D-04 0.197D-02 0.252D-01-0.517D-01
 Coeff:      0.294D-01-0.804D-01-0.443D-01-0.181D-01-0.185D-01 0.718D-01
 Coeff:      0.204D+00 0.871D+00
 Gap=     0.077 Goal=   None    Shift=    0.000
 RMSDP=5.92D-05 MaxDP=1.71D-02 DE=-4.47D-04 OVMax= 1.34D-02

 Cycle  15  Pass 1  IDiag  1:
 E= -138.569362033329     Delta-E=       -0.000211044879 Rises=F Damp=F
 DIIS: error= 1.13D-03 at cycle  15 NSaved=  15.
 NSaved=15 IEnMin=15 EnMin= -138.569362033329     IErMin=15 ErrMin= 1.13D-03
 ErrMax= 1.13D-03  0.00D+00 EMaxC= 1.00D-01 BMatC= 5.27D-05 BMatP= 1.15D-04
 IDIUse=3 WtCom= 9.89D-01 WtEn= 1.13D-02
 Coeff-Com: -0.259D-01 0.291D-01 0.121D-02-0.216D-02 0.151D-01 0.414D-01
 Coeff-Com: -0.370D-01-0.623D-01-0.207D-01 0.791D-01 0.836D-01-0.193D+00
 Coeff-Com: -0.288D+00-0.496D+00 0.188D+01
 Coeff-En:   0.000D+00 0.000D+00 0.000D+00 0.000D+00 0.000D+00 0.000D+00
 Coeff-En:   0.000D+00 0.000D+00 0.000D+00 0.000D+00 0.000D+00 0.000D+00
 Coeff-En:   0.000D+00 0.000D+00 0.100D+01
 Coeff:     -0.257D-01 0.287D-01 0.120D-02-0.213D-02 0.149D-01 0.409D-01
 Coeff:     -0.366D-01-0.616D-01-0.205D-01 0.782D-01 0.827D-01-0.191D+00
 Coeff:     -0.285D+00-0.490D+00 0.187D+01
 Gap=     0.079 Goal=   None    Shift=    0.000
 RMSDP=9.40D-05 MaxDP=2.80D-02 DE=-2.11D-04 OVMax= 1.73D-02

 Cycle  16  Pass 1  IDiag  1:
 E= -138.569513401170     Delta-E=       -0.000151367841 Rises=F Damp=F
 DIIS: error= 3.94D-04 at cycle  16 NSaved=  16.
 NSaved=16 IEnMin=16 EnMin= -138.569513401170     IErMin=16 ErrMin= 3.94D-04
 ErrMax= 3.94D-04  0.00D+00 EMaxC= 1.00D-01 BMatC= 8.18D-06 BMatP= 5.27D-05
 IDIUse=3 WtCom= 9.96D-01 WtEn= 3.94D-03
 Coeff-Com: -0.664D-02 0.711D-02 0.145D-02-0.311D-02 0.469D-02 0.307D-01
 Coeff-Com: -0.247D-01-0.168D-01-0.101D-01 0.388D-01 0.535D-01-0.770D-01
 Coeff-Com: -0.177D+00-0.626D+00 0.850D+00 0.955D+00
 Coeff-En:   0.000D+00 0.000D+00 0.000D+00 0.000D+00 0.000D+00 0.000D+00
 Coeff-En:   0.000D+00 0.000D+00 0.000D+00 0.000D+00 0.000D+00 0.000D+00
 Coeff-En:   0.000D+00 0.000D+00 0.000D+00 0.100D+01
 Coeff:     -0.662D-02 0.708D-02 0.144D-02-0.310D-02 0.467D-02 0.306D-01
 Coeff:     -0.246D-01-0.168D-01-0.101D-01 0.386D-01 0.533D-01-0.767D-01
 Coeff:     -0.177D+00-0.624D+00 0.847D+00 0.955D+00
 Gap=     0.079 Goal=   None    Shift=    0.000
 RMSDP=4.55D-05 MaxDP=1.43D-02 DE=-1.51D-04 OVMax= 1.04D-02

 Cycle  17  Pass 1  IDiag  1:
 E= -138.569544092683     Delta-E=       -0.000030691513 Rises=F Damp=F
 DIIS: error= 1.28D-04 at cycle  17 NSaved=  17.
 NSaved=17 IEnMin=17 EnMin= -138.569544092683     IErMin=17 ErrMin= 1.28D-04
 ErrMax= 1.28D-04  0.00D+00 EMaxC= 1.00D-01 BMatC= 7.09D-07 BMatP= 8.18D-06
 IDIUse=3 WtCom= 9.99D-01 WtEn= 1.28D-03
 Coeff-Com: -0.267D-02 0.309D-02 0.255D-03-0.169D-02-0.937D-03 0.576D-02
 Coeff-Com: -0.693D-02 0.358D-02 0.363D-02 0.759D-02 0.492D-03-0.802D-02
 Coeff-Com: -0.175D-01-0.180D+00 0.520D-01 0.392D+00 0.749D+00
 Coeff-En:   0.000D+00 0.000D+00 0.000D+00 0.000D+00 0.000D+00 0.000D+00
 Coeff-En:   0.000D+00 0.000D+00 0.000D+00 0.000D+00 0.000D+00 0.000D+00
 Coeff-En:   0.000D+00 0.000D+00 0.000D+00 0.000D+00 0.100D+01
 Coeff:     -0.266D-02 0.309D-02 0.255D-03-0.169D-02-0.936D-03 0.576D-02
 Coeff:     -0.693D-02 0.358D-02 0.362D-02 0.758D-02 0.491D-03-0.801D-02
 Coeff:     -0.175D-01-0.180D+00 0.519D-01 0.392D+00 0.750D+00
 Gap=     0.079 Goal=   None    Shift=    0.000
 RMSDP=1.55D-05 MaxDP=1.51D-03 DE=-3.07D-05 OVMax= 1.66D-03

 Cycle  18  Pass 1  IDiag  1:
 E= -138.569545288101     Delta-E=       -0.000001195418 Rises=F Damp=F
 DIIS: error= 9.39D-05 at cycle  18 NSaved=  18.
 NSaved=18 IEnMin=18 EnMin= -138.569545288101     IErMin=18 ErrMin= 9.39D-05
 ErrMax= 9.39D-05  0.00D+00 EMaxC= 1.00D-01 BMatC= 4.64D-07 BMatP= 7.09D-07
 IDIUse=1 WtCom= 1.00D+00 WtEn= 0.00D+00
 Coeff-Com: -0.176D-02 0.214D-02-0.334D-05-0.105D-02-0.163D-02 0.129D-03
 Coeff-Com: -0.264D-02 0.594D-02 0.547D-02 0.938D-03-0.872D-02 0.466D-02
 Coeff-Com:  0.142D-01-0.511D-01-0.971D-01 0.168D+00 0.653D+00 0.309D+00
 Coeff:     -0.176D-02 0.214D-02-0.334D-05-0.105D-02-0.163D-02 0.129D-03
 Coeff:     -0.264D-02 0.594D-02 0.547D-02 0.938D-03-0.872D-02 0.466D-02
 Coeff:      0.142D-01-0.511D-01-0.971D-01 0.168D+00 0.653D+00 0.309D+00
 Gap=     0.079 Goal=   None    Shift=    0.000
 RMSDP=1.21D-05 MaxDP=1.37D-03 DE=-1.20D-06 OVMax= 1.39D-03

 Cycle  19  Pass 1  IDiag  1:
 E= -138.569546086611     Delta-E=       -0.000000798510 Rises=F Damp=F
 DIIS: error= 2.77D-05 at cycle  19 NSaved=  19.
 NSaved=19 IEnMin=19 EnMin= -138.569546086611     IErMin=19 ErrMin= 2.77D-05
 ErrMax= 2.77D-05  0.00D+00 EMaxC= 1.00D-01 BMatC= 8.89D-08 BMatP= 4.64D-07
 IDIUse=1 WtCom= 1.00D+00 WtEn= 0.00D+00
 Coeff-Com: -0.646D-03 0.770D-03-0.452D-04 0.241D-04-0.509D-03-0.188D-02
 Coeff-Com:  0.438D-03 0.181D-02 0.217D-02-0.195D-02-0.451D-02 0.515D-02
 Coeff-Com:  0.143D-01 0.555D-01-0.842D-01-0.119D+00 0.197D-01 0.254D+00
 Coeff-Com:  0.859D+00
 Coeff:     -0.646D-03 0.770D-03-0.452D-04 0.241D-04-0.509D-03-0.188D-02
 Coeff:      0.438D-03 0.181D-02 0.217D-02-0.195D-02-0.451D-02 0.515D-02
 Coeff:      0.143D-01 0.555D-01-0.842D-01-0.119D+00 0.197D-01 0.254D+00
 Coeff:      0.859D+00
 Gap=     0.079 Goal=   None    Shift=    0.000
 RMSDP=6.39D-06 MaxDP=1.54D-03 DE=-7.99D-07 OVMax= 5.98D-04

 Cycle  20  Pass 1  IDiag  1:
 E= -138.569546347965     Delta-E=       -0.000000261354 Rises=F Damp=F
 DIIS: error= 1.33D-05 at cycle  20 NSaved=  20.
 NSaved=20 IEnMin=20 EnMin= -138.569546347965     IErMin=20 ErrMin= 1.33D-05
 ErrMax= 1.33D-05  0.00D+00 EMaxC= 1.00D-01 BMatC= 8.17D-09 BMatP= 8.89D-08
 IDIUse=1 WtCom= 1.00D+00 WtEn= 0.00D+00
 Coeff-Com: -0.104D-03 0.108D-03-0.557D-04 0.141D-03 0.690D-04-0.394D-05
 Coeff-Com:  0.114D-02-0.343D-03-0.742D-03-0.134D-02-0.194D-03 0.845D-04
 Coeff-Com: -0.756D-03 0.169D-01 0.678D-02-0.604D-01-0.119D+00-0.180D-01
 Coeff-Com:  0.131D+00 0.104D+01
 Coeff:     -0.104D-03 0.108D-03-0.557D-04 0.141D-03 0.690D-04-0.394D-05
 Coeff:      0.114D-02-0.343D-03-0.742D-03-0.134D-02-0.194D-03 0.845D-04
 Coeff:     -0.756D-03 0.169D-01 0.678D-02-0.604D-01-0.119D+00-0.180D-01
 Coeff:      0.131D+00 0.104D+01
 Gap=     0.080 Goal=   None    Shift=    0.000
 RMSDP=2.60D-06 MaxDP=7.77D-04 DE=-2.61D-07 OVMax= 2.48D-04

 Cycle  21  Pass 1  IDiag  1:
 E= -138.569546361053     Delta-E=       -0.000000013088 Rises=F Damp=F
 DIIS: error= 8.20D-06 at cycle  21 NSaved=  20.
 NSaved=20 IEnMin=20 EnMin= -138.569546361053     IErMin=20 ErrMin= 8.20D-06
 ErrMax= 8.20D-06  0.00D+00 EMaxC= 1.00D-01 BMatC= 1.09D-08 BMatP= 8.17D-09
 IDIUse=1 WtCom= 1.00D+00 WtEn= 0.00D+00
 Coeff-Com: -0.220D-04 0.374D-05 0.134D-03 0.354D-03 0.533D-03 0.773D-03
 Coeff-Com: -0.121D-02-0.148D-02-0.411D-03 0.150D-02-0.752D-03-0.432D-02
 Coeff-Com:  0.237D-03 0.277D-01-0.281D-01-0.113D+00-0.659D-01-0.477D-01
 Coeff-Com:  0.923D+00 0.308D+00
 Coeff:     -0.220D-04 0.374D-05 0.134D-03 0.354D-03 0.533D-03 0.773D-03
 Coeff:     -0.121D-02-0.148D-02-0.411D-03 0.150D-02-0.752D-03-0.432D-02
 Coeff:      0.237D-03 0.277D-01-0.281D-01-0.113D+00-0.659D-01-0.477D-01
 Coeff:      0.923D+00 0.308D+00
 Gap=     0.080 Goal=   None    Shift=    0.000
 RMSDP=1.40D-06 MaxDP=1.46D-04 DE=-1.31D-08 OVMax= 2.16D-04

 Cycle  22  Pass 1  IDiag  1:
 E= -138.569546381480     Delta-E=       -0.000000020427 Rises=F Damp=F
 DIIS: error= 3.35D-06 at cycle  22 NSaved=  20.
 NSaved=20 IEnMin=20 EnMin= -138.569546381480     IErMin=20 ErrMin= 3.35D-06
 ErrMax= 3.35D-06  0.00D+00 EMaxC= 1.00D-01 BMatC= 1.72D-09 BMatP= 8.17D-09
 IDIUse=1 WtCom= 1.00D+00 WtEn= 0.00D+00
 Coeff-Com: -0.199D-05-0.954D-05-0.196D-04 0.451D-03 0.103D-03-0.282D-03
 Coeff-Com: -0.499D-03 0.115D-03 0.588D-03-0.801D-03-0.257D-02-0.672D-02
 Coeff-Com:  0.181D-01 0.687D-02-0.254D-01-0.422D-01-0.110D+00 0.130D+00
 Coeff-Com:  0.300D+00 0.733D+00
 Coeff:     -0.199D-05-0.954D-05-0.196D-04 0.451D-03 0.103D-03-0.282D-03
 Coeff:     -0.499D-03 0.115D-03 0.588D-03-0.801D-03-0.257D-02-0.672D-02
 Coeff:      0.181D-01 0.687D-02-0.254D-01-0.422D-01-0.110D+00 0.130D+00
 Coeff:      0.300D+00 0.733D+00
 Gap=     0.080 Goal=   None    Shift=    0.000
 RMSDP=9.19D-07 MaxDP=2.61D-04 DE=-2.04D-08 OVMax= 6.75D-05

 Cycle  23  Pass 1  IDiag  1:
 E= -138.569546384886     Delta-E=       -0.000000003406 Rises=F Damp=F
 DIIS: error= 1.38D-06 at cycle  23 NSaved=  20.
 NSaved=20 IEnMin=20 EnMin= -138.569546384886     IErMin=20 ErrMin= 1.38D-06
 ErrMax= 1.38D-06  0.00D+00 EMaxC= 1.00D-01 BMatC= 2.75D-10 BMatP= 1.72D-09
 IDIUse=1 WtCom= 1.00D+00 WtEn= 0.00D+00
 Coeff-Com: -0.241D-04-0.815D-04 0.197D-03-0.114D-03 0.388D-04-0.559D-04
 Coeff-Com:  0.110D-03 0.120D-03-0.395D-03-0.753D-03-0.294D-02 0.595D-02
 Coeff-Com:  0.545D-02-0.789D-03-0.117D-01-0.427D-01-0.503D-01 0.113D+00
 Coeff-Com:  0.382D+00 0.603D+00
 Coeff:     -0.241D-04-0.815D-04 0.197D-03-0.114D-03 0.388D-04-0.559D-04
 Coeff:      0.110D-03 0.120D-03-0.395D-03-0.753D-03-0.294D-02 0.595D-02
 Coeff:      0.545D-02-0.789D-03-0.117D-01-0.427D-01-0.503D-01 0.113D+00
 Coeff:      0.382D+00 0.603D+00
 Gap=     0.080 Goal=   None    Shift=    0.000
 RMSDP=8.24D-07 MaxDP=1.06D-04 DE=-3.41D-09 OVMax= 4.72D-05

 Cycle  24  Pass 1  IDiag  1:
 E= -138.569546384796     Delta-E=        0.000000000090 Rises=F Damp=F
 DIIS: error= 2.46D-06 at cycle  24 NSaved=  20.
 NSaved=20 IEnMin=19 EnMin= -138.569546384886     IErMin=19 ErrMin= 1.38D-06
 ErrMax= 2.46D-06  0.00D+00 EMaxC= 1.00D-01 BMatC= 3.50D-10 BMatP= 2.75D-10
 IDIUse=1 WtCom= 1.00D+00 WtEn= 0.00D+00
 Coeff-Com: -0.427D-04 0.756D-05-0.824D-04 0.862D-04 0.369D-04-0.409D-04
 Coeff-Com: -0.111D-03-0.559D-04 0.259D-03 0.782D-03-0.425D-03 0.233D-04
 Coeff-Com:  0.224D-02 0.931D-03-0.322D-02-0.647D-01 0.177D-01 0.129D+00
 Coeff-Com:  0.578D+00 0.339D+00
 Coeff:     -0.427D-04 0.756D-05-0.824D-04 0.862D-04 0.369D-04-0.409D-04
 Coeff:     -0.111D-03-0.559D-04 0.259D-03 0.782D-03-0.425D-03 0.233D-04
 Coeff:      0.224D-02 0.931D-03-0.322D-02-0.647D-01 0.177D-01 0.129D+00
 Coeff:      0.578D+00 0.339D+00
 Gap=     0.080 Goal=   None    Shift=    0.000
 RMSDP=5.02D-07 MaxDP=6.83D-05 DE= 8.96D-11 OVMax= 3.59D-05

 Cycle  25  Pass 1  IDiag  1:
 E= -138.569546385402     Delta-E=       -0.000000000606 Rises=F Damp=F
 DIIS: error= 4.78D-07 at cycle  25 NSaved=  20.
 NSaved=20 IEnMin=20 EnMin= -138.569546385402     IErMin=20 ErrMin= 4.78D-07
 ErrMax= 4.78D-07  0.00D+00 EMaxC= 1.00D-01 BMatC= 2.09D-11 BMatP= 2.75D-10
 IDIUse=1 WtCom= 1.00D+00 WtEn= 0.00D+00
 Coeff-Com: -0.607D-05-0.685D-04 0.172D-04 0.454D-04 0.451D-04 0.293D-04
 Coeff-Com: -0.581D-04 0.619D-04 0.300D-03-0.916D-03 0.101D-03 0.268D-02
 Coeff-Com:  0.229D-02 0.389D-02-0.180D-01-0.175D-01-0.278D-01 0.155D+00
 Coeff-Com:  0.200D+00 0.700D+00
 Coeff:     -0.607D-05-0.685D-04 0.172D-04 0.454D-04 0.451D-04 0.293D-04
 Coeff:     -0.581D-04 0.619D-04 0.300D-03-0.916D-03 0.101D-03 0.268D-02
 Coeff:      0.229D-02 0.389D-02-0.180D-01-0.175D-01-0.278D-01 0.155D+00
 Coeff:      0.200D+00 0.700D+00
 Gap=     0.080 Goal=   None    Shift=    0.000
 RMSDP=2.63D-07 MaxDP=5.02D-05 DE=-6.06D-10 OVMax= 1.21D-05

 Cycle  26  Pass 1  IDiag  1:
 E= -138.569546385413     Delta-E=       -0.000000000011 Rises=F Damp=F
 DIIS: error= 5.26D-07 at cycle  26 NSaved=  20.
 NSaved=20 IEnMin=20 EnMin= -138.569546385413     IErMin=19 ErrMin= 4.78D-07
 ErrMax= 5.26D-07  0.00D+00 EMaxC= 1.00D-01 BMatC= 1.75D-11 BMatP= 2.09D-11
 IDIUse=1 WtCom= 1.00D+00 WtEn= 0.00D+00
 Coeff-Com: -0.450D-04 0.178D-04 0.518D-04 0.415D-04 0.165D-04-0.105D-03
 Coeff-Com: -0.573D-04 0.339D-04-0.397D-03 0.159D-03 0.166D-02 0.171D-02
 Coeff-Com:  0.387D-02-0.345D-02-0.157D-01-0.409D-01 0.228D-01 0.951D-01
 Coeff-Com:  0.553D+00 0.382D+00
 Coeff:     -0.450D-04 0.178D-04 0.518D-04 0.415D-04 0.165D-04-0.105D-03
 Coeff:     -0.573D-04 0.339D-04-0.397D-03 0.159D-03 0.166D-02 0.171D-02
 Coeff:      0.387D-02-0.345D-02-0.157D-01-0.409D-01 0.228D-01 0.951D-01
 Coeff:      0.553D+00 0.382D+00
 Gap=     0.080 Goal=   None    Shift=    0.000
 RMSDP=1.49D-07 MaxDP=2.10D-05 DE=-1.10D-11 OVMax= 8.36D-06

 Cycle  27  Pass 1  IDiag  1:
 E= -138.569546385443     Delta-E=       -0.000000000030 Rises=F Damp=F
 DIIS: error= 1.21D-07 at cycle  27 NSaved=  20.
 NSaved=20 IEnMin=20 EnMin= -138.569546385443     IErMin=20 ErrMin= 1.21D-07
 ErrMax= 1.21D-07  0.00D+00 EMaxC= 1.00D-01 BMatC= 1.71D-12 BMatP= 1.75D-11
 IDIUse=1 WtCom= 1.00D+00 WtEn= 0.00D+00
 Coeff-Com:  0.896D-05 0.133D-04 0.107D-05-0.907D-06-0.486D-04-0.589D-04
 Coeff-Com: -0.104D-03 0.825D-04 0.237D-03 0.221D-03-0.537D-05-0.109D-03
 Coeff-Com:  0.311D-02-0.284D-02-0.122D-01-0.235D-01 0.388D-02 0.136D+00
 Coeff-Com:  0.231D+00 0.664D+00
 Coeff:      0.896D-05 0.133D-04 0.107D-05-0.907D-06-0.486D-04-0.589D-04
 Coeff:     -0.104D-03 0.825D-04 0.237D-03 0.221D-03-0.537D-05-0.109D-03
 Coeff:      0.311D-02-0.284D-02-0.122D-01-0.235D-01 0.388D-02 0.136D+00
 Coeff:      0.231D+00 0.664D+00
 Gap=     0.080 Goal=   None    Shift=    0.000
 RMSDP=1.15D-07 MaxDP=2.76D-05 DE=-2.96D-11 OVMax= 3.13D-06

 Cycle  28  Pass 1  IDiag  1:
 E= -138.569546385446     Delta-E=       -0.000000000003 Rises=F Damp=F
 DIIS: error= 4.58D-08 at cycle  28 NSaved=  20.
 NSaved=20 IEnMin=20 EnMin= -138.569546385446     IErMin=20 ErrMin= 4.58D-08
 ErrMax= 4.58D-08  0.00D+00 EMaxC= 1.00D-01 BMatC= 2.25D-13 BMatP= 1.71D-12
 IDIUse=1 WtCom= 1.00D+00 WtEn= 0.00D+00
 Coeff-Com:  0.775D-05 0.335D-05-0.101D-04-0.196D-04-0.862D-05 0.136D-04
 Coeff-Com: -0.773D-05 0.633D-04 0.753D-04 0.162D-04 0.160D-04 0.155D-03
 Coeff-Com: -0.387D-03-0.186D-02-0.125D-01-0.109D-01-0.250D-01 0.365D-01
 Coeff-Com:  0.329D+00 0.684D+00
 Coeff:      0.775D-05 0.335D-05-0.101D-04-0.196D-04-0.862D-05 0.136D-04
 Coeff:     -0.773D-05 0.633D-04 0.753D-04 0.162D-04 0.160D-04 0.155D-03
 Coeff:     -0.387D-03-0.186D-02-0.125D-01-0.109D-01-0.250D-01 0.365D-01
 Coeff:      0.329D+00 0.684D+00
 Gap=     0.080 Goal=   None    Shift=    0.000
 RMSDP=4.36D-08 MaxDP=1.13D-05 DE=-3.07D-12 OVMax= 1.07D-06

 Cycle  29  Pass 1  IDiag  1:
 E= -138.569546385446     Delta-E=       -0.000000000001 Rises=F Damp=F
 DIIS: error= 3.04D-08 at cycle  29 NSaved=  20.
 NSaved=20 IEnMin=20 EnMin= -138.569546385446     IErMin=20 ErrMin= 3.04D-08
 ErrMax= 3.04D-08  0.00D+00 EMaxC= 1.00D-01 BMatC= 4.85D-14 BMatP= 2.25D-13
 IDIUse=1 WtCom= 1.00D+00 WtEn= 0.00D+00
 Coeff-Com:  0.869D-06-0.316D-05-0.482D-05-0.320D-05 0.607D-05 0.291D-04
 Coeff-Com:  0.168D-04-0.703D-04-0.816D-04-0.202D-03-0.382D-04 0.522D-03
 Coeff-Com:  0.143D-02-0.319D-02-0.684D-02-0.332D-01-0.120D-01 0.923D-01
 Coeff-Com:  0.353D+00 0.609D+00
 Coeff:      0.869D-06-0.316D-05-0.482D-05-0.320D-05 0.607D-05 0.291D-04
 Coeff:      0.168D-04-0.703D-04-0.816D-04-0.202D-03-0.382D-04 0.522D-03
 Coeff:      0.143D-02-0.319D-02-0.684D-02-0.332D-01-0.120D-01 0.923D-01
 Coeff:      0.353D+00 0.609D+00
 Gap=     0.080 Goal=   None    Shift=    0.000
 RMSDP=6.39D-09 MaxDP=1.33D-06 DE=-6.25D-13 OVMax= 4.65D-07

 Cycle  30  Pass 1  IDiag  1:
 E= -138.569546385446     Delta-E=       -0.000000000000 Rises=F Damp=F
 DIIS: error= 1.25D-08 at cycle  30 NSaved=  20.
 NSaved=20 IEnMin=20 EnMin= -138.569546385446     IErMin=20 ErrMin= 1.25D-08
 ErrMax= 1.25D-08  0.00D+00 EMaxC= 1.00D-01 BMatC= 1.56D-14 BMatP= 4.85D-14
 IDIUse=1 WtCom= 1.00D+00 WtEn= 0.00D+00
 Coeff-Com: -0.218D-05-0.562D-06-0.116D-05 0.211D-05 0.264D-04-0.151D-05
 Coeff-Com: -0.910D-04-0.888D-04-0.189D-03 0.211D-03 0.607D-03 0.148D-02
 Coeff-Com: -0.172D-02-0.456D-02-0.237D-01-0.131D-01 0.253D-01 0.147D+00
 Coeff-Com:  0.395D+00 0.474D+00
 Coeff:     -0.218D-05-0.562D-06-0.116D-05 0.211D-05 0.264D-04-0.151D-05
 Coeff:     -0.910D-04-0.888D-04-0.189D-03 0.211D-03 0.607D-03 0.148D-02
 Coeff:     -0.172D-02-0.456D-02-0.237D-01-0.131D-01 0.253D-01 0.147D+00
 Coeff:      0.395D+00 0.474D+00
 Gap=     0.080 Goal=   None    Shift=    0.000
 RMSDP=5.77D-09 MaxDP=1.36D-06 DE=-5.68D-14 OVMax= 1.96D-07

 Cycle  31  Pass 1  IDiag  1:
 E= -138.569546385446     Delta-E=       -0.000000000000 Rises=F Damp=F
 DIIS: error= 4.30D-09 at cycle  31 NSaved=  20.
 NSaved=20 IEnMin=20 EnMin= -138.569546385446     IErMin=20 ErrMin= 4.30D-09
 ErrMax= 4.30D-09  0.00D+00 EMaxC= 1.00D-01 BMatC= 2.42D-15 BMatP= 1.56D-14
 IDIUse=1 WtCom= 1.00D+00 WtEn= 0.00D+00
 Coeff-Com: -0.632D-07-0.429D-06 0.292D-05 0.835D-05-0.101D-04-0.442D-04
 Coeff-Com: -0.305D-04-0.494D-04 0.570D-04 0.229D-03 0.604D-03-0.189D-03
 Coeff-Com: -0.134D-02-0.805D-02-0.611D-02-0.159D-02 0.364D-01 0.178D+00
 Coeff-Com:  0.295D+00 0.507D+00
 Coeff:     -0.632D-07-0.429D-06 0.292D-05 0.835D-05-0.101D-04-0.442D-04
 Coeff:     -0.305D-04-0.494D-04 0.570D-04 0.229D-03 0.604D-03-0.189D-03
 Coeff:     -0.134D-02-0.805D-02-0.611D-02-0.159D-02 0.364D-01 0.178D+00
 Coeff:      0.295D+00 0.507D+00
 Gap=     0.080 Goal=   None    Shift=    0.000
 RMSDP=1.06D-09 MaxDP=1.53D-07 DE=-5.68D-14 OVMax= 8.44D-08

 SCF Done:  E(ROHF) =  -138.569546385     A.U. after   31 cycles
            NFock= 31  Conv=0.11D-08     -V/T= 2.6074
 <Sx>= 0.0000 <Sy>= 0.0000 <Sz>= 2.0000 <S**2>= 6.0000 S= 2.0000
 <L.S>=  0.00000000000    
 KE= 8.620880589029D+01 PE=-4.131307634758D+02 EE= 1.460182343264D+02
 Annihilation of the first spin contaminant:
 S**2 before annihilation     6.0000,   after     6.0000
 Leave Link  502 at Sun Mar 25 07:19:10 2018, MaxMem= 10737418240 cpu:            2866.5 elap:             117.7
 (Enter /home1/apps/gaussian/16rA.03/g16/l801.exe)
 Windowed orbitals will be sorted by symmetry type.
 GenMOA:  NOpAll=  4 NOp2=4 NOpUse=  4 JSym2X=1
 FoFJK:  IHMeth= 1 ICntrl=       0 DoSepK=F KAlg= 0 I1Cent=           0 FoldK=F
 IRaf=         0 NMat=       1 IRICut=       1 DoRegI=T DoRafI=F ISym2E= 1 IDoP0=0 IntGTp=1.
 FoFCou: FMM=F IPFlag=           8 FMFlag=      100000 FMFlg1=           0
         NFxFlg=           0 DoJE=F BraDBF=F KetDBF=F FulRan=T
         wScrn=  0.000000 ICntrl=         0 IOpCl=  1 I1Cent=           0 NGrid=           0
         NMat0=    1 NMatS0=      1 NMatT0=    0 NMatD0=    1 NMtDS0=    0 NMtDT0=    0
 Petite list used in FoFCou.
 <Sx>= 0.0000 <Sy>= 0.0000 <Sz>= 2.0000 <S**2>= 6.0000 S= 2.0000
 Range of M.O.s used for correlation:     1   380
 NBasis=   384 NAE=    13 NBE=     9 NFC=     0 NFV=     0
 NROrb=    380 NOA=    13 NOB=     9 NVA=   367 NVB=   371

 **** Warning!!: The largest alpha MO coefficient is  0.29366209D+03


 **** Warning!!: The largest beta MO coefficient is  0.29366330D+03

 Singles contribution to E2=   -0.9987759689D-02
 Leave Link  801 at Sun Mar 25 07:19:33 2018, MaxMem= 10737418240 cpu:             701.7 elap:              22.0
 (Enter /home1/apps/gaussian/16rA.03/g16/l804.exe)
 Open-shell transformation, MDV= 10737418240 ITran=4 ISComp=2.
 Unit  1 TFree=       4439023 TCopy=       3213233.
 Semi-Direct transformation.
 ModeAB=           4 MOrb=            13 LenV=   10733105897
 LASXX=     88669000 LTotXX=    88669000 LenRXX=   178270504
 LTotAB=    89601504 MaxLAS=   607051900 LenRXY=           0
 NonZer=   266939504 LenScr=   401980416 LnRSAI=   607051900
 LnScr1=   914149376 LExtra=    26972449 Total=   2128424645
 MaxDsk= 67108864000 SrtSym=           T ITran=            4
 DoSDTr:  NPSUse= 32
 JobTyp=1 Pass  1:  I=   1 to  13.
 (rs|ai) integrals will be sorted in core.
 Complete sort for first half transformation.
 First half transformation complete.
 Begin second half transformation for I=  10.
 Complete sort for second half transformation.
 Second half transformation complete.
 ModeAB=           4 MOrb=             9 LenV=   10733105897
 LASXX=     61617344 LTotXX=    61617344 LenRXX=   119638224
 LTotAB=    58020880 MaxLAS=   420266700 LenRXY=           0
 NonZer=   181255568 LenScr=   272950272 LnRSAI=   420266700
 LnScr1=   632872960 LExtra=   205242953 Total=   1650971109
 MaxDsk= 67108864000 SrtSym=           T ITran=            4
 DoSDTr:  NPSUse= 32
 JobTyp=2 Pass  1:  I=   1 to   9.
 (rs|ai) integrals will be sorted in core.
 Complete sort for first half transformation.
 First half transformation complete.
 Complete sort for second half transformation.
 Second half transformation complete.
 Spin components of T(2) and E(2):
     alpha-alpha T2 =       0.3990936249D-01 E2=     -0.2078632730D+00
     alpha-beta  T2 =       0.1249562143D+00 E2=     -0.7551948506D+00
     beta-beta   T2 =       0.2651506693D-01 E2=     -0.1239593642D+00
 ANorm=    0.1093434286D+01
 E2 =    -0.1097005248D+01 EUMP2 =    -0.13966655163295D+03
 (S**2,0)=  0.60000D+01           (S**2,1)=  0.60000D+01
 E(PUHF)=      -0.13856954639D+03        E(PMP2)=      -0.13966655163D+03
 Leave Link  804 at Sun Mar 25 07:31:44 2018, MaxMem= 10737418240 cpu:           23391.4 elap:             731.4
 (Enter /home1/apps/gaussian/16rA.03/g16/l913.exe)
 CIDS:  MDV= 10737418240.
 IFCWin=0 IBDFC=1 NFBD=     0     0 NFCmp=     0     0 NFFFC=     0     0
 Using original routines for 1st iteration.
 Using DD4UQ or CC4UQ for 2nd and later iterations.
 Keep R2 and R3 ints in memory in symmetry-blocked form, NReq=3425135835.
 FoFCou: FMM=F IPFlag=           8 FMFlag=           0 FMFlg1=           0
         NFxFlg=           0 DoJE=F BraDBF=F KetDBF=F FulRan=T
         wScrn=  0.000000 ICntrl=       600 IOpCl=  0 I1Cent=           0 NGrid=           0
         NMat0=    1 NMatS0=  73920 NMatT0=    0 NMatD0=    1 NMtDS0=    0 NMtDT0=    0
 Petite list used in FoFCou.
 CIDS: In Core Option IDoMem=           1.
 CCSD(T)
 =======
 Iterations= 150 Convergence= 0.100D-06
 Produce multiple copies of IABC intergrals
 Iteration Nr.   1
 **********************
 DD1Dir will call FoFMem   1 times, MxPair=       348
 NAB=   117 NAA=    78 NBB=    36.
 DD1Dir will call FoFMem   1 times, MxPair=       348
 NAB=   117 NAA=    78 NBB=    36.
 MP4(R+Q)= -0.96680114D-01
 Maximum subspace dimension=  5
 A-vector RMS=  2.3249694D-04 Max=  2.6428704D-03 conv= 1.00D-05.
 RLE energy=       -1.0844533916
 E3=        0.10889688D+00        EROMP3=      -0.13955765475D+03
 E4(SDQ)=  -0.73840268D-01        ROMP4(SDQ)=  -0.13963149502D+03
 VARIATIONAL ENERGIES WITH THE FIRST-ORDER WAVEFUNCTION:
 DE(Corr)=  -1.0843053     E(Corr)=     -139.65385172    
 NORM(A)=   0.10895084D+01
 Iteration Nr.   2
 **********************
 DD1Dir will call FoFMem   1 times, MxPair=       348
 NAB=   117 NAA=    78 NBB=    36.
 A-vector RMS=  3.8502481D-03 Max=  6.3011275D-02 conv= 1.00D-05.
 RLE energy=       -1.0597498896
 DE(Corr)= -0.97346657     E(CORR)=     -139.54301296     Delta= 1.11D-01
 NORM(A)=   0.10841784D+01
 Iteration Nr.   3
 **********************
 DD1Dir will call FoFMem   1 times, MxPair=       348
 NAB=   117 NAA=    78 NBB=    36.
 A-vector RMS=  2.8076517D-03 Max=  4.4701298D-02 conv= 1.00D-05.
 RLE energy=       -1.0402933665
 DE(Corr)= -0.98913493     E(CORR)=     -139.55868131     Delta=-1.57D-02
 NORM(A)=   0.10868781D+01
 Iteration Nr.   4
 **********************
 DD1Dir will call FoFMem   1 times, MxPair=       348
 NAB=   117 NAA=    78 NBB=    36.
 A-vector RMS=  1.6939427D-03 Max=  2.7124258D-02 conv= 1.00D-05.
 RLE energy=       -1.0067671625
 DE(Corr)=  -1.0128809     E(CORR)=     -139.58242729     Delta=-2.37D-02
 NORM(A)=   0.11290544D+01
 Iteration Nr.   5
 **********************
 DD1Dir will call FoFMem   1 times, MxPair=       348
 NAB=   117 NAA=    78 NBB=    36.
 A-vector RMS=  1.8700634D-03 Max=  3.1838704D-02 conv= 1.00D-05.
 RLE energy=       -1.0320726046
 DE(Corr)=  -1.0683251     E(CORR)=     -139.63787147     Delta=-5.54D-02
 NORM(A)=   0.11286042D+01
 Iteration Nr.   6
 **********************
 DD1Dir will call FoFMem   1 times, MxPair=       348
 NAB=   117 NAA=    78 NBB=    36.
 A-vector RMS=  6.1509681D-04 Max=  8.1472169D-03 conv= 1.00D-05.
 RLE energy=       -1.0365091847
 DE(Corr)=  -1.0472168     E(CORR)=     -139.61676322     Delta= 2.11D-02
 NORM(A)=   0.11156461D+01
 Iteration Nr.   7
 **********************
 DD1Dir will call FoFMem   1 times, MxPair=       348
 NAB=   117 NAA=    78 NBB=    36.
 A-vector RMS=  8.1796838D-05 Max=  1.6984470D-03 conv= 1.00D-05.
 RLE energy=       -1.0356691165
 DE(Corr)=  -1.0357819     E(CORR)=     -139.60532829     Delta= 1.14D-02
 NORM(A)=   0.11156182D+01
 Iteration Nr.   8
 **********************
 DD1Dir will call FoFMem   1 times, MxPair=       348
 NAB=   117 NAA=    78 NBB=    36.
 A-vector RMS=  5.8992566D-05 Max=  1.0334343D-03 conv= 1.00D-05.
 RLE energy=       -1.0358676354
 DE(Corr)=  -1.0360133     E(CORR)=     -139.60555970     Delta=-2.31D-04
 NORM(A)=   0.11162541D+01
 Iteration Nr.   9
 **********************
 DD1Dir will call FoFMem   1 times, MxPair=       348
 NAB=   117 NAA=    78 NBB=    36.
 A-vector RMS=  2.8625634D-05 Max=  5.1766016D-04 conv= 1.00D-05.
 RLE energy=       -1.0359853928
 DE(Corr)=  -1.0358999     E(CORR)=     -139.60544630     Delta= 1.13D-04
 NORM(A)=   0.11166882D+01
 Iteration Nr.  10
 **********************
 DD1Dir will call FoFMem   1 times, MxPair=       348
 NAB=   117 NAA=    78 NBB=    36.
 A-vector RMS=  1.4973829D-05 Max=  2.5244913D-04 conv= 1.00D-05.
 RLE energy=       -1.0359863822
 DE(Corr)=  -1.0359683     E(CORR)=     -139.60551464     Delta=-6.83D-05
 NORM(A)=   0.11167937D+01
 Iteration Nr.  11
 **********************
 DD1Dir will call FoFMem   1 times, MxPair=       348
 NAB=   117 NAA=    78 NBB=    36.
 A-vector RMS=  7.8534177D-06 Max=  1.3612196D-04 conv= 1.00D-05.
 RLE energy=       -1.0359935400
 DE(Corr)=  -1.0359794     E(CORR)=     -139.60552580     Delta=-1.12D-05
 NORM(A)=   0.11168473D+01
 Iteration Nr.  12
 **********************
 DD1Dir will call FoFMem   1 times, MxPair=       348
 NAB=   117 NAA=    78 NBB=    36.
 A-vector RMS=  3.7541377D-06 Max=  6.5672383D-05 conv= 1.00D-05.
 RLE energy=       -1.0360008780
 DE(Corr)=  -1.0359908     E(CORR)=     -139.60553722     Delta=-1.14D-05
 NORM(A)=   0.11168321D+01
 Iteration Nr.  13
 **********************
 DD1Dir will call FoFMem   1 times, MxPair=       348
 NAB=   117 NAA=    78 NBB=    36.
 A-vector RMS=  1.5444530D-06 Max=  3.4634731D-05 conv= 1.00D-05.
 RLE energy=       -1.0359764050
 DE(Corr)=  -1.0359782     E(CORR)=     -139.60552460     Delta= 1.26D-05
 NORM(A)=   0.11168092D+01
 Iteration Nr.  14
 **********************
 DD1Dir will call FoFMem   1 times, MxPair=       348
 NAB=   117 NAA=    78 NBB=    36.
 A-vector RMS=  9.3939065D-07 Max=  2.5264420D-05 conv= 1.00D-05.
 RLE energy=       -1.0359766761
 DE(Corr)=  -1.0359799     E(CORR)=     -139.60552625     Delta=-1.65D-06
 NORM(A)=   0.11167973D+01
 Iteration Nr.  15
 **********************
 DD1Dir will call FoFMem   1 times, MxPair=       348
 NAB=   117 NAA=    78 NBB=    36.
 A-vector RMS=  3.1178897D-07 Max=  8.6632139D-06 conv= 1.00D-05.
 RLE energy=       -1.0359742575
 DE(Corr)=  -1.0359742     E(CORR)=     -139.60552056     Delta= 5.69D-06
 NORM(A)=   0.11167937D+01
 Iteration Nr.  16
 **********************
 DD1Dir will call FoFMem   1 times, MxPair=       348
 NAB=   117 NAA=    78 NBB=    36.
 A-vector RMS=  1.8493018D-07 Max=  4.9298513D-06 conv= 1.00D-05.
 RLE energy=       -1.0359736116
 DE(Corr)=  -1.0359738     E(CORR)=     -139.60552022     Delta= 3.45D-07
 NORM(A)=   0.11167934D+01
 Iteration Nr.  17
 **********************
 DD1Dir will call FoFMem   1 times, MxPair=       348
 NAB=   117 NAA=    78 NBB=    36.
 A-vector RMS=  8.6988769D-08 Max=  1.7891356D-06 conv= 1.00D-05.
 RLE energy=       -1.0359737546
 DE(Corr)=  -1.0359738     E(CORR)=     -139.60552021     Delta= 2.24D-09
 NORM(A)=   0.11167936D+01
 CI/CC converged in   17 iterations to DelEn= 2.24D-09 Conv= 1.00D-07 ErrA1= 8.70D-08 Conv= 1.00D-05
 Wavefunction amplitudes converged. E(Corr)=     -139.60552021    
 Largest amplitude= 7.91D-02
 Time for triples=   156738.50 seconds.
 T4(CCSD)= -0.53166068D-01
 T5(CCSD)=  0.82999136D-02
 CCSD(T)= -0.13965038637D+03
 Discarding MO integrals.
 Leave Link  913 at Sun Mar 25 09:11:11 2018, MaxMem= 10737418240 cpu:          189914.5 elap:            5966.4
 (Enter /home1/apps/gaussian/16rA.03/g16/l601.exe)
 Copying SCF densities to generalized density rwf, IOpCl= 0 IROHF=1.

 **********************************************************************

            Population analysis using the SCF density.

 **********************************************************************

 Orbital symmetries:
       Occupied  (SG) (SG) (PI) (PI) (SG) (PI) (PI) (SG) (DLTA)
                 (DLTA) (SG) (PI) (PI)
       Virtual   (SG) (PI) (PI) (SG) (SG) (PI) (PI) (DLTA) (DLTA)
                 (PI) (PI) (SG) (SG) (SG) (PI) (PI) (SG) (PI) (PI)
                 (DLTA) (DLTA) (SG) (PI) (PI) (SG) (SG) (PI) (PI)
                 (DLTA) (DLTA) (SG) (PHI) (PHI) (DLTA) (DLTA) (SG)
                 (PI) (PI) (SG) (PI) (PI) (DLTA) (DLTA) (PI) (PI)
                 (SG) (SG) (PI) (PI) (SG) (PHI) (PHI) (?A) (?A)
                 (SG) (SG) (PI) (PI) (?A) (?A) (?A) (?A) (PI) (PI)
                 (SG) (PHI) (PHI) (SG) (?B) (?B) (PI) (PI) (DLTA)
                 (DLTA) (PHI) (PHI) (PI) (PI) (SG) (PI) (PI) (SG)
                 (PI) (PI) (DLTA) (DLTA) (SG) (SG) (?B) (?B) (DLTA)
                 (DLTA) (PI) (PI) (SG) (PI) (PI) (SG) (PHI) (PHI)
                 (DLTA) (DLTA) (?C) (?C) (?C) (?C) (SG) (DLTA)
                 (DLTA) (SG) (PI) (PI) (SG) (PI) (PI) (PHI) (PHI)
                 (DLTA) (DLTA) (DLTA) (DLTA) (?D) (?D) (?B) (?B)
                 (?E) (?E) (?C) (?C) (?E) (?C) (?C) (SG) (PI) (PI)
                 (DLTA) (DLTA) (SG) (PHI) (PHI) (PI) (PI) (DLTA)
                 (DLTA) (SG) (PI) (PI) (SG) (SG) (DLTA) (DLTA)
                 (PI) (PI) (SG) (PI) (PI) (?B) (?B) (SG) (PHI)
                 (PHI) (DLTA) (DLTA) (PI) (PI) (SG) (PHI) (PHI)
                 (PHI) (PHI) (SG) (DLTA) (DLTA) (DLTA) (DLTA) (PI)
                 (PI) (PI) (PI) (DLTA) (DLTA) (SG) (PI) (PI) (?F)
                 (?F) (PHI) (PHI) (?F) (SG) (DLTA) (DLTA) (?G)
                 (?G) (?G) (?G) (?H) (?H) (?C) (?C) (?C) (?C) (?H)
                 (DLTA) (DLTA) (DLTA) (DLTA) (PI) (PI) (SG) (PI)
                 (PI) (SG) (SG) (SG) (PI) (PI) (SG) (DLTA) (DLTA)
                 (PI) (PI) (PI) (PI) (SG) (SG) (PHI) (PHI) (DLTA)
                 (DLTA) (PI) (PI) (SG) (?B) (?B) (?C) (?C) (DLTA)
                 (DLTA) (SG) (?C) (?C) (SG) (?B) (?B) (?D) (?D)
                 (?C) (?C) (DLTA) (DLTA) (?C) (?C) (SG) (SG) (DLTA)
                 (DLTA) (PI) (PI) (DLTA) (DLTA) (SG) (PI) (PI)
                 (SG) (PI) (PI) (SG) (SG) (PI) (PI) (SG) (SG) (DLTA)
                 (DLTA) (PI) (PI) (SG) (PI) (PI) (SG) (PHI) (PHI)
                 (DLTA) (DLTA) (PI) (PI) (SG) (SG) (SG) (PI) (PI)
                 (SG) (DLTA) (DLTA) (PI) (PI) (SG) (PI) (PI) (SG)
                 (SG) (DLTA) (DLTA) (PI) (PI) (SG) (SG) (PI) (PI)
                 (SG) (PI) (PI) (SG) (SG) (DLTA) (DLTA) (PI) (PI)
                 (SG) (SG) (PI) (PI) (SG) (SG) (PI) (PI) (SG) (SG)
                 (SG) (PI) (PI) (SG) (DLTA) (DLTA) (PI) (PI) (SG)
                 (SG) (PI) (PI) (SG) (SG) (SG) (PI) (PI) (SG) (SG)
                 (SG) (PI) (PI) (SG) (SG) (SG) (PI) (PI) (SG) (SG)
                 (PI) (PI) (SG) (SG) (SG) (SG) (SG) (SG) (SG)
 Unable to determine electronic state:  partially filled degenerate orbitals.
 Alpha  occ. eigenvalues --   -4.46662  -3.00236  -2.90870  -2.90870  -1.32214
 Alpha  occ. eigenvalues --   -0.80455  -0.80455  -0.66769  -0.61322  -0.57003
 Alpha  occ. eigenvalues --   -0.41949  -0.41949  -0.29229
 Alpha virt. eigenvalues --    0.02220   0.02439   0.02439   0.02831   0.05948
 Alpha virt. eigenvalues --    0.06547   0.06547   0.06700   0.06710   0.08306
 Alpha virt. eigenvalues --    0.08306   0.09018   0.11066   0.16299   0.19976
 Alpha virt. eigenvalues --    0.19976   0.21139   0.21139   0.21284   0.21339
 Alpha virt. eigenvalues --    0.21419   0.24705   0.26343   0.26343   0.30799
 Alpha virt. eigenvalues --    0.45619   0.51718   0.51718   0.54189   0.54299
 Alpha virt. eigenvalues --    0.54431   0.57882   0.58312   0.58312   0.58426
 Alpha virt. eigenvalues --    0.60549   0.61513   0.61513   0.69589   0.70249
 Alpha virt. eigenvalues --    0.70249   0.71559   0.71676   0.78002   0.78002
 Alpha virt. eigenvalues --    0.80210   0.86142   1.06834   1.06834   1.25318
 Alpha virt. eigenvalues --    1.41828   1.41828   1.45944   1.46525   1.47916
 Alpha virt. eigenvalues --    1.52238   1.52238   1.52964   1.56487   1.57540
 Alpha virt. eigenvalues --    1.61965   1.61965   1.62036   1.62269   1.69438
 Alpha virt. eigenvalues --    1.79207   1.79207   1.84898   1.88665   1.88669
 Alpha virt. eigenvalues --    1.89630   1.89630   2.01707   2.02179   2.11888
 Alpha virt. eigenvalues --    2.11888   2.13761   2.13761   2.16591   2.27337
 Alpha virt. eigenvalues --    2.27337   2.27643   2.54074   2.54074   2.64101
 Alpha virt. eigenvalues --    2.64751   2.66309   3.30582   3.68835   3.69119
 Alpha virt. eigenvalues --    3.69119   3.69595   3.69595   3.70932   3.81432
 Alpha virt. eigenvalues --    3.82794   3.82794   3.99247   4.02611   4.02611
 Alpha virt. eigenvalues --    4.11660   4.12264   4.17390   4.17390   4.18471
 Alpha virt. eigenvalues --    4.18471   4.20332   4.21532   4.21689   4.34359
 Alpha virt. eigenvalues --    4.65251   4.65251   4.74674   4.75600   4.75600
 Alpha virt. eigenvalues --    4.77314   4.77314   4.89717   4.90616   5.08027
 Alpha virt. eigenvalues --    5.09411   5.29245   5.29245   5.34423   5.34426
 Alpha virt. eigenvalues --    5.46295   5.46324   5.46452   5.46452   5.47861
 Alpha virt. eigenvalues --    5.49986   5.49986   5.58495   5.82221   5.82221
 Alpha virt. eigenvalues --    5.92151   5.93236   6.08299   6.21366   6.21366
 Alpha virt. eigenvalues --    7.00933   7.00933   7.31825   7.32947   7.36983
 Alpha virt. eigenvalues --    7.46806   7.46806   7.68121   7.95811   8.02541
 Alpha virt. eigenvalues --    8.05520   8.21926   8.21926   9.11808  10.09109
 Alpha virt. eigenvalues --   10.09109  10.63995  10.63995  10.66415  10.79010
 Alpha virt. eigenvalues --   10.79010  11.04044  11.04613  11.13068  11.13068
 Alpha virt. eigenvalues --   11.15105  11.91112  11.91112  11.93899  11.93899
 Alpha virt. eigenvalues --   11.96849  12.04917  12.06549  12.32962  12.33697
 Alpha virt. eigenvalues --   12.56622  12.56622  12.62443  12.62443  13.01302
 Alpha virt. eigenvalues --   13.01917  13.06553  13.17415  13.17415  13.53012
 Alpha virt. eigenvalues --   13.53065  13.59395  13.59395  13.64423  13.84061
 Alpha virt. eigenvalues --   14.12239  14.14388  14.26701  14.26701  14.31444
 Alpha virt. eigenvalues --   14.31444  14.34073  14.34086  14.58703  14.58703
 Alpha virt. eigenvalues --   14.64899  14.64899  14.75370  14.96618  14.98611
 Alpha virt. eigenvalues --   15.45399  15.48879  15.58647  15.58647  15.61654
 Alpha virt. eigenvalues --   16.67951  16.67951  16.76341  17.07606  19.33571
 Alpha virt. eigenvalues --   26.71868  26.71868  27.38009  27.57461  27.61131
 Alpha virt. eigenvalues --   27.64775  27.64775  28.14104  28.14104  28.24767
 Alpha virt. eigenvalues --   29.42110  29.68636  29.68636  29.84275  29.86999
 Alpha virt. eigenvalues --   30.86534  30.86534  31.50263  32.43047  32.43061
 Alpha virt. eigenvalues --   32.44132  32.44132  32.69923  32.72672  32.81061
 Alpha virt. eigenvalues --   32.89567  32.89567  34.04027  35.92036  35.92047
 Alpha virt. eigenvalues --   35.93628  35.93628  36.02235  36.02235  36.13123
 Alpha virt. eigenvalues --   36.15848  36.39108  36.39108  36.72031  37.70226
 Alpha virt. eigenvalues --   47.07975  47.11784  47.14645  47.14645  47.49523
 Alpha virt. eigenvalues --   47.49578  47.67620  48.39576  48.39576  49.39591
 Alpha virt. eigenvalues --   50.35978  50.35978  51.70253  60.16833  67.97456
 Alpha virt. eigenvalues --   67.97456  69.64067  81.35675  81.47112  81.50513
 Alpha virt. eigenvalues --   81.53638  81.53638  82.49700  91.41214  91.41214
 Alpha virt. eigenvalues --   92.85675 104.05605 104.05605 104.09084 104.09085
 Alpha virt. eigenvalues --  104.16533 104.16533 104.32426 108.20376 134.97186
 Alpha virt. eigenvalues --  148.93157 148.93157 150.32765 160.94106 160.96200
 Alpha virt. eigenvalues --  161.00227 161.00227 161.39622 162.19791 162.19791
 Alpha virt. eigenvalues --  163.53869 190.84113 201.62225 201.62226 202.09352
 Alpha virt. eigenvalues --  202.09352 202.66597 228.34613 288.71536 288.71536
 Alpha virt. eigenvalues --  290.05873 312.91923 312.91923 314.15423 330.34488
 Alpha virt. eigenvalues --  397.66584 397.67370 397.72096 397.72096 398.05908
 Alpha virt. eigenvalues --  437.00068 531.46634 531.46634 532.83086 570.90573
 Alpha virt. eigenvalues --  654.02346 654.02346 655.21315 856.156041019.98785
 Alpha virt. eigenvalues -- 1024.064431024.064431025.390461302.385321302.38695
 Alpha virt. eigenvalues -- 1302.426141302.426141302.653551739.915432099.42901
 Alpha virt. eigenvalues -- 2099.429012100.657862118.935223702.219384661.10937
 Alpha virt. eigenvalues -- 4661.109374662.213805821.287138265.56093**********
 Alpha virt. eigenvalues -- **************************************************
 Alpha virt. eigenvalues -- **************************************************
 Alpha virt. eigenvalues -- **************************************************
 Alpha virt. eigenvalues -- ********************
     Molecular Orbital Coefficients:
                           5         6         7         8         9
                           O         O         O         O         O
     Eigenvalues --    -1.32214  -0.80455  -0.80455  -0.66769  -0.61322
   1 1   Fe 1S         -0.00000   0.00000   0.00000  -0.00000   0.00000
   2        2S         -0.00000   0.00000   0.00000  -0.00000   0.00000
   3        3S         -0.00000   0.00000   0.00000  -0.00000   0.00000
   4        4S         -0.00000   0.00000   0.00000  -0.00000   0.00000
   5        5S         -0.00000   0.00000   0.00000   0.00000   0.00000
   6        6S         -0.00000   0.00000   0.00000  -0.00000   0.00000
   7        7S          0.00000   0.00000   0.00000   0.00000   0.00000
   8        8S         -0.00002   0.00000   0.00000  -0.00001   0.00000
   9        9S          0.00002   0.00000   0.00000   0.00001   0.00000
  10       10S         -0.00015   0.00000   0.00000  -0.00010   0.00000
  11       11S          0.00021   0.00000   0.00000   0.00015   0.00000
  12       12S         -0.00094   0.00000   0.00000  -0.00060   0.00000
  13       13S          0.00283   0.00000   0.00000   0.00175   0.00000
  14       14S         -0.01765   0.00000   0.00000  -0.01055   0.00000
  15       15S          0.03254   0.00000   0.00000   0.02008   0.00000
  16       16S          0.05012   0.00000   0.00000   0.02064   0.00000
  17       17S         -0.06383   0.00000   0.00000  -0.03088   0.00000
  18       18S         -0.13126   0.00000   0.00000  -0.01690   0.00000
  19       19S         -0.09738   0.00000   0.00000  -0.10069   0.00000
  20       20S         -0.02550   0.00000   0.00000   0.01508   0.00000
  21       21S          0.00563   0.00000   0.00000   0.09627   0.00000
  22       22S         -0.00539   0.00000   0.00000   0.00207   0.00000
  23       23S          0.01210   0.00000   0.00000   0.01459   0.00000
  24       24S         -0.00625   0.00000   0.00000  -0.05895   0.00000
  25       25S          0.00125   0.00000   0.00000   0.00103   0.00000
  26       26PX         0.00000  -0.00000   0.00000   0.00000   0.00000
  27       26PY         0.00000   0.00000  -0.00000   0.00000   0.00000
  28       26PZ         0.00000   0.00000   0.00000   0.00000   0.00000
  29       27PX         0.00000  -0.00000   0.00000   0.00000   0.00000
  30       27PY         0.00000   0.00000  -0.00000   0.00000   0.00000
  31       27PZ         0.00000   0.00000   0.00000   0.00000   0.00000
  32       28PX         0.00000  -0.00000   0.00000   0.00000   0.00000
  33       28PY         0.00000   0.00000  -0.00000   0.00000   0.00000
  34       28PZ         0.00000   0.00000   0.00000   0.00000   0.00000
  35       29PX         0.00000  -0.00000   0.00000   0.00000   0.00000
  36       29PY         0.00000   0.00000  -0.00000   0.00000   0.00000
  37       29PZ         0.00001   0.00000   0.00000   0.00000   0.00000
  38       30PX         0.00000  -0.00001   0.00000   0.00000   0.00000
  39       30PY         0.00000   0.00000  -0.00001   0.00000   0.00000
  40       30PZ         0.00000   0.00000   0.00000   0.00001   0.00000
  41       31PX         0.00000  -0.00003   0.00000   0.00000   0.00000
  42       31PY         0.00000   0.00000  -0.00003   0.00000   0.00000
  43       31PZ         0.00009   0.00000   0.00000   0.00002   0.00000
  44       32PX         0.00000  -0.00003   0.00000   0.00000   0.00000
  45       32PY         0.00000   0.00000  -0.00003   0.00000   0.00000
  46       32PZ        -0.00001   0.00000   0.00000   0.00006   0.00000
  47       33PX         0.00000  -0.00020   0.00000   0.00000   0.00000
  48       33PY         0.00000   0.00000  -0.00020   0.00000   0.00000
  49       33PZ         0.00069   0.00000   0.00000   0.00013   0.00000
  50       34PX         0.00000  -0.00142   0.00000   0.00000   0.00000
  51       34PY         0.00000   0.00000  -0.00142   0.00000   0.00000
  52       34PZ         0.00243   0.00000   0.00000   0.00170   0.00000
  53       35PX         0.00000   0.01151   0.00000   0.00000   0.00000
  54       35PY         0.00000   0.00000   0.01151   0.00000   0.00000
  55       35PZ        -0.02252   0.00000   0.00000  -0.01289   0.00000
  56       36PX         0.00000   0.02413   0.00000   0.00000   0.00000
  57       36PY         0.00000   0.00000   0.02413   0.00000   0.00000
  58       36PZ        -0.01245   0.00000   0.00000  -0.04010   0.00000
  59       37PX         0.00000  -0.03031   0.00000   0.00000   0.00000
  60       37PY         0.00000   0.00000  -0.03031   0.00000   0.00000
  61       37PZ         0.06148   0.00000   0.00000   0.03409   0.00000
  62       38PX         0.00000  -0.01140   0.00000   0.00000   0.00000
  63       38PY         0.00000   0.00000  -0.01140   0.00000   0.00000
  64       38PZ         0.05960   0.00000   0.00000  -0.00435   0.00000
  65       39PX         0.00000  -0.06904   0.00000   0.00000   0.00000
  66       39PY         0.00000   0.00000  -0.06904   0.00000   0.00000
  67       39PZ         0.13191   0.00000   0.00000   0.06321   0.00000
  68       40PX         0.00000  -0.01911   0.00000   0.00000   0.00000
  69       40PY         0.00000   0.00000  -0.01911   0.00000   0.00000
  70       40PZ         0.05843   0.00000   0.00000   0.04215   0.00000
  71       41PX         0.00000  -0.00535   0.00000   0.00000   0.00000
  72       41PY         0.00000   0.00000  -0.00535   0.00000   0.00000
  73       41PZ         0.00461   0.00000   0.00000  -0.04335   0.00000
  74       42PX         0.00000  -0.00511   0.00000   0.00000   0.00000
  75       42PY         0.00000   0.00000  -0.00511   0.00000   0.00000
  76       42PZ        -0.00195   0.00000   0.00000  -0.03921   0.00000
  77       43PX         0.00000   0.00325   0.00000   0.00000   0.00000
  78       43PY         0.00000   0.00000   0.00325   0.00000   0.00000
  79       43PZ        -0.00042   0.00000   0.00000  -0.00119   0.00000
  80       44PX         0.00000  -0.01878   0.00000   0.00000   0.00000
  81       44PY         0.00000   0.00000  -0.01878   0.00000   0.00000
  82       44PZ         0.00118   0.00000   0.00000   0.03414   0.00000
  83       45PX         0.00000  -0.04880   0.00000   0.00000   0.00000
  84       45PY         0.00000   0.00000  -0.04880   0.00000   0.00000
  85       45PZ         0.07734   0.00000   0.00000   0.06781   0.00000
  86       46PX         0.00000  -0.00196   0.00000   0.00000   0.00000
  87       46PY         0.00000   0.00000  -0.00196   0.00000   0.00000
  88       46PZ         0.00009   0.00000   0.00000   0.00024   0.00000
  89       47D 0        0.00005   0.00000   0.00000   0.00011   0.00000
  90       47D+1        0.00000  -0.00006   0.00000   0.00000   0.00000
  91       47D-1        0.00000   0.00000  -0.00006   0.00000   0.00000
  92       47D+2       -0.00000   0.00000   0.00000  -0.00000   0.00000
  93       47D-2        0.00000   0.00000   0.00000   0.00000   0.00018
  94       48D 0        0.00045   0.00000   0.00000   0.00108   0.00000
  95       48D+1        0.00000  -0.00057   0.00000   0.00000   0.00000
  96       48D-1        0.00000   0.00000  -0.00057   0.00000   0.00000
  97       48D+2       -0.00000   0.00000   0.00000  -0.00000   0.00000
  98       48D-2        0.00000   0.00000   0.00000   0.00000   0.00182
  99       49D 0        0.00375   0.00000   0.00000   0.00902   0.00000
 100       49D+1        0.00000  -0.00482   0.00000   0.00000   0.00000
 101       49D-1        0.00000   0.00000  -0.00482   0.00000   0.00000
 102       49D+2       -0.00000   0.00000   0.00000  -0.00000   0.00000
 103       49D-2        0.00000   0.00000   0.00000   0.00000   0.01518
 104       50D 0        0.01451   0.00000   0.00000   0.03501   0.00000
 105       50D+1        0.00000  -0.01851   0.00000   0.00000   0.00000
 106       50D-1        0.00000   0.00000  -0.01851   0.00000   0.00000
 107       50D+2       -0.00000   0.00000   0.00000  -0.00000   0.00000
 108       50D-2        0.00000   0.00000   0.00000   0.00000   0.05916
 109       51D 0        0.03388   0.00000   0.00000   0.08078   0.00000
[...]
 167       62F+1        0.00019   0.00009   0.00010  -0.00001
 168       62F-1        0.00019   0.00009   0.00010  -0.00001
 169       62F+2        0.00001   0.00001  -0.00000   0.00001
 170       62F-2        0.00001   0.00001   0.00001   0.00000
 171       62F+3        0.00002   0.00001   0.00001   0.00000
 172       62F-3        0.00002   0.00001   0.00001   0.00000
 173       63F 0        0.00666   0.00334   0.00332   0.00003
 174       63F+1        0.00406   0.00202   0.00204  -0.00002
 175       63F-1        0.00406   0.00202   0.00204  -0.00002
 176       63F+2        0.00002   0.00002   0.00000   0.00002
 177       63F-2        0.00006   0.00003   0.00003   0.00000
 178       63F+3        0.00004   0.00002   0.00002  -0.00000
 179       63F-3        0.00004   0.00002   0.00002  -0.00000
 180       64F 0        0.00469   0.00227   0.00242  -0.00016
 181       64F+1        0.01541   0.00913   0.00628   0.00285
 182       64F-1        0.01541   0.00913   0.00628   0.00285
 183       64F+2       -0.00001  -0.00001  -0.00000  -0.00001
 184       64F-2        0.00002   0.00001   0.00001   0.00000
 185       64F+3        0.00002   0.00001   0.00001   0.00000
 186       64F-3        0.00002   0.00001   0.00001   0.00000
 187       65F 0       -0.00498  -0.00286  -0.00212  -0.00074
 188       65F+1       -0.00115  -0.00000  -0.00114   0.00114
 189       65F-1       -0.00115  -0.00000  -0.00114   0.00114
 190       65F+2       -0.00000  -0.00000  -0.00000  -0.00000
 191       65F-2       -0.00001  -0.00001  -0.00001  -0.00000
 192       65F+3        0.00000   0.00000   0.00000   0.00000
 193       65F-3        0.00000   0.00000   0.00000   0.00000
 194       66G 0        0.00001   0.00000   0.00000   0.00000
 195       66G+1        0.00000   0.00000   0.00000   0.00000
 196       66G-1        0.00000   0.00000   0.00000   0.00000
 197       66G+2        0.00000   0.00000   0.00000   0.00000
 198       66G-2        0.00000   0.00000   0.00000   0.00000
 199       66G+3        0.00000   0.00000   0.00000   0.00000
 200       66G-3        0.00000   0.00000   0.00000   0.00000
 201       66G+4        0.00000   0.00000   0.00000  -0.00000
 202       66G-4        0.00000   0.00000   0.00000   0.00000
 203       67G 0        0.00025   0.00013   0.00013  -0.00000
 204       67G+1        0.00011   0.00005   0.00006  -0.00001
 205       67G-1        0.00011   0.00005   0.00006  -0.00001
 206       67G+2        0.00001   0.00001  -0.00000   0.00001
 207       67G-2        0.00001   0.00000   0.00000   0.00000
 208       67G+3        0.00000   0.00000   0.00000   0.00000
 209       67G-3        0.00000   0.00000   0.00000   0.00000
 210       67G+4        0.00000   0.00000   0.00000   0.00000
 211       67G-4       -0.00000  -0.00000  -0.00000  -0.00000
 212       68G 0        0.00156   0.00078   0.00078  -0.00000
 213       68G+1        0.00207   0.00101   0.00106  -0.00005
 214       68G-1        0.00207   0.00101   0.00106  -0.00005
 215       68G+2        0.00003   0.00003   0.00000   0.00003
 216       68G-2        0.00004   0.00002   0.00002   0.00000
 217       68G+3        0.00000   0.00000   0.00000   0.00000
 218       68G-3        0.00000   0.00000   0.00000   0.00000
 219       68G+4        0.00000   0.00000   0.00000   0.00000
 220       68G-4       -0.00000  -0.00000  -0.00000  -0.00000
 221       69G 0       -0.00049  -0.00021  -0.00028   0.00007
 222       69G+1        0.00186   0.00114   0.00073   0.00041
 223       69G-1        0.00186   0.00114   0.00073   0.00041
 224       69G+2        0.00000   0.00000  -0.00000   0.00000
 225       69G-2        0.00000   0.00000   0.00000   0.00000
 226       69G+3        0.00000   0.00000   0.00000   0.00000
 227       69G-3        0.00000   0.00000   0.00000   0.00000
 228       69G+4        0.00000   0.00000   0.00000   0.00000
 229       69G-4        0.00000   0.00000   0.00000   0.00000
 230       70H 0        0.00000   0.00000   0.00000  -0.00000
 231       70H+1        0.00000   0.00000   0.00000  -0.00000
 232       70H-1        0.00000   0.00000   0.00000  -0.00000
 233       70H+2        0.00000   0.00000  -0.00000   0.00000
 234       70H-2        0.00000   0.00000   0.00000   0.00000
 235       70H+3        0.00000   0.00000   0.00000   0.00000
 236       70H-3        0.00000   0.00000   0.00000   0.00000
 237       70H+4        0.00000   0.00000   0.00000   0.00000
 238       70H-4       -0.00000  -0.00000  -0.00000  -0.00000
 239       70H+5        0.00000   0.00000   0.00000   0.00000
 240       70H-5        0.00000   0.00000   0.00000   0.00000
 241       71H 0        0.00008   0.00004   0.00004  -0.00000
 242       71H+1        0.00006   0.00003   0.00003  -0.00001
 243       71H-1        0.00006   0.00003   0.00003  -0.00001
 244       71H+2        0.00000   0.00000  -0.00000   0.00000
 245       71H-2        0.00000   0.00000   0.00000   0.00000
 246       71H+3        0.00000   0.00000   0.00000   0.00000
 247       71H-3        0.00000   0.00000   0.00000   0.00000
 248       71H+4        0.00000   0.00000   0.00000  -0.00000
 249       71H-4       -0.00000  -0.00000  -0.00000  -0.00000
 250       71H+5        0.00000   0.00000   0.00000  -0.00000
 251       71H-5        0.00000   0.00000   0.00000  -0.00000
 252       72H 0        0.00015   0.00007   0.00007   0.00000
 253       72H+1        0.00058   0.00028   0.00030  -0.00003
 254       72H-1        0.00058   0.00028   0.00030  -0.00003
 255       72H+2        0.00000   0.00000  -0.00000   0.00000
 256       72H-2        0.00001   0.00000   0.00000   0.00000
 257       72H+3        0.00000  -0.00000   0.00000  -0.00000
 258       72H-3        0.00000  -0.00000   0.00000  -0.00000
 259       72H+4        0.00000   0.00000   0.00000   0.00000
 260       72H-4        0.00000   0.00000   0.00000   0.00000
 261       72H+5        0.00000   0.00000   0.00000   0.00000
 262       72H-5        0.00000   0.00000   0.00000   0.00000
 263 2   O  1S          0.00000   0.00000   0.00000   0.00000
 264        2S          0.00000   0.00000   0.00000   0.00000
 265        3S          0.00000   0.00000   0.00000   0.00000
 266        4S          0.00000   0.00000   0.00000   0.00000
 267        5S          0.00002   0.00001   0.00001   0.00000
 268        6S         -0.00001  -0.00001  -0.00001   0.00000
 269        7S         -0.00085  -0.00042  -0.00043   0.00000
 270        8S         -0.09988  -0.05008  -0.04980  -0.00028
 271        9S         -0.08036  -0.04031  -0.04005  -0.00027
 272       10S          0.44830   0.22490   0.22340   0.00149
 273       11S          1.07276   0.53677   0.53599   0.00078
 274       12S          0.59384   0.28914   0.30470  -0.01555
 275       13S          0.06287   0.03152   0.03135   0.00017
 276       14S          0.00079   0.00039   0.00039  -0.00000
 277       15S          0.00006   0.00003   0.00003   0.00000
 278       16S          0.03650  -0.00353   0.04003  -0.04356
 279       17PX        -0.00033  -0.00017  -0.00015  -0.00002
 280       17PY        -0.00033  -0.00017  -0.00015  -0.00002
 281       17PZ        -0.00029  -0.00015  -0.00014  -0.00001
 282       18PX        -0.14861  -0.07906  -0.06956  -0.00950
 283       18PY        -0.14861  -0.07906  -0.06956  -0.00950
 284       18PZ        -0.13361  -0.06828  -0.06532  -0.00296
 285       19PX         0.14983   0.08053   0.06930   0.01124
 286       19PY         0.14983   0.08053   0.06930   0.01124
 287       19PZ         0.12295   0.06277   0.06018   0.00260
 288       20PX         0.50744   0.26968   0.23776   0.03192
 289       20PY         0.50744   0.26968   0.23776   0.03192
 290       20PZ         0.43041   0.21948   0.21093   0.00854
 291       21PX         0.71239   0.37717   0.33522   0.04195
 292       21PY         0.71239   0.37717   0.33522   0.04195
 293       21PZ         0.42000   0.21907   0.20094   0.01813
 294       22PX         0.38057   0.21617   0.16441   0.05176
 295       22PY         0.38057   0.21617   0.16441   0.05176
 296       22PZ         0.12399   0.07729   0.04670   0.03059
 297       23PX         0.16900   0.09001   0.07899   0.01102
 298       23PY         0.16900   0.09001   0.07899   0.01102
 299       23PZ         0.15065   0.07699   0.07366   0.00333
 300       24PX         0.00170   0.00091   0.00079   0.00012
 301       24PY         0.00170   0.00091   0.00079   0.00012
 302       24PZ         0.00145   0.00074   0.00071   0.00003
 303       25PX         0.00009   0.00005   0.00004   0.00001
 304       25PY         0.00009   0.00005   0.00004   0.00001
 305       25PZ         0.00008   0.00004   0.00004   0.00000
 306       26PX         0.02545   0.01746   0.00799   0.00947
 307       26PY         0.02545   0.01746   0.00799   0.00947
 308       26PZ         0.00606   0.00568   0.00038   0.00529
 309       27D 0        0.00094   0.00049   0.00045   0.00003
 310       27D+1        0.00041   0.00027   0.00014   0.00013
 311       27D-1        0.00041   0.00027   0.00014   0.00013
 312       27D+2        0.00002   0.00002  -0.00000   0.00002
 313       27D-2        0.00004   0.00002   0.00002   0.00000
 314       28D 0        0.01122   0.00582   0.00540   0.00043
 315       28D+1        0.00717   0.00454   0.00263   0.00191
 316       28D-1        0.00717   0.00454   0.00263   0.00191
 317       28D+2        0.00045   0.00045  -0.00000   0.00045
 318       28D-2        0.00106   0.00053   0.00053   0.00000
 319       29D 0        0.00109   0.00091   0.00018   0.00072
 320       29D+1        0.01130   0.00657   0.00473   0.00184
 321       29D-1        0.01130   0.00657   0.00473   0.00184
 322       29D+2        0.00136   0.00136  -0.00000   0.00136
 323       29D-2        0.00350   0.00175   0.00175   0.00000
 324       30D 0        0.00001   0.00001   0.00001   0.00000
 325       30D+1        0.00001   0.00000   0.00000   0.00000
 326       30D-1        0.00001   0.00000   0.00000   0.00000
 327       30D+2        0.00000   0.00000   0.00000   0.00000
 328       30D-2        0.00000   0.00000   0.00000   0.00000
 329       31D 0        0.00000   0.00000   0.00000   0.00000
 330       31D+1        0.00000   0.00000   0.00000   0.00000
 331       31D-1        0.00000   0.00000   0.00000   0.00000
 332       31D+2        0.00000   0.00000   0.00000   0.00000
 333       31D-2       -0.00000  -0.00000  -0.00000  -0.00000
 334       32D 0       -0.00035  -0.00022  -0.00014  -0.00008
 335       32D+1        0.00112   0.00073   0.00038   0.00035
 336       32D-1        0.00112   0.00073   0.00038   0.00035
 337       32D+2        0.00021   0.00021  -0.00000   0.00021
 338       32D-2        0.00061   0.00030   0.00030   0.00000
 339       33F 0        0.00071   0.00036   0.00034   0.00002
 340       33F+1        0.00036   0.00024   0.00012   0.00013
 341       33F-1        0.00036   0.00024   0.00012   0.00013
 342       33F+2        0.00003   0.00003   0.00000   0.00003
 343       33F-2        0.00006   0.00003   0.00003   0.00000
 344       33F+3        0.00000   0.00000   0.00000   0.00000
 345       33F-3        0.00000   0.00000   0.00000   0.00000
 346       34F 0        0.00285   0.00154   0.00131   0.00022
 347       34F+1        0.00304   0.00197   0.00107   0.00091
 348       34F-1        0.00304   0.00197   0.00107   0.00091
 349       34F+2        0.00055   0.00055   0.00000   0.00055
 350       34F-2        0.00132   0.00066   0.00066   0.00000
 351       34F+3        0.00000   0.00000   0.00000  -0.00000
 352       34F-3        0.00000   0.00000   0.00000  -0.00000
 353       35F 0        0.00000   0.00000   0.00000   0.00000
 354       35F+1        0.00000   0.00000   0.00000   0.00000
 355       35F-1        0.00000   0.00000   0.00000   0.00000
 356       35F+2        0.00000   0.00000   0.00000   0.00000
 357       35F-2        0.00000   0.00000   0.00000   0.00000
 358       35F+3        0.00000   0.00000   0.00000  -0.00000
 359       35F-3        0.00000   0.00000   0.00000  -0.00000
 360       36F 0        0.00021   0.00015   0.00006   0.00009
 361       36F+1       -0.00006   0.00000  -0.00007   0.00007
 362       36F-1       -0.00006   0.00000  -0.00007   0.00007
 363       36F+2       -0.00003  -0.00003  -0.00000  -0.00003
 364       36F-2        0.00014   0.00007   0.00007   0.00000
 365       36F+3       -0.00000  -0.00000  -0.00000   0.00000
 366       36F-3       -0.00000  -0.00000  -0.00000   0.00000
 367       37G 0        0.00050   0.00026   0.00024   0.00002
 368       37G+1        0.00035   0.00025   0.00010   0.00015
 369       37G-1        0.00035   0.00025   0.00010   0.00015
 370       37G+2        0.00006   0.00006   0.00000   0.00006
 371       37G-2        0.00012   0.00006   0.00006   0.00000
 372       37G+3        0.00000   0.00000   0.00000  -0.00000
 373       37G-3        0.00000   0.00000   0.00000  -0.00000
 374       37G+4        0.00000   0.00000   0.00000   0.00000
 375       37G-4       -0.00000  -0.00000  -0.00000  -0.00000
 376       38G 0        0.00019   0.00011   0.00008   0.00003
 377       38G+1        0.00023   0.00018   0.00005   0.00013
 378       38G-1        0.00023   0.00018   0.00005   0.00013
 379       38G+2        0.00007   0.00007   0.00000   0.00007
 380       38G-2        0.00026   0.00013   0.00013   0.00000
 381       38G+3       -0.00000  -0.00000  -0.00000  -0.00000
 382       38G-3       -0.00000  -0.00000  -0.00000  -0.00000
 383       38G+4       -0.00000  -0.00000   0.00000  -0.00000
 384       38G-4       -0.00000  -0.00000  -0.00000  -0.00000
          Condensed to atoms (all electrons):
               1          2
     1  Fe  15.360829  -0.186632
     2  O   -0.186632   7.012435
          Atomic-Atomic Spin Densities.
               1          2
     1  Fe   3.860416  -0.180082
     2  O   -0.180082   0.499748
 Mulliken charges and spin densities:
               1          2
     1  Fe   0.825803   3.680334
     2  O   -0.825803   0.319666
 Sum of Mulliken charges =  -0.00000   4.00000
 Mulliken charges and spin densities with hydrogens summed into heavy atoms:
               1          2
     1  Fe   0.825803   3.680334
     2  O   -0.825803   0.319666
 Electronic spatial extent (au):  <R**2>=             67.2383
 Charge=             -0.0000 electrons
 Dipole moment (field-independent basis, Debye):
    X=              0.0000    Y=              0.0000    Z=              1.5604  Tot=              1.5604
 Quadrupole moment (field-independent basis, Debye-Ang):
   XX=            -19.4240   YY=            -19.4240   ZZ=            -21.1950
   XY=              0.0000   XZ=              0.0000   YZ=              0.0000
 Traceless Quadrupole moment (field-independent basis, Debye-Ang):
   XX=              0.5903   YY=              0.5903   ZZ=             -1.1806
   XY=              0.0000   XZ=              0.0000   YZ=              0.0000
 Octapole moment (field-independent basis, Debye-Ang**2):
  XXX=              0.0000  YYY=              0.0000  ZZZ=              0.3513  XYY=              0.0000
  XXY=              0.0000  XXZ=             -0.3858  XZZ=              0.0000  YZZ=              0.0000
  YYZ=             -0.3858  XYZ=              0.0000
 Hexadecapole moment (field-independent basis, Debye-Ang**3):
 XXXX=            -26.9927 YYYY=            -26.9927 ZZZZ=            -64.8417 XXXY=              0.0000
 XXXZ=              0.0000 YYYX=              0.0000 YYYZ=              0.0000 ZZZX=              0.0000
 ZZZY=              0.0000 XXYY=             -9.1970 XXZZ=            -15.9710 YYZZ=            -15.9710
 XXYZ=              0.0000 YYXZ=              0.0000 ZZXY=              0.0000
 N-N= 4.233417687360D+01 E-N=-4.131307634380D+02  KE= 8.620880589029D+01
 Symmetry A1   KE= 3.208104059813D+01
 Symmetry A2   KE= 1.401901334467D+01
 Symmetry B1   KE= 2.005437597627D+01
 Symmetry B2   KE= 2.005437597281D+01
 Symmetry A1   SP= 2.000000000000D+00
 Symmetry A2   SP= 1.838337036302D-16
 Symmetry B1   SP= 1.000000000000D+00
 Symmetry B2   SP= 1.000000000000D+00
 Orbital energies and kinetic energies (alpha):
                                 1                 2
   5         O                -1.322138          1.837740
   6         O                -0.804554          2.801664
   7         O                -0.804554          2.801664
   8         O                -0.667689          4.349104
   9         O                -0.613218          7.009507
  10         O                -0.570026          7.201934
  11         O                -0.419494          0.796688
  12         O                -0.419494          6.763593
  13         O                -0.292289          6.763593
  14         V                 0.022203          0.077568
  15         V                 0.024394          0.062498
  16         V                 0.024394          0.062498
  17         V                 0.028315          0.034552
  18         V                 0.059479          0.098671
 Total kinetic energy from orbitals= 1.077346136076D+02
                          Isotropic Fermi Contact Couplings
        Atom                 a.u.       MegaHertz       Gauss      10(-4) cm-1
     1  Fe(57)             0.00162       0.05886       0.02100       0.01963
     2  O(17)              0.00052      -0.07926      -0.02828      -0.02644
 --------------------------------------------------------
       Center         ----  Spin Dipole Couplings  ----
                      3XX-RR        3YY-RR        3ZZ-RR
 --------------------------------------------------------
     1   Atom       -0.048027     -0.048027      0.096054
     2   Atom       -0.005699     -0.005699      0.011399
 --------------------------------------------------------
                        XY            XZ            YZ
 --------------------------------------------------------
     1   Atom        0.000000      0.000000      0.000000
     2   Atom        0.000000      0.000000      0.000000
 --------------------------------------------------------


 ---------------------------------------------------------------------------------
              Anisotropic Spin Dipole Couplings in Principal Axis System
 ---------------------------------------------------------------------------------

       Atom             a.u.   MegaHertz   Gauss  10(-4) cm-1        Axes

              Baa    -0.0480    -0.831    -0.297    -0.277 -0.0000  1.0000  0.0000
     1 Fe(57) Bbb    -0.0480    -0.831    -0.297    -0.277  1.0000  0.0000  0.0000
              Bcc     0.0961     1.663     0.593     0.555  0.0000  0.0000  1.0000
 
              Baa    -0.0057     0.412     0.147     0.138  1.0000  0.0000  0.0000
     2 O(17)  Bbb    -0.0057     0.412     0.147     0.138 -0.0000  1.0000  0.0000
              Bcc     0.0114    -0.825    -0.294    -0.275  0.0000  0.0000  1.0000
 

 ---------------------------------------------------------------------------------

 No NMR shielding tensors so no spin-rotation constants.
 Leave Link  601 at Sun Mar 25 09:11:19 2018, MaxMem= 10737418240 cpu:             238.8 elap:               7.8
 (Enter /home1/apps/gaussian/16rA.03/g16/l9999.exe)
 1\1\GINC-C404-041\SP\ROCCSD(T)-Full\Gen\Fe1O1(5)\GWANG18\25-Mar-2018\0
 \\#P ROCCSD(T)=(MaxCyc=150, Full)/Gen SCF=(maxcycle=400) Pseudo=Read I
 ntegral(NoXCTest) Pop=Regular MaxDisk=500GB\\FeO\\0,5\Fe,0,0.,0.,0.\O,
 0,0.,0.,1.2\\Version=ES64L-G16RevA.03\HF=-138.5695464\MP2=-139.6665516
 \MP3=-139.5576547\PUHF=-138.5695464\PMP2-0=-139.6665516\MP4SDQ=-139.63
 1495\CCSD=-139.6055202\CCSD(T)=-139.6503864\RMSD=1.061e-09\PG=C*V [C*(
 O1Fe1)]\\@


 THERE IS NOTHING NOBLE IN BEING SUPERIOR TO SOME OTHER MAN.
 TRUE NOBILITY IS BEING SUPERIOR TO YOUR FORMER SELF.

                                                   -- HINDU PROVERB
 Job cpu time:       2 days 12 hours 22 minutes 24.8 seconds.
 Elapsed time:       0 days  1 hours 54 minutes 12.9 seconds.
 File lengths (MBytes):  RWF=  16243 Int=      0 D2E=      0 Chk=     18 Scr=      1
 Normal termination of Gaussian 16 at Sun Mar 25 09:11:20 2018.
