 Entering Gaussian System, Link 0=g16
 Initial command:
 /home1/apps/gaussian/16rA.03/g16/l1.exe "/tmp/Gau-149145.inp" -scrdir="/tmp/"
 Entering Link 1 = /home1/apps/gaussian/16rA.03/g16/l1.exe PID=    149146.
  
 Copyright (c) 1988,1990,1992,1993,1995,1998,2003,2009,2016,
            Gaussian, Inc.  All Rights Reserved.
  
 This is part of the Gaussian(R) 16 program.  It is based on
 the Gaussian(R) 09 system (copyright 2009, Gaussian, Inc.),
 the Gaussian(R) 03 system (copyright 2003, Gaussian, Inc.),
 the Gaussian(R) 98 system (copyright 1998, Gaussian, Inc.),
 the Gaussian(R) 94 system (copyright 1995, Gaussian, Inc.),
 the Gaussian 92(TM) system (copyright 1992, Gaussian, Inc.),
 the Gaussian 90(TM) system (copyright 1990, Gaussian, Inc.),
 the Gaussian 88(TM) system (copyright 1988, Gaussian, Inc.),
 the Gaussian 86(TM) system (copyright 1986, Carnegie Mellon
 University), and the Gaussian 82(TM) system (copyright 1983,
 Carnegie Mellon University). Gaussian is a federally registered
 trademark of Gaussian, Inc.
  
 This software contains proprietary and confidential information,
 including trade secrets, belonging to Gaussian, Inc.
  
 This software is provided under written license and may be
 used, copied, transmitted, or stored only in accord with that
 written license.
  
 The following legend is applicable only to US Government
 contracts under FAR:
  
                    RESTRICTED RIGHTS LEGEND
  
 Use, reproduction and disclosure by the US Government is
 subject to restrictions as set forth in subparagraphs (a)
 and (c) of the Commercial Computer Software - Restricted
 Rights clause in FAR 52.227-19.
  
 Gaussian, Inc.
 340 Quinnipiac St., Bldg. 40, Wallingford CT 06492
  
  
 ---------------------------------------------------------------
 Warning -- This program may not be used in any manner that
 competes with the business of Gaussian, Inc. or will provide
 assistance to any competitor of Gaussian, Inc.  The licensee
 of this program is prohibited from giving any competitor of
 Gaussian, Inc. access to this program.  By using this program,
 the user acknowledges that Gaussian, Inc. is engaged in the
 business of creating and licensing software in the field of
 computational chemistry and represents and warrants to the
 licensee that it is not a competitor of Gaussian, Inc. and that
 it will not use this program in any manner prohibited above.
 ---------------------------------------------------------------
  

 Cite this work as:
 Gaussian 16, Revision A.03,
 M. J. Frisch, G. W. Trucks, H. B. Schlegel, G. E. Scuseria, 
 M. A. Robb, J. R. Cheeseman, G. Scalmani, V. Barone, 
 G. A. Petersson, H. Nakatsuji, X. Li, M. Caricato, A. V. Marenich, 
 J. Bloino, B. G. Janesko, R. Gomperts, B. Mennucci, H. P. Hratchian, 
 J. V. Ortiz, A. F. Izmaylov, J. L. Sonnenberg, D. Williams-Young, 
 F. Ding, F. Lipparini, F. Egidi, J. Goings, B. Peng, A. Petrone, 
 T. Henderson, D. Ranasinghe, V. G. Zakrzewski, J. Gao, N. Rega, 
 G. Zheng, W. Liang, M. Hada, M. Ehara, K. Toyota, R. Fukuda, 
 J. Hasegawa, M. Ishida, T. Nakajima, Y. Honda, O. Kitao, H. Nakai, 
 T. Vreven, K. Throssell, J. A. Montgomery, Jr., J. E. Peralta, 
 F. Ogliaro, M. J. Bearpark, J. J. Heyd, E. N. Brothers, K. N. Kudin, 
 V. N. Staroverov, T. A. Keith, R. Kobayashi, J. Normand, 
 K. Raghavachari, A. P. Rendell, J. C. Burant, S. S. Iyengar, 
 J. Tomasi, M. Cossi, J. M. Millam, M. Klene, C. Adamo, R. Cammi, 
 J. W. Ochterski, R. L. Martin, K. Morokuma, O. Farkas, 
 J. B. Foresman, and D. J. Fox, Gaussian, Inc., Wallingford CT, 2016.
 
 ******************************************
 Gaussian 16:  ES64L-G16RevA.03 25-Dec-2016
                22-Apr-2018 
 ******************************************
 %mem=160GB
 %cpu=0-31
 SetSPE:  set environment variable "MP_BIND" = "yes"
 SetSPE:  set environment variable "MP_BLIST" = "0,1,2,3,4,5,6,7,8,9,10,11,12,13,14,15,16,17,18,19,20,21,22,23,24,25,26,27,28,29,30,31"
 Will use up to   32 processors via shared memory.
 %chk=5z.chk
 %rwf=/scratch/04843/gwang18/znh/
 ----------------------------------------------------------------------
 #P ROCCSD(T)=(MaxCyc=150, Full)/Gen SCF=(maxcycle=400, vshift=200) Pse
 udo=Read Integral(NoXCTest) Pop=Regular MaxDisk=500GB Guess=Read IOp(5
 /15=2)
 ----------------------------------------------------------------------
 1/38=1,172=1/1;
 2/12=2,17=6,18=5,40=1/2;
 3/5=7,11=2,16=1,17=8,25=1,30=1,47=8,116=101/1,2,3;
 4/5=1/1;
 5/5=2,7=400,10=200,15=2,38=6/2;
 8/5=-1,6=4,9=120000,10=90/1,4;
 9/5=7,6=150,14=2/13;
 6//1;
 99/5=1,9=1/99;
 Leave Link    1 at Sun Apr 22 23:18:48 2018, MaxMem= 21474836480 cpu:               1.6 elap:               0.1
 (Enter /home1/apps/gaussian/16rA.03/g16/l101.exe)
 ---
 FeH
 ---
 Symbolic Z-matrix:
 Charge =  0 Multiplicity = 4
 Fe                    0.        0.        0. 
 H                     0.        0.        1.5 
 
 ITRead=  0  0
 MicOpt= -1 -1
 NAtoms=      2 NQM=        2 NQMF=       0 NMMI=      0 NMMIF=      0
                NMic=       0 NMicF=      0.
                    Isotopes and Nuclear Properties:
 (Nuclear quadrupole moments (NQMom) in fm**2, nuclear magnetic moments (NMagM)
  in nuclear magnetons)

  Atom         1           2
 IAtWgt=          56           1
 AtmWgt=  55.9349393   1.0078250
 NucSpn=           0           1
 AtZEff=  -0.0000000  -0.0000000
 NQMom=    0.0000000   0.0000000
 NMagM=    0.0000000   2.7928460
 AtZNuc=  26.0000000   1.0000000
 Leave Link  101 at Sun Apr 22 23:18:48 2018, MaxMem= 21474836480 cpu:               2.7 elap:               0.1
 (Enter /home1/apps/gaussian/16rA.03/g16/l202.exe)
                          Input orientation:                          
 ---------------------------------------------------------------------
 Center     Atomic      Atomic             Coordinates (Angstroms)
 Number     Number       Type             X           Y           Z
 ---------------------------------------------------------------------
      1         26           0        0.000000    0.000000    0.000000
      2          1           0        0.000000    0.000000    1.500000
 ---------------------------------------------------------------------
 Stoichiometry    FeH(4)
 Framework group  C*V[C*(HFe)]
 Deg. of freedom     1
 Full point group                 C*V     NOp   4
 Largest Abelian subgroup         C2V     NOp   4
 Largest concise Abelian subgroup C1      NOp   1
                         Standard orientation:                         
 ---------------------------------------------------------------------
 Center     Atomic      Atomic             Coordinates (Angstroms)
 Number     Number       Type             X           Y           Z
 ---------------------------------------------------------------------
      1         26           0        0.000000    0.000000    0.055556
      2          1           0        0.000000    0.000000   -1.444444
 ---------------------------------------------------------------------
 Rotational constants (GHZ):           0.0000000         226.8845452         226.8845452
 Leave Link  202 at Sun Apr 22 23:18:48 2018, MaxMem= 21474836480 cpu:               0.5 elap:               0.0
 (Enter /home1/apps/gaussian/16rA.03/g16/l301.exe)
 General basis read from cards:  (5D, 7F)
 Centers:       1
 S 1 1.00
     Exponent=  1.4976900000D+08 Coefficients=  1.0000000000D+00
 S 1 1.00
     Exponent=  2.6722500000D+07 Coefficients=  1.0000000000D+00
 S 1 1.00
     Exponent=  5.9590000000D+06 Coefficients=  1.0000000000D+00
 S 1 1.00
     Exponent=  1.5936100000D+06 Coefficients=  1.0000000000D+00
 S 1 1.00
     Exponent=  4.9346400000D+05 Coefficients=  1.0000000000D+00
 S 1 1.00
     Exponent=  1.7179000000D+05 Coefficients=  1.0000000000D+00
 S 1 1.00
     Exponent=  6.5620900000D+04 Coefficients=  1.0000000000D+00
 S 1 1.00
     Exponent=  2.6965600000D+04 Coefficients=  1.0000000000D+00
 S 1 1.00
     Exponent=  1.1735300000D+04 Coefficients=  1.0000000000D+00
 S 1 1.00
     Exponent=  5.3434300000D+03 Coefficients=  1.0000000000D+00
 S 1 1.00
     Exponent=  2.5225000000D+03 Coefficients=  1.0000000000D+00
 S 1 1.00
     Exponent=  1.2264300000D+03 Coefficients=  1.0000000000D+00
 S 1 1.00
     Exponent=  6.1126900000D+02 Coefficients=  1.0000000000D+00
 S 1 1.00
     Exponent=  3.1130800000D+02 Coefficients=  1.0000000000D+00
 S 1 1.00
     Exponent=  1.6162400000D+02 Coefficients=  1.0000000000D+00
 S 1 1.00
     Exponent=  8.5376700000D+01 Coefficients=  1.0000000000D+00
 S 1 1.00
     Exponent=  4.5791100000D+01 Coefficients=  1.0000000000D+00
 S 1 1.00
     Exponent=  2.4867700000D+01 Coefficients=  1.0000000000D+00
 S 1 1.00
     Exponent=  1.3620200000D+01 Coefficients=  1.0000000000D+00
 S 1 1.00
     Exponent=  7.4810600000D+00 Coefficients=  1.0000000000D+00
 S 1 1.00
     Exponent=  4.0881700000D+00 Coefficients=  1.0000000000D+00
 S 1 1.00
     Exponent=  2.1990500000D+00 Coefficients=  1.0000000000D+00
 S 1 1.00
     Exponent=  1.1481500000D+00 Coefficients=  1.0000000000D+00
 S 1 1.00
     Exponent=  5.7726500000D-01 Coefficients=  1.0000000000D+00
 S 1 1.00
     Exponent=  1.9763500000D-01 Coefficients=  1.0000000000D+00
 S 1 1.00
     Exponent=  1.0898600000D-01 Coefficients=  1.0000000000D+00
 S 1 1.00
     Exponent=  5.3216000000D-02 Coefficients=  1.0000000000D+00
 S 1 1.00
     Exponent=  2.5571000000D-02 Coefficients=  1.0000000000D+00
 S 1 1.00
     Exponent=  6.6224000000D+00 Coefficients=  1.0000000000D+00
 S 1 1.00
     Exponent=  2.2140000000D+00 Coefficients=  1.0000000000D+00
 S 1 1.00
     Exponent=  1.2290000000D-02 Coefficients=  1.0000000000D+00
 P 1 1.00
     Exponent=  8.6947300000D+04 Coefficients=  1.0000000000D+00
 P 1 1.00
     Exponent=  2.1254000000D+04 Coefficients=  1.0000000000D+00
 P 1 1.00
     Exponent=  6.7411400000D+03 Coefficients=  1.0000000000D+00
 P 1 1.00
     Exponent=  2.5571600000D+03 Coefficients=  1.0000000000D+00
 P 1 1.00
     Exponent=  1.0935100000D+03 Coefficients=  1.0000000000D+00
 P 1 1.00
     Exponent=  5.0616100000D+02 Coefficients=  1.0000000000D+00
 P 1 1.00
     Exponent=  2.4713900000D+02 Coefficients=  1.0000000000D+00
 P 1 1.00
     Exponent=  1.2541500000D+02 Coefficients=  1.0000000000D+00
 P 1 1.00
     Exponent=  6.5651200000D+01 Coefficients=  1.0000000000D+00
 P 1 1.00
     Exponent=  3.5307900000D+01 Coefficients=  1.0000000000D+00
 P 1 1.00
     Exponent=  1.9426000000D+01 Coefficients=  1.0000000000D+00
 P 1 1.00
     Exponent=  1.0843800000D+01 Coefficients=  1.0000000000D+00
 P 1 1.00
     Exponent=  6.0435900000D+00 Coefficients=  1.0000000000D+00
 P 1 1.00
     Exponent=  3.3024500000D+00 Coefficients=  1.0000000000D+00
 P 1 1.00
     Exponent=  1.7638900000D+00 Coefficients=  1.0000000000D+00
 P 1 1.00
     Exponent=  9.2138600000D-01 Coefficients=  1.0000000000D+00
 P 1 1.00
     Exponent=  4.6037300000D-01 Coefficients=  1.0000000000D+00
 P 1 1.00
     Exponent=  1.8377200000D-01 Coefficients=  1.0000000000D+00
 P 1 1.00
     Exponent=  7.5833000000D-02 Coefficients=  1.0000000000D+00
 P 1 1.00
     Exponent=  3.1099000000D-02 Coefficients=  1.0000000000D+00
 P 1 1.00
     Exponent=  1.0012800000D+01 Coefficients=  1.0000000000D+00
 P 1 1.00
     Exponent=  3.1869000000D+00 Coefficients=  1.0000000000D+00
 P 1 1.00
     Exponent=  1.2750000000D-02 Coefficients=  1.0000000000D+00
 D 1 1.00
     Exponent=  5.1841600000D+02 Coefficients=  1.0000000000D+00
 D 1 1.00
     Exponent=  1.5281900000D+02 Coefficients=  1.0000000000D+00
 D 1 1.00
     Exponent=  5.8586900000D+01 Coefficients=  1.0000000000D+00
 D 1 1.00
     Exponent=  2.5456400000D+01 Coefficients=  1.0000000000D+00
 D 1 1.00
     Exponent=  1.1786800000D+01 Coefficients=  1.0000000000D+00
 D 1 1.00
     Exponent=  5.7186100000D+00 Coefficients=  1.0000000000D+00
 D 1 1.00
     Exponent=  2.8241700000D+00 Coefficients=  1.0000000000D+00
 D 1 1.00
     Exponent=  1.3798500000D+00 Coefficients=  1.0000000000D+00
 D 1 1.00
     Exponent=  6.5616000000D-01 Coefficients=  1.0000000000D+00
 D 1 1.00
     Exponent=  2.9960900000D-01 Coefficients=  1.0000000000D+00
 D 1 1.00
     Exponent=  1.2936100000D-01 Coefficients=  1.0000000000D+00
 D 1 1.00
     Exponent=  5.1155000000D-02 Coefficients=  1.0000000000D+00
 D 1 1.00
     Exponent=  7.0982000000D+00 Coefficients=  1.0000000000D+00
 D 1 1.00
     Exponent=  4.2772000000D+00 Coefficients=  1.0000000000D+00
 D 1 1.00
     Exponent=  2.0230000000D-02 Coefficients=  1.0000000000D+00
 F 1 1.00
     Exponent=  1.1047100000D+01 Coefficients=  1.0000000000D+00
 F 1 1.00
     Exponent=  4.8541000000D+00 Coefficients=  1.0000000000D+00
 F 1 1.00
     Exponent=  2.1329000000D+00 Coefficients=  1.0000000000D+00
 F 1 1.00
     Exponent=  9.3720000000D-01 Coefficients=  1.0000000000D+00
 F 1 1.00
     Exponent=  3.1410000000D-01 Coefficients=  1.0000000000D+00
 F 1 1.00
     Exponent=  1.0527000000D-01 Coefficients=  1.0000000000D+00
 G 1 1.00
     Exponent=  7.5475000000D+00 Coefficients=  1.0000000000D+00
 G 1 1.00
     Exponent=  3.6737000000D+00 Coefficients=  1.0000000000D+00
 G 1 1.00
     Exponent=  1.7881000000D+00 Coefficients=  1.0000000000D+00
 G 1 1.00
     Exponent=  6.5640000000D-01 Coefficients=  1.0000000000D+00
 G 1 1.00
     Exponent=  2.4096000000D-01 Coefficients=  1.0000000000D+00
 H 1 1.00
     Exponent=  6.9263000000D+00 Coefficients=  1.0000000000D+00
 H 1 1.00
     Exponent=  3.2527000000D+00 Coefficients=  1.0000000000D+00
 H 1 1.00
     Exponent=  1.2964000000D+00 Coefficients=  1.0000000000D+00
 H 1 1.00
     Exponent=  5.1669000000D-01 Coefficients=  1.0000000000D+00
 I 1 1.00
     Exponent=  7.0569000000D+00 Coefficients=  1.0000000000D+00
 I 1 1.00
     Exponent=  1.3776500000D+00 Coefficients=  1.0000000000D+00
 ****
 Centers:       2
 S 1 1.00
     Exponent=  4.0200000000D+02 Coefficients=  1.0000000000D+00
 S 1 1.00
     Exponent=  6.0240000000D+01 Coefficients=  1.0000000000D+00
 S 1 1.00
     Exponent=  1.3730000000D+01 Coefficients=  1.0000000000D+00
 S 1 1.00
     Exponent=  3.9050000000D+00 Coefficients=  1.0000000000D+00
 S 1 1.00
     Exponent=  1.2830000000D+00 Coefficients=  1.0000000000D+00
 S 1 1.00
     Exponent=  4.6550000000D-01 Coefficients=  1.0000000000D+00
 S 1 1.00
     Exponent=  1.8110000000D-01 Coefficients=  1.0000000000D+00
 S 1 1.00
     Exponent=  7.2790000000D-02 Coefficients=  1.0000000000D+00
 S 1 1.00
     Exponent=  2.0700000000D-02 Coefficients=  1.0000000000D+00
 P 1 1.00
     Exponent=  4.5160000000D+00 Coefficients=  1.0000000000D+00
 P 1 1.00
     Exponent=  1.7120000000D+00 Coefficients=  1.0000000000D+00
 P 1 1.00
     Exponent=  6.4900000000D-01 Coefficients=  1.0000000000D+00
 P 1 1.00
     Exponent=  2.4600000000D-01 Coefficients=  1.0000000000D+00
 P 1 1.00
     Exponent=  7.4400000000D-02 Coefficients=  1.0000000000D+00
 D 1 1.00
     Exponent=  2.9500000000D+00 Coefficients=  1.0000000000D+00
 D 1 1.00
     Exponent=  1.2060000000D+00 Coefficients=  1.0000000000D+00
 D 1 1.00
     Exponent=  4.9300000000D-01 Coefficients=  1.0000000000D+00
 D 1 1.00
     Exponent=  1.5600000000D-01 Coefficients=  1.0000000000D+00
 F 1 1.00
     Exponent=  2.5060000000D+00 Coefficients=  1.0000000000D+00
 F 1 1.00
     Exponent=  8.7500000000D-01 Coefficients=  1.0000000000D+00
 F 1 1.00
     Exponent=  2.7400000000D-01 Coefficients=  1.0000000000D+00
 G 1 1.00
     Exponent=  2.3580000000D+00 Coefficients=  1.0000000000D+00
 G 1 1.00
     Exponent=  5.4300000000D-01 Coefficients=  1.0000000000D+00
 ****
 ======================================================================================================
                                       Pseudopotential Parameters
 ======================================================================================================
  Center     Atomic      Valence      Angular      Power
  Number     Number     Electrons     Momentum     of R      Exponent        Coefficient   SO-Coeffient
 ======================================================================================================
    1         26           16
                                      D and up 
                                                     1       23.2209171       16.00000000    0.00000000
                                                     3       23.5471468      371.53467418    0.00000000
                                                     2       23.4725634     -181.22603445    0.00000000
                                                     2        9.8523882       -2.37305236    0.00000000
                                      S - D
                                                     2       22.2106270      277.50032547    0.00000000
                                                     2        9.5151580       46.20495585    0.00000000
                                      P - D
                                                     2       24.5700087      194.99875057    0.00000000
                                                     2        8.8664878       31.67945133    0.00000000
    2          1            1
                                      P and up 
                                                     2       21.7769666      -10.85192405    0.00000000
                                                     1       21.2435951        1.00000000    0.00000000
                                                     3       21.2435951       21.24359508    0.00000000
                                      S - P
                                                     2        1.0000000        0.00000000    0.00000000
 ======================================================================================================
 Ernie: Thresh=  0.10000D-02 Tol=  0.10000D-05 Strict=F.
 There are   238 symmetry adapted cartesian basis functions of A1  symmetry.
 There are    73 symmetry adapted cartesian basis functions of A2  symmetry.
 There are   131 symmetry adapted cartesian basis functions of B1  symmetry.
 There are   131 symmetry adapted cartesian basis functions of B2  symmetry.
 There are   165 symmetry adapted basis functions of A1  symmetry.
 There are    56 symmetry adapted basis functions of A2  symmetry.
 There are    97 symmetry adapted basis functions of B1  symmetry.
 There are    97 symmetry adapted basis functions of B2  symmetry.
   415 basis functions,   573 primitive gaussians,   573 cartesian basis functions
    10 alpha electrons        7 beta electrons
       nuclear repulsion energy         5.6445569165 Hartrees.
 IExCor=    0 DFT=F Ex=HF Corr=None ExCW=0 ScaHFX=  1.000000
 ScaDFX=  1.000000  1.000000  1.000000  1.000000 ScalE2=  1.000000  1.000000
 IRadAn=      5 IRanWt=     -1 IRanGd=            0 ICorTp=0 IEmpDi=  4
 NAtoms=    2 NActive=    2 NUniq=    2 SFac= 1.00D+00 NAtFMM=   60 NAOKFM=F Big=F
 Integral buffers will be    131072 words long.
 Raffenetti 2 integral format.
 Two-electron integral symmetry is turned on.
 Leave Link  301 at Sun Apr 22 23:18:48 2018, MaxMem= 21474836480 cpu:               3.4 elap:               0.1
 (Enter /home1/apps/gaussian/16rA.03/g16/l302.exe)
 NPDir=0 NMtPBC=     1 NCelOv=     1 NCel=       1 NClECP=     1 NCelD=      1
         NCelK=      1 NCelE2=     1 NClLst=     1 CellRange=     0.0.
 One-electron integrals computed using PRISM.
 One-electron integral symmetry used in STVInt
   4 Symmetry operations used in ECPInt.
 ECPInt:  NShTT=    5995 NPrTT=    5995 LenC2=    5893 LenP2D=    5892.
 LDataN:  DoStor=T MaxTD1=12 Len= 1566
 NBasis=   415 RedAO= T EigKep=  6.03D-06  NBF=   165    56    97    97
 NBsUse=   407 1.00D-06 EigRej=  9.24D-07 NBFU=   161    56    95    95
 Leave Link  302 at Sun Apr 22 23:18:49 2018, MaxMem= 21474836480 cpu:              39.7 elap:               1.3
 (Enter /home1/apps/gaussian/16rA.03/g16/l303.exe)
 DipDrv:  MaxL=1.
 Leave Link  303 at Sun Apr 22 23:18:50 2018, MaxMem= 21474836480 cpu:               1.8 elap:               0.1
 (Enter /home1/apps/gaussian/16rA.03/g16/l401.exe)
 Initial guess from the checkpoint file:  "5z.chk"
 B after Tr=     0.000000    0.000000    0.000000
         Rot=    1.000000    0.000000    0.000000    0.000000 Ang=   0.00 deg.
 Guess basis will be translated and rotated to current coordinates.
 JPrj=2 DoOrth=T DoCkMO=T.
 Initial guess orbital symmetries:
       Occupied  (SG) (SG) (PI) (PI) (SG) (DLTA) (SG) (PI) (PI)
                 (DLTA)
       Virtual   (SG) (PI) (PI) (SG) (SG) (SG) (DLTA) (DLTA) (PI)
                 (PI) (PI) (PI) (SG) (SG) (SG) (PI) (PI) (SG) (DLTA)
                 (DLTA) (PI) (PI) (SG) (PI) (PI) (SG) (SG) (?A)
                 (?A) (SG) (?B) (?B) (?B) (?B) (?A) (?A) (SG) (PI)
                 (PI) (PI) (PI) (SG) (SG) (DLTA) (DLTA) (PI) (PI)
                 (SG) (PI) (PI) (SG) (DLTA) (DLTA) (?B) (?B) (?B)
                 (?B) (SG) (DLTA) (DLTA) (SG) (PI) (PI) (PHI) (PHI)
                 (?C) (?C) (?C) (PI) (PI) (DLTA) (DLTA) (PI) (PI)
                 (SG) (PHI) (PHI) (DLTA) (DLTA) (SG) (PI) (PI)
                 (SG) (SG) (DLTA) (DLTA) (PI) (PI) (SG) (PI) (PI)
                 (SG) (DLTA) (DLTA) (PI) (PI) (SG) (PHI) (PHI)
                 (DLTA) (DLTA) (PI) (PI) (SG) (DLTA) (DLTA) (?D)
                 (?D) (?E) (?E) (PHI) (PHI) (?F) (?F) (?B) (?B)
                 (?B) (?B) (?F) (PI) (PI) (DLTA) (DLTA) (SG) (SG)
                 (PI) (PI) (PHI) (PHI) (SG) (DLTA) (DLTA) (SG)
                 (PI) (PI) (SG) (DLTA) (DLTA) (PI) (PI) (SG) (DLTA)
                 (DLTA) (PI) (PI) (PI) (PI) (SG) (SG) (?B) (?B)
                 (DLTA) (DLTA) (?B) (?B) (SG) (PI) (PI) (SG) (?D)
                 (?D) (?B) (?B) (DLTA) (DLTA) (?B) (?B) (?G) (?G)
                 (?G) (?E) (?E) (PHI) (PHI) (DLTA) (DLTA) (PI)
                 (PI) (SG) (DLTA) (DLTA) (PI) (PI) (SG) (SG) (PI)
                 (PI) (SG) (SG) (DLTA) (DLTA) (PI) (PI) (SG) (?B)
                 (?B) (DLTA) (DLTA) (?B) (?B) (SG) (?B) (?B) (?H)
                 (?H) (DLTA) (DLTA) (?B) (?B) (?H) (?I) (?I) (?J)
                 (?J) (?J) (?J) (DLTA) (DLTA) (?J) (?J) (?I) (SG)
                 (DLTA) (DLTA) (PI) (PI) (SG) (PI) (PI) (SG) (DLTA)
                 (DLTA) (PI) (PI) (SG) (SG) (PI) (PI) (SG) (SG)
                 (DLTA) (DLTA) (PI) (PI) (SG) (SG) (PI) (PI) (SG)
                 (SG) (PI) (PI) (SG) (DLTA) (DLTA) (PI) (PI) (SG)
                 (SG) (PI) (PI) (SG) (SG) (PI) (PI) (SG) (DLTA)
                 (DLTA) (PI) (PI) (SG) (SG) (PI) (PI) (SG) (SG)
                 (PI) (PI) (SG) (SG) (PI) (PI) (SG) (SG) (PI) (PI)
                 (SG) (SG) (PI) (PI) (SG) (SG) (SG) (SG) (SG) (SG)
                 (SG) (DLTA) (SG) (SG) (SG) (DLTA) (SG) (SG) (SG)
                 (DLTA) (SG) (DLTA) (?D) (SG) (SG) (DLTA) (DLTA)
                 (SG) (?D) (DLTA) (SG) (SG) (DLTA) (DLTA) (SG)
                 (?D) (DLTA) (SG) (SG) (?D) (SG) (?D) (SG) (?D)
                 (SG) (SG) (SG) (DLTA) (DLTA) (DLTA) (DLTA) (?D)
                 (DLTA) (DLTA) (?D) (DLTA) (DLTA) (DLTA) (?D) (DLTA)
                 (?D) (?D) (SG) (?D) (SG) (PI) (PI) (PI) (PHI)
                 (PI) (PI) (PHI) (PI) (PI) (PHI) (PI) (PI) (?E)
                 (PHI) (PI) (PHI) (PI) (PHI) (PI) (PHI) (PHI) (?E)
                 (?E) (PI) (PI) (PI) (PHI) (PI) (PI) (PHI) (PI)
                 (PI) (PHI) (PI) (PI) (?E) (PHI) (PI) (PHI) (PI)
                 (PHI) (PI) (PHI) (PHI) (?E) (?E)
 Leave Link  401 at Sun Apr 22 23:18:50 2018, MaxMem= 21474836480 cpu:              12.0 elap:               0.4
 (Enter /home1/apps/gaussian/16rA.03/g16/l502.exe)
 Keep R1 and R2 ints in memory in symmetry-blocked form, NReq=4666733380.
 FoFCou: FMM=F IPFlag=           8 FMFlag=           0 FMFlg1=           0
         NFxFlg=           0 DoJE=F BraDBF=F KetDBF=F FulRan=T
         wScrn=  0.000000 ICntrl=       600 IOpCl=  0 I1Cent=           0 NGrid=           0
         NMat0=    1 NMatS0=  86320 NMatT0=    0 NMatD0=    1 NMtDS0=    0 NMtDT0=    0
 Petite list used in FoFCou.
 Restricted open shell SCF:
 Using DIIS extrapolation, IDIIS=  1040.
 NGot= 21474836480 LenX= 19592114166 LenY= 19591785264
 Requested convergence on RMS density matrix=1.00D-08 within 400 cycles.
 Requested convergence on MAX density matrix=1.00D-06.
 Requested convergence on             energy=1.00D-06.
 Virtual orbitals will be shifted by   0.200 hartree.
 No special actions if energy rises.

 Cycle   1  Pass 1  IDiag  1:
 E= -123.115329102579    
 DIIS: error= 2.05D+00 at cycle   1 NSaved=   1.
 NSaved= 1 IEnMin= 1 EnMin= -123.115329102579     IErMin= 1 ErrMin= 2.05D+00
 ErrMax= 2.05D+00  0.00D+00 EMaxC= 1.00D-01 BMatC= 3.73D+02 BMatP= 3.73D+02
 IDIUse=3 WtCom= 0.00D+00 WtEn= 1.00D+00
 Coeff-Com:  0.100D+01
 Coeff-En:   0.100D+01
 Coeff:      0.100D+01
 Gap=     0.016 Goal=   None    Shift=    0.200
 GapD=    0.016 DampG=0.250 DampE=0.125 DampFc=0.1250 IDamp=-1.
 Damping current iteration by 1.25D-01
 RMSDP=5.78D-04 MaxDP=3.90D-02              OVMax= 1.03D-03

 Cycle   2  Pass 1  IDiag  1:
 E= -123.115371969828     Delta-E=       -0.000042867248 Rises=F Damp=T
 DIIS: error= 1.80D+00 at cycle   2 NSaved=   2.
 NSaved= 2 IEnMin= 2 EnMin= -123.115371969828     IErMin= 2 ErrMin= 1.80D+00
 ErrMax= 1.80D+00  0.00D+00 EMaxC= 1.00D-01 BMatC= 2.86D+02 BMatP= 3.73D+02
 IDIUse=3 WtCom= 0.00D+00 WtEn= 1.00D+00
 Coeff-Com: -0.700D+01 0.800D+01
 Coeff-En:   0.000D+00 0.100D+01
 Coeff:      0.000D+00 0.100D+01
 Gap=     0.015 Goal=   None    Shift=    0.200
 RMSDP=5.17D-04 MaxDP=3.39D-02 DE=-4.29D-05 OVMax= 1.49D-04

 Cycle   3  Pass 1  IDiag  1:
 E= -123.115675878989     Delta-E=       -0.000303909161 Rises=F Damp=F
 DIIS: error= 2.56D-04 at cycle   3 NSaved=   3.
 NSaved= 3 IEnMin= 3 EnMin= -123.115675878989     IErMin= 3 ErrMin= 2.56D-04
 ErrMax= 2.56D-04  0.00D+00 EMaxC= 1.00D-01 BMatC= 1.90D-06 BMatP= 2.86D+02
 IDIUse=3 WtCom= 9.97D-01 WtEn= 2.56D-03
 Coeff-Com: -0.104D+01 0.119D+01 0.851D+00
 Coeff-En:   0.000D+00 0.000D+00 0.100D+01
 Coeff:     -0.104D+01 0.119D+01 0.851D+00
 Gap=     0.015 Goal=   None    Shift=    0.200
 RMSDP=2.37D-05 MaxDP=2.59D-03 DE=-3.04D-04 OVMax= 1.92D-04

 Cycle   4  Pass 1  IDiag  1:
 E= -123.115675834087     Delta-E=        0.000000044903 Rises=F Damp=F
 DIIS: error= 2.03D-04 at cycle   4 NSaved=   4.
 NSaved= 4 IEnMin= 3 EnMin= -123.115675878989     IErMin= 4 ErrMin= 2.03D-04
 ErrMax= 2.03D-04  0.00D+00 EMaxC= 1.00D-01 BMatC= 1.14D-06 BMatP= 1.90D-06
 IDIUse=3 WtCom= 9.98D-01 WtEn= 2.03D-03
 Coeff-Com: -0.997D+00 0.114D+01-0.201D+00 0.106D+01
 Coeff-En:   0.000D+00 0.000D+00 0.889D+00 0.111D+00
 Coeff:     -0.995D+00 0.114D+01-0.199D+00 0.106D+01
 Gap=     0.015 Goal=   None    Shift=    0.200
 RMSDP=6.76D-06 MaxDP=8.25D-04 DE= 4.49D-08 OVMax= 8.46D-05

 Cycle   5  Pass 1  IDiag  1:
 E= -123.115675907810     Delta-E=       -0.000000073723 Rises=F Damp=F
 DIIS: error= 1.93D-04 at cycle   5 NSaved=   5.
 NSaved= 5 IEnMin= 5 EnMin= -123.115675907810     IErMin= 5 ErrMin= 1.93D-04
 ErrMax= 1.93D-04  0.00D+00 EMaxC= 1.00D-01 BMatC= 9.93D-07 BMatP= 1.14D-06
 IDIUse=3 WtCom= 9.98D-01 WtEn= 1.93D-03
 Coeff-Com: -0.933D+00 0.107D+01-0.189D+00 0.517D-01 0.100D+01
 Coeff-En:   0.000D+00 0.000D+00 0.000D+00 0.000D+00 0.100D+01
 Coeff:     -0.931D+00 0.106D+01-0.189D+00 0.516D-01 0.100D+01
 Gap=     0.015 Goal=   None    Shift=    0.200
 RMSDP=2.22D-06 MaxDP=2.91D-04 DE=-7.37D-08 OVMax= 2.75D-05

 Cycle   6  Pass 1  IDiag  1:
 E= -123.115675918786     Delta-E=       -0.000000010976 Rises=F Damp=F
 DIIS: error= 1.81D-04 at cycle   6 NSaved=   6.
 NSaved= 6 IEnMin= 6 EnMin= -123.115675918786     IErMin= 6 ErrMin= 1.81D-04
 ErrMax= 1.81D-04  0.00D+00 EMaxC= 1.00D-01 BMatC= 8.79D-07 BMatP= 9.93D-07
 IDIUse=3 WtCom= 9.98D-01 WtEn= 1.81D-03
 Coeff-Com: -0.846D+00 0.966D+00-0.158D+00-0.261D+00 0.324D-01 0.127D+01
 Coeff-En:   0.000D+00 0.000D+00 0.000D+00 0.000D+00 0.000D+00 0.100D+01
 Coeff:     -0.844D+00 0.965D+00-0.158D+00-0.261D+00 0.324D-01 0.127D+01
 Gap=     0.015 Goal=   None    Shift=    0.200
 RMSDP=1.26D-06 MaxDP=1.50D-04 DE=-1.10D-08 OVMax= 1.79D-05

 Cycle   7  Pass 1  IDiag  1:
 E= -123.115675944807     Delta-E=       -0.000000026021 Rises=F Damp=F
 DIIS: error= 1.64D-04 at cycle   7 NSaved=   7.
 NSaved= 7 IEnMin= 7 EnMin= -123.115675944807     IErMin= 7 ErrMin= 1.64D-04
 ErrMax= 1.64D-04  0.00D+00 EMaxC= 1.00D-01 BMatC= 7.25D-07 BMatP= 8.79D-07
 IDIUse=3 WtCom= 9.98D-01 WtEn= 1.64D-03
 Coeff-Com: -0.772D+00 0.882D+00-0.139D+00-0.282D+00-0.104D+00 0.609D+00
 Coeff-Com:  0.806D+00
 Coeff-En:   0.000D+00 0.000D+00 0.000D+00 0.000D+00 0.000D+00 0.000D+00
 Coeff-En:   0.100D+01
 Coeff:     -0.771D+00 0.881D+00-0.139D+00-0.282D+00-0.104D+00 0.608D+00
 Coeff:      0.806D+00
 Gap=     0.015 Goal=   None    Shift=    0.200
 RMSDP=7.81D-07 MaxDP=6.70D-05 DE=-2.60D-08 OVMax= 1.82D-05

 Cycle   8  Pass 1  IDiag  1:
 E= -123.115675968627     Delta-E=       -0.000000023820 Rises=F Damp=F
 DIIS: error= 1.50D-04 at cycle   8 NSaved=   8.
 NSaved= 8 IEnMin= 8 EnMin= -123.115675968627     IErMin= 8 ErrMin= 1.50D-04
 ErrMax= 1.50D-04  0.00D+00 EMaxC= 1.00D-01 BMatC= 6.04D-07 BMatP= 7.25D-07
 IDIUse=3 WtCom= 9.99D-01 WtEn= 1.50D-03
 Coeff-Com: -0.688D+00 0.787D+00-0.124D+00-0.220D+00-0.554D-01 0.198D+00
 Coeff-Com:  0.964D-01 0.101D+01
 Coeff-En:   0.000D+00 0.000D+00 0.000D+00 0.000D+00 0.000D+00 0.000D+00
 Coeff-En:   0.000D+00 0.100D+01
 Coeff:     -0.687D+00 0.786D+00-0.124D+00-0.220D+00-0.554D-01 0.197D+00
 Coeff:      0.962D-01 0.101D+01
 Gap=     0.015 Goal=   None    Shift=    0.200
 RMSDP=7.04D-07 MaxDP=4.53D-05 DE=-2.38D-08 OVMax= 1.93D-05

 Cycle   9  Pass 1  IDiag  1:
 E= -123.115675991524     Delta-E=       -0.000000022897 Rises=F Damp=F
 DIIS: error= 1.33D-04 at cycle   9 NSaved=   9.
 NSaved= 9 IEnMin= 9 EnMin= -123.115675991524     IErMin= 9 ErrMin= 1.33D-04
 ErrMax= 1.33D-04  0.00D+00 EMaxC= 1.00D-01 BMatC= 4.81D-07 BMatP= 6.04D-07
 IDIUse=3 WtCom= 9.99D-01 WtEn= 1.33D-03
 Coeff-Com: -0.370D+00 0.422D+00-0.695D-01-0.211D-01 0.274D+00-0.494D+00
 Coeff-Com: -0.177D+01 0.380D+00 0.265D+01
 Coeff-En:   0.000D+00 0.000D+00 0.000D+00 0.000D+00 0.000D+00 0.000D+00
 Coeff-En:   0.000D+00 0.000D+00 0.100D+01
 Coeff:     -0.369D+00 0.422D+00-0.694D-01-0.210D-01 0.273D+00-0.493D+00
 Coeff:     -0.177D+01 0.379D+00 0.265D+01
 Gap=     0.015 Goal=   None    Shift=    0.200
 RMSDP=2.21D-06 MaxDP=1.65D-04 DE=-2.29D-08 OVMax= 5.19D-05

 Cycle  10  Pass 1  IDiag  1:
 E= -123.115676048436     Delta-E=       -0.000000056912 Rises=F Damp=F
 DIIS: error= 7.25D-05 at cycle  10 NSaved=  10.
 NSaved=10 IEnMin=10 EnMin= -123.115676048436     IErMin=10 ErrMin= 7.25D-05
 ErrMax= 7.25D-05  0.00D+00 EMaxC= 1.00D-01 BMatC= 1.48D-07 BMatP= 4.81D-07
 IDIUse=1 WtCom= 1.00D+00 WtEn= 0.00D+00
 Coeff-Com: -0.218D+00 0.249D+00-0.338D-01-0.214D+00 0.601D+00 0.233D+00
 Coeff-Com: -0.166D+01-0.226D+00 0.118D+01 0.109D+01
 Coeff:     -0.218D+00 0.249D+00-0.338D-01-0.214D+00 0.601D+00 0.233D+00
 Coeff:     -0.166D+01-0.226D+00 0.118D+01 0.109D+01
 Gap=     0.015 Goal=   None    Shift=    0.200
 RMSDP=1.29D-06 MaxDP=8.61D-05 DE=-5.69D-08 OVMax= 3.78D-05

 Cycle  11  Pass 1  IDiag  1:
 E= -123.115676069457     Delta-E=       -0.000000021022 Rises=F Damp=F
 DIIS: error= 4.27D-05 at cycle  11 NSaved=  11.
 NSaved=11 IEnMin=11 EnMin= -123.115676069457     IErMin=11 ErrMin= 4.27D-05
 ErrMax= 4.27D-05  0.00D+00 EMaxC= 1.00D-01 BMatC= 5.23D-08 BMatP= 1.48D-07
 IDIUse=1 WtCom= 1.00D+00 WtEn= 0.00D+00
 Coeff-Com: -0.716D-01 0.819D-01-0.122D-01-0.103D+00 0.497D+00-0.105D+00
 Coeff-Com: -0.853D+00-0.499D+00 0.118D+01-0.722D+00 0.161D+01
 Coeff:     -0.716D-01 0.819D-01-0.122D-01-0.103D+00 0.497D+00-0.105D+00
 Coeff:     -0.853D+00-0.499D+00 0.118D+01-0.722D+00 0.161D+01
 Gap=     0.015 Goal=   None    Shift=    0.200
 RMSDP=1.19D-06 MaxDP=7.97D-05 DE=-2.10D-08 OVMax= 3.46D-05

 Cycle  12  Pass 1  IDiag  1:
 E= -123.115676079934     Delta-E=       -0.000000010477 Rises=F Damp=F
 DIIS: error= 1.43D-05 at cycle  12 NSaved=  12.
 NSaved=12 IEnMin=12 EnMin= -123.115676079934     IErMin=12 ErrMin= 1.43D-05
 ErrMax= 1.43D-05  0.00D+00 EMaxC= 1.00D-01 BMatC= 6.86D-09 BMatP= 5.23D-08
 IDIUse=1 WtCom= 1.00D+00 WtEn= 0.00D+00
 Coeff-Com: -0.427D-01 0.488D-01-0.802D-02-0.404D-01 0.284D+00-0.263D+00
 Coeff-Com: -0.559D+00 0.149D+00 0.880D+00-0.926D+00 0.276D+00 0.120D+01
 Coeff:     -0.427D-01 0.488D-01-0.802D-02-0.404D-01 0.284D+00-0.263D+00
 Coeff:     -0.559D+00 0.149D+00 0.880D+00-0.926D+00 0.276D+00 0.120D+01
 Gap=     0.015 Goal=   None    Shift=    0.200
 RMSDP=4.19D-07 MaxDP=3.56D-05 DE=-1.05D-08 OVMax= 1.63D-05

 Cycle  13  Pass 1  IDiag  1:
 E= -123.115676081846     Delta-E=       -0.000000001911 Rises=F Damp=F
 DIIS: error= 8.37D-06 at cycle  13 NSaved=  13.
 NSaved=13 IEnMin=13 EnMin= -123.115676081846     IErMin=13 ErrMin= 8.37D-06
 ErrMax= 8.37D-06  0.00D+00 EMaxC= 1.00D-01 BMatC= 2.25D-09 BMatP= 6.86D-09
 IDIUse=1 WtCom= 1.00D+00 WtEn= 0.00D+00
 Coeff-Com: -0.256D-01 0.293D-01-0.492D-02-0.169D-01 0.131D+00-0.201D+00
 Coeff-Com: -0.216D+00 0.408D+00 0.870D-01-0.871D-01-0.575D+00 0.221D+00
 Coeff-Com:  0.125D+01
 Coeff:     -0.256D-01 0.293D-01-0.492D-02-0.169D-01 0.131D+00-0.201D+00
 Coeff:     -0.216D+00 0.408D+00 0.870D-01-0.871D-01-0.575D+00 0.221D+00
 Coeff:      0.125D+01
 Gap=     0.015 Goal=   None    Shift=    0.200
 RMSDP=2.17D-07 MaxDP=1.86D-05 DE=-1.91D-09 OVMax= 8.80D-06

 Cycle  14  Pass 1  IDiag  1:
 E= -123.115676082421     Delta-E=       -0.000000000576 Rises=F Damp=F
 DIIS: error= 5.02D-06 at cycle  14 NSaved=  14.
 NSaved=14 IEnMin=14 EnMin= -123.115676082421     IErMin=14 ErrMin= 5.02D-06
 ErrMax= 5.02D-06  0.00D+00 EMaxC= 1.00D-01 BMatC= 7.97D-10 BMatP= 2.25D-09
 IDIUse=1 WtCom= 1.00D+00 WtEn= 0.00D+00
 Coeff-Com: -0.944D-02 0.108D-01-0.161D-02-0.977D-02 0.670D-01-0.138D+00
 Coeff-Com:  0.908D-02 0.250D+00-0.180D+00 0.188D+00-0.426D+00-0.655D-01
 Coeff-Com: -0.613D-02 0.131D+01
 Coeff:     -0.944D-02 0.108D-01-0.161D-02-0.977D-02 0.670D-01-0.138D+00
 Coeff:      0.908D-02 0.250D+00-0.180D+00 0.188D+00-0.426D+00-0.655D-01
 Coeff:     -0.613D-02 0.131D+01
 Gap=     0.015 Goal=   None    Shift=    0.200
 RMSDP=1.56D-07 MaxDP=1.16D-05 DE=-5.76D-10 OVMax= 5.61D-06

 Cycle  15  Pass 1  IDiag  1:
 E= -123.115676082647     Delta-E=       -0.000000000226 Rises=F Damp=F
 DIIS: error= 1.88D-06 at cycle  15 NSaved=  15.
 NSaved=15 IEnMin=15 EnMin= -123.115676082647     IErMin=15 ErrMin= 1.88D-06
 ErrMax= 1.88D-06  0.00D+00 EMaxC= 1.00D-01 BMatC= 1.35D-10 BMatP= 7.97D-10
 IDIUse=1 WtCom= 1.00D+00 WtEn= 0.00D+00
 Coeff-Com: -0.419D-02 0.479D-02-0.610D-03-0.796D-02 0.602D-01-0.108D+00
 Coeff-Com:  0.429D-03 0.134D+00-0.762D-01 0.432D-01-0.749D-01-0.234D-01
 Coeff-Com: -0.298D+00 0.253D+00 0.110D+01
 Coeff:     -0.419D-02 0.479D-02-0.610D-03-0.796D-02 0.602D-01-0.108D+00
 Coeff:      0.429D-03 0.134D+00-0.762D-01 0.432D-01-0.749D-01-0.234D-01
 Coeff:     -0.298D+00 0.253D+00 0.110D+01
 Gap=     0.015 Goal=   None    Shift=    0.200
 RMSDP=6.86D-08 MaxDP=5.81D-06 DE=-2.26D-10 OVMax= 2.96D-06

 Cycle  16  Pass 1  IDiag  1:
 E= -123.115676082704     Delta-E=       -0.000000000057 Rises=F Damp=F
 DIIS: error= 8.32D-07 at cycle  16 NSaved=  16.
 NSaved=16 IEnMin=16 EnMin= -123.115676082704     IErMin=16 ErrMin= 8.32D-07
 ErrMax= 8.32D-07  0.00D+00 EMaxC= 1.00D-01 BMatC= 3.10D-11 BMatP= 1.35D-10
 IDIUse=1 WtCom= 1.00D+00 WtEn= 0.00D+00
 Coeff-Com: -0.271D-02 0.309D-02-0.410D-03-0.517D-02 0.418D-01-0.691D-01
 Coeff-Com: -0.242D-01 0.102D+00-0.159D-01-0.844D-01 0.808D-01 0.164D+00
 Coeff-Com: -0.396D+00-0.134D+00 0.839D-01 0.126D+01
 Coeff:     -0.271D-02 0.309D-02-0.410D-03-0.517D-02 0.418D-01-0.691D-01
 Coeff:     -0.242D-01 0.102D+00-0.159D-01-0.844D-01 0.808D-01 0.164D+00
 Coeff:     -0.396D+00-0.134D+00 0.839D-01 0.126D+01
 Gap=     0.015 Goal=   None    Shift=    0.200
 RMSDP=2.89D-08 MaxDP=2.71D-06 DE=-5.69D-11 OVMax= 1.51D-06

 Cycle  17  Pass 1  IDiag  1:
 E= -123.115676082720     Delta-E=       -0.000000000016 Rises=F Damp=F
 DIIS: error= 5.34D-07 at cycle  17 NSaved=  17.
 NSaved=17 IEnMin=17 EnMin= -123.115676082720     IErMin=17 ErrMin= 5.34D-07
 ErrMax= 5.34D-07  0.00D+00 EMaxC= 1.00D-01 BMatC= 1.22D-11 BMatP= 3.10D-11
 IDIUse=1 WtCom= 1.00D+00 WtEn= 0.00D+00
 Coeff-Com: -0.268D-02 0.307D-02-0.414D-03-0.406D-02 0.312D-01-0.589D-01
 Coeff-Com: -0.193D-01 0.103D+00-0.947D-02-0.976D-01 0.934D-02 0.262D+00
 Coeff-Com: -0.347D+00 0.107D+00-0.184D+00 0.641D-01 0.114D+01
 Coeff:     -0.268D-02 0.307D-02-0.414D-03-0.406D-02 0.312D-01-0.589D-01
 Coeff:     -0.193D-01 0.103D+00-0.947D-02-0.976D-01 0.934D-02 0.262D+00
 Coeff:     -0.347D+00 0.107D+00-0.184D+00 0.641D-01 0.114D+01
 Gap=     0.015 Goal=   None    Shift=    0.200
 RMSDP=1.12D-08 MaxDP=1.01D-06 DE=-1.63D-11 OVMax= 8.59D-07

 Cycle  18  Pass 1  IDiag  1:
 E= -123.115676082726     Delta-E=       -0.000000000006 Rises=F Damp=F
 DIIS: error= 5.20D-07 at cycle  18 NSaved=  18.
 NSaved=18 IEnMin=18 EnMin= -123.115676082726     IErMin=18 ErrMin= 5.20D-07
 ErrMax= 5.20D-07  0.00D+00 EMaxC= 1.00D-01 BMatC= 9.18D-12 BMatP= 1.22D-11
 IDIUse=1 WtCom= 1.00D+00 WtEn= 0.00D+00
 Coeff-Com: -0.140D-02 0.160D-02-0.225D-03-0.151D-02 0.139D-01-0.322D-01
 Coeff-Com: -0.625D-02 0.641D-01-0.845D-02-0.950D-01 0.419D-01 0.233D+00
 Coeff-Com: -0.286D+00 0.706D-01-0.323D+00-0.300D-01 0.342D+00 0.102D+01
 Coeff:     -0.140D-02 0.160D-02-0.225D-03-0.151D-02 0.139D-01-0.322D-01
 Coeff:     -0.625D-02 0.641D-01-0.845D-02-0.950D-01 0.419D-01 0.233D+00
 Coeff:     -0.286D+00 0.706D-01-0.323D+00-0.300D-01 0.342D+00 0.102D+01
 Gap=     0.015 Goal=   None    Shift=    0.200
 RMSDP=1.25D-08 MaxDP=8.08D-07 DE=-5.68D-12 OVMax= 8.47D-07

 Cycle  19  Pass 1  IDiag  1:
 E= -123.115676082729     Delta-E=       -0.000000000003 Rises=F Damp=F
 DIIS: error= 2.76D-07 at cycle  19 NSaved=  19.
 NSaved=19 IEnMin=19 EnMin= -123.115676082729     IErMin=19 ErrMin= 2.76D-07
 ErrMax= 2.76D-07  0.00D+00 EMaxC= 1.00D-01 BMatC= 2.98D-12 BMatP= 9.18D-12
 IDIUse=1 WtCom= 1.00D+00 WtEn= 0.00D+00
 Coeff-Com: -0.637D-03 0.728D-03-0.986D-04-0.551D-03 0.610D-02-0.195D-01
 Coeff-Com: -0.176D-03 0.391D-01-0.348D-02-0.607D-01 0.206D-02 0.150D+00
 Coeff-Com: -0.123D+00 0.170D+00-0.369D+00-0.795D-01-0.935D-01 0.300D-01
 Coeff-Com:  0.135D+01
 Coeff:     -0.637D-03 0.728D-03-0.986D-04-0.551D-03 0.610D-02-0.195D-01
 Coeff:     -0.176D-03 0.391D-01-0.348D-02-0.607D-01 0.206D-02 0.150D+00
 Coeff:     -0.123D+00 0.170D+00-0.369D+00-0.795D-01-0.935D-01 0.300D-01
 Coeff:      0.135D+01
 Gap=     0.015 Goal=   None    Shift=    0.200
 RMSDP=9.05D-09 MaxDP=7.22D-07 DE=-3.13D-12 OVMax= 7.14D-07

 SCF Done:  E(ROHF) =  -123.115676083     A.U. after   19 cycles
            NFock= 19  Conv=0.90D-08     -V/T= 2.6818
 <Sx>= 0.0000 <Sy>= 0.0000 <Sz>= 1.5000 <S**2>= 3.7500 S= 1.5000
 <L.S>=  0.00000000000    
 KE= 7.320316669680D+01 PE=-3.029615648548D+02 EE= 1.009981651588D+02
 Annihilation of the first spin contaminant:
 S**2 before annihilation     3.7500,   after     3.7500
 Leave Link  502 at Sun Apr 22 23:19:50 2018, MaxMem= 21474836480 cpu:            1363.8 elap:              59.8
 (Enter /home1/apps/gaussian/16rA.03/g16/l801.exe)
 Windowed orbitals will be sorted by symmetry type.
 GenMOA:  NOpAll=  4 NOp2=4 NOpUse=  4 JSym2X=1
 FoFJK:  IHMeth= 1 ICntrl=       0 DoSepK=F KAlg= 0 I1Cent=           0 FoldK=F
 IRaf=         0 NMat=       1 IRICut=       1 DoRegI=T DoRafI=F ISym2E= 1 IDoP0=0 IntGTp=1.
 FoFCou: FMM=F IPFlag=           8 FMFlag=      100000 FMFlg1=           0
         NFxFlg=           0 DoJE=F BraDBF=F KetDBF=F FulRan=T
         wScrn=  0.000000 ICntrl=         0 IOpCl=  1 I1Cent=           0 NGrid=           0
         NMat0=    1 NMatS0=      1 NMatT0=    0 NMatD0=    1 NMtDS0=    0 NMtDT0=    0
 Petite list used in FoFCou.
 <Sx>= 0.0000 <Sy>= 0.0000 <Sz>= 1.5000 <S**2>= 3.7500 S= 1.5000
 Range of M.O.s used for correlation:     1   407
 NBasis=   415 NAE=    10 NBE=     7 NFC=     0 NFV=     0
 NROrb=    407 NOA=    10 NOB=     7 NVA=   397 NVB=   400

 **** Warning!!: The largest alpha MO coefficient is  0.16858300D+03


 **** Warning!!: The largest beta MO coefficient is  0.16856507D+03

 Singles contribution to E2=   -0.7413097512D-02
 Leave Link  801 at Sun Apr 22 23:20:06 2018, MaxMem= 21474836480 cpu:             519.1 elap:              16.3
 (Enter /home1/apps/gaussian/16rA.03/g16/l804.exe)
 Open-shell transformation, MDV= 21474836480 ITran=4 ISComp=2.
 Unit  1 TFree=       5231890 TCopy=       3708082.
 Semi-Direct transformation.
 ModeAB=           2 MOrb=            10 LenV=   21469764758
 LASXX=     83967637 LTotXX=    83967637 LenRXX=    83967637
 LTotAB=    84746805 MaxLAS=   669315570 LenRXY=   669315570
 NonZer=   680487720 LenScr=  1024735232 LnRSAI=           0
 LnScr1=           0 LExtra=    20153988 Total=   1798172427
 MaxDsk= 67108864000 SrtSym=           F ITran=            4
 DoSDTr:  NPSUse= 32
 JobTyp=1 Pass  1:  I=   1 to  10.
 (rs|ai) integrals will be sorted in core.
 Complete sort for first half transformation.
 First half transformation complete.
 Begin second half transformation for I=  10.
 Begin second half transformation for I=  10.
 Complete sort for second half transformation.
 Second half transformation complete.
 ModeAB=           2 MOrb=             7 LenV=   21469764758
 LASXX=     59071414 LTotXX=    59071414 LenRXX=   468520899
 LTotAB=    56697284 MaxLAS=   468520899 LenRXY=    56697284
 NonZer=   476341404 LenScr=   717315072 LnRSAI=           0
 LnScr1=           0 LExtra=   773437195 Total=   2015970450
 MaxDsk= 67108864000 SrtSym=           F ITran=            4
 DoSDTr:  NPSUse= 32
 JobTyp=2 Pass  1:  I=   1 to   7.
 (rs|ai) integrals will be sorted in core.
 Complete sort for first half transformation.
 First half transformation complete.
 Complete sort for second half transformation.
 Second half transformation complete.
 Spin components of T(2) and E(2):
     alpha-alpha T2 =       0.2970266693D-01 E2=     -0.1692430584D+00
     alpha-beta  T2 =       0.9444335180D-01 E2=     -0.5732473228D+00
     beta-beta   T2 =       0.1138358561D-01 E2=     -0.7095178242D-01
 ANorm=    0.1067039348D+01
 E2 =    -0.8208552611D+00 EUMP2 =    -0.12393653134383D+03
 (S**2,0)=  0.37500D+01           (S**2,1)=  0.37500D+01
 E(PUHF)=      -0.12311567608D+03        E(PMP2)=      -0.12393653134D+03
 Leave Link  804 at Sun Apr 22 23:28:14 2018, MaxMem= 21474836480 cpu:           15570.5 elap:             487.8
 (Enter /home1/apps/gaussian/16rA.03/g16/l913.exe)
 CIDS:  MDV= 21474836480.
 IFCWin=0 IBDFC=1 NFBD=     0     0 NFCmp=     0     0 NFFFC=     0     0
 Using original routines for 1st iteration.
 Using DD4UQ or CC4UQ for 2nd and later iterations.
 Keep R2 and R3 ints in memory in symmetry-blocked form, NReq=4666752578.
 FoFCou: FMM=F IPFlag=           8 FMFlag=           0 FMFlg1=           0
         NFxFlg=           0 DoJE=F BraDBF=F KetDBF=F FulRan=T
         wScrn=  0.000000 ICntrl=       600 IOpCl=  0 I1Cent=           0 NGrid=           0
         NMat0=    1 NMatS0=  86320 NMatT0=    0 NMatD0=    1 NMtDS0=    0 NMtDT0=    0
 Petite list used in FoFCou.
 CIDS: In Core Option IDoMem=           1.
 CCSD(T)
 =======
 Iterations= 150 Convergence= 0.100D-06
 Produce multiple copies of IABC intergrals
 Iteration Nr.   1
 **********************
 DD1Dir will call FoFMem   1 times, MxPair=       206
 NAB=    70 NAA=    45 NBB=    21.
 DD1Dir will call FoFMem   1 times, MxPair=       206
 NAB=    70 NAA=    45 NBB=    21.
 MP4(R+Q)= -0.54433666D-01
 Maximum subspace dimension=  5
 A-vector RMS=  3.8477218D-04 Max=  5.7099930D-03 conv= 1.00D-05.
 RLE energy=       -0.8118033766
 E3=        0.63215222D-01        EROMP3=      -0.12387331612D+03
 E4(SDQ)=  -0.37675978D-01        ROMP4(SDQ)=  -0.12391099210D+03
 VARIATIONAL ENERGIES WITH THE FIRST-ORDER WAVEFUNCTION:
 DE(Corr)= -0.81170073     E(Corr)=     -123.92737681    
 NORM(A)=   0.10626621D+01
 Iteration Nr.   2
 **********************
 DD1Dir will call FoFMem   1 times, MxPair=       206
 NAB=    70 NAA=    45 NBB=    21.
 A-vector RMS=  2.9874283D-03 Max=  3.5737795D-02 conv= 1.00D-05.
 RLE energy=       -0.7955164128
 DE(Corr)= -0.74713994     E(CORR)=     -123.86281602     Delta= 6.46D-02
 NORM(A)=   0.10598257D+01
 Iteration Nr.   3
 **********************
 DD1Dir will call FoFMem   1 times, MxPair=       206
 NAB=    70 NAA=    45 NBB=    21.
 A-vector RMS=  2.0741836D-03 Max=  2.6463869D-02 conv= 1.00D-05.
 RLE energy=       -0.7935206671
 DE(Corr)= -0.75686042     E(CORR)=     -123.87253650     Delta=-9.72D-03
 NORM(A)=   0.10626627D+01
 Iteration Nr.   4
 **********************
 DD1Dir will call FoFMem   1 times, MxPair=       206
 NAB=    70 NAA=    45 NBB=    21.
 A-vector RMS=  2.0232142D-03 Max=  2.9437481D-02 conv= 1.00D-05.
 RLE energy=       -0.7763206561
 DE(Corr)= -0.76224622     E(CORR)=     -123.87792230     Delta=-5.39D-03
 NORM(A)=   0.10809393D+01
 Iteration Nr.   5
 **********************
 DD1Dir will call FoFMem   1 times, MxPair=       206
 NAB=    70 NAA=    45 NBB=    21.
 A-vector RMS=  7.3097264D-04 Max=  9.2213921D-03 conv= 1.00D-05.
 RLE energy=       -0.7855722345
 DE(Corr)= -0.78620813     E(CORR)=     -123.90188422     Delta=-2.40D-02
 NORM(A)=   0.10854320D+01
 Iteration Nr.   6
 **********************
 DD1Dir will call FoFMem   1 times, MxPair=       206
 NAB=    70 NAA=    45 NBB=    21.
 A-vector RMS=  7.1590413D-04 Max=  1.8577949D-02 conv= 1.00D-05.
 RLE energy=       -0.7836560329
 DE(Corr)= -0.77932959     E(CORR)=     -123.89500567     Delta= 6.88D-03
 NORM(A)=   0.11074831D+01
 Iteration Nr.   7
 **********************
 DD1Dir will call FoFMem   1 times, MxPair=       206
 NAB=    70 NAA=    45 NBB=    21.
 A-vector RMS=  4.3143923D-04 Max=  8.1382776D-03 conv= 1.00D-05.
 RLE energy=       -0.7842000421
 DE(Corr)= -0.78381106     E(CORR)=     -123.89948714     Delta=-4.48D-03
 NORM(A)=   0.11247672D+01
 Iteration Nr.   8
 **********************
 DD1Dir will call FoFMem   1 times, MxPair=       206
 NAB=    70 NAA=    45 NBB=    21.
 A-vector RMS=  3.9995010D-04 Max=  9.1780028D-03 conv= 1.00D-05.
 RLE energy=       -0.7848884253
 DE(Corr)= -0.78481036     E(CORR)=     -123.90048644     Delta=-9.99D-04
 NORM(A)=   0.11409196D+01
 Iteration Nr.   9
 **********************
 DD1Dir will call FoFMem   1 times, MxPair=       206
 NAB=    70 NAA=    45 NBB=    21.
 A-vector RMS=  2.6004141D-04 Max=  4.7481777D-03 conv= 1.00D-05.
 RLE energy=       -0.7854900713
 DE(Corr)= -0.78463238     E(CORR)=     -123.90030846     Delta= 1.78D-04
 NORM(A)=   0.11507823D+01
 Iteration Nr.  10
 **********************
 DD1Dir will call FoFMem   1 times, MxPair=       206
 NAB=    70 NAA=    45 NBB=    21.
 A-vector RMS=  1.8229105D-04 Max=  3.0494048D-03 conv= 1.00D-05.
 RLE energy=       -0.7847671566
 DE(Corr)= -0.78513545     E(CORR)=     -123.90081153     Delta=-5.03D-04
 NORM(A)=   0.11522325D+01
 Iteration Nr.  11
 **********************
 DD1Dir will call FoFMem   1 times, MxPair=       206
 NAB=    70 NAA=    45 NBB=    21.
 A-vector RMS=  1.1066554D-04 Max=  2.3201193D-03 conv= 1.00D-05.
 RLE energy=       -0.7853433757
 DE(Corr)= -0.78523180     E(CORR)=     -123.90090788     Delta=-9.64D-05
 NORM(A)=   0.11535908D+01
 Iteration Nr.  12
 **********************
 DD1Dir will call FoFMem   1 times, MxPair=       206
 NAB=    70 NAA=    45 NBB=    21.
 A-vector RMS=  1.0063428D-04 Max=  1.9719713D-03 conv= 1.00D-05.
 RLE energy=       -0.7850916296
 DE(Corr)= -0.78500666     E(CORR)=     -123.90068274     Delta= 2.25D-04
 NORM(A)=   0.11562809D+01
 Iteration Nr.  13
 **********************
 DD1Dir will call FoFMem   1 times, MxPair=       206
 NAB=    70 NAA=    45 NBB=    21.
 A-vector RMS=  9.4698343D-05 Max=  1.8466103D-03 conv= 1.00D-05.
 RLE energy=       -0.7852046109
 DE(Corr)= -0.78535565     E(CORR)=     -123.90103173     Delta=-3.49D-04
 NORM(A)=   0.11565288D+01
 Iteration Nr.  14
 **********************
 DD1Dir will call FoFMem   1 times, MxPair=       206
 NAB=    70 NAA=    45 NBB=    21.
 A-vector RMS=  7.2649209D-05 Max=  1.5841206D-03 conv= 1.00D-05.
 RLE energy=       -0.7854049546
 DE(Corr)= -0.78530954     E(CORR)=     -123.90098562     Delta= 4.61D-05
 NORM(A)=   0.11577916D+01
 Iteration Nr.  15
 **********************
 DD1Dir will call FoFMem   1 times, MxPair=       206
 NAB=    70 NAA=    45 NBB=    21.
 A-vector RMS=  4.4250346D-05 Max=  6.8323823D-04 conv= 1.00D-05.
 RLE energy=       -0.7853525366
 DE(Corr)= -0.78529515     E(CORR)=     -123.90097123     Delta= 1.44D-05
 NORM(A)=   0.11584732D+01
 Iteration Nr.  16
 **********************
 DD1Dir will call FoFMem   1 times, MxPair=       206
 NAB=    70 NAA=    45 NBB=    21.
 A-vector RMS=  2.9591523D-05 Max=  5.3655551D-04 conv= 1.00D-05.
 RLE energy=       -0.7854009682
 DE(Corr)= -0.78543173     E(CORR)=     -123.90110781     Delta=-1.37D-04
 NORM(A)=   0.11586085D+01
 Iteration Nr.  17
 **********************
 DD1Dir will call FoFMem   1 times, MxPair=       206
 NAB=    70 NAA=    45 NBB=    21.
 A-vector RMS=  1.9818704D-05 Max=  3.2895214D-04 conv= 1.00D-05.
 RLE energy=       -0.7854412847
 DE(Corr)= -0.78541621     E(CORR)=     -123.90109230     Delta= 1.55D-05
 NORM(A)=   0.11588463D+01
 Iteration Nr.  18
 **********************
 DD1Dir will call FoFMem   1 times, MxPair=       206
 NAB=    70 NAA=    45 NBB=    21.
 A-vector RMS=  1.2200752D-05 Max=  3.1334863D-04 conv= 1.00D-05.
 RLE energy=       -0.7854252804
 DE(Corr)= -0.78542070     E(CORR)=     -123.90109679     Delta=-4.49D-06
 NORM(A)=   0.11589977D+01
 Iteration Nr.  19
 **********************
 DD1Dir will call FoFMem   1 times, MxPair=       206
 NAB=    70 NAA=    45 NBB=    21.
 A-vector RMS=  6.7241777D-06 Max=  1.5718846D-04 conv= 1.00D-05.
 RLE energy=       -0.7854434706
 DE(Corr)= -0.78545389     E(CORR)=     -123.90112998     Delta=-3.32D-05
 NORM(A)=   0.11590663D+01
 Iteration Nr.  20
 **********************
 DD1Dir will call FoFMem   1 times, MxPair=       206
 NAB=    70 NAA=    45 NBB=    21.
 A-vector RMS=  5.1516419D-06 Max=  9.3509705D-05 conv= 1.00D-05.
 RLE energy=       -0.7854532680
 DE(Corr)= -0.78544863     E(CORR)=     -123.90112471     Delta= 5.27D-06
 NORM(A)=   0.11591386D+01
 Iteration Nr.  21
 **********************
 DD1Dir will call FoFMem   1 times, MxPair=       206
 NAB=    70 NAA=    45 NBB=    21.
 A-vector RMS=  3.6424852D-06 Max=  5.5257774D-05 conv= 1.00D-05.
 RLE energy=       -0.7854506703
 DE(Corr)= -0.78545055     E(CORR)=     -123.90112663     Delta=-1.92D-06
 NORM(A)=   0.11591943D+01
 Iteration Nr.  22
 **********************
 DD1Dir will call FoFMem   1 times, MxPair=       206
 NAB=    70 NAA=    45 NBB=    21.
 A-vector RMS=  2.2022770D-06 Max=  3.5575845D-05 conv= 1.00D-05.
 RLE energy=       -0.7854574108
 DE(Corr)= -0.78545755     E(CORR)=     -123.90113364     Delta=-7.01D-06
 NORM(A)=   0.11592348D+01
 Iteration Nr.  23
 **********************
 DD1Dir will call FoFMem   1 times, MxPair=       206
 NAB=    70 NAA=    45 NBB=    21.
 A-vector RMS=  2.7594753D-06 Max=  5.0883643D-05 conv= 1.00D-05.
 RLE energy=       -0.7854586441
 DE(Corr)= -0.78545492     E(CORR)=     -123.90113100     Delta= 2.63D-06
 NORM(A)=   0.11592658D+01
 Iteration Nr.  24
 **********************
 DD1Dir will call FoFMem   1 times, MxPair=       206
 NAB=    70 NAA=    45 NBB=    21.
 A-vector RMS=  1.6620954D-06 Max=  3.4358765D-05 conv= 1.00D-05.
 RLE energy=       -0.7854560742
 DE(Corr)= -0.78545639     E(CORR)=     -123.90113247     Delta=-1.47D-06
 NORM(A)=   0.11592861D+01
 Iteration Nr.  25
 **********************
 DD1Dir will call FoFMem   1 times, MxPair=       206
 NAB=    70 NAA=    45 NBB=    21.
 A-vector RMS=  1.2428359D-06 Max=  3.1968235D-05 conv= 1.00D-05.
 RLE energy=       -0.7854584618
 DE(Corr)= -0.78545881     E(CORR)=     -123.90113489     Delta=-2.42D-06
 NORM(A)=   0.11592961D+01
 Iteration Nr.  26
 **********************
 DD1Dir will call FoFMem   1 times, MxPair=       206
 NAB=    70 NAA=    45 NBB=    21.
 A-vector RMS=  8.7980766D-07 Max=  2.0908640D-05 conv= 1.00D-05.
 RLE energy=       -0.7854579856
 DE(Corr)= -0.78545688     E(CORR)=     -123.90113296     Delta= 1.93D-06
 NORM(A)=   0.11592958D+01
 Iteration Nr.  27
 **********************
 DD1Dir will call FoFMem   1 times, MxPair=       206
 NAB=    70 NAA=    45 NBB=    21.
 A-vector RMS=  5.8741819D-07 Max=  1.0841549D-05 conv= 1.00D-05.
 RLE energy=       -0.7854568367
 DE(Corr)= -0.78545679     E(CORR)=     -123.90113288     Delta= 8.50D-08
 NORM(A)=   0.11592952D+01
 Iteration Nr.  28
 **********************
 DD1Dir will call FoFMem   1 times, MxPair=       206
 NAB=    70 NAA=    45 NBB=    21.
 A-vector RMS=  4.6362732D-07 Max=  9.8860834D-06 conv= 1.00D-05.
 RLE energy=       -0.7854569594
 DE(Corr)= -0.78545713     E(CORR)=     -123.90113322     Delta=-3.41D-07
 NORM(A)=   0.11592869D+01
 Iteration Nr.  29
 **********************
 DD1Dir will call FoFMem   1 times, MxPair=       206
 NAB=    70 NAA=    45 NBB=    21.
 A-vector RMS=  3.6026212D-07 Max=  6.7227087D-06 conv= 1.00D-05.
 RLE energy=       -0.7854563788
 DE(Corr)= -0.78545613     E(CORR)=     -123.90113221     Delta= 1.01D-06
 NORM(A)=   0.11592810D+01
 Iteration Nr.  30
 **********************
 DD1Dir will call FoFMem   1 times, MxPair=       206
 NAB=    70 NAA=    45 NBB=    21.
 A-vector RMS=  3.5638729D-07 Max=  7.8976019D-06 conv= 1.00D-05.
 RLE energy=       -0.7854556549
 DE(Corr)= -0.78545611     E(CORR)=     -123.90113220     Delta= 1.34D-08
 NORM(A)=   0.11592724D+01
 CI/CC converged in   30 iterations to DelEn= 1.34D-08 Conv= 1.00D-07 ErrA1= 3.56D-07 Conv= 1.00D-05
 Wavefunction amplitudes converged. E(Corr)=     -123.90113220    
 Dominant configurations:
 ***********************
 Spin Case        I    J    A    B          Value
    BB            7         8            0.239838D+00
    BB            7        12            0.235271D+00
    BB            7        21            0.144776D+00
    BB            7        22            0.103165D+00
 Largest amplitude= 2.40D-01
 Time for triples=    41635.73 seconds.
 T4(CCSD)= -0.38616384D-01
 T5(CCSD)=  0.78657247D-02
 CCSD(T)= -0.12393188285D+03
 Discarding MO integrals.
 Leave Link  913 at Sun Apr 22 23:59:12 2018, MaxMem= 21474836480 cpu:           59272.8 elap:            1857.5
 (Enter /home1/apps/gaussian/16rA.03/g16/l601.exe)
 Copying SCF densities to generalized density rwf, IOpCl= 0 IROHF=1.

 **********************************************************************

            Population analysis using the SCF density.

 **********************************************************************

 Orbital symmetries:
       Occupied  (SG) (SG) (PI) (PI) (SG) (?A) (SG) (PI) (PI) (?A)
       Virtual   (SG) (PI) (PI) (SG) (SG) (SG) (DLTA) (DLTA) (PI)
                 (PI) (PI) (PI) (SG) (SG) (SG) (SG) (PI) (PI) (DLTA)
                 (DLTA) (PI) (PI) (SG) (PI) (PI) (SG) (SG) (DLTA)
                 (DLTA) (PHI) (PHI) (SG) (SG) (PI) (PI) (PI) (PI)
                 (?A) (?A) (SG) (PI) (PI) (PI) (PI) (DLTA) (DLTA)
                 (SG) (SG) (SG) (PI) (PI) (SG) (PHI) (PHI) (?B)
                 (?B) (?B) (DLTA) (DLTA) (PI) (PI) (PHI) (PHI)
                 (SG) (PI) (PI) (?A) (?A) (?A) (?A) (PI) (PI) (PHI)
                 (PHI) (SG) (DLTA) (DLTA) (PI) (PI) (SG) (PI) (PI)
                 (SG) (SG) (DLTA) (DLTA) (PI) (PI) (SG) (SG) (PI)
                 (PI) (?C) (?C) (SG) (?D) (?D) (PHI) (PHI) (DLTA)
                 (PI) (PI) (DLTA) (PI) (PI) (DLTA) (DLTA) (SG)
                 (?C) (?C) (DLTA) (DLTA) (PHI) (PHI) (?E) (PI)
                 (PI) (?E) (?E) (PHI) (PHI) (DLTA) (DLTA) (SG)
                 (SG) (?F) (?F) (?F) (?F) (DLTA) (DLTA) (SG) (PHI)
                 (PHI) (PI) (PI) (SG) (PI) (PI) (DLTA) (DLTA) (SG)
                 (PI) (PI) (DLTA) (DLTA) (SG) (PI) (PI) (SG) (PI)
                 (PI) (DLTA) (DLTA) (SG) (PI) (PI) (SG) (SG) (?G)
                 (?G) (DLTA) (DLTA) (?G) (?G) (?H) (?H) (?G) (?G)
                 (?G) (?G) (?H) (DLTA) (DLTA) (?C) (?C) (PHI) (PHI)
                 (DLTA) (DLTA) (PI) (PI) (SG) (PI) (PI) (?D) (?D)
                 (?I) (SG) (SG) (?I) (PHI) (PHI) (?I) (DLTA) (DLTA)
                 (PI) (PI) (SG) (SG) (PI) (PI) (SG) (PHI) (PHI)
                 (?C) (?C) (DLTA) (DLTA) (PHI) (PHI) (SG) (PI)
                 (PI) (?A) (?A) (?A) (?A) (PI) (PI) (SG) (DLTA)
                 (DLTA) (PI) (PI) (SG) (PI) (PI) (SG) (PI) (PI)
                 (SG) (SG) (PHI) (PHI) (DLTA) (DLTA) (?C) (?C)
                 (?J) (?J) (?J) (?J) (DLTA) (DLTA) (?K) (?K) (?D)
                 (?D) (?J) (?J) (?J) (?J) (?K) (DLTA) (DLTA) (SG)
                 (PI) (PI) (SG) (PI) (PI) (DLTA) (DLTA) (PI) (PI)
                 (SG) (SG) (SG) (SG) (?C) (?C) (?F) (?F) (DLTA)
                 (DLTA) (?F) (?F) (SG) (DLTA) (DLTA) (PI) (PI)
                 (SG) (PHI) (PHI) (DLTA) (DLTA) (?L) (?L) (?L)
                 (?L) (?L) (?L) (?L) (?L) (?L) (DLTA) (DLTA) (?L)
                 (?L) (?L) (?L) (?L) (?L) (?L) (?L) (?L) (?L) (?L)
                 (?L) (?L) (?L) (?L) (?L) (PI) (PI) (SG) (DLTA)
                 (DLTA) (PI) (PI) (SG) (SG) (PI) (PI) (SG) (DLTA)
                 (DLTA) (PI) (PI) (SG) (SG) (SG) (PI) (PI) (SG)
                 (DLTA) (DLTA) (PI) (PI) (SG) (SG) (PI) (PI) (SG)
                 (SG) (DLTA) (DLTA) (PI) (PI) (SG) (PI) (PI) (SG)
                 (SG) (SG) (PI) (PI) (SG) (SG) (DLTA) (DLTA) (PI)
                 (PI) (SG) (PI) (PI) (SG) (SG) (PI) (PI) (SG) (SG)
                 (SG) (PI) (PI) (SG) (SG) (PI) (PI) (SG) (SG) (PI)
                 (PI) (SG) (SG) (SG) (PI) (PI) (SG) (SG) (SG) (SG)
                 (SG) (SG) (SG)
 Unable to determine electronic state:  an orbital has unidentified symmetry.
 Alpha  occ. eigenvalues --   -4.25237  -2.78550  -2.77695  -2.77695  -0.50870
 Alpha  occ. eigenvalues --   -0.50870  -0.49814  -0.46434  -0.44910  -0.31658
 Alpha virt. eigenvalues --   -0.00273   0.02160   0.02160   0.02553   0.03515
 Alpha virt. eigenvalues --    0.05799   0.06233   0.06243   0.06331   0.06331
 Alpha virt. eigenvalues --    0.07374   0.07374   0.08513   0.13027   0.16886
 Alpha virt. eigenvalues --    0.18166   0.19013   0.19013   0.19999   0.20123
 Alpha virt. eigenvalues --    0.21107   0.21107   0.25320   0.25739   0.25739
 Alpha virt. eigenvalues --    0.33491   0.40087   0.41133   0.41192   0.42724
 Alpha virt. eigenvalues --    0.42724   0.44960   0.48081   0.48129   0.48129
 Alpha virt. eigenvalues --    0.52320   0.52320   0.53710   0.54278   0.60271
 Alpha virt. eigenvalues --    0.61951   0.61951   0.67107   0.67107   0.67752
 Alpha virt. eigenvalues --    0.67791   0.70243   0.92706   0.95007   1.04958
 Alpha virt. eigenvalues --    1.04958   1.14561   1.16630   1.16630   1.20309
 Alpha virt. eigenvalues --    1.20315   1.20325   1.20610   1.20871   1.25389
 Alpha virt. eigenvalues --    1.25389   1.29492   1.29492   1.30757   1.33415
 Alpha virt. eigenvalues --    1.33415   1.33708   1.34970   1.39025   1.39366
 Alpha virt. eigenvalues --    1.44659   1.44659   1.48568   1.48568   1.53441
 Alpha virt. eigenvalues --    1.61045   1.61184   1.69129   1.69129   1.76434
 Alpha virt. eigenvalues --    1.91850   1.91850   1.92168   2.05559   2.25625
 Alpha virt. eigenvalues --    2.25930   2.49263   2.49263   2.60874   2.74572
 Alpha virt. eigenvalues --    2.81235   2.81235   2.85601   2.85601   2.97863
 Alpha virt. eigenvalues --    3.04665   3.04665   3.07007   3.07007   3.15661
 Alpha virt. eigenvalues --    3.16079   3.16079   3.17758   3.17962   3.17962
 Alpha virt. eigenvalues --    3.24563   3.25053   3.26925   3.31417   3.31419
 Alpha virt. eigenvalues --    3.33916   3.34961   3.37522   3.37522   3.40049
 Alpha virt. eigenvalues --    3.46392   3.46392   3.47600   3.47604   3.49781
 Alpha virt. eigenvalues --    3.49781   3.69835   3.70477   3.73945   3.80264
 Alpha virt. eigenvalues --    3.81707   3.81707   3.83869   3.83869   3.95070
 Alpha virt. eigenvalues --    3.95843   4.24787   4.43254   4.43254   4.55410
 Alpha virt. eigenvalues --    4.55410   4.57530   4.94093   4.94093   5.11847
 Alpha virt. eigenvalues --    5.12232   5.31861   5.53265   5.53265   5.84668
 Alpha virt. eigenvalues --    5.84864   6.09549   6.20069   6.20069   6.50841
 Alpha virt. eigenvalues --    6.67376   6.67376   6.89041   6.91969   6.93920
 Alpha virt. eigenvalues --    6.96664   6.96664   7.47175   7.61240   8.12427
 Alpha virt. eigenvalues --    8.12427   8.12653   8.14812   8.17949   8.17949
 Alpha virt. eigenvalues --    8.18206   8.18218   8.25104   8.25104   8.26742
 Alpha virt. eigenvalues --    8.26742   8.43318   8.44221   8.45058   8.75688
 Alpha virt. eigenvalues --    8.75691   8.77533   8.77533   8.92934   8.94460
 Alpha virt. eigenvalues --    9.14974   9.14974   9.29685   9.30185   9.30185
 Alpha virt. eigenvalues --    9.58158   9.58158   9.59822   9.59839   9.60119
 Alpha virt. eigenvalues --    9.60120   9.76300   9.76300   9.83425  10.10582
 Alpha virt. eigenvalues --   10.12057  10.40657  10.40657  10.66252  11.38507
 Alpha virt. eigenvalues --   11.38507  11.38606  12.09423  13.03735  13.03735
 Alpha virt. eigenvalues --   13.24802  13.24802  13.29548  13.29591  13.34767
 Alpha virt. eigenvalues --   13.34767  13.60695  13.64473  13.64473  13.74797
 Alpha virt. eigenvalues --   13.77638  13.88751  13.88985  13.88985  13.89376
 Alpha virt. eigenvalues --   14.13915  14.31502  14.31547  14.42737  14.42737
 Alpha virt. eigenvalues --   14.67252  15.33739  15.33739  16.52117  17.34571
 Alpha virt. eigenvalues --   17.34571  18.07386  18.46004  18.85507  18.85507
 Alpha virt. eigenvalues --   18.92301  18.95173  19.47261  19.47261  19.47600
 Alpha virt. eigenvalues --   19.47600  19.50071  19.50071  19.66554  19.69131
 Alpha virt. eigenvalues --   19.81743  19.81820  19.83499  19.83499  19.87273
 Alpha virt. eigenvalues --   19.87273  19.93157  19.93157  19.94797  19.95576
 Alpha virt. eigenvalues --   19.97836  20.63160  20.63596  20.63596  21.88865
 Alpha virt. eigenvalues --   25.18785  25.18785  25.33803  25.37375  25.42725
 Alpha virt. eigenvalues --   25.42725  25.59125  26.45901  34.41728  41.21370
 Alpha virt. eigenvalues --   41.82046  41.82046  41.82206  41.82217  41.93998
 Alpha virt. eigenvalues --   41.96450  42.12823  42.12823  42.44477  43.77027
 Alpha virt. eigenvalues --   43.80732  43.81259  43.81259  44.22501  44.23407
 Alpha virt. eigenvalues --   44.23407  44.28221  44.30570  44.64335  44.64335
 Alpha virt. eigenvalues --   44.80486  44.80718  44.82684  44.82684  44.83978
 Alpha virt. eigenvalues --   44.83978  44.87727  44.88058  44.90191  45.21460
 Alpha virt. eigenvalues --   45.21460  45.85526  46.14316  46.14373  46.14857
 Alpha virt. eigenvalues --   46.14857  46.15714  46.15714  46.17471  46.17562
 Alpha virt. eigenvalues --   46.18839  46.21347  46.27573  46.27573  46.37741
 Alpha virt. eigenvalues --   52.83929  52.83929  53.59073  73.27457  73.31001
 Alpha virt. eigenvalues --   73.34986  73.34986  73.67503  87.75570 104.82361
 Alpha virt. eigenvalues --  104.82361 105.44387 127.18318 127.21055 127.25465
 Alpha virt. eigenvalues --  127.25465 127.54395 139.88687 162.17877 197.65125
 Alpha virt. eigenvalues --  197.65125 198.21435 257.71041 257.72457 257.77236
 Alpha virt. eigenvalues --  257.77236 258.00210 272.99391 364.77462 364.77462
 Alpha virt. eigenvalues --  365.31388 466.09657 656.10119 656.10570 656.14869
 Alpha virt. eigenvalues --  656.14869 656.31451 675.67954 675.67954 676.20148
 Alpha virt. eigenvalues --  816.77371 817.482261277.806311277.806311278.30057
 Alpha virt. eigenvalues -- 1470.084022154.995592154.996452155.026702155.02670
 Alpha virt. eigenvalues -- 2155.133762503.551042503.551042504.012552728.21956
 Alpha virt. eigenvalues -- 5153.750945153.750945154.173265228.16872**********
 Alpha virt. eigenvalues -- **************************************************
 Alpha virt. eigenvalues -- **************************************************
 Alpha virt. eigenvalues -- **************************************************
 Alpha virt. eigenvalues -- **************************************************
 Alpha virt. eigenvalues -- ********************
     Molecular Orbital Coefficients:
                           3         4         5         6         7
                           O         O         O         O         O
     Eigenvalues --    -2.77695  -2.77695  -0.50870  -0.50870  -0.49814
   1 1   Fe 1S          0.00000   0.00000   0.00000   0.00000   0.00000
   2        2S          0.00000   0.00000  -0.00000   0.00000  -0.00000
   3        3S          0.00000   0.00000   0.00000   0.00000   0.00000
   4        4S          0.00000   0.00000  -0.00000   0.00000  -0.00000
   5        5S          0.00000   0.00000   0.00000   0.00000   0.00000
   6        6S          0.00000   0.00000  -0.00000   0.00000  -0.00000
   7        7S          0.00000   0.00000   0.00000   0.00000   0.00000
   8        8S          0.00000   0.00000  -0.00000   0.00000  -0.00000
   9        9S          0.00000   0.00000   0.00000   0.00000   0.00000
  10       10S          0.00000   0.00000  -0.00000   0.00000  -0.00000
  11       11S          0.00000   0.00000   0.00000   0.00000   0.00001
  12       12S          0.00000   0.00000  -0.00001   0.00000  -0.00002
  13       13S          0.00000   0.00000   0.00002   0.00000   0.00004
  14       14S          0.00000   0.00000  -0.00005   0.00000  -0.00011
  15       15S          0.00000   0.00000   0.00014   0.00000   0.00028
  16       16S          0.00000   0.00000  -0.00041   0.00000  -0.00084
  17       17S          0.00000   0.00000   0.00181   0.00000   0.00381
  18       18S          0.00000   0.00000  -0.00860   0.00000  -0.01852
  19       19S          0.00000   0.00000   0.01025   0.00000   0.02235
  20       20S          0.00000   0.00000   0.01776   0.00000   0.03826
  21       21S          0.00000   0.00000  -0.00258   0.00000  -0.00796
  22       22S          0.00000   0.00000  -0.01998   0.00000  -0.04471
  23       23S          0.00000   0.00000  -0.06537   0.00000  -0.15123
  24       24S          0.00000   0.00000  -0.04705   0.00000  -0.11487
  25       25S          0.00000   0.00000   0.01074   0.00000   0.07084
  26       26S          0.00000   0.00000   0.04929   0.00000   0.25454
  27       27S          0.00000   0.00000   0.03459   0.00000   0.25644
  28       28S          0.00000   0.00000  -0.00165   0.00000   0.04862
  29       29S          0.00000   0.00000   0.01295   0.00000   0.02958
  30       30S          0.00000   0.00000  -0.01949   0.00000  -0.04394
  31       31S          0.00000   0.00000  -0.00222   0.00000  -0.00289
  32       32PX         0.00000  -0.00000   0.00000   0.00000   0.00000
  33       32PY        -0.00000   0.00000   0.00000   0.00000   0.00000
  34       32PZ         0.00000   0.00000  -0.00000   0.00000  -0.00000
  35       33PX         0.00000   0.00000   0.00000   0.00000   0.00000
  36       33PY         0.00000   0.00000   0.00000   0.00000   0.00000
  37       33PZ         0.00000   0.00000   0.00000   0.00000   0.00000
  38       34PX         0.00000  -0.00000   0.00000   0.00000   0.00000
  39       34PY        -0.00000   0.00000   0.00000   0.00000   0.00000
  40       34PZ         0.00000   0.00000  -0.00000   0.00000  -0.00000
  41       35PX         0.00000   0.00000   0.00000   0.00000   0.00000
  42       35PY         0.00000   0.00000   0.00000   0.00000   0.00000
  43       35PZ         0.00000   0.00000   0.00000   0.00000   0.00000
  44       36PX         0.00000  -0.00000   0.00000   0.00000   0.00000
  45       36PY        -0.00000   0.00000   0.00000   0.00000   0.00000
  46       36PZ         0.00000   0.00000  -0.00000   0.00000  -0.00000
  47       37PX         0.00000   0.00002   0.00000   0.00000   0.00000
  48       37PY         0.00002   0.00000   0.00000   0.00000   0.00000
  49       37PZ         0.00000   0.00000   0.00000   0.00000   0.00000
  50       38PX         0.00000  -0.00005   0.00000   0.00000   0.00000
  51       38PY        -0.00005   0.00000   0.00000   0.00000   0.00000
  52       38PZ         0.00000   0.00000  -0.00000   0.00000  -0.00000
  53       39PX         0.00000   0.00019   0.00000   0.00000   0.00000
  54       39PY         0.00019   0.00000   0.00000   0.00000   0.00000
  55       39PZ         0.00000   0.00000   0.00001   0.00000   0.00002
  56       40PX         0.00000  -0.00092   0.00000   0.00000   0.00000
  57       40PY        -0.00092   0.00000   0.00000   0.00000   0.00000
  58       40PZ         0.00000   0.00000  -0.00007   0.00000  -0.00007
  59       41PX         0.00000   0.00774   0.00000   0.00000   0.00000
  60       41PY         0.00774   0.00000   0.00000   0.00000   0.00000
  61       41PZ         0.00000   0.00000   0.00066   0.00000   0.00057
  62       42PX         0.00000  -0.02721   0.00000   0.00000   0.00000
  63       42PY        -0.02721   0.00000   0.00000   0.00000   0.00000
  64       42PZ         0.00000   0.00000  -0.00245   0.00000  -0.00203
  65       43PX         0.00000  -0.04054   0.00000   0.00000   0.00000
  66       43PY        -0.04054   0.00000   0.00000   0.00000   0.00000
  67       43PZ         0.00000   0.00000  -0.00411   0.00000  -0.00302
  68       44PX         0.00000   0.04458   0.00000   0.00000   0.00000
  69       44PY         0.04458   0.00000   0.00000   0.00000   0.00000
  70       44PZ         0.00000   0.00000   0.00502   0.00000   0.00349
  71       45PX         0.00000   0.12997   0.00000   0.00000   0.00000
  72       45PY         0.12997   0.00000   0.00000   0.00000   0.00000
  73       45PZ         0.00000   0.00000   0.01228   0.00000   0.01006
  74       46PX         0.00000   0.39050   0.00000   0.00000   0.00000
  75       46PY         0.39050   0.00000   0.00000   0.00000   0.00000
  76       46PZ         0.00000   0.00000   0.03901   0.00000   0.03020
  77       47PX         0.00000   0.31989   0.00000   0.00000   0.00000
  78       47PY         0.31989   0.00000   0.00000   0.00000   0.00000
  79       47PZ         0.00000   0.00000   0.03513   0.00000   0.02875
  80       48PX         0.00000   0.11779   0.00000   0.00000   0.00000
  81       48PY         0.11779   0.00000   0.00000   0.00000   0.00000
  82       48PZ         0.00000   0.00000   0.00429   0.00000  -0.00070
  83       49PX         0.00000   0.01244   0.00000   0.00000   0.00000
  84       49PY         0.01244   0.00000   0.00000   0.00000   0.00000
  85       49PZ         0.00000   0.00000  -0.04207   0.00000  -0.03444
  86       50PX         0.00000  -0.00080   0.00000   0.00000   0.00000
  87       50PY        -0.00080   0.00000   0.00000   0.00000   0.00000
  88       50PZ         0.00000   0.00000  -0.04291   0.00000  -0.03694
  89       51PX         0.00000   0.00054   0.00000   0.00000   0.00000
  90       51PY         0.00054   0.00000   0.00000   0.00000   0.00000
  91       51PZ         0.00000   0.00000  -0.00220   0.00000  -0.01075
  92       52PX         0.00000  -0.03026   0.00000   0.00000   0.00000
  93       52PY        -0.03026   0.00000   0.00000   0.00000   0.00000
  94       52PZ         0.00000   0.00000  -0.00247   0.00000  -0.00199
  95       53PX         0.00000   0.14138   0.00000   0.00000   0.00000
  96       53PY         0.14138   0.00000   0.00000   0.00000   0.00000
  97       53PZ         0.00000   0.00000   0.01394   0.00000   0.01110
  98       54PX         0.00000  -0.00016   0.00000   0.00000   0.00000
  99       54PY        -0.00016   0.00000   0.00000   0.00000   0.00000
 100       54PZ         0.00000   0.00000   0.00106   0.00000   0.00136
 101       55D 0        0.00000   0.00000   0.00001   0.00000  -0.00001
 102       55D+1        0.00000   0.00000   0.00000   0.00000   0.00000
 103       55D-1        0.00000   0.00000   0.00000   0.00000   0.00000
 104       55D+2        0.00000   0.00000   0.00000   0.00000  -0.00000
 105       55D-2        0.00000   0.00000   0.00000   0.00002   0.00000
 106       56D 0        0.00000   0.00000  -0.00012   0.00000   0.00011
 107       56D+1        0.00000  -0.00000   0.00000   0.00000   0.00000
 108       56D-1       -0.00000   0.00000   0.00000   0.00000   0.00000
 109       56D+2        0.00000   0.00000  -0.00000   0.00000   0.00000
 110       56D-2        0.00000   0.00000   0.00000  -0.00019   0.00000
 111       57D 0        0.00000   0.00000   0.00298   0.00000  -0.00282
 112       57D+1        0.00000   0.00002   0.00000   0.00000   0.00000
 113       57D-1        0.00002   0.00000   0.00000   0.00000   0.00000
 114       57D+2        0.00000   0.00000   0.00000   0.00000  -0.00000
 115       57D-2        0.00000   0.00000   0.00000   0.00457   0.00000
 116       58D 0        0.00000   0.00000   0.02276   0.00000  -0.02147
 117       58D+1        0.00000   0.00017   0.00000   0.00000   0.00000
 118       58D-1        0.00017   0.00000   0.00000   0.00000   0.00000
 119       58D+2        0.00000   0.00000   0.00000   0.00000  -0.00000
 120       58D-2        0.00000   0.00000   0.00000   0.03479   0.00000
 121       59D 0        0.00000   0.00000   0.04591   0.00000  -0.04358
 122       59D+1        0.00000   0.00028   0.00000   0.00000   0.00000
 123       59D-1        0.00028   0.00000   0.00000   0.00000   0.00000
 124       59D+2        0.00000   0.00000   0.00000   0.00000  -0.00000
 125       59D-2        0.00000   0.00000   0.00000   0.07053   0.00000
 126       60D 0        0.00000   0.00000   0.06740   0.00000  -0.06721
 127       60D+1        0.00000  -0.00050   0.00000   0.00000   0.00000
 128       60D-1       -0.00050   0.00000   0.00000   0.00000   0.00000
 129       60D+2        0.00000   0.00000   0.00000   0.00000  -0.00000
 130       60D-2        0.00000   0.00000   0.00000   0.10705   0.00000
 131       61D 0        0.00000   0.00000   0.15875   0.00000  -0.15132
 132       61D+1        0.00000   0.00065   0.00000   0.00000   0.00000
 133       61D-1        0.00065   0.00000   0.00000   0.00000   0.00000
 134       61D+2        0.00000   0.00000   0.00000   0.00000  -0.00000
 135       61D-2        0.00000   0.00000   0.00000   0.24367   0.00000
 136       62D 0        0.00000   0.00000   0.19570   0.00000  -0.18333
 137       62D+1        0.00000   0.00247   0.00000   0.00000   0.00000
 138       62D-1        0.00247   0.00000   0.00000   0.00000   0.00000
 139       62D+2        0.00000   0.00000   0.00000   0.00000  -0.00000
 140       62D-2        0.00000   0.00000   0.00000   0.29473   0.00000
 141       63D 0        0.00000   0.00000   0.18436   0.00000  -0.16982
 142       63D+1        0.00000   0.00311   0.00000   0.00000   0.00000
 143       63D-1        0.00311   0.00000   0.00000   0.00000   0.00000
 144       63D+2        0.00000   0.00000   0.00000   0.00000  -0.00000
 145       63D-2        0.00000   0.00000   0.00000   0.26877   0.00000
 146       64D 0        0.00000   0.00000   0.14215   0.00000  -0.12811
 147       64D+1        0.00000   0.00139   0.00000   0.00000   0.00000
 148       64D-1        0.00139   0.00000   0.00000   0.00000   0.00000
 149       64D+2        0.00000   0.00000   0.00000   0.00000  -0.00000
 150       64D-2        0.00000   0.00000   0.00000   0.19630   0.00000
 151       65D 0        0.00000   0.00000   0.06625   0.00000  -0.06673
 152       65D+1        0.00000   0.00017   0.00000   0.00000   0.00000
 153       65D-1        0.00017   0.00000   0.00000   0.00000   0.00000
 154       65D+2        0.00000   0.00000   0.00000   0.00000  -0.00000
 155       65D-2        0.00000   0.00000   0.00000   0.08865   0.00000
 156       66D 0        0.00000   0.00000   0.00981   0.00000  -0.01249
 157       66D+1        0.00000   0.00007   0.00000   0.00000   0.00000
 158       66D-1        0.00007   0.00000   0.00000   0.00000   0.00000
 159       66D+2        0.00000   0.00000  -0.00000   0.00000  -0.00000
 160       66D-2        0.00000   0.00000   0.00000   0.01185   0.00000
 161       67D 0        0.00000   0.00000   0.02882   0.00000  -0.02548
 162       67D+1        0.00000   0.00069   0.00000   0.00000   0.00000
 163       67D-1        0.00069   0.00000   0.00000   0.00000   0.00000
 164       67D+2        0.00000   0.00000   0.00000   0.00000  -0.00000
 165       67D-2        0.00000   0.00000   0.00000   0.04219   0.00000
 166       68D 0        0.00000   0.00000   0.02464   0.00000  -0.02024
 167       68D+1        0.00000   0.00106   0.00000   0.00000   0.00000
 168       68D-1        0.00106   0.00000   0.00000   0.00000   0.00000
 169       68D+2        0.00000   0.00000  -0.00000   0.00000  -0.00000
 170       68D-2        0.00000   0.00000   0.00000   0.03444   0.00000
 171       69D 0        0.00000   0.00000  -0.00096   0.00000   0.00043
 172       69D+1        0.00000  -0.00001   0.00000   0.00000   0.00000
 173       69D-1       -0.00001   0.00000   0.00000   0.00000   0.00000
 174       69D+2        0.00000   0.00000   0.00000   0.00000   0.00000
 175       69D-2        0.00000   0.00000   0.00000  -0.00045   0.00000
 176       70F 0        0.00000   0.00000  -0.00000   0.00000  -0.00008
 177       70F+1        0.00000  -0.00018   0.00000   0.00000   0.00000
 178       70F-1       -0.00018   0.00000   0.00000   0.00000   0.00000
 179       70F+2        0.00000   0.00000   0.00000   0.00000  -0.00000
 180       70F-2        0.00000   0.00000   0.00000   0.00005   0.00000
 181       70F+3        0.00000  -0.00038   0.00000   0.00000   0.00000
 182       70F-3        0.00038   0.00000   0.00000   0.00000   0.00000
 183       71F 0        0.00000   0.00000  -0.00010   0.00000  -0.00042
 184       71F+1        0.00000  -0.00054   0.00000   0.00000   0.00000
 185       71F-1       -0.00054   0.00000   0.00000   0.00000   0.00000
 186       71F+2        0.00000   0.00000   0.00000   0.00000  -0.00000
 187       71F-2        0.00000   0.00000   0.00000   0.00033   0.00000
 188       71F+3        0.00000  -0.00112   0.00000   0.00000   0.00000
 189       71F-3        0.00112   0.00000   0.00000   0.00000   0.00000
 190       72F 0        0.00000   0.00000  -0.00030   0.00000  -0.00096
 191       72F+1        0.00000  -0.00072   0.00000   0.00000   0.00000
 192       72F-1       -0.00072   0.00000   0.00000   0.00000   0.00000
 193       72F+2        0.00000   0.00000   0.00000   0.00000  -0.00000
 194       72F-2        0.00000   0.00000   0.00000   0.00054   0.00000
 195       72F+3        0.00000  -0.00214   0.00000   0.00000   0.00000
 196       72F-3        0.00214   0.00000   0.00000   0.00000   0.00000
 197       73F 0        0.00000   0.00000  -0.00145   0.00000  -0.00481
 198       73F+1        0.00000  -0.00119   0.00000   0.00000   0.00000
 199       73F-1       -0.00119   0.00000   0.00000   0.00000   0.00000
 200       73F+2        0.00000   0.00000   0.00000   0.00000  -0.00000
 201       73F-2        0.00000   0.00000   0.00000   0.00340   0.00000
 202       73F+3        0.00000  -0.00294   0.00000   0.00000   0.00000
 203       73F-3        0.00294   0.00000   0.00000   0.00000   0.00000
 204       74F 0        0.00000   0.00000  -0.00088   0.00000  -0.01142
 205       74F+1        0.00000  -0.00129   0.00000   0.00000   0.00000
 206       74F-1       -0.00129   0.00000   0.00000   0.00000   0.00000
 207       74F+2        0.00000   0.00000  -0.00000   0.00000  -0.00000
 208       74F-2        0.00000   0.00000   0.00000   0.00842   0.00000
 209       74F+3        0.00000  -0.00149   0.00000   0.00000   0.00000
 210       74F-3        0.00149   0.00000   0.00000   0.00000   0.00000
 211       75F 0        0.00000   0.00000   0.00088   0.00000  -0.00759
 212       75F+1        0.00000  -0.00013   0.00000   0.00000   0.00000
 213       75F-1       -0.00013   0.00000   0.00000   0.00000   0.00000
 214       75F+2        0.00000   0.00000   0.00000   0.00000  -0.00000
 215       75F-2        0.00000   0.00000   0.00000   0.00410   0.00000
 216       75F+3        0.00000   0.00000   0.00000   0.00000   0.00000
 217       75F-3       -0.00000   0.00000   0.00000   0.00000   0.00000
 218       76G 0        0.00000   0.00000   0.00008   0.00000  -0.00004
 219       76G+1        0.00000  -0.00001   0.00000   0.00000   0.00000
[...]
 197       73F 0        0.00055   0.00027   0.00027   0.00000
 198       73F+1        0.00003   0.00003   0.00000   0.00003
 199       73F-1        0.00003   0.00003   0.00000   0.00003
 200       73F+2        0.00003   0.00003   0.00000   0.00003
 201       73F-2        0.00006   0.00003   0.00003   0.00000
 202       73F+3        0.00003   0.00002   0.00002  -0.00000
 203       73F-3        0.00003   0.00002   0.00002  -0.00000
 204       74F 0        0.00277   0.00138   0.00138   0.00000
 205       74F+1        0.00006   0.00005   0.00000   0.00005
 206       74F-1        0.00006   0.00005   0.00000   0.00005
 207       74F+2        0.00008   0.00008   0.00000   0.00008
 208       74F-2        0.00020   0.00010   0.00010   0.00000
 209       74F+3        0.00001   0.00001   0.00001   0.00000
 210       74F-3        0.00001   0.00001   0.00001   0.00000
 211       75F 0        0.00132   0.00066   0.00066   0.00000
 212       75F+1        0.00001   0.00001   0.00000   0.00001
 213       75F-1        0.00001   0.00001   0.00000   0.00001
 214       75F+2        0.00002   0.00002   0.00000   0.00002
 215       75F-2        0.00007   0.00004   0.00004   0.00000
 216       75F+3       -0.00000  -0.00000  -0.00000   0.00000
 217       75F-3       -0.00000  -0.00000  -0.00000   0.00000
 218       76G 0        0.00000   0.00000   0.00000   0.00000
 219       76G+1       -0.00000  -0.00000   0.00000  -0.00000
 220       76G-1       -0.00000  -0.00000   0.00000  -0.00000
 221       76G+2        0.00000   0.00000   0.00000   0.00000
 222       76G-2        0.00000   0.00000   0.00000   0.00000
 223       76G+3        0.00000   0.00000   0.00000   0.00000
 224       76G-3        0.00000   0.00000   0.00000   0.00000
 225       76G+4        0.00000   0.00000   0.00000   0.00000
 226       76G-4        0.00000   0.00000   0.00000   0.00000
 227       77G 0        0.00000   0.00000   0.00000   0.00000
 228       77G+1       -0.00000  -0.00000   0.00000  -0.00000
 229       77G-1       -0.00000  -0.00000   0.00000  -0.00000
 230       77G+2        0.00000   0.00000   0.00000   0.00000
 231       77G-2       -0.00000  -0.00000  -0.00000   0.00000
 232       77G+3        0.00000   0.00000   0.00000   0.00000
 233       77G-3        0.00000   0.00000   0.00000   0.00000
 234       77G+4        0.00000   0.00000   0.00000   0.00000
 235       77G-4        0.00000   0.00000   0.00000   0.00000
 236       78G 0        0.00002   0.00001   0.00001   0.00000
 237       78G+1        0.00000   0.00000  -0.00000   0.00000
 238       78G-1        0.00000   0.00000  -0.00000   0.00000
 239       78G+2        0.00000   0.00000   0.00000   0.00000
 240       78G-2        0.00000   0.00000   0.00000   0.00000
 241       78G+3        0.00000   0.00000   0.00000   0.00000
 242       78G-3        0.00000   0.00000   0.00000   0.00000
 243       78G+4        0.00000   0.00000   0.00000   0.00000
 244       78G-4        0.00000   0.00000   0.00000   0.00000
 245       79G 0        0.00026   0.00013   0.00013   0.00000
 246       79G+1        0.00001   0.00001   0.00000   0.00001
 247       79G-1        0.00001   0.00001   0.00000   0.00001
 248       79G+2        0.00000   0.00000   0.00000   0.00000
 249       79G-2        0.00000   0.00000   0.00000   0.00000
 250       79G+3        0.00000   0.00000   0.00000   0.00000
 251       79G-3        0.00000   0.00000   0.00000   0.00000
 252       79G+4        0.00000   0.00000   0.00000   0.00000
 253       79G-4        0.00000   0.00000   0.00000   0.00000
 254       80G 0        0.00036   0.00018   0.00018   0.00000
 255       80G+1        0.00000   0.00000  -0.00000   0.00000
 256       80G-1        0.00000   0.00000  -0.00000   0.00000
 257       80G+2        0.00000   0.00000   0.00000   0.00000
 258       80G-2        0.00000   0.00000   0.00000   0.00000
 259       80G+3        0.00000   0.00000   0.00000   0.00000
 260       80G-3        0.00000   0.00000   0.00000   0.00000
 261       80G+4        0.00000   0.00000   0.00000   0.00000
 262       80G-4        0.00000   0.00000   0.00000   0.00000
 263       81H 0        0.00000   0.00000   0.00000   0.00000
 264       81H+1        0.00000   0.00000   0.00000   0.00000
 265       81H-1        0.00000   0.00000   0.00000   0.00000
 266       81H+2        0.00000   0.00000   0.00000   0.00000
 267       81H-2        0.00000   0.00000   0.00000   0.00000
 268       81H+3        0.00000   0.00000   0.00000   0.00000
 269       81H-3        0.00000   0.00000   0.00000   0.00000
 270       81H+4        0.00000   0.00000   0.00000  -0.00000
 271       81H-4        0.00000   0.00000   0.00000   0.00000
 272       81H+5        0.00000   0.00000   0.00000   0.00000
 273       81H-5        0.00000   0.00000   0.00000   0.00000
 274       82H 0        0.00000   0.00000   0.00000   0.00000
 275       82H+1        0.00000   0.00000   0.00000  -0.00000
 276       82H-1        0.00000   0.00000   0.00000  -0.00000
 277       82H+2        0.00000   0.00000   0.00000   0.00000
 278       82H-2        0.00000   0.00000   0.00000   0.00000
 279       82H+3        0.00000   0.00000   0.00000   0.00000
 280       82H-3        0.00000   0.00000   0.00000   0.00000
 281       82H+4        0.00000   0.00000   0.00000   0.00000
 282       82H-4       -0.00000  -0.00000  -0.00000   0.00000
 283       82H+5        0.00000   0.00000   0.00000   0.00000
 284       82H-5        0.00000   0.00000   0.00000   0.00000
 285       83H 0        0.00001   0.00000   0.00000  -0.00000
 286       83H+1        0.00000   0.00000   0.00000   0.00000
 287       83H-1        0.00000   0.00000   0.00000   0.00000
 288       83H+2       -0.00000  -0.00000   0.00000  -0.00000
 289       83H-2       -0.00000  -0.00000  -0.00000   0.00000
 290       83H+3        0.00000   0.00000  -0.00000   0.00000
 291       83H-3        0.00000   0.00000  -0.00000   0.00000
 292       83H+4        0.00000   0.00000   0.00000   0.00000
 293       83H-4        0.00000   0.00000   0.00000   0.00000
 294       83H+5        0.00000   0.00000   0.00000   0.00000
 295       83H-5        0.00000   0.00000   0.00000   0.00000
 296       84H 0        0.00001   0.00001   0.00001  -0.00000
 297       84H+1        0.00000   0.00000   0.00000   0.00000
 298       84H-1        0.00000   0.00000   0.00000   0.00000
 299       84H+2       -0.00000  -0.00000   0.00000  -0.00000
 300       84H-2       -0.00000  -0.00000  -0.00000   0.00000
 301       84H+3        0.00000   0.00000   0.00000  -0.00000
 302       84H-3        0.00000   0.00000   0.00000  -0.00000
 303       84H+4        0.00000   0.00000   0.00000   0.00000
 304       84H-4        0.00000   0.00000   0.00000   0.00000
 305       84H+5        0.00000   0.00000   0.00000   0.00000
 306       84H-5        0.00000   0.00000   0.00000   0.00000
 307       85I 0        0.00000   0.00000   0.00000   0.00000
 308       85I+1        0.00000   0.00000  -0.00000   0.00000
 309       85I-1        0.00000   0.00000  -0.00000   0.00000
 310       85I+2        0.00000   0.00000   0.00000   0.00000
 311       85I-2        0.00000   0.00000   0.00000   0.00000
 312       85I+3        0.00000   0.00000   0.00000   0.00000
 313       85I-3        0.00000   0.00000   0.00000   0.00000
 314       85I+4        0.00000   0.00000   0.00000   0.00000
 315       85I-4        0.00000   0.00000   0.00000   0.00000
 316       85I+5        0.00000   0.00000   0.00000   0.00000
 317       85I-5        0.00000   0.00000   0.00000   0.00000
 318       85I+6        0.00000   0.00000   0.00000   0.00000
 319       85I-6        0.00000   0.00000   0.00000   0.00000
 320       86I 0       -0.00000  -0.00000  -0.00000  -0.00000
 321       86I+1        0.00000   0.00000   0.00000   0.00000
 322       86I-1        0.00000   0.00000   0.00000   0.00000
 323       86I+2        0.00000   0.00000   0.00000   0.00000
 324       86I-2        0.00000   0.00000   0.00000   0.00000
 325       86I+3        0.00000   0.00000   0.00000   0.00000
 326       86I-3        0.00000   0.00000   0.00000   0.00000
 327       86I+4        0.00000   0.00000   0.00000   0.00000
 328       86I-4        0.00000   0.00000   0.00000   0.00000
 329       86I+5        0.00000   0.00000   0.00000   0.00000
 330       86I-5        0.00000   0.00000   0.00000   0.00000
 331       86I+6        0.00000   0.00000   0.00000   0.00000
 332       86I-6        0.00000   0.00000   0.00000   0.00000
 333 2   H  1S         -0.00000  -0.00000  -0.00000  -0.00000
 334        2S          0.00007   0.00003   0.00003   0.00000
 335        3S          0.00364   0.00182   0.00182  -0.00000
 336        4S          0.02619   0.01309   0.01309   0.00000
 337        5S          0.12915   0.06458   0.06458  -0.00000
 338        6S          0.36970   0.18485   0.18485   0.00000
 339        7S          0.49743   0.24871   0.24871  -0.00000
 340        8S          0.21936   0.10968   0.10968  -0.00000
 341        9S          0.01600   0.00800   0.00800  -0.00000
 342       10PX         0.00001   0.00001   0.00000   0.00001
 343       10PY         0.00001   0.00001   0.00000   0.00001
 344       10PZ         0.00006   0.00003   0.00003   0.00000
 345       11PX         0.00008   0.00008   0.00000   0.00008
 346       11PY         0.00008   0.00008   0.00000   0.00008
 347       11PZ         0.00066   0.00033   0.00033   0.00000
 348       12PX         0.00084   0.00082   0.00002   0.00081
 349       12PY         0.00084   0.00082   0.00002   0.00081
 350       12PZ         0.00608   0.00304   0.00304   0.00000
 351       13PX         0.00112   0.00107   0.00005   0.00102
 352       13PY         0.00112   0.00107   0.00005   0.00102
 353       13PZ         0.00302   0.00151   0.00151   0.00000
 354       14PX         0.00027   0.00025   0.00002   0.00023
 355       14PY         0.00027   0.00025   0.00002   0.00023
 356       14PZ        -0.00272  -0.00136  -0.00136  -0.00000
 357       15D 0        0.00001   0.00001   0.00001   0.00000
 358       15D+1        0.00000   0.00000   0.00000   0.00000
 359       15D-1        0.00000   0.00000   0.00000   0.00000
 360       15D+2        0.00000   0.00000   0.00000   0.00000
 361       15D-2        0.00000   0.00000   0.00000   0.00000
 362       16D 0        0.00046   0.00023   0.00023   0.00000
 363       16D+1        0.00013   0.00012   0.00000   0.00012
 364       16D-1        0.00013   0.00012   0.00000   0.00012
 365       16D+2        0.00001   0.00001   0.00000   0.00001
 366       16D-2        0.00002   0.00001   0.00001   0.00000
 367       17D 0        0.00135   0.00067   0.00067   0.00000
 368       17D+1        0.00031   0.00029   0.00003   0.00026
 369       17D-1        0.00031   0.00029   0.00003   0.00026
 370       17D+2        0.00004   0.00004   0.00000   0.00004
 371       17D-2        0.00012   0.00006   0.00006   0.00000
 372       18D 0        0.00040   0.00020   0.00020  -0.00000
 373       18D+1        0.00001   0.00000   0.00001  -0.00001
 374       18D-1        0.00001   0.00000   0.00001  -0.00001
 375       18D+2        0.00006   0.00006   0.00000   0.00006
 376       18D-2        0.00009   0.00004   0.00004   0.00000
 377       19F 0        0.00001   0.00001   0.00001  -0.00000
 378       19F+1        0.00000   0.00000   0.00000   0.00000
 379       19F-1        0.00000   0.00000   0.00000   0.00000
 380       19F+2        0.00000   0.00000   0.00000   0.00000
 381       19F-2        0.00000   0.00000   0.00000   0.00000
 382       19F+3       -0.00000  -0.00000  -0.00000   0.00000
 383       19F-3       -0.00000  -0.00000  -0.00000   0.00000
 384       20F 0        0.00037   0.00018   0.00018   0.00000
 385       20F+1        0.00006   0.00006   0.00000   0.00006
 386       20F-1        0.00006   0.00006   0.00000   0.00006
 387       20F+2        0.00001   0.00001  -0.00000   0.00001
 388       20F-2        0.00004   0.00002   0.00002   0.00000
 389       20F+3        0.00000   0.00000   0.00000  -0.00000
 390       20F-3        0.00000   0.00000   0.00000  -0.00000
 391       21F 0        0.00057   0.00028   0.00028   0.00000
 392       21F+1       -0.00008  -0.00007  -0.00001  -0.00006
 393       21F-1       -0.00008  -0.00007  -0.00001  -0.00006
 394       21F+2        0.00002   0.00002   0.00000   0.00002
 395       21F-2        0.00002   0.00001   0.00001   0.00000
 396       21F+3       -0.00000  -0.00000  -0.00000  -0.00000
 397       21F-3       -0.00000  -0.00000  -0.00000  -0.00000
 398       22G 0        0.00001   0.00000   0.00000   0.00000
 399       22G+1        0.00000   0.00000   0.00000   0.00000
 400       22G-1        0.00000   0.00000   0.00000   0.00000
 401       22G+2        0.00000   0.00000   0.00000   0.00000
 402       22G-2        0.00000   0.00000   0.00000   0.00000
 403       22G+3        0.00000   0.00000   0.00000  -0.00000
 404       22G-3        0.00000   0.00000   0.00000  -0.00000
 405       22G+4       -0.00000  -0.00000  -0.00000   0.00000
 406       22G-4        0.00000   0.00000   0.00000   0.00000
 407       23G 0        0.00016   0.00008   0.00008   0.00000
 408       23G+1       -0.00007  -0.00005  -0.00002  -0.00003
 409       23G-1       -0.00007  -0.00005  -0.00002  -0.00003
 410       23G+2       -0.00001  -0.00001   0.00000  -0.00001
 411       23G-2        0.00000   0.00000   0.00000   0.00000
 412       23G+3       -0.00000  -0.00000  -0.00000  -0.00000
 413       23G-3       -0.00000  -0.00000  -0.00000  -0.00000
 414       23G+4        0.00000   0.00000   0.00000  -0.00000
 415       23G-4       -0.00000  -0.00000  -0.00000   0.00000
          Condensed to atoms (all electrons):
               1          2
     1  Fe  15.334104   0.388121
     2  H    0.388121   0.889654
          Atomic-Atomic Spin Densities.
               1          2
     1  Fe   2.990081   0.004812
     2  H    0.004812   0.000295
 Mulliken charges and spin densities:
               1          2
     1  Fe   0.277775   2.994893
     2  H   -0.277775   0.005107
 Sum of Mulliken charges =  -0.00000   3.00000
 Mulliken charges and spin densities with hydrogens summed into heavy atoms:
               1          2
     1  Fe  -0.000000   3.000000
 Electronic spatial extent (au):  <R**2>=             43.7799
 Charge=             -0.0000 electrons
 Dipole moment (field-independent basis, Debye):
    X=              0.0000    Y=              0.0000    Z=              4.1105  Tot=              4.1105
 Quadrupole moment (field-independent basis, Debye-Ang):
   XX=            -15.8460   YY=            -15.8460   ZZ=            -16.9347
   XY=              0.0000   XZ=              0.0000   YZ=              0.0000
 Traceless Quadrupole moment (field-independent basis, Debye-Ang):
   XX=              0.3629   YY=              0.3629   ZZ=             -0.7258
   XY=              0.0000   XZ=              0.0000   YZ=              0.0000
 Octapole moment (field-independent basis, Debye-Ang**2):
  XXX=              0.0000  YYY=              0.0000  ZZZ=             15.0912  XYY=              0.0000
  XXY=              0.0000  XXZ=              3.7119  XZZ=              0.0000  YZZ=              0.0000
  YYZ=              3.7119  XYZ=              0.0000
 Hexadecapole moment (field-independent basis, Debye-Ang**3):
 XXXX=            -25.1384 YYYY=            -25.1384 ZZZZ=            -48.7572 XXXY=              0.0000
 XXXZ=              0.0000 YYYX=              0.0000 YYYZ=              0.0000 ZZZX=              0.0000
 ZZZY=              0.0000 XXYY=             -8.7052 XXZZ=            -11.7173 YYZZ=            -11.7173
 XXYZ=              0.0000 YYXZ=              0.0000 ZZXY=              0.0000
 N-N= 5.644556916480D+00 E-N=-3.029615634157D+02  KE= 7.320316669679D+01
 Symmetry A1   KE= 3.103623261807D+01
 Symmetry A2   KE= 1.316350789482D+01
 Symmetry B1   KE= 1.450171312183D+01
 Symmetry B2   KE= 1.450171306240D+01
 Symmetry A1   SP= 1.000000000000D+00
 Symmetry A2   SP= 0.000000000000D+00
 Symmetry B1   SP= 1.000000000000D+00
 Symmetry B2   SP= 1.000000000000D+00
 Orbital energies and kinetic energies (alpha):
                                 1                 2
   3         O                -2.776949          3.817057
   4         O                -2.776949          3.817057
   5         O                -0.508700          3.218057
   6         O                -0.508700          6.581754
   7         O                -0.498140          2.767908
   8         O                -0.464338          6.867599
   9         O                -0.449100          6.867599
  10         O                -0.316576          6.902841
  11         V                -0.002727          0.227169
  12         V                 0.021600          0.037335
  13         V                 0.021600          0.037335
  14         V                 0.025533          0.027940
  15         V                 0.035151          0.243685
 Total kinetic energy from orbitals= 9.384120541189D+01
                          Isotropic Fermi Contact Couplings
        Atom                 a.u.       MegaHertz       Gauss      10(-4) cm-1
     1  Fe(57)            -0.00000      -0.00000      -0.00000      -0.00000
     2  H(1)               0.00000       0.00000       0.00000       0.00000
 --------------------------------------------------------
       Center         ----  Spin Dipole Couplings  ----
                      3XX-RR        3YY-RR        3ZZ-RR
 --------------------------------------------------------
     1   Atom        0.006034      0.006031     -0.012065
     2   Atom       -0.113117     -0.113117      0.226234
 --------------------------------------------------------
                        XY            XZ            YZ
 --------------------------------------------------------
     1   Atom        0.000000      0.000000      0.000000
     2   Atom        0.000000      0.000000      0.000000
 --------------------------------------------------------


 ---------------------------------------------------------------------------------
              Anisotropic Spin Dipole Couplings in Principal Axis System
 ---------------------------------------------------------------------------------

       Atom             a.u.   MegaHertz   Gauss  10(-4) cm-1        Axes

              Baa    -0.0121    -0.209    -0.075    -0.070  0.0000  0.0000  1.0000
     1 Fe(57) Bbb     0.0060     0.104     0.037     0.035 -0.0000  1.0000  0.0000
              Bcc     0.0060     0.104     0.037     0.035  1.0000  0.0000  0.0000
 
              Baa    -0.1131   -60.354   -21.536   -20.132 -0.0000  1.0000  0.0000
     2 H(1)   Bbb    -0.1131   -60.354   -21.536   -20.132  1.0000  0.0000  0.0000
              Bcc     0.2262   120.707    43.071    40.264  0.0000  0.0000  1.0000
 

 ---------------------------------------------------------------------------------

 No NMR shielding tensors so no spin-rotation constants.
 Leave Link  601 at Sun Apr 22 23:59:15 2018, MaxMem= 21474836480 cpu:              85.8 elap:               2.8
 (Enter /home1/apps/gaussian/16rA.03/g16/l9999.exe)

 Test job not archived.
 1\1\GINC-C478-101\SP\ROCCSD(T)-Full\Gen\Fe1H1(4)\GWANG18\22-Apr-2018\0
 \\#P ROCCSD(T)=(MaxCyc=150, Full)/Gen SCF=(maxcycle=400, vshift=200) P
 seudo=Read Integral(NoXCTest) Pop=Regular MaxDisk=500GB Guess=Read IOp
 (5/15=2)\\FeH\\0,4\Fe,0,0.,0.,0.\H,0,0.,0.,1.5\\Version=ES64L-G16RevA.
 03\HF=-123.1156761\MP2=-123.9365313\MP3=-123.8733161\PUHF=-123.1156761
 \PMP2-0=-123.9365313\MP4SDQ=-123.9109921\CCSD=-123.9011322\CCSD(T)=-12
 3.9318829\RMSD=9.046e-09\PG=C*V [C*(H1Fe1)]\\@


 MARY HAD A LITTLE LAMB
      HIS FEET WERE BLACK AS SOOT,
           AND EVERYWHERE THAT MARY WENT
                HIS SOOTY FOOT HE PUT.

                    -- NONAME
 Job cpu time:       0 days 21 hours 21 minutes 15.6 seconds.
 Elapsed time:       0 days  0 hours 40 minutes 26.4 seconds.
 File lengths (MBytes):  RWF=  20905 Int=      0 D2E=      0 Chk=     20 Scr=      1
 Normal termination of Gaussian 16 at Sun Apr 22 23:59:15 2018.
