 Entering Gaussian System, Link 0=g16
 Initial command:
 /home1/apps/gaussian/16rA.03/g16/l1.exe "/tmp/Gau-58325.inp" -scrdir="/tmp/"
 Entering Link 1 = /home1/apps/gaussian/16rA.03/g16/l1.exe PID=     58326.
  
 Copyright (c) 1988,1990,1992,1993,1995,1998,2003,2009,2016,
            Gaussian, Inc.  All Rights Reserved.
  
 This is part of the Gaussian(R) 16 program.  It is based on
 the Gaussian(R) 09 system (copyright 2009, Gaussian, Inc.),
 the Gaussian(R) 03 system (copyright 2003, Gaussian, Inc.),
 the Gaussian(R) 98 system (copyright 1998, Gaussian, Inc.),
 the Gaussian(R) 94 system (copyright 1995, Gaussian, Inc.),
 the Gaussian 92(TM) system (copyright 1992, Gaussian, Inc.),
 the Gaussian 90(TM) system (copyright 1990, Gaussian, Inc.),
 the Gaussian 88(TM) system (copyright 1988, Gaussian, Inc.),
 the Gaussian 86(TM) system (copyright 1986, Carnegie Mellon
 University), and the Gaussian 82(TM) system (copyright 1983,
 Carnegie Mellon University). Gaussian is a federally registered
 trademark of Gaussian, Inc.
  
 This software contains proprietary and confidential information,
 including trade secrets, belonging to Gaussian, Inc.
  
 This software is provided under written license and may be
 used, copied, transmitted, or stored only in accord with that
 written license.
  
 The following legend is applicable only to US Government
 contracts under FAR:
  
                    RESTRICTED RIGHTS LEGEND
  
 Use, reproduction and disclosure by the US Government is
 subject to restrictions as set forth in subparagraphs (a)
 and (c) of the Commercial Computer Software - Restricted
 Rights clause in FAR 52.227-19.
  
 Gaussian, Inc.
 340 Quinnipiac St., Bldg. 40, Wallingford CT 06492
  
  
 ---------------------------------------------------------------
 Warning -- This program may not be used in any manner that
 competes with the business of Gaussian, Inc. or will provide
 assistance to any competitor of Gaussian, Inc.  The licensee
 of this program is prohibited from giving any competitor of
 Gaussian, Inc. access to this program.  By using this program,
 the user acknowledges that Gaussian, Inc. is engaged in the
 business of creating and licensing software in the field of
 computational chemistry and represents and warrants to the
 licensee that it is not a competitor of Gaussian, Inc. and that
 it will not use this program in any manner prohibited above.
 ---------------------------------------------------------------
  

 Cite this work as:
 Gaussian 16, Revision A.03,
 M. J. Frisch, G. W. Trucks, H. B. Schlegel, G. E. Scuseria, 
 M. A. Robb, J. R. Cheeseman, G. Scalmani, V. Barone, 
 G. A. Petersson, H. Nakatsuji, X. Li, M. Caricato, A. V. Marenich, 
 J. Bloino, B. G. Janesko, R. Gomperts, B. Mennucci, H. P. Hratchian, 
 J. V. Ortiz, A. F. Izmaylov, J. L. Sonnenberg, D. Williams-Young, 
 F. Ding, F. Lipparini, F. Egidi, J. Goings, B. Peng, A. Petrone, 
 T. Henderson, D. Ranasinghe, V. G. Zakrzewski, J. Gao, N. Rega, 
 G. Zheng, W. Liang, M. Hada, M. Ehara, K. Toyota, R. Fukuda, 
 J. Hasegawa, M. Ishida, T. Nakajima, Y. Honda, O. Kitao, H. Nakai, 
 T. Vreven, K. Throssell, J. A. Montgomery, Jr., J. E. Peralta, 
 F. Ogliaro, M. J. Bearpark, J. J. Heyd, E. N. Brothers, K. N. Kudin, 
 V. N. Staroverov, T. A. Keith, R. Kobayashi, J. Normand, 
 K. Raghavachari, A. P. Rendell, J. C. Burant, S. S. Iyengar, 
 J. Tomasi, M. Cossi, J. M. Millam, M. Klene, C. Adamo, R. Cammi, 
 J. W. Ochterski, R. L. Martin, K. Morokuma, O. Farkas, 
 J. B. Foresman, and D. J. Fox, Gaussian, Inc., Wallingford CT, 2016.
 
 ******************************************
 Gaussian 16:  ES64L-G16RevA.03 25-Dec-2016
                13-Mar-2018 
 ******************************************
 %MEM=80GB
 %CPU=0-15
 SetSPE:  set environment variable "MP_BIND" = "yes"
 SetSPE:  set environment variable "MP_BLIST" = "0,1,2,3,4,5,6,7,8,9,10,11,12,13,14,15"
 Will use up to   16 processors via shared memory.
 %RWF=/scratch/04843/aannabe/gaussian/
 %Int=/scratch/04843/aannabe/gaussian/
 %D2E=/scratch/04843/aannabe/gaussian/
 %NoSave
 %CHK=CrO
 ----------------------------------------------------------------------
 #P ROCCSD(T)=(maxcyc=150, Full, SaveAmplitudes, ReadAmplitudes)/Gen 5d
  7f SCF=(maxcycles=300) Integral(NoXCTest) MaxDisk=500GB Pop=Regular P
 seudo=Read Guess=Read
 ----------------------------------------------------------------------
 1/38=1,172=1/1;
 2/12=2,17=6,18=5,40=1/2;
 3/5=7,8=11,11=2,16=1,17=8,25=1,30=1,47=8,116=101/1,2,3;
 4/5=1/1;
 5/5=2,7=300,38=6/2;
 8/5=-1,6=4,9=120000,10=90,24=1/1,4;
 9/5=7,6=150,14=2,77=1/13;
 6//1;
 99/5=1,9=1/99;
 Leave Link    1 at Tue Mar 13 02:48:37 2018, MaxMem= 10737418240 cpu:               3.5 elap:               0.2
 (Enter /home1/apps/gaussian/16rA.03/g16/l101.exe)
 ---
 CrO
 ---
 Symbolic Z-matrix:
 Charge =  0 Multiplicity = 5
 Cr                    0.        0.        0. 
 O                     0.        0.        1.3 
 
 ITRead=  0  0
 MicOpt= -1 -1
 NAtoms=      2 NQM=        2 NQMF=       0 NMMI=      0 NMMIF=      0
                NMic=       0 NMicF=      0.
                    Isotopes and Nuclear Properties:
 (Nuclear quadrupole moments (NQMom) in fm**2, nuclear magnetic moments (NMagM)
  in nuclear magnetons)

  Atom         1           2
 IAtWgt=          52          16
 AtmWgt=  51.9405097  15.9949146
 NucSpn=           0           0
 AtZEff=  -0.0000000  -0.0000000
 NQMom=    0.0000000   0.0000000
 NMagM=    0.0000000   0.0000000
 AtZNuc=  24.0000000   8.0000000
 Leave Link  101 at Tue Mar 13 02:48:37 2018, MaxMem= 10737418240 cpu:               1.4 elap:               0.1
 (Enter /home1/apps/gaussian/16rA.03/g16/l202.exe)
                          Input orientation:                          
 ---------------------------------------------------------------------
 Center     Atomic      Atomic             Coordinates (Angstroms)
 Number     Number       Type             X           Y           Z
 ---------------------------------------------------------------------
      1         24           0        0.000000    0.000000    0.000000
      2          8           0        0.000000    0.000000    1.300000
 ---------------------------------------------------------------------
 Stoichiometry    CrO(5)
 Framework group  C*V[C*(OCr)]
 Deg. of freedom     1
 Full point group                 C*V     NOp   4
 Largest Abelian subgroup         C2V     NOp   4
 Largest concise Abelian subgroup C1      NOp   1
                         Standard orientation:                         
 ---------------------------------------------------------------------
 Center     Atomic      Atomic             Coordinates (Angstroms)
 Number     Number       Type             X           Y           Z
 ---------------------------------------------------------------------
      1         24           0        0.000000    0.000000    0.325000
      2          8           0        0.000000    0.000000   -0.975000
 ---------------------------------------------------------------------
 Rotational constants (GHZ):           0.0000000          24.4533663          24.4533663
 Leave Link  202 at Tue Mar 13 02:48:37 2018, MaxMem= 10737418240 cpu:               0.3 elap:               0.1
 (Enter /home1/apps/gaussian/16rA.03/g16/l301.exe)
 General basis read from cards:  (5D, 7F)
 Centers:       1
 S 1 1.00
     Exponent=  1.1016640000D+07 Coefficients=  1.0000000000D+00
 S 1 1.00
     Exponent=  1.6494230000D+06 Coefficients=  1.0000000000D+00
 S 1 1.00
     Exponent=  3.7535890000D+05 Coefficients=  1.0000000000D+00
 S 1 1.00
     Exponent=  1.0632360000D+05 Coefficients=  1.0000000000D+00
 S 1 1.00
     Exponent=  3.4689760000D+04 Coefficients=  1.0000000000D+00
 S 1 1.00
     Exponent=  1.2524830000D+04 Coefficients=  1.0000000000D+00
 S 1 1.00
     Exponent=  4.8857520000D+03 Coefficients=  1.0000000000D+00
 S 1 1.00
     Exponent=  2.0269180000D+03 Coefficients=  1.0000000000D+00
 S 1 1.00
     Exponent=  8.8436450000D+02 Coefficients=  1.0000000000D+00
 S 1 1.00
     Exponent=  4.0231700000D+02 Coefficients=  1.0000000000D+00
 S 1 1.00
     Exponent=  1.8952710000D+02 Coefficients=  1.0000000000D+00
 S 1 1.00
     Exponent=  9.1860950000D+01 Coefficients=  1.0000000000D+00
 S 1 1.00
     Exponent=  4.5124760000D+01 Coefficients=  1.0000000000D+00
 S 1 1.00
     Exponent=  2.0625120000D+01 Coefficients=  1.0000000000D+00
 S 1 1.00
     Exponent=  1.0319730000D+01 Coefficients=  1.0000000000D+00
 S 1 1.00
     Exponent=  5.1577230000D+00 Coefficients=  1.0000000000D+00
 S 1 1.00
     Exponent=  2.3126280000D+00 Coefficients=  1.0000000000D+00
 S 1 1.00
     Exponent=  1.1030790000D+00 Coefficients=  1.0000000000D+00
 S 1 1.00
     Exponent=  4.9804200000D-01 Coefficients=  1.0000000000D+00
 S 1 1.00
     Exponent=  1.1824700000D-01 Coefficients=  1.0000000000D+00
 S 1 1.00
     Exponent=  5.7356000000D-02 Coefficients=  1.0000000000D+00
 S 1 1.00
     Exponent=  2.5760000000D-02 Coefficients=  1.0000000000D+00
 S 1 1.00
     Exponent=  4.7991000000D+00 Coefficients=  1.0000000000D+00
 S 1 1.00
     Exponent=  1.4287000000D+00 Coefficients=  1.0000000000D+00
 S 1 1.00
     Exponent=  1.1570000000D-02 Coefficients=  1.0000000000D+00
 P 1 1.00
     Exponent=  3.1539890000D+04 Coefficients=  1.0000000000D+00
 P 1 1.00
     Exponent=  7.4602340000D+03 Coefficients=  1.0000000000D+00
 P 1 1.00
     Exponent=  2.4226220000D+03 Coefficients=  1.0000000000D+00
 P 1 1.00
     Exponent=  9.2775470000D+02 Coefficients=  1.0000000000D+00
 P 1 1.00
     Exponent=  3.9480410000D+02 Coefficients=  1.0000000000D+00
 P 1 1.00
     Exponent=  1.8080270000D+02 Coefficients=  1.0000000000D+00
 P 1 1.00
     Exponent=  8.7423930000D+01 Coefficients=  1.0000000000D+00
 P 1 1.00
     Exponent=  4.4034270000D+01 Coefficients=  1.0000000000D+00
 P 1 1.00
     Exponent=  2.2777040000D+01 Coefficients=  1.0000000000D+00
 P 1 1.00
     Exponent=  1.2015470000D+01 Coefficients=  1.0000000000D+00
 P 1 1.00
     Exponent=  6.4117510000D+00 Coefficients=  1.0000000000D+00
 P 1 1.00
     Exponent=  3.3811360000D+00 Coefficients=  1.0000000000D+00
 P 1 1.00
     Exponent=  1.7470540000D+00 Coefficients=  1.0000000000D+00
 P 1 1.00
     Exponent=  8.8500400000D-01 Coefficients=  1.0000000000D+00
 P 1 1.00
     Exponent=  4.3302800000D-01 Coefficients=  1.0000000000D+00
 P 1 1.00
     Exponent=  1.7396200000D-01 Coefficients=  1.0000000000D+00
 P 1 1.00
     Exponent=  7.2823000000D-02 Coefficients=  1.0000000000D+00
 P 1 1.00
     Exponent=  2.9952000000D-02 Coefficients=  1.0000000000D+00
 P 1 1.00
     Exponent=  6.4552000000D+00 Coefficients=  1.0000000000D+00
 P 1 1.00
     Exponent=  1.6531000000D+00 Coefficients=  1.0000000000D+00
 P 1 1.00
     Exponent=  1.2320000000D-02 Coefficients=  1.0000000000D+00
 D 1 1.00
     Exponent=  2.8131200000D+02 Coefficients=  1.0000000000D+00
 D 1 1.00
     Exponent=  8.3188500000D+01 Coefficients=  1.0000000000D+00
 D 1 1.00
     Exponent=  3.1839600000D+01 Coefficients=  1.0000000000D+00
 D 1 1.00
     Exponent=  1.3602600000D+01 Coefficients=  1.0000000000D+00
 D 1 1.00
     Exponent=  6.1829800000D+00 Coefficients=  1.0000000000D+00
 D 1 1.00
     Exponent=  2.9227000000D+00 Coefficients=  1.0000000000D+00
 D 1 1.00
     Exponent=  1.3821600000D+00 Coefficients=  1.0000000000D+00
 D 1 1.00
     Exponent=  6.3946000000D-01 Coefficients=  1.0000000000D+00
 D 1 1.00
     Exponent=  2.8489800000D-01 Coefficients=  1.0000000000D+00
 D 1 1.00
     Exponent=  1.2004500000D-01 Coefficients=  1.0000000000D+00
 D 1 1.00
     Exponent=  4.6229000000D-02 Coefficients=  1.0000000000D+00
 D 1 1.00
     Exponent=  4.0848000000D+00 Coefficients=  1.0000000000D+00
 D 1 1.00
     Exponent=  2.1405000000D+00 Coefficients=  1.0000000000D+00
 D 1 1.00
     Exponent=  1.7800000000D-02 Coefficients=  1.0000000000D+00
 F 1 1.00
     Exponent=  5.6633000000D+00 Coefficients=  1.0000000000D+00
 F 1 1.00
     Exponent=  2.3365000000D+00 Coefficients=  1.0000000000D+00
 F 1 1.00
     Exponent=  9.6390000000D-01 Coefficients=  1.0000000000D+00
 F 1 1.00
     Exponent=  3.1420000000D-01 Coefficients=  1.0000000000D+00
 F 1 1.00
     Exponent=  1.0242000000D-01 Coefficients=  1.0000000000D+00
 G 1 1.00
     Exponent=  4.6690000000D+00 Coefficients=  1.0000000000D+00
 G 1 1.00
     Exponent=  1.9538000000D+00 Coefficients=  1.0000000000D+00
 G 1 1.00
     Exponent=  6.8480000000D-01 Coefficients=  1.0000000000D+00
 G 1 1.00
     Exponent=  2.4002000000D-01 Coefficients=  1.0000000000D+00
 H 1 1.00
     Exponent=  4.4133000000D+00 Coefficients=  1.0000000000D+00
 H 1 1.00
     Exponent=  1.6472000000D+00 Coefficients=  1.0000000000D+00
 H 1 1.00
     Exponent=  6.1479000000D-01 Coefficients=  1.0000000000D+00
 ****
 Centers:       2
 S 1 1.00
     Exponent=  6.1420000000D+04 Coefficients=  1.0000000000D+00
 S 1 1.00
     Exponent=  9.1990000000D+03 Coefficients=  1.0000000000D+00
 S 1 1.00
     Exponent=  2.0910000000D+03 Coefficients=  1.0000000000D+00
 S 1 1.00
     Exponent=  5.9090000000D+02 Coefficients=  1.0000000000D+00
 S 1 1.00
     Exponent=  1.9230000000D+02 Coefficients=  1.0000000000D+00
 S 1 1.00
     Exponent=  6.9320000000D+01 Coefficients=  1.0000000000D+00
 S 1 1.00
     Exponent=  2.6970000000D+01 Coefficients=  1.0000000000D+00
 S 1 1.00
     Exponent=  1.1100000000D+01 Coefficients=  1.0000000000D+00
 S 1 1.00
     Exponent=  4.6820000000D+00 Coefficients=  1.0000000000D+00
 S 1 1.00
     Exponent=  1.4280000000D+00 Coefficients=  1.0000000000D+00
 S 1 1.00
     Exponent=  5.5470000000D-01 Coefficients=  1.0000000000D+00
 S 1 1.00
     Exponent=  2.0670000000D-01 Coefficients=  1.0000000000D+00
 S 1 1.00
     Exponent=  1.2974000000D+01 Coefficients=  1.0000000000D+00
 S 1 1.00
     Exponent=  3.4900000000D+01 Coefficients=  1.0000000000D+00
 S 1 1.00
     Exponent=  9.3881000000D+01 Coefficients=  1.0000000000D+00
 S 1 1.00
     Exponent=  6.9590000000D-02 Coefficients=  1.0000000000D+00
 P 1 1.00
     Exponent=  6.3420000000D+01 Coefficients=  1.0000000000D+00
 P 1 1.00
     Exponent=  1.4660000000D+01 Coefficients=  1.0000000000D+00
 P 1 1.00
     Exponent=  4.4590000000D+00 Coefficients=  1.0000000000D+00
 P 1 1.00
     Exponent=  1.5310000000D+00 Coefficients=  1.0000000000D+00
 P 1 1.00
     Exponent=  5.3020000000D-01 Coefficients=  1.0000000000D+00
 P 1 1.00
     Exponent=  1.7500000000D-01 Coefficients=  1.0000000000D+00
 P 1 1.00
     Exponent=  1.4475000000D+01 Coefficients=  1.0000000000D+00
 P 1 1.00
     Exponent=  4.2730000000D+01 Coefficients=  1.0000000000D+00
 P 1 1.00
     Exponent=  1.2614000000D+02 Coefficients=  1.0000000000D+00
 P 1 1.00
     Exponent=  5.3480000000D-02 Coefficients=  1.0000000000D+00
 D 1 1.00
     Exponent=  3.7750000000D+00 Coefficients=  1.0000000000D+00
 D 1 1.00
     Exponent=  1.3000000000D+00 Coefficients=  1.0000000000D+00
 D 1 1.00
     Exponent=  4.4400000000D-01 Coefficients=  1.0000000000D+00
 D 1 1.00
     Exponent=  1.4927000000D+01 Coefficients=  1.0000000000D+00
 D 1 1.00
     Exponent=  5.7544000000D+01 Coefficients=  1.0000000000D+00
 D 1 1.00
     Exponent=  1.5400000000D-01 Coefficients=  1.0000000000D+00
 F 1 1.00
     Exponent=  2.6660000000D+00 Coefficients=  1.0000000000D+00
 F 1 1.00
     Exponent=  8.5900000000D-01 Coefficients=  1.0000000000D+00
 F 1 1.00
     Exponent=  2.6483000000D+01 Coefficients=  1.0000000000D+00
 F 1 1.00
     Exponent=  3.2400000000D-01 Coefficients=  1.0000000000D+00
 G 1 1.00
     Exponent=  1.8460000000D+00 Coefficients=  1.0000000000D+00
 G 1 1.00
     Exponent=  7.1400000000D-01 Coefficients=  1.0000000000D+00
 ****
 ======================================================================================================
                                       Pseudopotential Parameters
 ======================================================================================================
  Center     Atomic      Valence      Angular      Power
  Number     Number     Electrons     Momentum     of R      Exponent        Coefficient   SO-Coeffient
 ======================================================================================================
    1         24           14
                                      F and up 
                                                     2        1.0000000        0.00000000    0.00000000
                                      S - F
                                                     2       16.3900000      201.57888700    0.00000000
                                                     2        7.4020000       24.20574100    0.00000000
                                      P - F
                                                     2       16.4500000      125.02277400    0.00000000
                                                     2        6.9620000       16.47906600    0.00000000
                                      D - F
                                                     2       19.9300000      -20.82742100    0.00000000
                                                     2        6.5980000       -0.83436800    0.00000000
    2          8            6
                                      F and up 
                                                     2        1.0000000        0.00000000    0.00000000
                                      S - F
                                                     2       10.4456700       50.77106900    0.00000000
                                      P - F
                                                     2       18.0451740       -4.90355100    0.00000000
                                      D - F
                                                     2        8.1647980       -3.31212400    0.00000000
 ======================================================================================================
 Ernie: Thresh=  0.10000D-02 Tol=  0.10000D-05 Strict=F.
 There are   213 symmetry adapted cartesian basis functions of A1  symmetry.
 There are    56 symmetry adapted cartesian basis functions of A2  symmetry.
 There are   114 symmetry adapted cartesian basis functions of B1  symmetry.
 There are   114 symmetry adapted cartesian basis functions of B2  symmetry.
 There are   157 symmetry adapted basis functions of A1  symmetry.
 There are    47 symmetry adapted basis functions of A2  symmetry.
 There are    90 symmetry adapted basis functions of B1  symmetry.
 There are    90 symmetry adapted basis functions of B2  symmetry.
   384 basis functions,   497 primitive gaussians,   497 cartesian basis functions
    12 alpha electrons        8 beta electrons
       nuclear repulsion energy        34.1929890133 Hartrees.
 IExCor=    0 DFT=F Ex=HF Corr=None ExCW=0 ScaHFX=  1.000000
 ScaDFX=  1.000000  1.000000  1.000000  1.000000 ScalE2=  1.000000  1.000000
 IRadAn=      5 IRanWt=     -1 IRanGd=            0 ICorTp=0 IEmpDi=  4
 NAtoms=    2 NActive=    2 NUniq=    2 SFac= 1.00D+00 NAtFMM=   60 NAOKFM=F Big=F
 Integral buffers will be    131072 words long.
 Raffenetti 2 integral format.
 Two-electron integral symmetry is turned on.
 Leave Link  301 at Tue Mar 13 02:48:37 2018, MaxMem= 10737418240 cpu:               4.6 elap:               0.3
 (Enter /home1/apps/gaussian/16rA.03/g16/l302.exe)
 NPDir=0 NMtPBC=     1 NCelOv=     1 NCel=       1 NClECP=     1 NCelD=      1
         NCelK=      1 NCelE2=     1 NClLst=     1 CellRange=     0.0.
 One-electron integrals computed using PRISM.
 One-electron integral symmetry used in STVInt
   4 Symmetry operations used in ECPInt.
 ECPInt:  NShTT=    6105 NPrTT=    6105 LenC2=    5652 LenP2D=    5651.
 LDataN:  DoStor=T MaxTD1=10 Len=  848
 NBasis=   384 RedAO= T EigKep=  1.22D-06  NBF=   157    47    90    90
 NBsUse=   380 1.00D-06 EigRej=  3.34D-07 NBFU=   155    47    89    89
 Leave Link  302 at Tue Mar 13 02:48:42 2018, MaxMem= 10737418240 cpu:              65.1 elap:               4.1
 (Enter /home1/apps/gaussian/16rA.03/g16/l303.exe)
 DipDrv:  MaxL=1.
 Leave Link  303 at Tue Mar 13 02:48:42 2018, MaxMem= 10737418240 cpu:               1.9 elap:               0.2
 (Enter /home1/apps/gaussian/16rA.03/g16/l401.exe)
 Initial guess from the checkpoint file:  "CrO.chk"
 B after Tr=     0.000000    0.000000    0.000000
         Rot=    1.000000    0.000000    0.000000    0.000000 Ang=   0.00 deg.
 Guess basis will be translated and rotated to current coordinates.
 JPrj=2 DoOrth=T DoCkMO=T.
 Initial guess orbital symmetries:
       Occupied  (SG) (SG) (PI) (PI) (SG) (?A) (?A) (SG) (?B) (?B)
                 (?B) (?A)
       Virtual   (?A) (SG) (?A) (SG) (?A) (SG) (?A) (DLTA) (DLTA)
                 (?A) (?A) (SG) (SG) (?A) (SG) (?A) (?A) (?A) (?B)
                 (?B) (?B) (?A) (?A) (?B) (?A) (SG) (?C) (?C) (?C)
                 (PHI) (PHI) (?A) (?A) (SG) (?A) (?A) (?D) (?D)
                 (?D) (PI) (PI) (SG) (?E) (?E) (?A) (?A) (?E) (SG)
                 (?A) (?A) (SG) (DLTA) (DLTA) (PHI) (PHI) (?F)
                 (?F) (?F) (?F) (SG) (?G) (?G) (?G) (?H) (?H) (?G)
                 (?I) (?I) (?I) (?I) (DLTA) (DLTA) (PHI) (PHI)
                 (?G) (?G) (?G) (PI) (PI) (?G) (PI) (PI) (SG) (DLTA)
                 (DLTA) (PI) (PI) (SG) (SG) (PI) (PI) (?F) (?F)
                 (SG) (DLTA) (DLTA) (?F) (?F) (SG) (DLTA) (DLTA)
                 (PI) (PI) (PHI) (PHI) (SG) (PI) (PI) (SG) (?H)
                 (?H) (PHI) (PHI) (?J) (?J) (?J) (SG) (DLTA) (DLTA)
                 (?J) (?J) (PI) (PI) (PI) (PI) (PI) (PI) (SG) (SG)
                 (SG) (?F) (?F) (?F) (?F) (DLTA) (DLTA) (PI) (PI)
                 (SG) (PI) (PI) (SG) (?K) (?K) (?K) (PI) (PI) (SG)
                 (SG) (?L) (?L) (PHI) (PHI) (?L) (?L) (PI) (PI)
                 (?L) (SG) (PI) (PI) (SG) (DLTA) (DLTA) (PI) (PI)
                 (SG) (SG) (DLTA) (DLTA) (PI) (PI) (SG) (PI) (PI)
                 (SG) (SG) (PI) (PI) (SG) (SG) (DLTA) (DLTA) (PI)
                 (PI) (SG) (PI) (PI) (SG) (SG) (PI) (PI) (SG) (SG)
                 (PI) (PI) (SG) (SG) (SG) (PI) (PI) (SG) (DLTA)
                 (DLTA) (PI) (PI) (SG) (PI) (PI) (SG) (SG) (SG)
                 (PI) (PI) (SG) (SG) (SG) (SG) (PI) (PI) (SG) (SG)
                 (PI) (PI) (SG) (SG) (SG) (PI) (PI) (SG) (SG) (SG)
                 (PI) (PI) (SG) (SG) (SG) (SG) (SG) (SG) (SG) (DLTA)
                 (SG) (SG) (DLTA) (SG) (SG) (DLTA) (SG) (SG) (DLTA)
                 (SG) (SG) (DLTA) (SG) (SG) (DLTA) (SG) (SG) (?H)
                 (DLTA) (SG) (?H) (SG) (DLTA) (SG) (DLTA) (SG)
                 (DLTA) (SG) (?H) (SG) (DLTA) (SG) (DLTA) (SG)
                 (SG) (DLTA) (DLTA) (DLTA) (SG) (SG) (?H) (?H)
                 (?H) (DLTA) (DLTA) (DLTA) (DLTA) (DLTA) (DLTA)
                 (?H) (DLTA) (?H) (DLTA) (DLTA) (DLTA) (?H) (DLTA)
                 (DLTA) (DLTA) (DLTA) (DLTA) (?H) (?H) (?H) (PI)
                 (PI) (PI) (PI) (PI) (PI) (PHI) (PI) (PI) (PI)
                 (PI) (PHI) (PI) (PI) (PHI) (PHI) (PI) (PI) (PI)
                 (?L) (PI) (PHI) (PI) (PHI) (PI) (PHI) (PI) (PHI)
                 (?L) (PHI) (?L) (PI) (PI) (PI) (PI) (PI) (PI)
                 (PHI) (PI) (PI) (PI) (PI) (PHI) (PI) (PI) (PHI)
                 (PHI) (PI) (PI) (PI) (?L) (PI) (PHI) (PI) (PHI)
                 (PI) (PHI) (PI) (PHI) (?L) (PHI) (?L)
 Leave Link  401 at Tue Mar 13 02:48:43 2018, MaxMem= 10737418240 cpu:              12.1 elap:               0.9
 (Enter /home1/apps/gaussian/16rA.03/g16/l502.exe)
 Keep R1 and R2 ints in memory in symmetry-blocked form, NReq=3425113631.
 FoFCou: FMM=F IPFlag=           8 FMFlag=           0 FMFlg1=           0
         NFxFlg=           0 DoJE=F BraDBF=F KetDBF=F FulRan=T
         wScrn=  0.000000 ICntrl=       600 IOpCl=  0 I1Cent=           0 NGrid=           0
         NMat0=    1 NMatS0=  73920 NMatT0=    0 NMatD0=    1 NMtDS0=    0 NMtDT0=    0
 Petite list used in FoFCou.
 Restricted open shell SCF:
 Using DIIS extrapolation, IDIIS=  1040.
 NGot= 10737418240 LenX=  9351093905 LenY=  9350846399
 Requested convergence on RMS density matrix=1.00D-08 within 300 cycles.
 Requested convergence on MAX density matrix=1.00D-06.
 Requested convergence on             energy=1.00D-06.
 No special actions if energy rises.

 Cycle   1  Pass 1  IDiag  1:
 E= -101.907077533927    
 DIIS: error= 2.34D-01 at cycle   1 NSaved=   1.
 NSaved= 1 IEnMin= 1 EnMin= -101.907077533927     IErMin= 1 ErrMin= 2.34D-01
 ErrMax= 2.34D-01  0.00D+00 EMaxC= 1.00D-01 BMatC= 2.84D+01 BMatP= 2.84D+01
 IDIUse=3 WtCom= 0.00D+00 WtEn= 1.00D+00
 Coeff-Com:  0.100D+01
 Coeff-En:   0.100D+01
 Coeff:      0.100D+01
 Gap=     0.048 Goal=   None    Shift=    0.000
 GapD=    0.048 DampG=0.250 DampE=0.125 DampFc=0.1250 IDamp=-1.
 Damping current iteration by 1.25D-01
 RMSDP=3.06D-03 MaxDP=3.37D-01              OVMax= 5.73D-03

 Cycle   2  Pass 1  IDiag  1:
 E= -101.907417419886     Delta-E=       -0.000339885959 Rises=F Damp=T
 DIIS: error= 2.05D-01 at cycle   2 NSaved=   2.
 NSaved= 2 IEnMin= 2 EnMin= -101.907417419886     IErMin= 2 ErrMin= 2.05D-01
 ErrMax= 2.05D-01  0.00D+00 EMaxC= 1.00D-01 BMatC= 2.18D+01 BMatP= 2.84D+01
 IDIUse=3 WtCom= 0.00D+00 WtEn= 1.00D+00
 Coeff-Com: -0.700D+01 0.800D+01
 Coeff-En:   0.000D+00 0.100D+01
 Coeff:      0.000D+00 0.100D+01
 Gap=     0.047 Goal=   None    Shift=    0.000
 RMSDP=2.63D-03 MaxDP=2.97D-01 DE=-3.40D-04 OVMax= 1.17D-02

 Cycle   3  Pass 1  IDiag  1:
 E= -101.909764241641     Delta-E=       -0.002346821755 Rises=F Damp=F
 DIIS: error= 7.21D-04 at cycle   3 NSaved=   3.
 NSaved= 3 IEnMin= 3 EnMin= -101.909764241641     IErMin= 3 ErrMin= 7.21D-04
 ErrMax= 7.21D-04  0.00D+00 EMaxC= 1.00D-01 BMatC= 6.91D-05 BMatP= 2.18D+01
 IDIUse=3 WtCom= 9.93D-01 WtEn= 7.21D-03
 Coeff-Com: -0.136D+01 0.156D+01 0.805D+00
 Coeff-En:   0.000D+00 0.000D+00 0.100D+01
 Coeff:     -0.135D+01 0.155D+01 0.807D+00
 Gap=     0.047 Goal=   None    Shift=    0.000
 RMSDP=2.49D-04 MaxDP=5.72D-02 DE=-2.35D-03 OVMax= 2.76D-02

 Cycle   4  Pass 1  IDiag  1:
 E= -101.909696034510     Delta-E=        0.000068207131 Rises=F Damp=F
 DIIS: error= 8.87D-04 at cycle   4 NSaved=   4.
 NSaved= 4 IEnMin= 3 EnMin= -101.909764241641     IErMin= 3 ErrMin= 7.21D-04
 ErrMax= 8.87D-04  0.00D+00 EMaxC= 1.00D-01 BMatC= 8.20D-05 BMatP= 6.91D-05
 IDIUse=3 WtCom= 2.51D-01 WtEn= 7.49D-01
 Coeff-Com: -0.983D+00 0.112D+01 0.548D+00 0.311D+00
 Coeff-En:   0.000D+00 0.000D+00 0.550D+00 0.450D+00
 Coeff:     -0.247D+00 0.282D+00 0.550D+00 0.415D+00
 Gap=     0.047 Goal=   None    Shift=    0.000
 RMSDP=5.83D-04 MaxDP=1.66D-01 DE= 6.82D-05 OVMax= 4.36D-02

 Cycle   5  Pass 1  IDiag  1:
 E= -101.909652561082     Delta-E=        0.000043473428 Rises=F Damp=F
 DIIS: error= 9.14D-04 at cycle   5 NSaved=   5.
 NSaved= 5 IEnMin= 3 EnMin= -101.909764241641     IErMin= 3 ErrMin= 7.21D-04
 ErrMax= 9.14D-04  0.00D+00 EMaxC= 1.00D-01 BMatC= 8.96D-05 BMatP= 6.91D-05
 IDIUse=3 WtCom= 2.49D-01 WtEn= 7.51D-01
 EnCoef did     4 forward-backward iterations
 Coeff-Com: -0.584D+00 0.668D+00 0.382D+00 0.324D+00 0.210D+00
 Coeff-En:   0.000D+00 0.000D+00 0.200D+00 0.434D+00 0.367D+00
 Coeff:     -0.145D+00 0.166D+00 0.245D+00 0.407D+00 0.328D+00
 Gap=     0.047 Goal=   None    Shift=    0.000
 RMSDP=1.06D-04 MaxDP=1.20D-02 DE= 4.35D-05 OVMax= 2.96D-02

 Cycle   6  Pass 1  IDiag  1:
 E= -101.909829162302     Delta-E=       -0.000176601220 Rises=F Damp=F
 DIIS: error= 5.37D-04 at cycle   6 NSaved=   6.
 NSaved= 6 IEnMin= 6 EnMin= -101.909829162302     IErMin= 6 ErrMin= 5.37D-04
 ErrMax= 5.37D-04  0.00D+00 EMaxC= 1.00D-01 BMatC= 2.46D-05 BMatP= 6.91D-05
 IDIUse=3 WtCom= 9.95D-01 WtEn= 5.37D-03
 EnCoef did    19 forward-backward iterations
 Coeff-Com: -0.178D+00 0.203D+00 0.673D-01 0.217D+00 0.279D+00 0.411D+00
 Coeff-En:   0.000D+00 0.000D+00 0.119D+00 0.389D+00 0.375D+00 0.117D+00
 Coeff:     -0.177D+00 0.202D+00 0.676D-01 0.218D+00 0.280D+00 0.409D+00
 Gap=     0.047 Goal=   None    Shift=    0.000
 RMSDP=1.22D-04 MaxDP=3.48D-02 DE=-1.77D-04 OVMax= 7.69D-03

 Cycle   7  Pass 1  IDiag  1:
 E= -101.909880375604     Delta-E=       -0.000051213302 Rises=F Damp=F
 DIIS: error= 1.16D-04 at cycle   7 NSaved=   7.
 NSaved= 7 IEnMin= 7 EnMin= -101.909880375604     IErMin= 7 ErrMin= 1.16D-04
 ErrMax= 1.16D-04  0.00D+00 EMaxC= 1.00D-01 BMatC= 1.67D-06 BMatP= 2.46D-05
 IDIUse=3 WtCom= 9.99D-01 WtEn= 1.16D-03
 Rare condition: small coef for last iteration:  0.111D-15
 Coeff-Com: -0.139D+00 0.158D+00-0.381D-01 0.675D-01 0.111D+00 0.230D+00
 Coeff-Com:  0.610D+00
 Coeff-En:   0.000D+00 0.000D+00 0.735D-01 0.222D+00 0.161D+00 0.115D+00
 Coeff-En:   0.428D+00
 Coeff:     -0.139D+00 0.158D+00-0.381D-01 0.675D-01 0.111D+00 0.230D+00
 Coeff:      0.610D+00
 Gap=     0.047 Goal=   None    Shift=    0.000
 RMSDP=1.83D-05 MaxDP=2.46D-03 DE=-5.12D-05 OVMax= 1.95D-03

 Cycle   8  Pass 1  IDiag  1:
 E= -101.909881886196     Delta-E=       -0.000001510592 Rises=F Damp=F
 DIIS: error= 6.31D-05 at cycle   8 NSaved=   8.
 NSaved= 8 IEnMin= 8 EnMin= -101.909881886196     IErMin= 8 ErrMin= 6.31D-05
 ErrMax= 6.31D-05  0.00D+00 EMaxC= 1.00D-01 BMatC= 6.42D-07 BMatP= 1.67D-06
 IDIUse=1 WtCom= 1.00D+00 WtEn= 0.00D+00
 Coeff-Com: -0.137D+00 0.156D+00-0.361D-01 0.334D-01 0.557D-01 0.139D+00
 Coeff-Com:  0.446D+00 0.343D+00
 Coeff:     -0.137D+00 0.156D+00-0.361D-01 0.334D-01 0.557D-01 0.139D+00
 Coeff:      0.446D+00 0.343D+00
 Gap=     0.047 Goal=   None    Shift=    0.000
 RMSDP=1.07D-05 MaxDP=1.45D-03 DE=-1.51D-06 OVMax= 1.34D-03

 Cycle   9  Pass 1  IDiag  1:
 E= -101.909882595482     Delta-E=       -0.000000709287 Rises=F Damp=F
 DIIS: error= 5.93D-05 at cycle   9 NSaved=   9.
 NSaved= 9 IEnMin= 9 EnMin= -101.909882595482     IErMin= 9 ErrMin= 5.93D-05
 ErrMax= 5.93D-05  0.00D+00 EMaxC= 1.00D-01 BMatC= 3.61D-07 BMatP= 6.42D-07
 IDIUse=1 WtCom= 1.00D+00 WtEn= 0.00D+00
 Coeff-Com: -0.128D+00 0.146D+00-0.265D-01 0.673D-02 0.124D-01 0.548D-01
 Coeff-Com:  0.220D+00 0.310D+00 0.405D+00
 Coeff:     -0.128D+00 0.146D+00-0.265D-01 0.673D-02 0.124D-01 0.548D-01
 Coeff:      0.220D+00 0.310D+00 0.405D+00
 Gap=     0.047 Goal=   None    Shift=    0.000
 RMSDP=7.71D-06 MaxDP=1.68D-03 DE=-7.09D-07 OVMax= 5.70D-04

 Cycle  10  Pass 1  IDiag  1:
 E= -101.909882864450     Delta-E=       -0.000000268968 Rises=F Damp=F
 DIIS: error= 5.23D-05 at cycle  10 NSaved=  10.
 NSaved=10 IEnMin=10 EnMin= -101.909882864450     IErMin=10 ErrMin= 5.23D-05
 ErrMax= 5.23D-05  0.00D+00 EMaxC= 1.00D-01 BMatC= 2.30D-07 BMatP= 3.61D-07
 IDIUse=1 WtCom= 1.00D+00 WtEn= 0.00D+00
 Coeff-Com: -0.112D+00 0.128D+00-0.196D-01-0.600D-02-0.370D-02 0.126D-01
 Coeff-Com:  0.866D-01 0.186D+00 0.309D+00 0.419D+00
 Coeff:     -0.112D+00 0.128D+00-0.196D-01-0.600D-02-0.370D-02 0.126D-01
 Coeff:      0.866D-01 0.186D+00 0.309D+00 0.419D+00
 Gap=     0.047 Goal=   None    Shift=    0.000
 RMSDP=6.26D-06 MaxDP=1.81D-03 DE=-2.69D-07 OVMax= 2.56D-04

 Cycle  11  Pass 1  IDiag  1:
 E= -101.909882949724     Delta-E=       -0.000000085273 Rises=F Damp=F
 DIIS: error= 4.61D-05 at cycle  11 NSaved=  11.
 NSaved=11 IEnMin=11 EnMin= -101.909882949724     IErMin=11 ErrMin= 4.61D-05
 ErrMax= 4.61D-05  0.00D+00 EMaxC= 1.00D-01 BMatC= 1.75D-07 BMatP= 2.30D-07
 IDIUse=1 WtCom= 1.00D+00 WtEn= 0.00D+00
 Coeff-Com: -0.873D-01 0.997D-01-0.114D-01-0.170D-01-0.163D-01-0.267D-01
 Coeff-Com: -0.479D-01 0.346D-01 0.122D+00 0.437D+00 0.513D+00
 Coeff:     -0.873D-01 0.997D-01-0.114D-01-0.170D-01-0.163D-01-0.267D-01
 Coeff:     -0.479D-01 0.346D-01 0.122D+00 0.437D+00 0.513D+00
 Gap=     0.047 Goal=   None    Shift=    0.000
 RMSDP=8.42D-06 MaxDP=2.54D-03 DE=-8.53D-08 OVMax= 1.80D-04

 Cycle  12  Pass 1  IDiag  1:
 E= -101.909883058941     Delta-E=       -0.000000109217 Rises=F Damp=F
 DIIS: error= 3.68D-05 at cycle  12 NSaved=  12.
 NSaved=12 IEnMin=12 EnMin= -101.909883058941     IErMin=12 ErrMin= 3.68D-05
 ErrMax= 3.68D-05  0.00D+00 EMaxC= 1.00D-01 BMatC= 1.06D-07 BMatP= 1.75D-07
 IDIUse=1 WtCom= 1.00D+00 WtEn= 0.00D+00
 Coeff-Com: -0.602D-01 0.688D-01-0.731D-02-0.117D-01-0.984D-02-0.184D-01
 Coeff-Com: -0.420D-01-0.691D-02 0.371D-02-0.484D-01 0.144D+00 0.988D+00
 Coeff:     -0.602D-01 0.688D-01-0.731D-02-0.117D-01-0.984D-02-0.184D-01
 Coeff:     -0.420D-01-0.691D-02 0.371D-02-0.484D-01 0.144D+00 0.988D+00
 Gap=     0.047 Goal=   None    Shift=    0.000
 RMSDP=7.72D-06 MaxDP=2.40D-03 DE=-1.09D-07 OVMax= 1.23D-04

 Cycle  13  Pass 1  IDiag  1:
 E= -101.909883143802     Delta-E=       -0.000000084861 Rises=F Damp=F
 DIIS: error= 2.47D-05 at cycle  13 NSaved=  13.
 NSaved=13 IEnMin=13 EnMin= -101.909883143802     IErMin=13 ErrMin= 2.47D-05
 ErrMax= 2.47D-05  0.00D+00 EMaxC= 1.00D-01 BMatC= 5.05D-08 BMatP= 1.06D-07
 IDIUse=1 WtCom= 1.00D+00 WtEn= 0.00D+00
 Coeff-Com: -0.463D-01 0.529D-01-0.601D-02-0.745D-02-0.543D-02-0.924D-02
 Coeff-Com: -0.200D-01-0.766D-02-0.205D-01-0.174D+00-0.407D-01 0.843D+00
 Coeff-Com:  0.440D+00
 Coeff:     -0.463D-01 0.529D-01-0.601D-02-0.745D-02-0.543D-02-0.924D-02
 Coeff:     -0.200D-01-0.766D-02-0.205D-01-0.174D+00-0.407D-01 0.843D+00
 Coeff:      0.440D+00
 Gap=     0.047 Goal=   None    Shift=    0.000
 RMSDP=4.17D-06 MaxDP=1.25D-03 DE=-8.49D-08 OVMax= 9.92D-05

 Cycle  14  Pass 1  IDiag  1:
 E= -101.909883176250     Delta-E=       -0.000000032448 Rises=F Damp=F
 DIIS: error= 1.91D-05 at cycle  14 NSaved=  14.
 NSaved=14 IEnMin=14 EnMin= -101.909883176250     IErMin=14 ErrMin= 1.91D-05
 ErrMax= 1.91D-05  0.00D+00 EMaxC= 1.00D-01 BMatC= 2.97D-08 BMatP= 5.05D-08
 IDIUse=1 WtCom= 1.00D+00 WtEn= 0.00D+00
 Coeff-Com: -0.338D-01 0.386D-01-0.502D-02-0.371D-02-0.223D-02-0.138D-02
 Coeff-Com:  0.193D-02 0.307D-02-0.998D-02-0.150D+00-0.127D+00 0.337D+00
 Coeff-Com:  0.434D+00 0.519D+00
 Coeff:     -0.338D-01 0.386D-01-0.502D-02-0.371D-02-0.223D-02-0.138D-02
 Coeff:      0.193D-02 0.307D-02-0.998D-02-0.150D+00-0.127D+00 0.337D+00
 Coeff:      0.434D+00 0.519D+00
 Gap=     0.047 Goal=   None    Shift=    0.000
 RMSDP=3.97D-06 MaxDP=1.19D-03 DE=-3.24D-08 OVMax= 6.32D-05

 Cycle  15  Pass 1  IDiag  1:
 E= -101.909883197790     Delta-E=       -0.000000021540 Rises=F Damp=F
 DIIS: error= 1.41D-05 at cycle  15 NSaved=  15.
 NSaved=15 IEnMin=15 EnMin= -101.909883197790     IErMin=15 ErrMin= 1.41D-05
 ErrMax= 1.41D-05  0.00D+00 EMaxC= 1.00D-01 BMatC= 1.57D-08 BMatP= 2.97D-08
 IDIUse=1 WtCom= 1.00D+00 WtEn= 0.00D+00
 Coeff-Com: -0.252D-01 0.288D-01-0.411D-02-0.198D-02-0.139D-02 0.111D-02
 Coeff-Com:  0.994D-02 0.140D-01 0.163D-01-0.423D-01-0.913D-01-0.832D-01
 Coeff-Com:  0.155D+00 0.439D+00 0.585D+00
 Coeff:     -0.252D-01 0.288D-01-0.411D-02-0.198D-02-0.139D-02 0.111D-02
 Coeff:      0.994D-02 0.140D-01 0.163D-01-0.423D-01-0.913D-01-0.832D-01
 Coeff:      0.155D+00 0.439D+00 0.585D+00
 Gap=     0.047 Goal=   None    Shift=    0.000
 RMSDP=2.84D-06 MaxDP=8.78D-04 DE=-2.15D-08 OVMax= 3.44D-05

 Cycle  16  Pass 1  IDiag  1:
 E= -101.909883208453     Delta-E=       -0.000000010663 Rises=F Damp=F
 DIIS: error= 1.04D-05 at cycle  16 NSaved=  16.
 NSaved=16 IEnMin=16 EnMin= -101.909883208453     IErMin=16 ErrMin= 1.04D-05
 ErrMax= 1.04D-05  0.00D+00 EMaxC= 1.00D-01 BMatC= 8.75D-09 BMatP= 1.57D-08
 IDIUse=1 WtCom= 1.00D+00 WtEn= 0.00D+00
 Coeff-Com: -0.178D-01 0.204D-01-0.279D-02-0.170D-02-0.149D-02-0.324D-03
 Coeff-Com:  0.481D-02 0.989D-02 0.155D-01 0.203D-02-0.270D-01-0.949D-01
 Coeff-Com: -0.565D-01 0.625D-01 0.359D+00 0.729D+00
 Coeff:     -0.178D-01 0.204D-01-0.279D-02-0.170D-02-0.149D-02-0.324D-03
 Coeff:      0.481D-02 0.989D-02 0.155D-01 0.203D-02-0.270D-01-0.949D-01
 Coeff:     -0.565D-01 0.625D-01 0.359D+00 0.729D+00
 Gap=     0.047 Goal=   None    Shift=    0.000
 RMSDP=2.34D-06 MaxDP=7.31D-04 DE=-1.07D-08 OVMax= 3.13D-05

 Cycle  17  Pass 1  IDiag  1:
 E= -101.909883215234     Delta-E=       -0.000000006781 Rises=F Damp=F
 DIIS: error= 7.45D-06 at cycle  17 NSaved=  17.
 NSaved=17 IEnMin=17 EnMin= -101.909883215234     IErMin=17 ErrMin= 7.45D-06
 ErrMax= 7.45D-06  0.00D+00 EMaxC= 1.00D-01 BMatC= 4.37D-09 BMatP= 8.75D-09
 IDIUse=1 WtCom= 1.00D+00 WtEn= 0.00D+00
 Coeff-Com: -0.139D-01 0.159D-01-0.210D-02-0.151D-02-0.137D-02-0.881D-03
 Coeff-Com:  0.180D-02 0.681D-02 0.117D-01 0.469D-02-0.941D-02-0.440D-01
 Coeff-Com: -0.875D-01-0.651D-01 0.159D+00 0.608D+00 0.417D+00
 Coeff:     -0.139D-01 0.159D-01-0.210D-02-0.151D-02-0.137D-02-0.881D-03
 Coeff:      0.180D-02 0.681D-02 0.117D-01 0.469D-02-0.941D-02-0.440D-01
 Coeff:     -0.875D-01-0.651D-01 0.159D+00 0.608D+00 0.417D+00
 Gap=     0.047 Goal=   None    Shift=    0.000
 RMSDP=1.22D-06 MaxDP=3.67D-04 DE=-6.78D-09 OVMax= 1.58D-05

 Cycle  18  Pass 1  IDiag  1:
 E= -101.909883217877     Delta-E=       -0.000000002643 Rises=F Damp=F
 DIIS: error= 5.72D-06 at cycle  18 NSaved=  18.
 NSaved=18 IEnMin=18 EnMin= -101.909883217877     IErMin=18 ErrMin= 5.72D-06
 ErrMax= 5.72D-06  0.00D+00 EMaxC= 1.00D-01 BMatC= 2.65D-09 BMatP= 4.37D-09
 IDIUse=1 WtCom= 1.00D+00 WtEn= 0.00D+00
 Coeff-Com: -0.108D-01 0.123D-01-0.160D-02-0.125D-02-0.111D-02-0.921D-03
 Coeff-Com:  0.265D-03 0.509D-02 0.920D-02 0.260D-03-0.644D-02-0.236D-02
 Coeff-Com: -0.645D-01-0.910D-01 0.232D-01 0.326D+00 0.321D+00 0.482D+00
 Coeff:     -0.108D-01 0.123D-01-0.160D-02-0.125D-02-0.111D-02-0.921D-03
 Coeff:      0.265D-03 0.509D-02 0.920D-02 0.260D-03-0.644D-02-0.236D-02
 Coeff:     -0.645D-01-0.910D-01 0.232D-01 0.326D+00 0.321D+00 0.482D+00
 Gap=     0.047 Goal=   None    Shift=    0.000
 RMSDP=9.60D-07 MaxDP=2.94D-04 DE=-2.64D-09 OVMax= 1.14D-05

 Cycle  19  Pass 1  IDiag  1:
 E= -101.909883219490     Delta-E=       -0.000000001613 Rises=F Damp=F
 DIIS: error= 4.46D-06 at cycle  19 NSaved=  19.
 NSaved=19 IEnMin=19 EnMin= -101.909883219490     IErMin=19 ErrMin= 4.46D-06
 ErrMax= 4.46D-06  0.00D+00 EMaxC= 1.00D-01 BMatC= 1.59D-09 BMatP= 2.65D-09
 IDIUse=1 WtCom= 1.00D+00 WtEn= 0.00D+00
 Coeff-Com: -0.596D-02 0.681D-02-0.896D-03-0.660D-03-0.530D-03-0.385D-03
 Coeff-Com:  0.116D-03 0.325D-02 0.550D-02-0.584D-02-0.893D-02 0.204D-01
 Coeff-Com: -0.670D-02-0.327D-01-0.356D-01-0.190D-01-0.865D-01-0.229D+00
 Coeff-Com:  0.140D+01
 Coeff:     -0.596D-02 0.681D-02-0.896D-03-0.660D-03-0.530D-03-0.385D-03
 Coeff:      0.116D-03 0.325D-02 0.550D-02-0.584D-02-0.893D-02 0.204D-01
 Coeff:     -0.670D-02-0.327D-01-0.356D-01-0.190D-01-0.865D-01-0.229D+00
 Coeff:      0.140D+01
 Gap=     0.047 Goal=   None    Shift=    0.000
 RMSDP=1.51D-06 MaxDP=4.66D-04 DE=-1.61D-09 OVMax= 1.70D-05

 Cycle  20  Pass 1  IDiag  1:
 E= -101.909883221181     Delta-E=       -0.000000001691 Rises=F Damp=F
 DIIS: error= 2.48D-06 at cycle  20 NSaved=  20.
 NSaved=20 IEnMin=20 EnMin= -101.909883221181     IErMin=20 ErrMin= 2.48D-06
 ErrMax= 2.48D-06  0.00D+00 EMaxC= 1.00D-01 BMatC= 4.88D-10 BMatP= 1.59D-09
 IDIUse=1 WtCom= 1.00D+00 WtEn= 0.00D+00
 Coeff-Com: -0.172D-02 0.196D-02-0.286D-03-0.877D-04-0.150D-04 0.211D-03
 Coeff-Com:  0.975D-03 0.183D-02 0.209D-02-0.490D-02-0.790D-02 0.623D-02
 Coeff-Com:  0.228D-01 0.410D-01 0.237D-01-0.123D+00-0.282D+00-0.699D+00
 Coeff-Com:  0.861D+00 0.116D+01
 Coeff:     -0.172D-02 0.196D-02-0.286D-03-0.877D-04-0.150D-04 0.211D-03
 Coeff:      0.975D-03 0.183D-02 0.209D-02-0.490D-02-0.790D-02 0.623D-02
 Coeff:      0.228D-01 0.410D-01 0.237D-01-0.123D+00-0.282D+00-0.699D+00
 Coeff:      0.861D+00 0.116D+01
 Gap=     0.047 Goal=   None    Shift=    0.000
 RMSDP=1.33D-06 MaxDP=4.09D-04 DE=-1.69D-09 OVMax= 1.60D-05

 Cycle  21  Pass 1  IDiag  1:
 E= -101.909883221865     Delta-E=       -0.000000000685 Rises=F Damp=F
 DIIS: error= 7.49D-07 at cycle  21 NSaved=  20.
 NSaved=20 IEnMin=20 EnMin= -101.909883221865     IErMin=20 ErrMin= 7.49D-07
 ErrMax= 7.49D-07  0.00D+00 EMaxC= 1.00D-01 BMatC= 4.15D-11 BMatP= 4.88D-10
 IDIUse=1 WtCom= 1.00D+00 WtEn= 0.00D+00
 Coeff-Com:  0.805D-09-0.279D-04 0.108D-03 0.130D-03 0.323D-03 0.113D-02
 Coeff-Com:  0.844D-03 0.273D-03-0.154D-02-0.363D-02-0.832D-02 0.134D-01
 Coeff-Com:  0.489D-01 0.638D-01-0.520D-01-0.183D+00-0.487D+00-0.904D-01
 Coeff-Com:  0.117D+01 0.527D+00
 Coeff:      0.805D-09-0.279D-04 0.108D-03 0.130D-03 0.323D-03 0.113D-02
 Coeff:      0.844D-03 0.273D-03-0.154D-02-0.363D-02-0.832D-02 0.134D-01
 Coeff:      0.489D-01 0.638D-01-0.520D-01-0.183D+00-0.487D+00-0.904D-01
 Coeff:      0.117D+01 0.527D+00
 Gap=     0.047 Goal=   None    Shift=    0.000
 RMSDP=5.34D-07 MaxDP=1.63D-04 DE=-6.85D-10 OVMax= 7.19D-06

 Cycle  22  Pass 1  IDiag  1:
 E= -101.909883221929     Delta-E=       -0.000000000064 Rises=F Damp=F
 DIIS: error= 4.05D-08 at cycle  22 NSaved=  20.
 NSaved=20 IEnMin=20 EnMin= -101.909883221929     IErMin=20 ErrMin= 4.05D-08
 ErrMax= 4.05D-08  0.00D+00 EMaxC= 1.00D-01 BMatC= 1.75D-13 BMatP= 4.15D-11
 IDIUse=1 WtCom= 1.00D+00 WtEn= 0.00D+00
 Coeff-Com: -0.134D-04 0.517D-04 0.566D-04 0.149D-03 0.641D-03 0.274D-03
 Coeff-Com: -0.203D-03-0.512D-04-0.696D-03-0.900D-02-0.190D-02 0.212D-01
 Coeff-Com:  0.510D-01 0.229D-01-0.279D-01-0.101D+00-0.394D+00 0.505D+00
 Coeff-Com:  0.367D+00 0.567D+00
 Coeff:     -0.134D-04 0.517D-04 0.566D-04 0.149D-03 0.641D-03 0.274D-03
 Coeff:     -0.203D-03-0.512D-04-0.696D-03-0.900D-02-0.190D-02 0.212D-01
 Coeff:      0.510D-01 0.229D-01-0.279D-01-0.101D+00-0.394D+00 0.505D+00
 Coeff:      0.367D+00 0.567D+00
 Gap=     0.047 Goal=   None    Shift=    0.000
 RMSDP=8.95D-09 MaxDP=8.50D-07 DE=-6.41D-11 OVMax= 7.59D-07

 SCF Done:  E(ROHF) =  -101.909883222     A.U. after   22 cycles
            NFock= 22  Conv=0.89D-08     -V/T= 2.7511
 <Sx>= 0.0000 <Sy>= 0.0000 <Sz>= 2.0000 <S**2>= 6.0000 S= 2.0000
 <L.S>=  0.00000000000    
 KE= 5.819859398525D+01 PE=-3.017443631282D+02 EE= 1.074428969077D+02
 Annihilation of the first spin contaminant:
 S**2 before annihilation     6.0000,   after     6.0000
 Leave Link  502 at Tue Mar 13 02:51:03 2018, MaxMem= 10737418240 cpu:            1933.8 elap:             139.7
 (Enter /home1/apps/gaussian/16rA.03/g16/l801.exe)
 Windowed orbitals will be sorted by symmetry type.
 GenMOA:  NOpAll=  4 NOp2=4 NOpUse=  4 JSym2X=1
 FoFJK:  IHMeth= 1 ICntrl=       0 DoSepK=F KAlg= 0 I1Cent=           0 FoldK=F
 IRaf=         0 NMat=       1 IRICut=       1 DoRegI=T DoRafI=F ISym2E= 1 IDoP0=0 IntGTp=1.
 FoFCou: FMM=F IPFlag=           8 FMFlag=      100000 FMFlg1=           0
         NFxFlg=           0 DoJE=F BraDBF=F KetDBF=F FulRan=T
         wScrn=  0.000000 ICntrl=         0 IOpCl=  1 I1Cent=           0 NGrid=           0
         NMat0=    1 NMatS0=      1 NMatT0=    0 NMatD0=    1 NMtDS0=    0 NMtDT0=    0
 Petite list used in FoFCou.
 <Sx>= 0.0000 <Sy>= 0.0000 <Sz>= 2.0000 <S**2>= 6.0000 S= 2.0000
 Range of M.O.s used for correlation:     1   380
 NBasis=   384 NAE=    12 NBE=     8 NFC=     0 NFV=     0
 NROrb=    380 NOA=    12 NOB=     8 NVA=   368 NVB=   372

 **** Warning!!: The largest alpha MO coefficient is  0.32348426D+03


 **** Warning!!: The largest beta MO coefficient is  0.32330437D+03

 Singles contribution to E2=   -0.5805413046D-02
 Leave Link  801 at Tue Mar 13 02:51:38 2018, MaxMem= 10737418240 cpu:             564.6 elap:              35.3
 (Enter /home1/apps/gaussian/16rA.03/g16/l804.exe)
 Open-shell transformation, MDV= 10737418240 ITran=4 ISComp=2.
 Unit  1 TFree=       4464413 TCopy=       3213103.
 Semi-Direct transformation.
 ModeAB=           4 MOrb=            12 LenV=   10733101952
 LASXX=     82082530 LTotXX=    82082530 LenRXX=   165023772
 LTotAB=    82941242 MaxLAS=   559767360 LenRXY=           0
 NonZer=   247106302 LenScr=   372113408 LnRSAI=   559767360
 LnScr1=   842944512 LExtra=    22862128 Total=   1962711180
 MaxDsk= 67108864000 SrtSym=           T ITran=            4
 DoSDTr:  NPSUse= 16
 JobTyp=1 Pass  1:  I=   1 to  12.
 (rs|ai) integrals will be sorted in core.
 Complete sort for first half transformation.
 First half transformation complete.
 Begin second half transformation for I=  10.
 Complete sort for second half transformation.
 Second half transformation complete.
 ModeAB=           4 MOrb=             8 LenV=   10733101952
 LASXX=     55242478 LTotXX=    55242478 LenRXX=   107543238
 LTotAB=    52300760 MaxLAS=   373178240 LenRXY=           0
 NonZer=   162785716 LenScr=   245136384 LnRSAI=   373178240
 LnScr1=   561963008 LExtra=   187885900 Total=   1475706770
 MaxDsk= 67108864000 SrtSym=           T ITran=            4
 DoSDTr:  NPSUse= 16
 JobTyp=2 Pass  1:  I=   1 to   8.
 (rs|ai) integrals will be sorted in core.
 Complete sort for first half transformation.
 First half transformation complete.
 Complete sort for second half transformation.
 Second half transformation complete.
 Spin components of T(2) and E(2):
     alpha-alpha T2 =       0.4205739330D-01 E2=     -0.1796209082D+00
     alpha-beta  T2 =       0.1226611341D+00 E2=     -0.6450214766D+00
     beta-beta   T2 =       0.2353054217D-01 E2=     -0.1002416673D+00
 ANorm=    0.1091760254D+01
 E2 =    -0.9306894651D+00 EUMP2 =    -0.10284057268701D+03
 (S**2,0)=  0.60000D+01           (S**2,1)=  0.60000D+01
 E(PUHF)=      -0.10190988322D+03        E(PMP2)=      -0.10284057269D+03
 Recovering and transforming amplitudes from chk file.
 B after Tr=     0.000000    0.000000    0.000000
         Rot=    1.000000    0.000000    0.000000    0.000000 Ang=   0.00 deg.
 Alpha occ  Sing. vals= 9.999997D-01 9.999995D-01 9.999993D-01 9.999988D-01 9.999958D-01 9.999920D-01 9.999920D-01 9.999879D-01 9.999863D-01 9.999696D-01
 Alpha occ  Sing. vals= 9.999602D-01 9.999598D-01
 Alpha occ  NOrbO=    12 NOrbN=    12 NSVal=    12 ThrEig=  0.900000.
 TrMax= 1.000000D+00 PrMax= 1.000000D+00 Trace(Pr)= 1.200000D+01
 B after Tr=     0.000000    0.000000    0.000000
         Rot=    1.000000    0.000000    0.000000    0.000000 Ang=   0.00 deg.
 Alpha virt Sing. vals= 1.000000D+00 1.000000D+00 1.000000D+00 1.000000D+00 1.000000D+00 1.000000D+00 1.000000D+00 1.000000D+00 1.000000D+00 1.000000D+00
 Alpha virt Sing. vals= 1.000000D+00 1.000000D+00 1.000000D+00 1.000000D+00 1.000000D+00 1.000000D+00 1.000000D+00 1.000000D+00 1.000000D+00 1.000000D+00
 Alpha virt Sing. vals= 1.000000D+00 1.000000D+00 1.000000D+00 1.000000D+00 1.000000D+00 1.000000D+00 1.000000D+00 9.999999D-01 9.999999D-01 9.999999D-01
 Alpha virt Sing. vals= 9.999999D-01 9.999999D-01 9.999999D-01 9.999999D-01 9.999999D-01 9.999999D-01 9.999998D-01 9.999998D-01 9.999997D-01 9.999996D-01
 Alpha virt Sing. vals= 9.999995D-01 9.999995D-01 9.999995D-01 9.999995D-01 9.999995D-01 9.999991D-01 9.999991D-01 9.999989D-01 9.999989D-01 9.999988D-01
 Alpha virt Sing. vals= 9.999985D-01 9.999979D-01 9.999978D-01 9.999978D-01 9.999978D-01 9.999962D-01 9.999956D-01 9.999940D-01 9.999939D-01 9.999934D-01
 Alpha virt Sing. vals= 9.999925D-01 9.999902D-01 9.999894D-01 9.999853D-01 9.999827D-01 9.999825D-01 9.999812D-01 9.999754D-01 9.999752D-01 9.999752D-01
 Alpha virt Sing. vals= 9.999747D-01 9.999744D-01 9.999728D-01 9.999539D-01 9.999485D-01 9.999485D-01 9.999370D-01 9.999251D-01 9.999250D-01 9.999242D-01
 Alpha virt Sing. vals= 9.999242D-01 9.999221D-01 9.999100D-01 9.998902D-01 9.998900D-01 9.998572D-01 9.998553D-01 9.998553D-01 9.998350D-01 9.998347D-01
 Alpha virt Sing. vals= 9.998250D-01 9.998246D-01 9.998245D-01 9.998245D-01 9.998210D-01 9.997952D-01 9.997952D-01 9.997943D-01 9.997936D-01 9.997935D-01
 Alpha virt Sing. vals= 9.997916D-01 9.997916D-01 9.997716D-01 9.997711D-01 9.997708D-01 9.997552D-01 9.997552D-01 9.997380D-01 9.997380D-01 9.996682D-01
 Alpha virt Sing. vals= 9.996050D-01 9.996049D-01 9.995976D-01 9.995818D-01 9.995566D-01 9.995566D-01 9.995534D-01 9.995533D-01 9.995135D-01 9.994527D-01
 Alpha virt Sing. vals= 9.994436D-01 9.994434D-01 9.993810D-01 9.993810D-01 9.993773D-01 9.993773D-01 9.993712D-01 9.993712D-01 9.993415D-01 9.993415D-01
 Alpha virt Sing. vals= 9.993320D-01 9.991610D-01 9.989171D-01 9.989171D-01 9.988107D-01 9.988100D-01 9.988052D-01 9.986338D-01 9.983279D-01 9.983279D-01
 Alpha virt Sing. vals= 9.982386D-01 9.982385D-01 9.981962D-01 9.981961D-01 9.981355D-01 9.980350D-01 9.980175D-01 9.980175D-01 9.977596D-01 9.977596D-01
 Alpha virt Sing. vals= 9.977184D-01 9.971904D-01 9.971904D-01 9.970434D-01 9.970355D-01 9.970355D-01 9.968073D-01 9.968073D-01 9.967163D-01 9.964131D-01
 Alpha virt Sing. vals= 9.964131D-01 9.959607D-01 9.959606D-01 9.958114D-01 9.958114D-01 9.956861D-01 9.956850D-01 9.956850D-01 9.953763D-01 9.948397D-01
 Alpha virt Sing. vals= 9.940551D-01 9.940551D-01 9.939860D-01 9.939860D-01 9.932636D-01 9.924215D-01 9.923543D-01 9.923541D-01 9.912447D-01 9.912447D-01
 Alpha virt Sing. vals= 9.908856D-01 9.908854D-01 9.906114D-01 9.877595D-01 9.877594D-01 9.832347D-01 9.832344D-01 9.827633D-01 9.812160D-01 9.812159D-01
 Alpha virt Sing. vals= 9.811200D-01 9.811200D-01 9.800785D-01 9.796385D-01 9.792583D-01 9.792583D-01 9.773268D-01 9.758121D-01 9.755657D-01 9.755656D-01
 Alpha virt Sing. vals= 9.705896D-01 9.705896D-01 9.667374D-01 9.667372D-01 9.656384D-01 9.628070D-01 9.601908D-01 9.601908D-01 9.522499D-01 9.511273D-01
 Alpha virt Sing. vals= 9.511273D-01 9.442199D-01 9.442198D-01 9.399988D-01 9.399978D-01 9.399978D-01 9.374231D-01 9.315836D-01 9.271518D-01 9.271518D-01
 Alpha virt Sing. vals= 9.270238D-01 9.252284D-01 9.252278D-01 9.215291D-01 9.215291D-01 9.200932D-01 9.200932D-01 9.200759D-01 9.200759D-01 8.918220D-01
 Alpha virt Sing. vals= 8.918218D-01 8.854982D-01 8.622714D-01 8.622713D-01 8.488724D-01 8.488724D-01 8.386957D-01 8.386956D-01 8.215903D-01 7.509226D-01
 Alpha virt NOrbO=   240 NOrbN=   368 NSVal=   229 ThrEig=  0.900000.
 TrMax= 9.983523D-01 PrMax= 9.994711D-01 Trace(Pr)= 2.290000D+02
 B after Tr=     0.000000    0.000000    0.000000
         Rot=    1.000000    0.000000    0.000000    0.000000 Ang=   0.00 deg.
 Beta  occ  Sing. vals= 9.999997D-01 9.999993D-01 9.999991D-01 9.999986D-01 9.999954D-01 9.999697D-01 9.999613D-01 9.999602D-01
 Beta  occ  NOrbO=     8 NOrbN=     8 NSVal=     8 ThrEig=  0.900000.
 TrMax= 1.000000D+00 PrMax= 1.000000D+00 Trace(Pr)= 8.000000D+00
 B after Tr=     0.000000    0.000000    0.000000
         Rot=    1.000000    0.000000    0.000000    0.000000 Ang=   0.00 deg.
 Beta  virt Sing. vals= 1.000000D+00 1.000000D+00 1.000000D+00 1.000000D+00 1.000000D+00 1.000000D+00 1.000000D+00 1.000000D+00 1.000000D+00 1.000000D+00
 Beta  virt Sing. vals= 1.000000D+00 1.000000D+00 1.000000D+00 1.000000D+00 1.000000D+00 1.000000D+00 1.000000D+00 1.000000D+00 1.000000D+00 1.000000D+00
 Beta  virt Sing. vals= 1.000000D+00 1.000000D+00 1.000000D+00 1.000000D+00 1.000000D+00 1.000000D+00 1.000000D+00 1.000000D+00 1.000000D+00 1.000000D+00
 Beta  virt Sing. vals= 9.999999D-01 9.999999D-01 9.999999D-01 9.999999D-01 9.999999D-01 9.999999D-01 9.999999D-01 9.999999D-01 9.999999D-01 9.999999D-01
 Beta  virt Sing. vals= 9.999997D-01 9.999997D-01 9.999997D-01 9.999996D-01 9.999995D-01 9.999995D-01 9.999995D-01 9.999994D-01 9.999994D-01 9.999991D-01
 Beta  virt Sing. vals= 9.999991D-01 9.999989D-01 9.999989D-01 9.999988D-01 9.999984D-01 9.999979D-01 9.999978D-01 9.999978D-01 9.999978D-01 9.999957D-01
 Beta  virt Sing. vals= 9.999956D-01 9.999940D-01 9.999936D-01 9.999934D-01 9.999925D-01 9.999902D-01 9.999894D-01 9.999852D-01 9.999827D-01 9.999827D-01
 Beta  virt Sing. vals= 9.999812D-01 9.999753D-01 9.999748D-01 9.999748D-01 9.999744D-01 9.999744D-01 9.999727D-01 9.999539D-01 9.999485D-01 9.999484D-01
 Beta  virt Sing. vals= 9.999368D-01 9.999251D-01 9.999251D-01 9.999234D-01 9.999234D-01 9.999221D-01 9.999099D-01 9.998900D-01 9.998900D-01 9.998571D-01
 Beta  virt Sing. vals= 9.998553D-01 9.998553D-01 9.998347D-01 9.998347D-01 9.998250D-01 9.998246D-01 9.998245D-01 9.998245D-01 9.998210D-01 9.997952D-01
 Beta  virt Sing. vals= 9.997952D-01 9.997943D-01 9.997935D-01 9.997935D-01 9.997916D-01 9.997916D-01 9.997716D-01 9.997710D-01 9.997708D-01 9.997552D-01
 Beta  virt Sing. vals= 9.997552D-01 9.997380D-01 9.997380D-01 9.996682D-01 9.996049D-01 9.996049D-01 9.995976D-01 9.995818D-01 9.995566D-01 9.995566D-01
 Beta  virt Sing. vals= 9.995534D-01 9.995533D-01 9.995135D-01 9.994524D-01 9.994436D-01 9.994435D-01 9.993810D-01 9.993810D-01 9.993773D-01 9.993773D-01
 Beta  virt Sing. vals= 9.993712D-01 9.993712D-01 9.993415D-01 9.993415D-01 9.993319D-01 9.991608D-01 9.989158D-01 9.989158D-01 9.988101D-01 9.988100D-01
 Beta  virt Sing. vals= 9.988050D-01 9.986339D-01 9.983264D-01 9.983264D-01 9.982386D-01 9.982384D-01 9.981962D-01 9.981961D-01 9.981358D-01 9.980350D-01
 Beta  virt Sing. vals= 9.980175D-01 9.980175D-01 9.977596D-01 9.977595D-01 9.977184D-01 9.971904D-01 9.971904D-01 9.970434D-01 9.970355D-01 9.970355D-01
 Beta  virt Sing. vals= 9.968073D-01 9.968073D-01 9.967163D-01 9.964131D-01 9.964131D-01 9.959606D-01 9.959606D-01 9.958114D-01 9.958114D-01 9.956861D-01
 Beta  virt Sing. vals= 9.956850D-01 9.956850D-01 9.953763D-01 9.948397D-01 9.940551D-01 9.940551D-01 9.939860D-01 9.939860D-01 9.932635D-01 9.924214D-01
 Beta  virt Sing. vals= 9.923541D-01 9.923541D-01 9.912446D-01 9.912446D-01 9.908856D-01 9.908854D-01 9.906114D-01 9.877595D-01 9.877595D-01 9.832344D-01
 Beta  virt Sing. vals= 9.832344D-01 9.827637D-01 9.812156D-01 9.812156D-01 9.811200D-01 9.811200D-01 9.800785D-01 9.796382D-01 9.792583D-01 9.792583D-01
 Beta  virt Sing. vals= 9.773268D-01 9.758118D-01 9.755656D-01 9.755656D-01 9.705892D-01 9.705892D-01 9.667376D-01 9.667374D-01 9.656381D-01 9.628071D-01
 Beta  virt Sing. vals= 9.601908D-01 9.601908D-01 9.522501D-01 9.511273D-01 9.511273D-01 9.442197D-01 9.442197D-01 9.399988D-01 9.399978D-01 9.399978D-01
 Beta  virt Sing. vals= 9.374236D-01 9.315836D-01 9.271518D-01 9.271518D-01 9.270238D-01 9.252278D-01 9.252278D-01 9.215291D-01 9.215291D-01 9.200931D-01
 Beta  virt Sing. vals= 9.200931D-01 9.200759D-01 9.200759D-01 8.918220D-01 8.918218D-01 8.854980D-01 8.622714D-01 8.622714D-01 8.488724D-01 8.488724D-01
 Beta  virt Sing. vals= 8.386955D-01 8.386955D-01 8.215904D-01 7.509227D-01
 Beta  virt NOrbO=   244 NOrbN=   372 NSVal=   233 ThrEig=  0.900000.
 TrMax= 9.968945D-01 PrMax= 9.989142D-01 Trace(Pr)= 2.330000D+02
 Leave Link  804 at Tue Mar 13 03:05:23 2018, MaxMem= 10737418240 cpu:           13172.5 elap:             824.3
 (Enter /home1/apps/gaussian/16rA.03/g16/l913.exe)
 CIDS:  MDV= 10737418240.
 IFCWin=0 IBDFC=1 NFBD=     0     0 NFCmp=     0     0 NFFFC=     0     0
 Amplitudes recovered.
 Using DD4UQ or CC4UQ for all iterations.
 Keep R2 and R3 ints in memory in symmetry-blocked form, NReq=3425134269.
 FoFCou: FMM=F IPFlag=           8 FMFlag=           0 FMFlg1=           0
         NFxFlg=           0 DoJE=F BraDBF=F KetDBF=F FulRan=T
         wScrn=  0.000000 ICntrl=       600 IOpCl=  0 I1Cent=           0 NGrid=           0
         NMat0=    1 NMatS0=  73920 NMatT0=    0 NMatD0=    1 NMtDS0=    0 NMtDT0=    0
 Petite list used in FoFCou.
 CIDS: In Core Option IDoMem=           1.
 CCSD(T)
 =======
 Iterations= 150 Convergence= 0.100D-06
 Produce multiple copies of IABC intergrals
 Iteration Nr.   1
 **********************
 DD1Dir will call FoFMem   1 times, MxPair=       286
 NAB=    96 NAA=    66 NBB=    28.
 Maximum subspace dimension=  5
 A-vector RMS=  1.5054058D-04 Max=  2.7579607D-03 conv= 1.00D-05.
 RLE energy=       -0.9073046393
 DE(Corr)= -0.89453697     E(Corr)=     -102.80442019    
 NORM(A)=   0.10999708D+01
 Iteration Nr.   2
 **********************
 DD1Dir will call FoFMem   1 times, MxPair=       286
 NAB=    96 NAA=    66 NBB=    28.
 A-vector RMS=  1.4085469D-03 Max=  2.1830672D-02 conv= 1.00D-05.
 RLE energy=       -0.8778090269
 DE(Corr)= -0.87660092     E(CORR)=     -102.78648415     Delta= 1.79D-02
 NORM(A)=   0.11012310D+01
 Iteration Nr.   3
 **********************
 DD1Dir will call FoFMem   1 times, MxPair=       286
 NAB=    96 NAA=    66 NBB=    28.
 A-vector RMS=  6.5994546D-04 Max=  1.0363259D-02 conv= 1.00D-05.
 RLE energy=       -0.8925907191
 DE(Corr)= -0.89839737     E(CORR)=     -102.80828059     Delta=-2.18D-02
 NORM(A)=   0.11050138D+01
 Iteration Nr.   4
 **********************
 DD1Dir will call FoFMem   1 times, MxPair=       286
 NAB=    96 NAA=    66 NBB=    28.
 A-vector RMS=  3.9018264D-04 Max=  6.7210211D-03 conv= 1.00D-05.
 RLE energy=       -0.8943941064
 DE(Corr)= -0.89208720     E(CORR)=     -102.80197042     Delta= 6.31D-03
 NORM(A)=   0.11096493D+01
 Iteration Nr.   5
 **********************
 DD1Dir will call FoFMem   1 times, MxPair=       286
 NAB=    96 NAA=    66 NBB=    28.
 A-vector RMS=  1.3026186D-04 Max=  2.6210560D-03 conv= 1.00D-05.
 RLE energy=       -0.8946432606
 DE(Corr)= -0.89414388     E(CORR)=     -102.80402710     Delta=-2.06D-03
 NORM(A)=   0.11124856D+01
 Iteration Nr.   6
 **********************
 DD1Dir will call FoFMem   1 times, MxPair=       286
 NAB=    96 NAA=    66 NBB=    28.
 A-vector RMS=  5.4280880D-05 Max=  1.2356734D-03 conv= 1.00D-05.
 RLE energy=       -0.8948932507
 DE(Corr)= -0.89481206     E(CORR)=     -102.80469528     Delta=-6.68D-04
 NORM(A)=   0.11140019D+01
 Iteration Nr.   7
 **********************
 DD1Dir will call FoFMem   1 times, MxPair=       286
 NAB=    96 NAA=    66 NBB=    28.
 A-vector RMS=  3.0615881D-05 Max=  7.4561201D-04 conv= 1.00D-05.
 RLE energy=       -0.8949896650
 DE(Corr)= -0.89491257     E(CORR)=     -102.80479580     Delta=-1.01D-04
 NORM(A)=   0.11145596D+01
 Iteration Nr.   8
 **********************
 DD1Dir will call FoFMem   1 times, MxPair=       286
 NAB=    96 NAA=    66 NBB=    28.
 A-vector RMS=  1.3578617D-05 Max=  2.3528730D-04 conv= 1.00D-05.
 RLE energy=       -0.8949338444
 DE(Corr)= -0.89496771     E(CORR)=     -102.80485093     Delta=-5.51D-05
 NORM(A)=   0.11146665D+01
 Iteration Nr.   9
 **********************
 DD1Dir will call FoFMem   1 times, MxPair=       286
 NAB=    96 NAA=    66 NBB=    28.
 A-vector RMS=  7.0438861D-06 Max=  1.5429017D-04 conv= 1.00D-05.
 RLE energy=       -0.8949865885
 DE(Corr)= -0.89498401     E(CORR)=     -102.80486723     Delta=-1.63D-05
 NORM(A)=   0.11147335D+01
 Iteration Nr.  10
 **********************
 DD1Dir will call FoFMem   1 times, MxPair=       286
 NAB=    96 NAA=    66 NBB=    28.
 A-vector RMS=  3.6390418D-06 Max=  7.0528233D-05 conv= 1.00D-05.
 RLE energy=       -0.8949683402
 DE(Corr)= -0.89497220     E(CORR)=     -102.80485542     Delta= 1.18D-05
 NORM(A)=   0.11147443D+01
 Iteration Nr.  11
 **********************
 DD1Dir will call FoFMem   1 times, MxPair=       286
 NAB=    96 NAA=    66 NBB=    28.
 A-vector RMS=  1.3736783D-06 Max=  2.2411348D-05 conv= 1.00D-05.
 RLE energy=       -0.8949822872
 DE(Corr)= -0.89498411     E(CORR)=     -102.80486733     Delta=-1.19D-05
 NORM(A)=   0.11147533D+01
 Iteration Nr.  12
 **********************
 DD1Dir will call FoFMem   1 times, MxPair=       286
 NAB=    96 NAA=    66 NBB=    28.
 A-vector RMS=  1.0823092D-06 Max=  2.3475072D-05 conv= 1.00D-05.
 RLE energy=       -0.8949787779
 DE(Corr)= -0.89497808     E(CORR)=     -102.80486130     Delta= 6.03D-06
 NORM(A)=   0.11147597D+01
 Iteration Nr.  13
 **********************
 DD1Dir will call FoFMem   1 times, MxPair=       286
 NAB=    96 NAA=    66 NBB=    28.
 A-vector RMS=  4.1706244D-07 Max=  9.3727020D-06 conv= 1.00D-05.
 RLE energy=       -0.8949822286
 DE(Corr)= -0.89498241     E(CORR)=     -102.80486563     Delta=-4.33D-06
 NORM(A)=   0.11147649D+01
 Iteration Nr.  14
 **********************
 DD1Dir will call FoFMem   1 times, MxPair=       286
 NAB=    96 NAA=    66 NBB=    28.
 A-vector RMS=  3.5880451D-07 Max=  6.8301319D-06 conv= 1.00D-05.
 RLE energy=       -0.8949817468
 DE(Corr)= -0.89498125     E(CORR)=     -102.80486447     Delta= 1.16D-06
 NORM(A)=   0.11147693D+01
 Iteration Nr.  15
 **********************
 DD1Dir will call FoFMem   1 times, MxPair=       286
 NAB=    96 NAA=    66 NBB=    28.
 A-vector RMS=  1.9823504D-07 Max=  4.2379699D-06 conv= 1.00D-05.
 RLE energy=       -0.8949828195
 DE(Corr)= -0.89498295     E(CORR)=     -102.80486617     Delta=-1.70D-06
 NORM(A)=   0.11147717D+01
 Iteration Nr.  16
 **********************
 DD1Dir will call FoFMem   1 times, MxPair=       286
 NAB=    96 NAA=    66 NBB=    28.
 A-vector RMS=  9.5058503D-08 Max=  2.0095154D-06 conv= 1.00D-05.
 RLE energy=       -0.8949827691
 DE(Corr)= -0.89498270     E(CORR)=     -102.80486592     Delta= 2.44D-07
 NORM(A)=   0.11147732D+01
 Iteration Nr.  17
 **********************
 DD1Dir will call FoFMem   1 times, MxPair=       286
 NAB=    96 NAA=    66 NBB=    28.
 A-vector RMS=  7.9522379D-08 Max=  1.7495841D-06 conv= 1.00D-05.
 RLE energy=       -0.8949830776
 DE(Corr)= -0.89498310     E(CORR)=     -102.80486632     Delta=-3.97D-07
 NORM(A)=   0.11147743D+01
 Iteration Nr.  18
 **********************
 DD1Dir will call FoFMem   1 times, MxPair=       286
 NAB=    96 NAA=    66 NBB=    28.
 A-vector RMS=  4.5309620D-08 Max=  7.9051780D-07 conv= 1.00D-05.
 RLE energy=       -0.8949831124
 DE(Corr)= -0.89498309     E(CORR)=     -102.80486631     Delta= 1.32D-08
 NORM(A)=   0.11147746D+01
 CI/CC converged in   18 iterations to DelEn= 1.32D-08 Conv= 1.00D-07 ErrA1= 4.53D-08 Conv= 1.00D-05
 Wavefunction amplitudes converged. E(Corr)=     -102.80486631    
 Dominant configurations:
 ***********************
 Spin Case        I    J    A    B          Value
    AA           11        23            0.102566D+00
 Largest amplitude= 1.03D-01
 Time for triples=    57323.58 seconds.
 T4(CCSD)= -0.52881519D-01
 T5(CCSD)=  0.83814169D-02
 CCSD(T)= -0.10284936641D+03
 Discarding MO integrals.
 Leave Link  913 at Tue Mar 13 04:22:31 2018, MaxMem= 10737418240 cpu:           73958.3 elap:            4628.1
 (Enter /home1/apps/gaussian/16rA.03/g16/l601.exe)
 Copying SCF densities to generalized density rwf, IOpCl= 0 IROHF=1.

 **********************************************************************

            Population analysis using the SCF density.

 **********************************************************************

 Orbital symmetries:
       Occupied  (SG) (SG) (PI) (PI) (SG) (?A) (?A) (SG) (?B) (?B)
                 (?B) (?A)
       Virtual   (?A) (SG) (?A) (SG) (?C) (?A) (?C) (?C) (?A) (?A)
                 (?A) (SG) (SG) (SG) (?A) (?A) (?B) (?B) (?A) (SG)
                 (?A) (?A) (?B) (?A) (?A) (SG) (?D) (?D) (?D) (PHI)
                 (PHI) (?A) (?E) (?A) (?E) (?E) (?A) (?A) (?E)
                 (?A) (?A) (?F) (?F) (?F) (?A) (?A) (SG) (SG) (SG)
                 (PI) (PI) (PHI) (PHI) (?G) (?G) (?H) (?H) (?H)
                 (?A) (?A) (?A) (?A) (?H) (?H) (?A) (?I) (?I) (?A)
                 (?I) (SG) (PI) (PI) (SG) (PHI) (PHI) (DLTA) (DLTA)
                 (PI) (PI) (SG) (PI) (PI) (SG) (DLTA) (DLTA) (PI)
                 (PI) (SG) (SG) (?J) (?J) (PI) (PI) (?J) (DLTA)
                 (DLTA) (?K) (?K) (?K) (?G) (?G) (?K) (SG) (?K)
                 (?K) (?G) (?G) (?K) (?K) (?L) (?L) (?L) (?L) (?L)
                 (PHI) (PHI) (PI) (PI) (SG) (?L) (?L) (?L) (?L)
                 (?L) (PI) (PI) (PHI) (PHI) (SG) (PI) (PI) (DLTA)
                 (DLTA) (PI) (PI) (SG) (PHI) (PHI) (DLTA) (DLTA)
                 (SG) (?L) (?L) (?L) (PI) (PI) (PI) (PI) (?L) (?L)
                 (?L) (SG) (PI) (PI) (SG) (PHI) (PHI) (?L) (?L)
                 (?L) (PI) (PI) (SG) (PI) (PI) (?G) (?G) (PHI)
                 (PHI) (DLTA) (DLTA) (PI) (PI) (PHI) (PHI) (?L)
                 (?L) (?L) (?L) (?L) (?L) (?L) (PI) (PI) (SG) (PI)
                 (PI) (?G) (?G) (PHI) (PHI) (SG) (DLTA) (DLTA)
                 (SG) (PI) (PI) (PHI) (PHI) (DLTA) (DLTA) (PI)
                 (PI) (DLTA) (DLTA) (SG) (SG) (DLTA) (DLTA) (PI)
                 (PI) (SG) (PI) (PI) (SG) (SG) (PI) (PI) (SG) (DLTA)
                 (DLTA) (?K) (?K) (?K) (?K) (DLTA) (DLTA) (SG)
                 (PI) (PI) (SG) (?G) (?G) (PHI) (PHI) (DLTA) (DLTA)
                 (PI) (PI) (SG) (?G) (?G) (?L) (?L) (PHI) (PHI)
                 (?L) (?L) (?L) (PI) (PI) (SG) (PI) (PI) (SG) (SG)
                 (PI) (PI) (SG) (DLTA) (DLTA) (PI) (PI) (SG) (DLTA)
                 (DLTA) (PI) (PI) (SG) (SG) (DLTA) (DLTA) (PI)
                 (PI) (SG) (SG) (PI) (PI) (SG) (PI) (PI) (SG) (SG)
                 (PHI) (PHI) (DLTA) (DLTA) (PI) (PI) (SG) (SG)
                 (PI) (PI) (SG) (DLTA) (DLTA) (PI) (PI) (SG) (PI)
                 (PI) (SG) (SG) (SG) (DLTA) (DLTA) (PI) (PI) (SG)
                 (PI) (PI) (SG) (PI) (PI) (SG) (DLTA) (DLTA) (PI)
                 (PI) (SG) (SG) (SG) (PI) (PI) (SG) (SG) (PI) (PI)
                 (SG) (SG) (PI) (PI) (SG) (SG) (DLTA) (DLTA) (PI)
                 (PI) (SG) (SG) (PI) (PI) (SG) (SG) (SG) (PI) (PI)
                 (SG) (SG) (SG) (PI) (PI) (SG) (SG) (SG) (PI) (PI)
                 (SG) (SG) (PI) (PI) (SG) (SG) (SG) (SG) (SG) (SG)
                 (SG)
 Unable to determine electronic state:  an orbital has unidentified symmetry.
 Alpha  occ. eigenvalues --   -3.74553  -2.44972  -2.43707  -2.40692  -1.24082
 Alpha  occ. eigenvalues --   -0.68853  -0.59600  -0.59395  -0.51635  -0.51218
 Alpha  occ. eigenvalues --   -0.35620  -0.27253
 Alpha virt. eigenvalues --    0.01321   0.01935   0.02277   0.02650   0.04795
 Alpha virt. eigenvalues --    0.05026   0.05421   0.05421   0.05523   0.05696
 Alpha virt. eigenvalues --    0.07587   0.08049   0.10321   0.13895   0.14782
 Alpha virt. eigenvalues --    0.16718   0.17223   0.17226   0.18607   0.19681
 Alpha virt. eigenvalues --    0.20760   0.21421   0.21503   0.22368   0.27041
 Alpha virt. eigenvalues --    0.29945   0.35858   0.38652   0.38658   0.39805
 Alpha virt. eigenvalues --    0.39806   0.45569   0.46739   0.46820   0.46852
 Alpha virt. eigenvalues --    0.47167   0.48513   0.48594   0.50581   0.59799
 Alpha virt. eigenvalues --    0.60059   0.63369   0.65499   0.65509   0.65748
 Alpha virt. eigenvalues --    0.66517   0.70533   0.78029   1.03815   1.05765
 Alpha virt. eigenvalues --    1.05896   1.16230   1.16230   1.16336   1.16336
 Alpha virt. eigenvalues --    1.18241   1.18246   1.21070   1.21323   1.21755
 Alpha virt. eigenvalues --    1.21881   1.22013   1.22253   1.22315   1.28620
 Alpha virt. eigenvalues --    1.30418   1.30447   1.31337   1.33333   1.46280
 Alpha virt. eigenvalues --    1.53648   1.53844   1.59150   1.63608   1.63609
 Alpha virt. eigenvalues --    1.66711   1.66712   1.67805   1.68556   1.73288
 Alpha virt. eigenvalues --    1.98319   1.98671   2.02321   2.22141   2.22143
 Alpha virt. eigenvalues --    2.27296   2.27332   2.35198   2.55182   2.92639
 Alpha virt. eigenvalues --    2.92644   2.95679   2.98784   3.12134   3.18976
 Alpha virt. eigenvalues --    3.18987   3.31106   3.31108   3.37086   3.37294
 Alpha virt. eigenvalues --    3.37570   3.37570   3.37738   3.39583   3.39587
 Alpha virt. eigenvalues --    3.46940   3.46940   3.48019   3.49127   3.53353
 Alpha virt. eigenvalues --    3.53353   3.56303   3.56306   3.70203   3.71334
 Alpha virt. eigenvalues --    3.71334   3.83426   3.83855   3.91997   4.01398
 Alpha virt. eigenvalues --    4.01400   4.02396   4.02396   4.08804   4.09402
 Alpha virt. eigenvalues --    4.09986   4.20960   4.20960   4.25411   4.31633
 Alpha virt. eigenvalues --    4.32284   4.41728   4.41736   4.60375   4.60972
 Alpha virt. eigenvalues --    4.77779   4.85080   4.85080   4.91963   4.91970
 Alpha virt. eigenvalues --    5.28551   5.62931   5.75621   5.75635   5.79836
 Alpha virt. eigenvalues --    5.79949   6.07066   6.07677   6.16657   6.28024
 Alpha virt. eigenvalues --    6.28157   6.46167   6.52049   6.52943   7.42662
 Alpha virt. eigenvalues --    8.53454   8.53454   8.92721   8.94250   8.94478
 Alpha virt. eigenvalues --    8.96467   8.98024   9.27053   9.34117   9.34164
 Alpha virt. eigenvalues --    9.35281   9.35281   9.41124   9.41124   9.52669
 Alpha virt. eigenvalues --    9.52669   9.76136   9.76886   9.93053   9.93053
 Alpha virt. eigenvalues --    9.99090   9.99185   9.99420   9.99481   9.99508
 Alpha virt. eigenvalues --    9.99508  10.02296  10.14911  10.15605  10.39855
 Alpha virt. eigenvalues --   10.49664  10.49973  10.70207  10.70207  11.02922
 Alpha virt. eigenvalues --   11.02922  11.17061  11.55284  11.55285  11.83669
 Alpha virt. eigenvalues --   11.89171  11.89592  11.99831  11.99831  12.03008
 Alpha virt. eigenvalues --   12.03009  12.18553  12.19261  12.41171  12.41172
 Alpha virt. eigenvalues --   12.47096  12.62360  12.82805  12.82805  12.93404
 Alpha virt. eigenvalues --   12.94176  13.45294  14.54839  14.55592  14.86380
 Alpha virt. eigenvalues --   15.86198  17.74113  17.76291  18.27983  21.37217
 Alpha virt. eigenvalues --   21.37233  21.42493  21.42493  21.45713  21.47277
 Alpha virt. eigenvalues --   21.73355  21.73359  21.88974  22.52388  22.52845
 Alpha virt. eigenvalues --   23.11843  23.28000  23.28000  23.31124  23.31124
 Alpha virt. eigenvalues --   23.50230  23.50233  23.93493  23.94778  24.68232
 Alpha virt. eigenvalues --   26.41789  26.41789  26.42382  26.42382  26.46743
 Alpha virt. eigenvalues --   26.46744  26.60367  26.60422  26.88690  26.89652
 Alpha virt. eigenvalues --   26.91679  27.43945  27.89808  27.90649  29.27819
 Alpha virt. eigenvalues --   30.32149  34.10678  34.13224  34.55982  36.43487
 Alpha virt. eigenvalues --   36.43504  36.50630  36.53097  36.93212  46.47203
 Alpha virt. eigenvalues --   46.47204  47.11910  47.12445  48.26576  53.97570
 Alpha virt. eigenvalues --   63.42402  63.42422  63.48245  63.50871  63.79195
 Alpha virt. eigenvalues --   65.09229  65.68891  65.71346  66.13757  67.71064
 Alpha virt. eigenvalues --   67.71935  69.12047 101.79855 104.09159 104.09159
 Alpha virt. eigenvalues --  104.12804 104.12810 104.16378 104.16845 104.27894
 Alpha virt. eigenvalues --  107.26677 122.23507 122.25509 122.51959 127.10296
 Alpha virt. eigenvalues --  127.10309 127.15816 127.17781 127.47623 148.59216
 Alpha virt. eigenvalues --  148.59959 149.77793 183.15747 185.20633 199.67384
 Alpha virt. eigenvalues --  199.67384 200.01157 200.01461 200.65063 224.54670
 Alpha virt. eigenvalues --  224.56224 224.82210 312.42955 312.43494 313.45520
 Alpha virt. eigenvalues --  318.04704 318.04710 318.09834 318.10814 318.33943
 Alpha virt. eigenvalues --  320.41453 357.39719 422.61141 422.62241 422.88398
 Alpha virt. eigenvalues --  557.87136 653.32524 653.32834 654.32474 704.93774
 Alpha virt. eigenvalues --  826.78241 826.78916 827.044081003.352231046.04294
 Alpha virt. eigenvalues -- 1046.042951046.081981046.085051046.238411439.78142
 Alpha virt. eigenvalues -- 1711.915241711.918821712.157912098.962883072.63989
 Alpha virt. eigenvalues -- 3822.803883822.805543823.021875799.389606868.36094
 Alpha virt. eigenvalues -- 9427.091649427.092309427.28050********************
 Alpha virt. eigenvalues -- **************************************************
 Alpha virt. eigenvalues -- **************************************************
 Alpha virt. eigenvalues -- ******************************
     Molecular Orbital Coefficients:
                           4         5         6         7         8
                           O         O         O         O         O
     Eigenvalues --    -2.40692  -1.24082  -0.68853  -0.59600  -0.59395
   1 1   Cr 1S          0.00000  -0.00000   0.00000   0.00000  -0.00000
   2        2S          0.00000  -0.00000   0.00000   0.00000  -0.00000
   3        3S          0.00000  -0.00000   0.00000   0.00000  -0.00000
   4        4S          0.00000  -0.00000   0.00000   0.00000  -0.00000
   5        5S          0.00000   0.00000   0.00000   0.00000   0.00000
   6        6S          0.00000  -0.00000   0.00000   0.00000  -0.00000
   7        7S          0.00000   0.00000   0.00000   0.00000   0.00000
   8        8S          0.00000  -0.00002   0.00000   0.00000  -0.00002
   9        9S          0.00000   0.00002   0.00000   0.00000   0.00002
  10       10S          0.00000  -0.00016   0.00000   0.00000  -0.00013
  11       11S          0.00000   0.00025   0.00000   0.00000   0.00019
  12       12S          0.00000  -0.00104   0.00000   0.00000  -0.00081
  13       13S          0.00000   0.00297   0.00000   0.00000   0.00229
  14       14S          0.00000  -0.01725   0.00000   0.00000  -0.01339
  15       15S          0.00000   0.03117   0.00000   0.00000   0.02454
  16       16S          0.00000   0.05498   0.00000   0.00000   0.04485
  17       17S          0.00000  -0.06798   0.00000   0.00000  -0.04835
  18       18S          0.00000  -0.14699   0.00000   0.00000  -0.08447
  19       19S          0.00000  -0.07697   0.00000   0.00000  -0.09548
  20       20S          0.00000  -0.01851   0.00000   0.00000   0.00851
  21       21S          0.00000  -0.01767   0.00000   0.00000   0.05912
  22       22S          0.00000  -0.00182   0.00000   0.00000  -0.00076
  23       23S          0.00000   0.00556   0.00000   0.00000   0.00174
  24       24S          0.00000   0.00974   0.00000   0.00000  -0.02692
  25       25S          0.00000   0.00071   0.00000   0.00000   0.00195
  26       26PX         0.00000   0.00000  -0.00000   0.00000   0.00000
  27       26PY         0.00000   0.00000   0.00000  -0.00000   0.00000
  28       26PZ         0.00000   0.00000   0.00000   0.00000   0.00000
  29       27PX         0.00000   0.00000  -0.00000   0.00000   0.00000
  30       27PY         0.00000   0.00000   0.00000  -0.00000   0.00000
  31       27PZ         0.00000   0.00000   0.00000   0.00000   0.00000
  32       28PX         0.00000   0.00000  -0.00000   0.00000   0.00000
  33       28PY         0.00000   0.00000   0.00000  -0.00000   0.00000
  34       28PZ         0.00000   0.00000   0.00000   0.00000   0.00000
  35       29PX         0.00002   0.00000  -0.00000   0.00000   0.00000
  36       29PY         0.00000   0.00000   0.00000  -0.00000   0.00000
  37       29PZ         0.00000   0.00001   0.00000   0.00000   0.00000
  38       30PX         0.00003   0.00000  -0.00001   0.00000   0.00000
  39       30PY         0.00000   0.00000   0.00000  -0.00001   0.00000
  40       30PZ         0.00000   0.00001   0.00000   0.00000   0.00001
  41       31PX         0.00025   0.00000  -0.00003   0.00000   0.00000
  42       31PY         0.00000   0.00000   0.00000  -0.00003   0.00000
  43       31PZ         0.00000   0.00008   0.00000   0.00000   0.00004
  44       32PX         0.00015   0.00000  -0.00005   0.00000   0.00000
  45       32PY         0.00000   0.00000   0.00000  -0.00005   0.00000
  46       32PZ         0.00000   0.00007   0.00000   0.00000   0.00006
  47       33PX         0.00141   0.00000  -0.00015   0.00000   0.00000
  48       33PY         0.00000   0.00000   0.00000  -0.00013   0.00000
  49       33PZ         0.00000   0.00047   0.00000   0.00000   0.00019
  50       34PX         0.01021   0.00000  -0.00165   0.00000   0.00000
  51       34PY         0.00000   0.00000   0.00000  -0.00166   0.00000
  52       34PZ         0.00000   0.00365   0.00000   0.00000   0.00210
  53       35PX        -0.06989   0.00000   0.01093   0.00000   0.00000
  54       35PY         0.00000   0.00000   0.00000   0.01086   0.00000
  55       35PZ         0.00000  -0.02509   0.00000   0.00000  -0.01398
  56       36PX        -0.03522   0.00000   0.00902   0.00000   0.00000
  57       36PY         0.00000   0.00000   0.00000   0.00958   0.00000
  58       36PZ         0.00000  -0.01625   0.00000   0.00000  -0.01623
  59       37PX         0.19124   0.00000  -0.02711   0.00000   0.00000
  60       37PY         0.00000   0.00000   0.00000  -0.02628   0.00000
  61       37PZ         0.00000   0.06828   0.00000   0.00000   0.03426
  62       38PX         0.42804   0.00000  -0.12431   0.00000   0.00000
  63       38PY         0.00000   0.00000   0.00000  -0.13311   0.00000
  64       38PZ         0.00000   0.20370   0.00000   0.00000   0.21354
  65       39PX         0.38322   0.00000  -0.07112   0.00000   0.00000
  66       39PY         0.00000   0.00000   0.00000  -0.07098   0.00000
  67       39PZ         0.00000   0.14560   0.00000   0.00000   0.08813
  68       40PX         0.15504   0.00000  -0.02541   0.00000   0.00000
  69       40PY         0.00000   0.00000   0.00000  -0.01981   0.00000
  70       40PZ         0.00000   0.06163   0.00000   0.00000   0.03906
  71       41PX         0.01455   0.00000  -0.00324   0.00000   0.00000
  72       41PY         0.00000   0.00000   0.00000  -0.00782   0.00000
  73       41PZ         0.00000   0.01027   0.00000   0.00000  -0.00910
  74       42PX        -0.00016   0.00000   0.00507   0.00000   0.00000
  75       42PY         0.00000   0.00000   0.00000  -0.01268   0.00000
  76       42PZ         0.00000   0.01013   0.00000   0.00000  -0.01819
  77       43PX         0.00045   0.00000  -0.00245   0.00000   0.00000
  78       43PY         0.00000   0.00000   0.00000  -0.00386   0.00000
  79       43PZ         0.00000   0.00003   0.00000   0.00000  -0.00367
  80       44PX        -0.00358   0.00000  -0.00467   0.00000   0.00000
  81       44PY         0.00000   0.00000   0.00000  -0.00547   0.00000
  82       44PZ         0.00000   0.00369   0.00000   0.00000   0.01083
  83       45PX        -0.02298   0.00000   0.06191   0.00000   0.00000
  84       45PY         0.00000   0.00000   0.00000   0.07145   0.00000
  85       45PZ         0.00000  -0.05396   0.00000   0.00000  -0.13376
  86       46PX        -0.00012   0.00000  -0.00018   0.00000   0.00000
  87       46PY         0.00000   0.00000   0.00000  -0.00040   0.00000
  88       46PZ         0.00000  -0.00014   0.00000   0.00000   0.00050
  89       47D 0        0.00000   0.00003   0.00000   0.00000   0.00009
  90       47D+1       -0.00000   0.00000  -0.00005   0.00000   0.00000
  91       47D-1        0.00000   0.00000   0.00000  -0.00005   0.00000
  92       47D+2        0.00000   0.00000   0.00000   0.00000   0.00000
  93       47D-2        0.00000   0.00000   0.00000   0.00000   0.00000
  94       48D 0        0.00000   0.00033   0.00000   0.00000   0.00087
  95       48D+1       -0.00003   0.00000  -0.00044   0.00000   0.00000
  96       48D-1        0.00000   0.00000   0.00000  -0.00050   0.00000
  97       48D+2        0.00000   0.00001   0.00000   0.00000   0.00003
  98       48D-2        0.00000   0.00000   0.00000   0.00000   0.00000
  99       49D 0        0.00000   0.00284   0.00000   0.00000   0.00757
 100       49D+1       -0.00026   0.00000  -0.00385   0.00000   0.00000
 101       49D-1        0.00000   0.00000   0.00000  -0.00438   0.00000
 102       49D+2        0.00000   0.00008   0.00000   0.00000   0.00025
 103       49D-2        0.00000   0.00000   0.00000   0.00000   0.00000
 104       50D 0        0.00000   0.01117   0.00000   0.00000   0.02985
 105       50D+1       -0.00097   0.00000  -0.01514   0.00000   0.00000
 106       50D-1        0.00000   0.00000   0.00000  -0.01721   0.00000
 107       50D+2        0.00000   0.00032   0.00000   0.00000   0.00099
 108       50D-2        0.00000   0.00000   0.00000   0.00000   0.00000
 109       51D 0        0.00000   0.02589   0.00000   0.00000   0.06886
 110       51D+1       -0.00258   0.00000  -0.03512   0.00000   0.00000
 111       51D-1        0.00000   0.00000   0.00000  -0.04001   0.00000
 112       51D+2        0.00000   0.00069   0.00000   0.00000   0.00221
 113       51D-2        0.00000   0.00000   0.00000   0.00000   0.00000
 114       52D 0        0.00000   0.04895   0.00000   0.00000   0.12522
 115       52D+1       -0.00763   0.00000  -0.06736   0.00000   0.00000
 116       52D-1        0.00000   0.00000   0.00000  -0.07758   0.00000
 117       52D+2        0.00000   0.00109   0.00000   0.00000   0.00356
 118       52D-2        0.00000   0.00000   0.00000   0.00000   0.00000
 119       53D 0        0.00000   0.06944   0.00000   0.00000   0.17920
 120       53D+1       -0.00816   0.00000  -0.09181   0.00000   0.00000
 121       53D-1        0.00000   0.00000   0.00000  -0.10584   0.00000
 122       53D+2        0.00000   0.00161   0.00000   0.00000   0.00512
 123       53D-2        0.00000   0.00000   0.00000   0.00000   0.00000
 124       54D 0        0.00000   0.06224   0.00000   0.00000   0.16689
 125       54D+1        0.00115   0.00000  -0.08738   0.00000   0.00000
 126       54D-1        0.00000   0.00000   0.00000  -0.10461   0.00000
 127       54D+2        0.00000   0.00127   0.00000   0.00000   0.00467
 128       54D-2        0.00000   0.00000   0.00000   0.00000   0.00000
 129       55D 0        0.00000   0.03502   0.00000   0.00000   0.12264
 130       55D+1        0.00504   0.00000  -0.05998   0.00000   0.00000
[...]
 167       62F+1        0.00039   0.00018   0.00020  -0.00002
 168       62F-1        0.00045   0.00023   0.00023   0.00000
 169       62F+2        0.00001   0.00001   0.00000   0.00001
 170       62F-2        0.00001   0.00001   0.00000   0.00001
 171       62F+3        0.00001   0.00000   0.00000   0.00000
 172       62F-3        0.00001   0.00000   0.00000   0.00000
 173       63F 0        0.00923   0.00462   0.00461   0.00001
 174       63F+1        0.00583   0.00301   0.00282   0.00019
 175       63F-1        0.00648   0.00324   0.00324   0.00000
 176       63F+2        0.00003   0.00003   0.00001   0.00002
 177       63F-2        0.00001   0.00001   0.00000   0.00001
 178       63F+3        0.00001   0.00000   0.00000  -0.00000
 179       63F-3        0.00001   0.00000   0.00000   0.00000
 180       64F 0        0.00268   0.00129   0.00139  -0.00011
 181       64F+1        0.01708   0.01047   0.00660   0.00387
 182       64F-1        0.01449   0.00725   0.00725   0.00000
 183       64F+2        0.00004   0.00004   0.00000   0.00004
 184       64F-2       -0.00000  -0.00000   0.00000  -0.00000
 185       64F+3        0.00000   0.00000   0.00000   0.00000
 186       64F-3        0.00000   0.00000   0.00000   0.00000
 187       65F 0       -0.00332  -0.00184  -0.00148  -0.00036
 188       65F+1       -0.00125  -0.00001  -0.00125   0.00124
 189       65F-1       -0.00262  -0.00131  -0.00131   0.00000
 190       65F+2        0.00002   0.00002   0.00000   0.00002
 191       65F-2        0.00001   0.00001   0.00000   0.00001
 192       65F+3        0.00000   0.00000   0.00000   0.00000
 193       65F-3        0.00000   0.00000   0.00000   0.00000
 194       66G 0        0.00001   0.00000   0.00000   0.00000
 195       66G+1        0.00000   0.00000   0.00000  -0.00000
 196       66G-1        0.00000   0.00000   0.00000   0.00000
 197       66G+2        0.00000   0.00000   0.00000   0.00000
 198       66G-2        0.00000   0.00000   0.00000   0.00000
 199       66G+3        0.00000   0.00000   0.00000   0.00000
 200       66G-3        0.00000   0.00000   0.00000   0.00000
 201       66G+4        0.00000   0.00000   0.00000   0.00000
 202       66G-4        0.00000   0.00000   0.00000   0.00000
 203       67G 0        0.00050   0.00025   0.00025   0.00001
 204       67G+1        0.00027   0.00013   0.00014  -0.00001
 205       67G-1        0.00027   0.00014   0.00014   0.00000
 206       67G+2        0.00000   0.00000   0.00000   0.00000
 207       67G-2        0.00000   0.00000   0.00000   0.00000
 208       67G+3        0.00000   0.00000   0.00000   0.00000
 209       67G-3        0.00000   0.00000   0.00000   0.00000
 210       67G+4        0.00000   0.00000   0.00000   0.00000
 211       67G-4        0.00000   0.00000   0.00000   0.00000
 212       68G 0        0.00184   0.00094   0.00091   0.00003
 213       68G+1        0.00297   0.00153   0.00143   0.00010
 214       68G-1        0.00284   0.00142   0.00142   0.00000
 215       68G+2        0.00000   0.00000   0.00000   0.00000
 216       68G-2       -0.00000  -0.00000   0.00000  -0.00000
 217       68G+3        0.00000   0.00000   0.00000   0.00000
 218       68G-3        0.00000   0.00000   0.00000   0.00000
 219       68G+4        0.00000   0.00000   0.00000   0.00000
 220       68G-4        0.00000   0.00000   0.00000   0.00000
 221       69G 0       -0.00036  -0.00016  -0.00020   0.00004
 222       69G+1        0.00249   0.00157   0.00092   0.00065
 223       69G-1        0.00167   0.00083   0.00083   0.00000
 224       69G+2       -0.00000  -0.00000   0.00000  -0.00000
 225       69G-2       -0.00001  -0.00001   0.00000  -0.00001
 226       69G+3        0.00000   0.00000   0.00000   0.00000
 227       69G-3        0.00000   0.00000   0.00000   0.00000
 228       69G+4        0.00000   0.00000   0.00000   0.00000
 229       69G-4        0.00000   0.00000   0.00000   0.00000
 230       70H 0        0.00000   0.00000   0.00000   0.00000
 231       70H+1        0.00000   0.00000   0.00000  -0.00000
 232       70H-1        0.00000   0.00000   0.00000   0.00000
 233       70H+2        0.00000   0.00000   0.00000   0.00000
 234       70H-2        0.00000   0.00000   0.00000   0.00000
 235       70H+3        0.00000   0.00000   0.00000  -0.00000
 236       70H-3        0.00000   0.00000   0.00000   0.00000
 237       70H+4       -0.00000  -0.00000   0.00000  -0.00000
 238       70H-4       -0.00000  -0.00000   0.00000  -0.00000
 239       70H+5        0.00000   0.00000   0.00000  -0.00000
 240       70H-5        0.00000   0.00000   0.00000   0.00000
 241       71H 0        0.00015   0.00007   0.00007  -0.00000
 242       71H+1        0.00014   0.00007   0.00008  -0.00001
 243       71H-1        0.00016   0.00008   0.00008   0.00000
 244       71H+2        0.00000   0.00000   0.00000   0.00000
 245       71H-2        0.00000   0.00000   0.00000   0.00000
 246       71H+3        0.00000   0.00000   0.00000   0.00000
 247       71H-3        0.00000   0.00000   0.00000   0.00000
 248       71H+4        0.00000   0.00000   0.00000   0.00000
 249       71H-4        0.00000   0.00000   0.00000   0.00000
 250       71H+5        0.00000   0.00000   0.00000   0.00000
 251       71H-5        0.00000   0.00000   0.00000   0.00000
 252       72H 0        0.00015   0.00007   0.00007   0.00000
 253       72H+1        0.00082   0.00040   0.00042  -0.00002
 254       72H-1        0.00087   0.00044   0.00044   0.00000
 255       72H+2        0.00000   0.00000  -0.00000   0.00000
 256       72H-2        0.00000   0.00000  -0.00000   0.00000
 257       72H+3        0.00000   0.00000   0.00000   0.00000
 258       72H-3        0.00000   0.00000   0.00000   0.00000
 259       72H+4        0.00000   0.00000   0.00000   0.00000
 260       72H-4        0.00000   0.00000   0.00000   0.00000
 261       72H+5        0.00000   0.00000   0.00000   0.00000
 262       72H-5        0.00000   0.00000   0.00000   0.00000
 263 2   O  1S          0.00000   0.00000   0.00000   0.00000
 264        2S          0.00000   0.00000   0.00000   0.00000
 265        3S          0.00000   0.00000   0.00000   0.00000
 266        4S          0.00001   0.00001   0.00001   0.00000
 267        5S          0.00008   0.00004   0.00004   0.00000
 268        6S         -0.00001  -0.00000  -0.00001   0.00000
 269        7S         -0.00393  -0.00196  -0.00196   0.00000
 270        8S         -0.09322  -0.04671  -0.04651  -0.00020
 271        9S         -0.08856  -0.04442  -0.04414  -0.00027
 272       10S          0.43013   0.21570   0.21443   0.00127
 273       11S          1.06247   0.53162   0.53085   0.00077
 274       12S          0.58385   0.29098   0.29287  -0.00190
 275       13S          0.07023   0.03519   0.03504   0.00014
 276       14S          0.00289   0.00144   0.00144   0.00000
 277       15S          0.00018   0.00009   0.00009  -0.00000
 278       16S          0.06970   0.02716   0.04255  -0.01539
 279       17PX        -0.00033  -0.00017  -0.00016  -0.00001
 280       17PY        -0.00030  -0.00015  -0.00015   0.00000
 281       17PZ        -0.00032  -0.00016  -0.00016  -0.00000
 282       18PX        -0.13547  -0.07059  -0.06487  -0.00572
 283       18PY        -0.12152  -0.06076  -0.06076   0.00000
 284       18PZ        -0.13150  -0.06622  -0.06528  -0.00095
 285       19PX         0.14698   0.07736   0.06962   0.00774
 286       19PY         0.13028   0.06514   0.06514   0.00000
 287       19PZ         0.13310   0.06709   0.06601   0.00109
 288       20PX         0.49947   0.26071   0.23876   0.02194
 289       20PY         0.45074   0.22537   0.22537   0.00000
 290       20PZ         0.46137   0.23238   0.22899   0.00339
 291       21PX         0.71670   0.37159   0.34510   0.02649
 292       21PY         0.66130   0.33065   0.33065   0.00000
 293       21PZ         0.51622   0.26221   0.25402   0.00819
 294       22PX         0.39863   0.21755   0.18108   0.03646
 295       22PY         0.33973   0.16986   0.16986   0.00000
 296       22PZ         0.16735   0.09593   0.07142   0.02451
 297       23PX         0.15557   0.08117   0.07440   0.00677
 298       23PY         0.13933   0.06966   0.06966   0.00000
 299       23PZ         0.14995   0.07552   0.07443   0.00110
 300       24PX         0.00173   0.00091   0.00082   0.00009
 301       24PY         0.00153   0.00077   0.00077   0.00000
 302       24PZ         0.00160   0.00081   0.00080   0.00001
 303       25PX         0.00009   0.00005   0.00005   0.00000
 304       25PY         0.00008   0.00004   0.00004   0.00000
 305       25PZ         0.00009   0.00004   0.00004   0.00000
 306       26PX         0.03714   0.02440   0.01273   0.01167
 307       26PY         0.01954   0.00977   0.00977   0.00000
 308       26PZ         0.01634   0.01321   0.00312   0.01009
 309       27D 0        0.00057   0.00030   0.00027   0.00002
 310       27D+1        0.00027   0.00018   0.00009   0.00010
 311       27D-1        0.00025   0.00012   0.00012   0.00000
 312       27D+2        0.00001   0.00001   0.00000   0.00001
 313       27D-2        0.00001   0.00001   0.00000   0.00001
 314       28D 0        0.00783   0.00407   0.00375   0.00032
 315       28D+1        0.00498   0.00328   0.00170   0.00158
 316       28D-1        0.00460   0.00230   0.00230   0.00000
 317       28D+2        0.00034   0.00034   0.00000   0.00033
 318       28D-2        0.00033   0.00033   0.00000   0.00033
 319       29D 0        0.00381   0.00227   0.00154   0.00074
 320       29D+1        0.01015   0.00596   0.00419   0.00178
 321       29D-1        0.01219   0.00610   0.00610   0.00000
 322       29D+2        0.00147   0.00147   0.00000   0.00147
 323       29D-2        0.00146   0.00146   0.00000   0.00146
 324       30D 0        0.00001   0.00000   0.00000   0.00000
 325       30D+1        0.00001   0.00000   0.00000   0.00000
 326       30D-1        0.00001   0.00000   0.00000   0.00000
 327       30D+2        0.00000   0.00000   0.00000   0.00000
 328       30D-2        0.00000   0.00000   0.00000   0.00000
 329       31D 0        0.00000   0.00000   0.00000   0.00000
 330       31D+1       -0.00000  -0.00000  -0.00000   0.00000
 331       31D-1       -0.00000  -0.00000  -0.00000   0.00000
 332       31D+2       -0.00000  -0.00000  -0.00000  -0.00000
 333       31D-2       -0.00000  -0.00000  -0.00000  -0.00000
 334       32D 0       -0.00123  -0.00059  -0.00064   0.00005
 335       32D+1        0.00136   0.00073   0.00063   0.00010
 336       32D-1        0.00188   0.00094   0.00094   0.00000
 337       32D+2        0.00035   0.00035   0.00000   0.00035
 338       32D-2        0.00034   0.00034   0.00000   0.00034
 339       33F 0        0.00034   0.00018   0.00017   0.00001
 340       33F+1        0.00019   0.00014   0.00006   0.00008
 341       33F-1        0.00013   0.00006   0.00006   0.00000
 342       33F+2        0.00002   0.00002   0.00000   0.00002
 343       33F-2        0.00002   0.00002   0.00000   0.00002
 344       33F+3        0.00000   0.00000   0.00000   0.00000
 345       33F-3        0.00000   0.00000   0.00000   0.00000
 346       34F 0        0.00277   0.00151   0.00126   0.00025
 347       34F+1        0.00230   0.00150   0.00080   0.00070
 348       34F-1        0.00199   0.00100   0.00100   0.00000
 349       34F+2        0.00046   0.00046   0.00000   0.00046
 350       34F-2        0.00046   0.00046   0.00000   0.00046
 351       34F+3        0.00000   0.00000   0.00000   0.00000
 352       34F-3        0.00000   0.00000   0.00000   0.00000
 353       35F 0        0.00000   0.00000   0.00000   0.00000
 354       35F+1        0.00000   0.00000   0.00000   0.00000
 355       35F-1        0.00000   0.00000   0.00000   0.00000
 356       35F+2        0.00000   0.00000   0.00000   0.00000
 357       35F-2        0.00000   0.00000   0.00000   0.00000
 358       35F+3        0.00000   0.00000   0.00000   0.00000
 359       35F-3        0.00000   0.00000   0.00000   0.00000
 360       36F 0        0.00013   0.00021  -0.00008   0.00029
 361       36F+1       -0.00029  -0.00014  -0.00014  -0.00000
 362       36F-1       -0.00027  -0.00013  -0.00013   0.00000
 363       36F+2        0.00017   0.00017  -0.00000   0.00017
 364       36F-2        0.00016   0.00016  -0.00000   0.00016
 365       36F+3        0.00000   0.00000   0.00000   0.00000
 366       36F-3        0.00000   0.00000   0.00000   0.00000
 367       37G 0        0.00027   0.00014   0.00013   0.00001
 368       37G+1        0.00021   0.00015   0.00006   0.00009
 369       37G-1        0.00013   0.00006   0.00006   0.00000
 370       37G+2        0.00003   0.00003   0.00000   0.00003
 371       37G-2        0.00003   0.00003   0.00000   0.00003
 372       37G+3        0.00000   0.00000   0.00000  -0.00000
 373       37G-3        0.00000   0.00000   0.00000   0.00000
 374       37G+4        0.00000   0.00000   0.00000   0.00000
 375       37G-4        0.00000   0.00000   0.00000   0.00000
 376       38G 0        0.00034   0.00020   0.00013   0.00007
 377       38G+1        0.00025   0.00016   0.00009   0.00007
 378       38G-1        0.00025   0.00013   0.00013   0.00000
 379       38G+2        0.00010   0.00010  -0.00000   0.00010
 380       38G-2        0.00010   0.00010  -0.00000   0.00010
 381       38G+3        0.00000   0.00000   0.00000  -0.00000
 382       38G-3        0.00000   0.00000   0.00000   0.00000
 383       38G+4        0.00000   0.00000   0.00000   0.00000
 384       38G-4        0.00000   0.00000   0.00000   0.00000
          Condensed to atoms (all electrons):
               1          2
     1  Cr  13.159588  -0.010136
     2  O   -0.010136   6.860684
          Atomic-Atomic Spin Densities.
               1          2
     1  Cr   3.881979  -0.031349
     2  O   -0.031349   0.180720
 Mulliken charges and spin densities:
               1          2
     1  Cr   0.850548   3.850630
     2  O   -0.850548   0.149370
 Sum of Mulliken charges =  -0.00000   4.00000
 Mulliken charges and spin densities with hydrogens summed into heavy atoms:
               1          2
     1  Cr   0.850548   3.850630
     2  O   -0.850548   0.149370
 Electronic spatial extent (au):  <R**2>=             73.5557
 Charge=             -0.0000 electrons
 Dipole moment (field-independent basis, Debye):
    X=              0.0000    Y=              0.0000    Z=              1.8306  Tot=              1.8306
 Quadrupole moment (field-independent basis, Debye-Ang):
   XX=            -21.3177   YY=            -19.6678   ZZ=            -23.4504
   XY=              0.0000   XZ=              0.0000   YZ=              0.0000
 Traceless Quadrupole moment (field-independent basis, Debye-Ang):
   XX=              0.1610   YY=              1.8108   ZZ=             -1.9717
   XY=              0.0000   XZ=              0.0000   YZ=              0.0000
 Octapole moment (field-independent basis, Debye-Ang**2):
  XXX=              0.0000  YYY=              0.0000  ZZZ=             -2.0735  XYY=              0.0000
  XXY=              0.0000  XXZ=             -1.9565  XZZ=              0.0000  YZZ=              0.0000
  YYZ=             -1.1948  XYZ=              0.0000
 Hexadecapole moment (field-independent basis, Debye-Ang**3):
 XXXX=            -36.3971 YYYY=            -30.6645 ZZZZ=            -83.9862 XXXY=              0.0000
 XXXZ=              0.0000 YYYX=              0.0000 YYYZ=              0.0000 ZZZX=              0.0000
 ZZZY=              0.0000 XXYY=            -11.1743 XXZZ=            -21.2190 YYZZ=            -18.9416
 XXYZ=              0.0000 YYXZ=              0.0000 ZZXY=              0.0000
 N-N= 3.419298901329D+01 E-N=-3.017443616913D+02  KE= 5.819859398525D+01
 Symmetry A1   KE= 2.544896721470D+01
 Symmetry A2   KE= 5.439220114487D+00
 Symmetry B1   KE= 1.610626312350D+01
 Symmetry B2   KE= 1.120414353152D+01
 Symmetry A1   SP= 2.000000000000D+00
 Symmetry A2   SP= 1.000000000000D+00
 Symmetry B1   SP= 1.000000000000D+00
 Symmetry B2   SP= 0.000000000000D+00
 Orbital energies and kinetic energies (alpha):
                                 1                 2
   4         O                -2.406920          3.094345
   5         O                -1.240819          1.488989
   6         O                -0.688531          2.465312
   7         O                -0.595996          2.502176
   8         O                -0.593948          3.543856
   9         O                -0.516351          1.095633
  10         O                -0.512183          5.439220
  11         O                -0.356203          4.937787
  12         O                -0.272530          4.986948
  13         V                 0.013208          0.081917
  14         V                 0.019346          0.052393
  15         V                 0.022766          0.068190
  16         V                 0.026495          0.035744
  17         V                 0.047947          0.069411
 Total kinetic energy from orbitals= 7.465818267180D+01
                          Isotropic Fermi Contact Couplings
        Atom                 a.u.       MegaHertz       Gauss      10(-4) cm-1
     1  Cr(53)             0.00136      -0.08597      -0.03068      -0.02868
     2  O(17)              0.00153      -0.23261      -0.08300      -0.07759
 --------------------------------------------------------
       Center         ----  Spin Dipole Couplings  ----
                      3XX-RR        3YY-RR        3ZZ-RR
 --------------------------------------------------------
     1   Atom        2.460103      0.145807     -2.605911
     2   Atom        0.166921     -0.321815      0.154895
 --------------------------------------------------------
                        XY            XZ            YZ
 --------------------------------------------------------
     1   Atom        0.000000      0.000000      0.000000
     2   Atom        0.000000      0.000000      0.000000
 --------------------------------------------------------


 ---------------------------------------------------------------------------------
              Anisotropic Spin Dipole Couplings in Principal Axis System
 ---------------------------------------------------------------------------------

       Atom             a.u.   MegaHertz   Gauss  10(-4) cm-1        Axes

              Baa    -2.6059    78.748    28.099    26.268  0.0000  0.0000  1.0000
     1 Cr(53) Bbb     0.1458    -4.406    -1.572    -1.470 -0.0000  1.0000  0.0000
              Bcc     2.4601   -74.342   -26.527   -24.798  1.0000  0.0000  0.0000
 
              Baa    -0.3218    23.286     8.309     7.767 -0.0000  1.0000  0.0000
     2 O(17)  Bbb     0.1549   -11.208    -3.999    -3.739  0.0000  0.0000  1.0000
              Bcc     0.1669   -12.078    -4.310    -4.029  1.0000  0.0000  0.0000
 

 ---------------------------------------------------------------------------------

 No NMR shielding tensors so no spin-rotation constants.
 Leave Link  601 at Tue Mar 13 04:22:39 2018, MaxMem= 10737418240 cpu:             114.0 elap:               7.4
 (Enter /home1/apps/gaussian/16rA.03/g16/l9999.exe)
 1\1\GINC-C438-114\SP\ROCCSD(T)-Full\Gen\Cr1O1(5)\AANNABE\13-Mar-2018\0
 \\#P ROCCSD(T)=(maxcyc=150, Full, SaveAmplitudes, ReadAmplitudes)/Gen 
 5d 7f SCF=(maxcycles=300) Integral(NoXCTest) MaxDisk=500GB Pop=Regular
  Pseudo=Read Guess=Read\\CrO\\0,5\Cr,0,0.,0.,0.\O,0,0.,0.,1.3\\Version
 =ES64L-G16RevA.03\HF=-101.9098832\MP2=-102.8405727\PUHF=-101.9098832\P
 MP2-0=-102.8405727\CCSD=-102.8048663\CCSD(T)=-102.8493664\RMSD=8.947e-
 09\PG=C*V [C*(O1Cr1)]\\@


 DON'T WORRY CHARLIE BROWN...WE LEARN MORE FROM LOSING 
 THAN WE DO FROM WINNING.
 THEN THAT MAKES ME THE SMARTEST PERSON IN THE WORLD...
 CHARLES SCHULZ 'PEANUTS'
 Job cpu time:       1 days  0 hours 57 minutes 17.8 seconds.
 Elapsed time:       0 days  1 hours 34 minutes  1.1 seconds.
 File lengths (MBytes):  RWF=  14979 Int=      0 D2E=      0 Chk=     74 Scr=      1
 Normal termination of Gaussian 16 at Tue Mar 13 04:22:40 2018.
