 Entering Gaussian System, Link 0=g16
 Initial command:
 /home1/apps/gaussian/16rA.03/g16/l1.exe "/tmp/Gau-111976.inp" -scrdir="/tmp/"
 Entering Link 1 = /home1/apps/gaussian/16rA.03/g16/l1.exe PID=    111977.
  
 Copyright (c) 1988,1990,1992,1993,1995,1998,2003,2009,2016,
            Gaussian, Inc.  All Rights Reserved.
  
 This is part of the Gaussian(R) 16 program.  It is based on
 the Gaussian(R) 09 system (copyright 2009, Gaussian, Inc.),
 the Gaussian(R) 03 system (copyright 2003, Gaussian, Inc.),
 the Gaussian(R) 98 system (copyright 1998, Gaussian, Inc.),
 the Gaussian(R) 94 system (copyright 1995, Gaussian, Inc.),
 the Gaussian 92(TM) system (copyright 1992, Gaussian, Inc.),
 the Gaussian 90(TM) system (copyright 1990, Gaussian, Inc.),
 the Gaussian 88(TM) system (copyright 1988, Gaussian, Inc.),
 the Gaussian 86(TM) system (copyright 1986, Carnegie Mellon
 University), and the Gaussian 82(TM) system (copyright 1983,
 Carnegie Mellon University). Gaussian is a federally registered
 trademark of Gaussian, Inc.
  
 This software contains proprietary and confidential information,
 including trade secrets, belonging to Gaussian, Inc.
  
 This software is provided under written license and may be
 used, copied, transmitted, or stored only in accord with that
 written license.
  
 The following legend is applicable only to US Government
 contracts under FAR:
  
                    RESTRICTED RIGHTS LEGEND
  
 Use, reproduction and disclosure by the US Government is
 subject to restrictions as set forth in subparagraphs (a)
 and (c) of the Commercial Computer Software - Restricted
 Rights clause in FAR 52.227-19.
  
 Gaussian, Inc.
 340 Quinnipiac St., Bldg. 40, Wallingford CT 06492
  
  
 ---------------------------------------------------------------
 Warning -- This program may not be used in any manner that
 competes with the business of Gaussian, Inc. or will provide
 assistance to any competitor of Gaussian, Inc.  The licensee
 of this program is prohibited from giving any competitor of
 Gaussian, Inc. access to this program.  By using this program,
 the user acknowledges that Gaussian, Inc. is engaged in the
 business of creating and licensing software in the field of
 computational chemistry and represents and warrants to the
 licensee that it is not a competitor of Gaussian, Inc. and that
 it will not use this program in any manner prohibited above.
 ---------------------------------------------------------------
  

 Cite this work as:
 Gaussian 16, Revision A.03,
 M. J. Frisch, G. W. Trucks, H. B. Schlegel, G. E. Scuseria, 
 M. A. Robb, J. R. Cheeseman, G. Scalmani, V. Barone, 
 G. A. Petersson, H. Nakatsuji, X. Li, M. Caricato, A. V. Marenich, 
 J. Bloino, B. G. Janesko, R. Gomperts, B. Mennucci, H. P. Hratchian, 
 J. V. Ortiz, A. F. Izmaylov, J. L. Sonnenberg, D. Williams-Young, 
 F. Ding, F. Lipparini, F. Egidi, J. Goings, B. Peng, A. Petrone, 
 T. Henderson, D. Ranasinghe, V. G. Zakrzewski, J. Gao, N. Rega, 
 G. Zheng, W. Liang, M. Hada, M. Ehara, K. Toyota, R. Fukuda, 
 J. Hasegawa, M. Ishida, T. Nakajima, Y. Honda, O. Kitao, H. Nakai, 
 T. Vreven, K. Throssell, J. A. Montgomery, Jr., J. E. Peralta, 
 F. Ogliaro, M. J. Bearpark, J. J. Heyd, E. N. Brothers, K. N. Kudin, 
 V. N. Staroverov, T. A. Keith, R. Kobayashi, J. Normand, 
 K. Raghavachari, A. P. Rendell, J. C. Burant, S. S. Iyengar, 
 J. Tomasi, M. Cossi, J. M. Millam, M. Klene, C. Adamo, R. Cammi, 
 J. W. Ochterski, R. L. Martin, K. Morokuma, O. Farkas, 
 J. B. Foresman, and D. J. Fox, Gaussian, Inc., Wallingford CT, 2016.
 
 ******************************************
 Gaussian 16:  ES64L-G16RevA.03 25-Dec-2016
                31-Mar-2018 
 ******************************************
 %mem=80GB
 %cpu=0-31
 SetSPE:  set environment variable "MP_BIND" = "yes"
 SetSPE:  set environment variable "MP_BLIST" = "0,1,2,3,4,5,6,7,8,9,10,11,12,13,14,15,16,17,18,19,20,21,22,23,24,25,26,27,28,29,30,31"
 Will use up to   32 processors via shared memory.
 %chk=qz.chk
 %rwf=/scratch/04843/gwang18/coo/
 ----------------------------------------------------------------------
 #P ROCCSD(T)=(MaxCyc=150, Full)/Gen SCF=(maxcycle=400) Pseudo=Read Int
 egral(NoXCTest) Pop=Regular MaxDisk=500GB Guess=Read IOp(5/15=2)
 ----------------------------------------------------------------------
 1/38=1,172=1/1;
 2/12=2,17=6,18=5,40=1/2;
 3/5=7,11=2,16=1,17=8,25=1,30=1,47=8,116=101/1,2,3;
 4/5=1/1;
 5/5=2,7=400,15=2,38=6/2;
 8/5=-1,6=4,9=120000,10=90/1,4;
 9/5=7,6=150,14=2/13;
 6//1;
 99/5=1,9=1/99;
 Leave Link    1 at Sat Mar 31 14:43:01 2018, MaxMem= 10737418240 cpu:               6.5 elap:               0.2
 (Enter /home1/apps/gaussian/16rA.03/g16/l101.exe)
 ---
 CoO
 ---
 Symbolic Z-matrix:
 Charge =  0 Multiplicity = 4
 Co                    0.        0.        0. 
 O                     0.        0.        1.7 
 
 ITRead=  0  0
 MicOpt= -1 -1
 NAtoms=      2 NQM=        2 NQMF=       0 NMMI=      0 NMMIF=      0
                NMic=       0 NMicF=      0.
                    Isotopes and Nuclear Properties:
 (Nuclear quadrupole moments (NQMom) in fm**2, nuclear magnetic moments (NMagM)
  in nuclear magnetons)

  Atom         1           2
 IAtWgt=          59          16
 AtmWgt=  58.9331978  15.9949146
 NucSpn=           7           0
 AtZEff=  -0.0000000  -0.0000000
 NQMom=   42.0000000   0.0000000
 NMagM=    4.6270000   0.0000000
 AtZNuc=  27.0000000   8.0000000
 Leave Link  101 at Sat Mar 31 14:43:01 2018, MaxMem= 10737418240 cpu:               3.1 elap:               0.1
 (Enter /home1/apps/gaussian/16rA.03/g16/l202.exe)
                          Input orientation:                          
 ---------------------------------------------------------------------
 Center     Atomic      Atomic             Coordinates (Angstroms)
 Number     Number       Type             X           Y           Z
 ---------------------------------------------------------------------
      1         27           0        0.000000    0.000000    0.000000
      2          8           0        0.000000    0.000000    1.700000
 ---------------------------------------------------------------------
 Stoichiometry    CoO(4)
 Framework group  C*V[C*(OCo)]
 Deg. of freedom     1
 Full point group                 C*V     NOp   4
 Largest Abelian subgroup         C2V     NOp   4
 Largest concise Abelian subgroup C1      NOp   1
                         Standard orientation:                         
 ---------------------------------------------------------------------
 Center     Atomic      Atomic             Coordinates (Angstroms)
 Number     Number       Type             X           Y           Z
 ---------------------------------------------------------------------
      1         27           0        0.000000    0.000000    0.388571
      2          8           0        0.000000    0.000000   -1.311429
 ---------------------------------------------------------------------
 Rotational constants (GHZ):           0.0000000          13.9002373          13.9002373
 Leave Link  202 at Sat Mar 31 14:43:01 2018, MaxMem= 10737418240 cpu:               0.8 elap:               0.1
 (Enter /home1/apps/gaussian/16rA.03/g16/l301.exe)
 General basis read from cards:  (5D, 7F)
 Centers:       1
 S 1 1.00
     Exponent=  1.4370220000D+07 Coefficients=  1.0000000000D+00
 S 1 1.00
     Exponent=  2.1515400000D+06 Coefficients=  1.0000000000D+00
 S 1 1.00
     Exponent=  4.8962570000D+05 Coefficients=  1.0000000000D+00
 S 1 1.00
     Exponent=  1.3869030000D+05 Coefficients=  1.0000000000D+00
 S 1 1.00
     Exponent=  4.5249890000D+04 Coefficients=  1.0000000000D+00
 S 1 1.00
     Exponent=  1.6337620000D+04 Coefficients=  1.0000000000D+00
 S 1 1.00
     Exponent=  6.3730730000D+03 Coefficients=  1.0000000000D+00
 S 1 1.00
     Exponent=  2.6439580000D+03 Coefficients=  1.0000000000D+00
 S 1 1.00
     Exponent=  1.1536140000D+03 Coefficients=  1.0000000000D+00
 S 1 1.00
     Exponent=  5.2486060000D+02 Coefficients=  1.0000000000D+00
 S 1 1.00
     Exponent=  2.4730690000D+02 Coefficients=  1.0000000000D+00
 S 1 1.00
     Exponent=  1.1990630000D+02 Coefficients=  1.0000000000D+00
 S 1 1.00
     Exponent=  5.8964290000D+01 Coefficients=  1.0000000000D+00
 S 1 1.00
     Exponent=  2.7136160000D+01 Coefficients=  1.0000000000D+00
 S 1 1.00
     Exponent=  1.3689120000D+01 Coefficients=  1.0000000000D+00
 S 1 1.00
     Exponent=  6.8827710000D+00 Coefficients=  1.0000000000D+00
 S 1 1.00
     Exponent=  3.1446470000D+00 Coefficients=  1.0000000000D+00
 S 1 1.00
     Exponent=  1.5062660000D+00 Coefficients=  1.0000000000D+00
 S 1 1.00
     Exponent=  6.8726800000D-01 Coefficients=  1.0000000000D+00
 S 1 1.00
     Exponent=  1.6097200000D-01 Coefficients=  1.0000000000D+00
 S 1 1.00
     Exponent=  7.3017000000D-02 Coefficients=  1.0000000000D+00
 S 1 1.00
     Exponent=  3.2071000000D-02 Coefficients=  1.0000000000D+00
 S 1 1.00
     Exponent=  6.2451000000D+00 Coefficients=  1.0000000000D+00
 S 1 1.00
     Exponent=  1.7752000000D+00 Coefficients=  1.0000000000D+00
 S 1 1.00
     Exponent=  1.4090000000D-02 Coefficients=  1.0000000000D+00
 P 1 1.00
     Exponent=  4.1961400000D+04 Coefficients=  1.0000000000D+00
 P 1 1.00
     Exponent=  9.9283060000D+03 Coefficients=  1.0000000000D+00
 P 1 1.00
     Exponent=  3.2249710000D+03 Coefficients=  1.0000000000D+00
 P 1 1.00
     Exponent=  1.2352930000D+03 Coefficients=  1.0000000000D+00
 P 1 1.00
     Exponent=  5.2584690000D+02 Coefficients=  1.0000000000D+00
 P 1 1.00
     Exponent=  2.4097620000D+02 Coefficients=  1.0000000000D+00
 P 1 1.00
     Exponent=  1.1664180000D+02 Coefficients=  1.0000000000D+00
 P 1 1.00
     Exponent=  5.8848340000D+01 Coefficients=  1.0000000000D+00
 P 1 1.00
     Exponent=  3.0529100000D+01 Coefficients=  1.0000000000D+00
 P 1 1.00
     Exponent=  1.6169430000D+01 Coefficients=  1.0000000000D+00
 P 1 1.00
     Exponent=  8.6642360000D+00 Coefficients=  1.0000000000D+00
 P 1 1.00
     Exponent=  4.5919430000D+00 Coefficients=  1.0000000000D+00
 P 1 1.00
     Exponent=  2.3810480000D+00 Coefficients=  1.0000000000D+00
 P 1 1.00
     Exponent=  1.2062460000D+00 Coefficients=  1.0000000000D+00
 P 1 1.00
     Exponent=  5.8882200000D-01 Coefficients=  1.0000000000D+00
 P 1 1.00
     Exponent=  2.2489300000D-01 Coefficients=  1.0000000000D+00
 P 1 1.00
     Exponent=  9.0448000000D-02 Coefficients=  1.0000000000D+00
 P 1 1.00
     Exponent=  3.5820000000D-02 Coefficients=  1.0000000000D+00
 P 1 1.00
     Exponent=  9.4150000000D+00 Coefficients=  1.0000000000D+00
 P 1 1.00
     Exponent=  2.5758000000D+00 Coefficients=  1.0000000000D+00
 P 1 1.00
     Exponent=  1.4190000000D-02 Coefficients=  1.0000000000D+00
 D 1 1.00
     Exponent=  3.7156600000D+02 Coefficients=  1.0000000000D+00
 D 1 1.00
     Exponent=  1.1011500000D+02 Coefficients=  1.0000000000D+00
 D 1 1.00
     Exponent=  4.2425500000D+01 Coefficients=  1.0000000000D+00
 D 1 1.00
     Exponent=  1.8336900000D+01 Coefficients=  1.0000000000D+00
 D 1 1.00
     Exponent=  8.4573000000D+00 Coefficients=  1.0000000000D+00
 D 1 1.00
     Exponent=  4.0417900000D+00 Coefficients=  1.0000000000D+00
 D 1 1.00
     Exponent=  1.9260300000D+00 Coefficients=  1.0000000000D+00
 D 1 1.00
     Exponent=  8.9428100000D-01 Coefficients=  1.0000000000D+00
 D 1 1.00
     Exponent=  3.9798800000D-01 Coefficients=  1.0000000000D+00
 D 1 1.00
     Exponent=  1.6650000000D-01 Coefficients=  1.0000000000D+00
 D 1 1.00
     Exponent=  6.3025000000D-02 Coefficients=  1.0000000000D+00
 D 1 1.00
     Exponent=  6.2748000000D+00 Coefficients=  1.0000000000D+00
 D 1 1.00
     Exponent=  3.3097000000D+00 Coefficients=  1.0000000000D+00
 D 1 1.00
     Exponent=  2.3860000000D-02 Coefficients=  1.0000000000D+00
 F 1 1.00
     Exponent=  8.9724000000D+00 Coefficients=  1.0000000000D+00
 F 1 1.00
     Exponent=  3.7773000000D+00 Coefficients=  1.0000000000D+00
 F 1 1.00
     Exponent=  1.5902000000D+00 Coefficients=  1.0000000000D+00
 F 1 1.00
     Exponent=  5.3630000000D-01 Coefficients=  1.0000000000D+00
 F 1 1.00
     Exponent=  1.8087000000D-01 Coefficients=  1.0000000000D+00
 G 1 1.00
     Exponent=  7.3377000000D+00 Coefficients=  1.0000000000D+00
 G 1 1.00
     Exponent=  3.2254000000D+00 Coefficients=  1.0000000000D+00
 G 1 1.00
     Exponent=  1.2510000000D+00 Coefficients=  1.0000000000D+00
 G 1 1.00
     Exponent=  4.8521000000D-01 Coefficients=  1.0000000000D+00
 H 1 1.00
     Exponent=  6.7172000000D+00 Coefficients=  1.0000000000D+00
 H 1 1.00
     Exponent=  2.7485000000D+00 Coefficients=  1.0000000000D+00
 H 1 1.00
     Exponent=  1.1246100000D+00 Coefficients=  1.0000000000D+00
 ****
 Centers:       2
 S 1 1.00
     Exponent=  6.1420000000D+04 Coefficients=  1.0000000000D+00
 S 1 1.00
     Exponent=  9.1990000000D+03 Coefficients=  1.0000000000D+00
 S 1 1.00
     Exponent=  2.0910000000D+03 Coefficients=  1.0000000000D+00
 S 1 1.00
     Exponent=  5.9090000000D+02 Coefficients=  1.0000000000D+00
 S 1 1.00
     Exponent=  1.9230000000D+02 Coefficients=  1.0000000000D+00
 S 1 1.00
     Exponent=  6.9320000000D+01 Coefficients=  1.0000000000D+00
 S 1 1.00
     Exponent=  2.6970000000D+01 Coefficients=  1.0000000000D+00
 S 1 1.00
     Exponent=  1.1100000000D+01 Coefficients=  1.0000000000D+00
 S 1 1.00
     Exponent=  4.6820000000D+00 Coefficients=  1.0000000000D+00
 S 1 1.00
     Exponent=  1.4280000000D+00 Coefficients=  1.0000000000D+00
 S 1 1.00
     Exponent=  5.5470000000D-01 Coefficients=  1.0000000000D+00
 S 1 1.00
     Exponent=  2.0670000000D-01 Coefficients=  1.0000000000D+00
 S 1 1.00
     Exponent=  1.2974000000D+01 Coefficients=  1.0000000000D+00
 S 1 1.00
     Exponent=  3.4900000000D+01 Coefficients=  1.0000000000D+00
 S 1 1.00
     Exponent=  9.3881000000D+01 Coefficients=  1.0000000000D+00
 S 1 1.00
     Exponent=  6.9590000000D-02 Coefficients=  1.0000000000D+00
 P 1 1.00
     Exponent=  6.3420000000D+01 Coefficients=  1.0000000000D+00
 P 1 1.00
     Exponent=  1.4660000000D+01 Coefficients=  1.0000000000D+00
 P 1 1.00
     Exponent=  4.4590000000D+00 Coefficients=  1.0000000000D+00
 P 1 1.00
     Exponent=  1.5310000000D+00 Coefficients=  1.0000000000D+00
 P 1 1.00
     Exponent=  5.3020000000D-01 Coefficients=  1.0000000000D+00
 P 1 1.00
     Exponent=  1.7500000000D-01 Coefficients=  1.0000000000D+00
 P 1 1.00
     Exponent=  1.4475000000D+01 Coefficients=  1.0000000000D+00
 P 1 1.00
     Exponent=  4.2730000000D+01 Coefficients=  1.0000000000D+00
 P 1 1.00
     Exponent=  1.2614000000D+02 Coefficients=  1.0000000000D+00
 P 1 1.00
     Exponent=  5.3480000000D-02 Coefficients=  1.0000000000D+00
 D 1 1.00
     Exponent=  3.7750000000D+00 Coefficients=  1.0000000000D+00
 D 1 1.00
     Exponent=  1.3000000000D+00 Coefficients=  1.0000000000D+00
 D 1 1.00
     Exponent=  4.4400000000D-01 Coefficients=  1.0000000000D+00
 D 1 1.00
     Exponent=  1.4927000000D+01 Coefficients=  1.0000000000D+00
 D 1 1.00
     Exponent=  5.7544000000D+01 Coefficients=  1.0000000000D+00
 D 1 1.00
     Exponent=  1.5400000000D-01 Coefficients=  1.0000000000D+00
 F 1 1.00
     Exponent=  2.6660000000D+00 Coefficients=  1.0000000000D+00
 F 1 1.00
     Exponent=  8.5900000000D-01 Coefficients=  1.0000000000D+00
 F 1 1.00
     Exponent=  2.6483000000D+01 Coefficients=  1.0000000000D+00
 F 1 1.00
     Exponent=  3.2400000000D-01 Coefficients=  1.0000000000D+00
 G 1 1.00
     Exponent=  1.8460000000D+00 Coefficients=  1.0000000000D+00
 G 1 1.00
     Exponent=  7.1400000000D-01 Coefficients=  1.0000000000D+00
 ****
 ======================================================================================================
                                       Pseudopotential Parameters
 ======================================================================================================
  Center     Atomic      Valence      Angular      Power
  Number     Number     Electrons     Momentum     of R      Exponent        Coefficient   SO-Coeffient
 ======================================================================================================
    1         27           17
                                      D and up 
                                                     1        4.1881932       17.00000000    0.00000000
                                                     3        4.4296881       71.19928469    0.00000000
                                                     2        4.3980067      -77.65278252    0.00000000
                                      S - D
                                                     2       10.8607544      113.90484511    0.00000000
                                      P - D
                                                     2        9.0520277       56.10698766    0.00000000
    2          8            6
                                      P and up 
                                                     1        9.2979390        6.00000000    0.00000000
                                                     3        8.8649220       55.78763416    0.00000000
                                                     2        8.6292567      -38.81978498    0.00000000
                                      S - P
                                                     2        8.7192445       38.41914135    0.00000000
 ======================================================================================================
 Ernie: Thresh=  0.10000D-02 Tol=  0.10000D-05 Strict=F.
 There are   213 symmetry adapted cartesian basis functions of A1  symmetry.
 There are    56 symmetry adapted cartesian basis functions of A2  symmetry.
 There are   114 symmetry adapted cartesian basis functions of B1  symmetry.
 There are   114 symmetry adapted cartesian basis functions of B2  symmetry.
 There are   157 symmetry adapted basis functions of A1  symmetry.
 There are    47 symmetry adapted basis functions of A2  symmetry.
 There are    90 symmetry adapted basis functions of B1  symmetry.
 There are    90 symmetry adapted basis functions of B2  symmetry.
   384 basis functions,   497 primitive gaussians,   497 cartesian basis functions
    13 alpha electrons       10 beta electrons
       nuclear repulsion energy        31.7506326552 Hartrees.
 IExCor=    0 DFT=F Ex=HF Corr=None ExCW=0 ScaHFX=  1.000000
 ScaDFX=  1.000000  1.000000  1.000000  1.000000 ScalE2=  1.000000  1.000000
 IRadAn=      5 IRanWt=     -1 IRanGd=            0 ICorTp=0 IEmpDi=  4
 NAtoms=    2 NActive=    2 NUniq=    2 SFac= 1.00D+00 NAtFMM=   60 NAOKFM=F Big=F
 Integral buffers will be    131072 words long.
 Raffenetti 2 integral format.
 Two-electron integral symmetry is turned on.
 Leave Link  301 at Sat Mar 31 14:43:01 2018, MaxMem= 10737418240 cpu:               9.2 elap:               0.3
 (Enter /home1/apps/gaussian/16rA.03/g16/l302.exe)
 NPDir=0 NMtPBC=     1 NCelOv=     1 NCel=       1 NClECP=     1 NCelD=      1
         NCelK=      1 NCelE2=     1 NClLst=     1 CellRange=     0.0.
 One-electron integrals computed using PRISM.
 One-electron integral symmetry used in STVInt
   4 Symmetry operations used in ECPInt.
 ECPInt:  NShTT=    6105 NPrTT=    6105 LenC2=    5511 LenP2D=    5510.
 LDataN:  DoStor=T MaxTD1=10 Len=  848
 NBasis=   384 RedAO= T EigKep=  2.15D-06  NBF=   157    47    90    90
 NBsUse=   380 1.00D-06 EigRej=  5.68D-07 NBFU=   155    47    89    89
 Leave Link  302 at Sat Mar 31 14:43:04 2018, MaxMem= 10737418240 cpu:              79.4 elap:               2.5
 (Enter /home1/apps/gaussian/16rA.03/g16/l303.exe)
 DipDrv:  MaxL=1.
 Leave Link  303 at Sat Mar 31 14:43:04 2018, MaxMem= 10737418240 cpu:               3.8 elap:               0.2
 (Enter /home1/apps/gaussian/16rA.03/g16/l401.exe)
 Initial guess from the checkpoint file:  "qz.chk"
 B after Tr=     0.000000    0.000000    0.000000
         Rot=    1.000000    0.000000    0.000000    0.000000 Ang=   0.00 deg.
 Guess basis will be translated and rotated to current coordinates.
 JPrj=2 DoOrth=T DoCkMO=T.
 Initial guess orbital symmetries:
       Occupied  (SG) (SG) (PI) (PI) (SG) (DLTA) (SG) (PI) (PI)
                 (SG) (DLTA) (PI) (PI)
       Virtual   (SG) (PI) (PI) (SG) (SG) (PI) (PI) (SG) (DLTA)
                 (DLTA) (PI) (PI) (SG) (SG) (SG) (PI) (PI) (PI)
                 (PI) (SG) (DLTA) (DLTA) (PI) (PI) (SG) (SG) (SG)
                 (DLTA) (DLTA) (PI) (PI) (SG) (PI) (PI) (SG) (PHI)
                 (PHI) (PI) (PI) (?A) (?A) (SG) (PI) (PI) (?A)
                 (?A) (SG) (PI) (PI) (SG) (SG) (SG) (PHI) (PHI)
                 (DLTA) (DLTA) (PI) (PI) (DLTA) (DLTA) (SG) (PI)
                 (PI) (PI) (PI) (SG) (SG) (PHI) (PHI) (DLTA) (DLTA)
                 (PI) (PI) (SG) (DLTA) (DLTA) (PI) (PI) (SG) (?B)
                 (?B) (?C) (?C) (?B) (?B) (DLTA) (DLTA) (SG) (PI)
                 (PI) (SG) (SG) (SG) (PHI) (PHI) (PI) (PI) (DLTA)
                 (DLTA) (SG) (PI) (PI) (DLTA) (DLTA) (SG) (PI)
                 (PI) (SG) (PHI) (PHI) (DLTA) (DLTA) (PI) (PI)
                 (DLTA) (DLTA) (SG) (PI) (PI) (SG) (?B) (?B) (?C)
                 (?C) (DLTA) (DLTA) (?B) (?B) (SG) (SG) (PI) (PI)
                 (SG) (SG) (PI) (PI) (SG) (DLTA) (DLTA) (PI) (PI)
                 (SG) (?B) (?B) (DLTA) (DLTA) (?B) (?B) (SG) (PI)
                 (PI) (SG) (?D) (?B) (?B) (?D) (?D) (DLTA) (DLTA)
                 (?B) (?B) (?D) (SG) (DLTA) (DLTA) (PI) (PI) (SG)
                 (DLTA) (DLTA) (PI) (PI) (SG) (PI) (PI) (SG) (PI)
                 (PI) (SG) (SG) (SG) (DLTA) (DLTA) (PI) (PI) (SG)
                 (PI) (PI) (SG) (SG) (PI) (PI) (SG) (SG) (PI) (PI)
                 (SG) (DLTA) (DLTA) (PI) (PI) (SG) (SG) (SG) (PI)
                 (PI) (SG) (PI) (PI) (SG) (SG) (DLTA) (DLTA) (PI)
                 (PI) (SG) (SG) (PI) (PI) (SG) (SG) (PI) (PI) (SG)
                 (SG) (SG) (PI) (PI) (SG) (SG) (SG) (PI) (PI) (SG)
                 (SG) (PI) (PI) (SG) (SG) (SG) (SG) (PI) (PI) (SG)
                 (SG) (SG) (SG) (SG) (SG) (SG) (DLTA) (SG) (SG)
                 (SG) (SG) (SG) (DLTA) (SG) (DLTA) (SG) (SG) (DLTA)
                 (SG) (SG) (DLTA) (?C) (SG) (DLTA) (SG) (SG) (DLTA)
                 (?C) (SG) (SG) (DLTA) (DLTA) (SG) (?C) (DLTA)
                 (DLTA) (SG) (DLTA) (DLTA) (SG) (DLTA) (SG) (?C)
                 (?C) (?C) (DLTA) (DLTA) (DLTA) (DLTA) (DLTA) (?C)
                 (DLTA) (DLTA) (?C) (DLTA) (DLTA) (?C) (DLTA) (DLTA)
                 (DLTA) (DLTA) (DLTA) (?C) (?C) (?C) (PI) (PI)
                 (PI) (PI) (PI) (PI) (PHI) (PI) (PHI) (PI) (PI)
                 (PI) (PHI) (PI) (PHI) (?E) (PI) (PI) (PHI) (PI)
                 (PI) (PHI) (PI) (PI) (PHI) (PHI) (?E) (PHI) (?E)
                 (PI) (PI) (PI) (PI) (PI) (PI) (PHI) (PI) (PHI)
                 (PI) (PI) (PI) (PHI) (PI) (PHI) (?E) (PI) (PI)
                 (PHI) (PI) (PI) (PHI) (PI) (PI) (PHI) (PHI) (?E)
                 (PHI) (?E)
 Leave Link  401 at Sat Mar 31 14:43:05 2018, MaxMem= 10737418240 cpu:              25.2 elap:               0.9
 (Enter /home1/apps/gaussian/16rA.03/g16/l502.exe)
 Keep R1 and R2 ints in memory in symmetry-blocked form, NReq=3425113631.
 FoFCou: FMM=F IPFlag=           8 FMFlag=           0 FMFlg1=           0
         NFxFlg=           0 DoJE=F BraDBF=F KetDBF=F FulRan=T
         wScrn=  0.000000 ICntrl=       600 IOpCl=  0 I1Cent=           0 NGrid=           0
         NMat0=    1 NMatS0=  73920 NMatT0=    0 NMatD0=    1 NMtDS0=    0 NMtDT0=    0
 Petite list used in FoFCou.
 Restricted open shell SCF:
 Using DIIS extrapolation, IDIIS=  1040.
 NGot= 10737418240 LenX=  9351085953 LenY=  9350838447
 Requested convergence on RMS density matrix=1.00D-08 within 400 cycles.
 Requested convergence on MAX density matrix=1.00D-06.
 Requested convergence on             energy=1.00D-06.
 No special actions if energy rises.

 Cycle   1  Pass 1  IDiag  1:
 E= -160.619430024825    
 DIIS: error= 3.15D+00 at cycle   1 NSaved=   1.
 NSaved= 1 IEnMin= 1 EnMin= -160.619430024825     IErMin= 1 ErrMin= 3.15D+00
 ErrMax= 3.15D+00  0.00D+00 EMaxC= 1.00D-01 BMatC= 1.53D+03 BMatP= 1.53D+03
 IDIUse=3 WtCom= 0.00D+00 WtEn= 1.00D+00
 Coeff-Com:  0.100D+01
 Coeff-En:   0.100D+01
 Coeff:      0.100D+01
 Gap=     0.091 Goal=   None    Shift=    0.000
 GapD=    0.091 DampG=0.500 DampE=0.125 DampFc=0.1250 IDamp=-1.
 Damping current iteration by 1.25D-01
 RMSDP=3.85D-03 MaxDP=6.43D-01              OVMax= 3.95D-03

 Cycle   2  Pass 1  IDiag  1:
 E= -160.619842923984     Delta-E=       -0.000412899160 Rises=F Damp=T
 DIIS: error= 2.76D+00 at cycle   2 NSaved=   2.
 NSaved= 2 IEnMin= 2 EnMin= -160.619842923984     IErMin= 2 ErrMin= 2.76D+00
 ErrMax= 2.76D+00  0.00D+00 EMaxC= 1.00D-01 BMatC= 1.17D+03 BMatP= 1.53D+03
 IDIUse=3 WtCom= 0.00D+00 WtEn= 1.00D+00
 Coeff-Com: -0.700D+01 0.800D+01
 Coeff-En:   0.000D+00 0.100D+01
 Coeff:      0.000D+00 0.100D+01
 Gap=     0.091 Goal=   None    Shift=    0.000
 RMSDP=3.37D-03 MaxDP=5.62D-01 DE=-4.13D-04 OVMax= 6.31D-03

 Cycle   3  Pass 1  IDiag  1:
 E= -160.622740943418     Delta-E=       -0.002898019433 Rises=F Damp=F
 DIIS: error= 5.90D-04 at cycle   3 NSaved=   3.
 NSaved= 3 IEnMin= 3 EnMin= -160.622740943418     IErMin= 3 ErrMin= 5.90D-04
 ErrMax= 5.90D-04  0.00D+00 EMaxC= 1.00D-01 BMatC= 3.97D-05 BMatP= 1.17D+03
 IDIUse=3 WtCom= 9.94D-01 WtEn= 5.90D-03
 Coeff-Com: -0.110D+01 0.125D+01 0.844D+00
 Coeff-En:   0.000D+00 0.000D+00 0.100D+01
 Coeff:     -0.109D+01 0.124D+01 0.844D+00
 Gap=     0.091 Goal=   None    Shift=    0.000
 RMSDP=7.98D-05 MaxDP=1.01D-02 DE=-2.90D-03 OVMax= 5.28D-03

 Cycle   4  Pass 1  IDiag  1:
 E= -160.622762218107     Delta-E=       -0.000021274690 Rises=F Damp=F
 DIIS: error= 6.01D-04 at cycle   4 NSaved=   4.
 NSaved= 4 IEnMin= 4 EnMin= -160.622762218107     IErMin= 3 ErrMin= 5.90D-04
 ErrMax= 6.01D-04  0.00D+00 EMaxC= 1.00D-01 BMatC= 1.92D-05 BMatP= 3.97D-05
 IDIUse=3 WtCom= 9.94D-01 WtEn= 6.01D-03
 Coeff-Com: -0.847D+00 0.968D+00 0.380D+00 0.499D+00
 Coeff-En:   0.000D+00 0.000D+00 0.309D+00 0.691D+00
 Coeff:     -0.842D+00 0.962D+00 0.380D+00 0.500D+00
 Gap=     0.091 Goal=   None    Shift=    0.000
 RMSDP=2.47D-05 MaxDP=1.98D-03 DE=-2.13D-05 OVMax= 4.03D-03

 Cycle   5  Pass 1  IDiag  1:
 E= -160.622760629602     Delta-E=        0.000001588506 Rises=F Damp=F
 DIIS: error= 4.21D-04 at cycle   5 NSaved=   5.
 NSaved= 5 IEnMin= 4 EnMin= -160.622762218107     IErMin= 5 ErrMin= 4.21D-04
 ErrMax= 4.21D-04  0.00D+00 EMaxC= 1.00D-01 BMatC= 1.68D-05 BMatP= 1.92D-05
 IDIUse=3 WtCom= 9.96D-01 WtEn= 4.21D-03
 Coeff-Com: -0.725D+00 0.828D+00-0.469D-01 0.326D+00 0.617D+00
 Coeff-En:   0.000D+00 0.000D+00 0.000D+00 0.518D+00 0.482D+00
 Coeff:     -0.722D+00 0.825D+00-0.467D-01 0.327D+00 0.617D+00
 Gap=     0.091 Goal=   None    Shift=    0.000
 RMSDP=1.10D-05 MaxDP=9.39D-04 DE= 1.59D-06 OVMax= 2.74D-03

 Cycle   6  Pass 1  IDiag  1:
 E= -160.622768909346     Delta-E=       -0.000008279744 Rises=F Damp=F
 DIIS: error= 3.49D-04 at cycle   6 NSaved=   6.
 NSaved= 6 IEnMin= 6 EnMin= -160.622768909346     IErMin= 6 ErrMin= 3.49D-04
 ErrMax= 3.49D-04  0.00D+00 EMaxC= 1.00D-01 BMatC= 1.03D-05 BMatP= 1.68D-05
 IDIUse=3 WtCom= 9.97D-01 WtEn= 3.49D-03
 EnCoef did     1 forward-backward iterations
 Coeff-Com: -0.673D+00 0.769D+00-0.105D+00 0.175D+00 0.476D+00 0.358D+00
 Coeff-En:   0.000D+00 0.000D+00 0.000D+00 0.479D+00 0.444D+00 0.767D-01
 Coeff:     -0.670D+00 0.766D+00-0.104D+00 0.176D+00 0.476D+00 0.357D+00
 Gap=     0.091 Goal=   None    Shift=    0.000
 RMSDP=4.90D-06 MaxDP=5.47D-04 DE=-8.28D-06 OVMax= 1.31D-03

 Cycle   7  Pass 1  IDiag  1:
 E= -160.622772503390     Delta-E=       -0.000003594044 Rises=F Damp=F
 DIIS: error= 2.95D-04 at cycle   7 NSaved=   7.
 NSaved= 7 IEnMin= 7 EnMin= -160.622772503390     IErMin= 7 ErrMin= 2.95D-04
 ErrMax= 2.95D-04  0.00D+00 EMaxC= 1.00D-01 BMatC= 7.30D-06 BMatP= 1.03D-05
 IDIUse=3 WtCom= 9.97D-01 WtEn= 2.95D-03
 EnCoef did   100 forward-backward iterations
 Coeff-Com: -0.562D+00 0.642D+00-0.975D-01-0.398D-01 0.855D-01 0.198D+00
 Coeff-Com:  0.774D+00
 Coeff-En:   0.000D+00 0.000D+00 0.000D+00 0.141D+00 0.000D+00 0.626D-02
 Coeff-En:   0.853D+00
 Coeff:     -0.560D+00 0.641D+00-0.972D-01-0.393D-01 0.852D-01 0.197D+00
 Coeff:      0.774D+00
 Gap=     0.091 Goal=   None    Shift=    0.000
 RMSDP=4.45D-06 MaxDP=3.81D-04 DE=-3.59D-06 OVMax= 4.54D-04

 Cycle   8  Pass 1  IDiag  1:
 E= -160.622774855703     Delta-E=       -0.000002352314 Rises=F Damp=F
 DIIS: error= 2.46D-04 at cycle   8 NSaved=   8.
 NSaved= 8 IEnMin= 8 EnMin= -160.622774855703     IErMin= 8 ErrMin= 2.46D-04
 ErrMax= 2.46D-04  0.00D+00 EMaxC= 1.00D-01 BMatC= 4.84D-06 BMatP= 7.30D-06
 IDIUse=3 WtCom= 9.98D-01 WtEn= 2.46D-03
 Coeff-Com: -0.484D+00 0.554D+00-0.809D-01-0.873D-01-0.326D-01 0.947D-01
 Coeff-Com:  0.576D+00 0.461D+00
 Coeff-En:   0.000D+00 0.000D+00 0.000D+00 0.516D-01 0.000D+00 0.000D+00
 Coeff-En:   0.000D+00 0.948D+00
 Coeff:     -0.483D+00 0.552D+00-0.807D-01-0.870D-01-0.325D-01 0.945D-01
 Coeff:      0.575D+00 0.462D+00
 Gap=     0.091 Goal=   None    Shift=    0.000
 RMSDP=2.42D-06 MaxDP=1.58D-04 DE=-2.35D-06 OVMax= 2.04D-04

 Cycle   9  Pass 1  IDiag  1:
 E= -160.622775992583     Delta-E=       -0.000001136879 Rises=F Damp=F
 DIIS: error= 2.09D-04 at cycle   9 NSaved=   9.
 NSaved= 9 IEnMin= 9 EnMin= -160.622775992583     IErMin= 9 ErrMin= 2.09D-04
 ErrMax= 2.09D-04  0.00D+00 EMaxC= 1.00D-01 BMatC= 3.57D-06 BMatP= 4.84D-06
 IDIUse=3 WtCom= 9.98D-01 WtEn= 2.09D-03
 Coeff-Com: -0.281D+00 0.321D+00-0.372D-01-0.131D+00-0.193D+00-0.766D-01
 Coeff-Com:  0.415D-01 0.159D+00 0.120D+01
 Coeff-En:   0.000D+00 0.000D+00 0.000D+00 0.234D-02 0.000D+00 0.000D+00
 Coeff-En:   0.000D+00 0.000D+00 0.998D+00
 Coeff:     -0.281D+00 0.321D+00-0.371D-01-0.131D+00-0.193D+00-0.765D-01
 Coeff:      0.414D-01 0.159D+00 0.120D+01
 Gap=     0.091 Goal=   None    Shift=    0.000
 RMSDP=5.71D-06 MaxDP=3.77D-04 DE=-1.14D-06 OVMax= 4.77D-04

 Cycle  10  Pass 1  IDiag  1:
 E= -160.622778076696     Delta-E=       -0.000002084113 Rises=F Damp=F
 DIIS: error= 1.20D-04 at cycle  10 NSaved=  10.
 NSaved=10 IEnMin=10 EnMin= -160.622778076696     IErMin=10 ErrMin= 1.20D-04
 ErrMax= 1.20D-04  0.00D+00 EMaxC= 1.00D-01 BMatC= 1.21D-06 BMatP= 3.57D-06
 IDIUse=3 WtCom= 9.99D-01 WtEn= 1.20D-03
 Coeff-Com: -0.835D-01 0.955D-01-0.785D-02-0.494D-01-0.847D-01-0.516D-01
 Coeff-Com: -0.102D+00-0.189D+00 0.103D+00 0.137D+01
 Coeff-En:   0.000D+00 0.000D+00 0.000D+00 0.000D+00 0.000D+00 0.000D+00
 Coeff-En:   0.000D+00 0.000D+00 0.000D+00 0.100D+01
 Coeff:     -0.834D-01 0.954D-01-0.785D-02-0.494D-01-0.846D-01-0.515D-01
 Coeff:     -0.101D+00-0.189D+00 0.103D+00 0.137D+01
 Gap=     0.091 Goal=   None    Shift=    0.000
 RMSDP=5.82D-06 MaxDP=3.86D-04 DE=-2.08D-06 OVMax= 4.62D-04

 Cycle  11  Pass 1  IDiag  1:
 E= -160.622779052310     Delta-E=       -0.000000975614 Rises=F Damp=F
 DIIS: error= 3.96D-05 at cycle  11 NSaved=  11.
 NSaved=11 IEnMin=11 EnMin= -160.622779052310     IErMin=11 ErrMin= 3.96D-05
 ErrMax= 3.96D-05  0.00D+00 EMaxC= 1.00D-01 BMatC= 1.09D-07 BMatP= 1.21D-06
 IDIUse=1 WtCom= 1.00D+00 WtEn= 0.00D+00
 Coeff-Com: -0.158D-01 0.181D-01-0.244D-02 0.978D-02 0.233D-01 0.133D-01
 Coeff-Com:  0.290D-02-0.139D+00-0.544D+00 0.921D+00 0.713D+00
 Coeff:     -0.158D-01 0.181D-01-0.244D-02 0.978D-02 0.233D-01 0.133D-01
 Coeff:      0.290D-02-0.139D+00-0.544D+00 0.921D+00 0.713D+00
 Gap=     0.091 Goal=   None    Shift=    0.000
 RMSDP=1.92D-06 MaxDP=1.26D-04 DE=-9.76D-07 OVMax= 1.93D-04

 Cycle  12  Pass 1  IDiag  1:
 E= -160.622779146224     Delta-E=       -0.000000093914 Rises=F Damp=F
 DIIS: error= 6.12D-06 at cycle  12 NSaved=  12.
 NSaved=12 IEnMin=12 EnMin= -160.622779146224     IErMin=12 ErrMin= 6.12D-06
 ErrMax= 6.12D-06  0.00D+00 EMaxC= 1.00D-01 BMatC= 4.30D-09 BMatP= 1.09D-07
 IDIUse=1 WtCom= 1.00D+00 WtEn= 0.00D+00
 Coeff-Com: -0.671D-02 0.767D-02-0.184D-02 0.123D-01 0.277D-01 0.182D-01
 Coeff-Com:  0.248D-01-0.660D-01-0.391D+00 0.428D+00 0.488D+00 0.459D+00
 Coeff:     -0.671D-02 0.767D-02-0.184D-02 0.123D-01 0.277D-01 0.182D-01
 Coeff:      0.248D-01-0.660D-01-0.391D+00 0.428D+00 0.488D+00 0.459D+00
 Gap=     0.091 Goal=   None    Shift=    0.000
 RMSDP=2.57D-07 MaxDP=1.74D-05 DE=-9.39D-08 OVMax= 3.10D-05

 Cycle  13  Pass 1  IDiag  1:
 E= -160.622779149640     Delta-E=       -0.000000003416 Rises=F Damp=F
 DIIS: error= 3.18D-06 at cycle  13 NSaved=  13.
 NSaved=13 IEnMin=13 EnMin= -160.622779149640     IErMin=13 ErrMin= 3.18D-06
 ErrMax= 3.18D-06  0.00D+00 EMaxC= 1.00D-01 BMatC= 7.35D-10 BMatP= 4.30D-09
 IDIUse=1 WtCom= 1.00D+00 WtEn= 0.00D+00
 Coeff-Com: -0.227D-02 0.260D-02-0.765D-03 0.419D-02 0.999D-02 0.746D-02
 Coeff-Com:  0.129D-01-0.148D-01-0.995D-01 0.499D-01 0.120D+00 0.253D+00
 Coeff-Com:  0.658D+00
 Coeff:     -0.227D-02 0.260D-02-0.765D-03 0.419D-02 0.999D-02 0.746D-02
 Coeff:      0.129D-01-0.148D-01-0.995D-01 0.499D-01 0.120D+00 0.253D+00
 Coeff:      0.658D+00
 Gap=     0.091 Goal=   None    Shift=    0.000
 RMSDP=1.53D-07 MaxDP=1.01D-05 DE=-3.42D-09 OVMax= 2.62D-05

 Cycle  14  Pass 1  IDiag  1:
 E= -160.622779150177     Delta-E=       -0.000000000537 Rises=F Damp=F
 DIIS: error= 1.41D-06 at cycle  14 NSaved=  14.
 NSaved=14 IEnMin=14 EnMin= -160.622779150177     IErMin=14 ErrMin= 1.41D-06
 ErrMax= 1.41D-06  0.00D+00 EMaxC= 1.00D-01 BMatC= 1.60D-10 BMatP= 7.35D-10
 IDIUse=1 WtCom= 1.00D+00 WtEn= 0.00D+00
 Coeff-Com: -0.694D-03 0.793D-03-0.191D-03-0.125D-02-0.173D-02 0.134D-03
 Coeff-Com:  0.430D-02 0.139D-01 0.652D-01-0.136D+00-0.854D-01 0.714D-01
 Coeff-Com:  0.673D+00 0.396D+00
 Coeff:     -0.694D-03 0.793D-03-0.191D-03-0.125D-02-0.173D-02 0.134D-03
 Coeff:      0.430D-02 0.139D-01 0.652D-01-0.136D+00-0.854D-01 0.714D-01
 Coeff:      0.673D+00 0.396D+00
 Gap=     0.091 Goal=   None    Shift=    0.000
 RMSDP=6.51D-08 MaxDP=5.43D-06 DE=-5.37D-10 OVMax= 1.76D-05

 Cycle  15  Pass 1  IDiag  1:
 E= -160.622779150395     Delta-E=       -0.000000000218 Rises=F Damp=F
 DIIS: error= 3.22D-07 at cycle  15 NSaved=  15.
 NSaved=15 IEnMin=15 EnMin= -160.622779150395     IErMin=15 ErrMin= 3.22D-07
 ErrMax= 3.22D-07  0.00D+00 EMaxC= 1.00D-01 BMatC= 1.63D-11 BMatP= 1.60D-10
 IDIUse=1 WtCom= 1.00D+00 WtEn= 0.00D+00
 Coeff-Com: -0.698D-03 0.798D-03-0.145D-04-0.272D-02-0.501D-02-0.242D-02
 Coeff-Com:  0.917D-03 0.196D-01 0.783D-01-0.120D+00-0.101D+00-0.299D-01
 Coeff-Com:  0.244D+00 0.235D+00 0.683D+00
 Coeff:     -0.698D-03 0.798D-03-0.145D-04-0.272D-02-0.501D-02-0.242D-02
 Coeff:      0.917D-03 0.196D-01 0.783D-01-0.120D+00-0.101D+00-0.299D-01
 Coeff:      0.244D+00 0.235D+00 0.683D+00
 Gap=     0.091 Goal=   None    Shift=    0.000
 RMSDP=1.87D-08 MaxDP=1.06D-06 DE=-2.18D-10 OVMax= 3.13D-06

 Cycle  16  Pass 1  IDiag  1:
 E= -160.622779150425     Delta-E=       -0.000000000030 Rises=F Damp=F
 DIIS: error= 3.16D-07 at cycle  16 NSaved=  16.
 NSaved=16 IEnMin=16 EnMin= -160.622779150425     IErMin=16 ErrMin= 3.16D-07
 ErrMax= 3.16D-07  0.00D+00 EMaxC= 1.00D-01 BMatC= 9.99D-12 BMatP= 1.63D-11
 IDIUse=1 WtCom= 1.00D+00 WtEn= 0.00D+00
 Coeff-Com:  0.191D-02-0.218D-02 0.402D-03-0.640D-03-0.174D-02-0.165D-02
 Coeff-Com: -0.234D-02 0.562D-02 0.505D-02-0.510D-02-0.116D-01-0.294D-01
 Coeff-Com: -0.134D+00-0.881D-01 0.113D+00 0.115D+01
 Coeff:      0.191D-02-0.218D-02 0.402D-03-0.640D-03-0.174D-02-0.165D-02
 Coeff:     -0.234D-02 0.562D-02 0.505D-02-0.510D-02-0.116D-01-0.294D-01
 Coeff:     -0.134D+00-0.881D-01 0.113D+00 0.115D+01
 Gap=     0.091 Goal=   None    Shift=    0.000
 RMSDP=8.36D-08 MaxDP=5.50D-06 DE=-3.03D-11 OVMax= 6.15D-06

 Cycle  17  Pass 1  IDiag  1:
 E= -160.622779150407     Delta-E=        0.000000000019 Rises=F Damp=F
 DIIS: error= 8.63D-07 at cycle  17 NSaved=  17.
 NSaved=17 IEnMin=16 EnMin= -160.622779150425     IErMin=16 ErrMin= 3.16D-07
 ErrMax= 8.63D-07  0.00D+00 EMaxC= 1.00D-01 BMatC= 5.88D-11 BMatP= 9.99D-12
 IDIUse=1 WtCom= 1.00D+00 WtEn= 0.00D+00
 Coeff-Com:  0.148D-02-0.169D-02 0.225D-03 0.131D-02 0.232D-02 0.903D-03
 Coeff-Com: -0.413D-03-0.724D-02-0.428D-01 0.621D-01 0.548D-01 0.291D-01
 Coeff-Com: -0.143D+00-0.220D+00-0.721D+00 0.949D+00 0.104D+01
 Coeff:      0.148D-02-0.169D-02 0.225D-03 0.131D-02 0.232D-02 0.903D-03
 Coeff:     -0.413D-03-0.724D-02-0.428D-01 0.621D-01 0.548D-01 0.291D-01
 Coeff:     -0.143D+00-0.220D+00-0.721D+00 0.949D+00 0.104D+01
 Gap=     0.091 Goal=   None    Shift=    0.000
 RMSDP=2.46D-08 MaxDP=1.52D-06 DE= 1.87D-11 OVMax= 4.65D-06

 Cycle  18  Pass 1  IDiag  1:
 E= -160.622779150441     Delta-E=       -0.000000000034 Rises=F Damp=F
 DIIS: error= 6.01D-07 at cycle  18 NSaved=  18.
 NSaved=18 IEnMin=18 EnMin= -160.622779150441     IErMin=16 ErrMin= 3.16D-07
 ErrMax= 6.01D-07  0.00D+00 EMaxC= 1.00D-01 BMatC= 3.37D-11 BMatP= 9.99D-12
 IDIUse=1 WtCom= 1.00D+00 WtEn= 0.00D+00
 Coeff-Com: -0.322D-03 0.368D-03-0.998D-04 0.839D-03 0.189D-02 0.138D-02
 Coeff-Com:  0.178D-02-0.554D-02-0.216D-01 0.304D-01 0.323D-01 0.341D-01
 Coeff-Com: -0.202D-02-0.817D-01-0.454D+00 0.139D+00 0.377D+00 0.946D+00
 Coeff:     -0.322D-03 0.368D-03-0.998D-04 0.839D-03 0.189D-02 0.138D-02
 Coeff:      0.178D-02-0.554D-02-0.216D-01 0.304D-01 0.323D-01 0.341D-01
 Coeff:     -0.202D-02-0.817D-01-0.454D+00 0.139D+00 0.377D+00 0.946D+00
 Gap=     0.091 Goal=   None    Shift=    0.000
 RMSDP=5.09D-08 MaxDP=3.46D-06 DE=-3.45D-11 OVMax= 4.07D-06

 Cycle  19  Pass 1  IDiag  1:
 E= -160.622779150472     Delta-E=       -0.000000000030 Rises=F Damp=F
 DIIS: error= 1.25D-07 at cycle  19 NSaved=  19.
 NSaved=19 IEnMin=19 EnMin= -160.622779150472     IErMin=19 ErrMin= 1.25D-07
 ErrMax= 1.25D-07  0.00D+00 EMaxC= 1.00D-01 BMatC= 1.61D-12 BMatP= 9.99D-12
 IDIUse=1 WtCom= 1.00D+00 WtEn= 0.00D+00
 Coeff-Com:  0.219D-03-0.250D-03 0.337D-04-0.124D-03-0.305D-03-0.165D-03
 Coeff-Com: -0.491D-03 0.180D-03 0.870D-02-0.123D-01-0.105D-01 0.697D-03
 Coeff-Com:  0.518D-01 0.466D-01 0.810D-01-0.226D+00-0.236D+00 0.352D+00
 Coeff-Com:  0.945D+00
 Coeff:      0.219D-03-0.250D-03 0.337D-04-0.124D-03-0.305D-03-0.165D-03
 Coeff:     -0.491D-03 0.180D-03 0.870D-02-0.123D-01-0.105D-01 0.697D-03
 Coeff:      0.518D-01 0.466D-01 0.810D-01-0.226D+00-0.236D+00 0.352D+00
 Coeff:      0.945D+00
 Gap=     0.091 Goal=   None    Shift=    0.000
 RMSDP=1.62D-08 MaxDP=1.03D-06 DE=-3.04D-11 OVMax= 1.28D-06

 Cycle  20  Pass 1  IDiag  1:
 E= -160.622779150473     Delta-E=       -0.000000000001 Rises=F Damp=F
 DIIS: error= 9.67D-08 at cycle  20 NSaved=  20.
 NSaved=20 IEnMin=20 EnMin= -160.622779150473     IErMin=20 ErrMin= 9.67D-08
 ErrMax= 9.67D-08  0.00D+00 EMaxC= 1.00D-01 BMatC= 8.10D-13 BMatP= 1.61D-12
 IDIUse=1 WtCom= 1.00D+00 WtEn= 0.00D+00
 Coeff-Com:  0.268D-03-0.307D-03 0.519D-04-0.218D-03-0.529D-03-0.365D-03
 Coeff-Com: -0.734D-03 0.977D-03 0.949D-02-0.129D-01-0.124D-01-0.520D-02
 Coeff-Com:  0.343D-01 0.428D-01 0.125D+00-0.160D+00-0.217D+00 0.410D-01
 Coeff-Com:  0.614D+00 0.542D+00
 Coeff:      0.268D-03-0.307D-03 0.519D-04-0.218D-03-0.529D-03-0.365D-03
 Coeff:     -0.734D-03 0.977D-03 0.949D-02-0.129D-01-0.124D-01-0.520D-02
 Coeff:      0.343D-01 0.428D-01 0.125D+00-0.160D+00-0.217D+00 0.410D-01
 Coeff:      0.614D+00 0.542D+00
 Gap=     0.091 Goal=   None    Shift=    0.000
 RMSDP=4.74D-09 MaxDP=5.66D-07 DE=-1.25D-12 OVMax= 6.68D-07

 SCF Done:  E(ROHF) =  -160.622779150     A.U. after   20 cycles
            NFock= 20  Conv=0.47D-08     -V/T= 2.6666
 <Sx>= 0.0000 <Sy>= 0.0000 <Sz>= 1.5000 <S**2>= 3.7500 S= 1.5000
 <L.S>=  0.00000000000    
 KE= 9.638008049513D+01 PE=-4.443560507775D+02 EE= 1.556025584767D+02
 Annihilation of the first spin contaminant:
 S**2 before annihilation     3.7500,   after     3.7500
 Leave Link  502 at Sat Mar 31 14:44:38 2018, MaxMem= 10737418240 cpu:            2395.2 elap:              93.2
 (Enter /home1/apps/gaussian/16rA.03/g16/l801.exe)
 Windowed orbitals will be sorted by symmetry type.
 GenMOA:  NOpAll=  4 NOp2=4 NOpUse=  4 JSym2X=1
 FoFJK:  IHMeth= 1 ICntrl=       0 DoSepK=F KAlg= 0 I1Cent=           0 FoldK=F
 IRaf=         0 NMat=       1 IRICut=       1 DoRegI=T DoRafI=F ISym2E= 1 IDoP0=0 IntGTp=1.
 FoFCou: FMM=F IPFlag=           8 FMFlag=      100000 FMFlg1=           0
         NFxFlg=           0 DoJE=F BraDBF=F KetDBF=F FulRan=T
         wScrn=  0.000000 ICntrl=         0 IOpCl=  1 I1Cent=           0 NGrid=           0
         NMat0=    1 NMatS0=      1 NMatT0=    0 NMatD0=    1 NMtDS0=    0 NMtDT0=    0
 Petite list used in FoFCou.
 <Sx>= 0.0000 <Sy>= 0.0000 <Sz>= 1.5000 <S**2>= 3.7500 S= 1.5000
 Range of M.O.s used for correlation:     1   380
 NBasis=   384 NAE=    13 NBE=    10 NFC=     0 NFV=     0
 NROrb=    380 NOA=    13 NOB=    10 NVA=   367 NVB=   370

 **** Warning!!: The largest alpha MO coefficient is  0.28035676D+03


 **** Warning!!: The largest beta MO coefficient is  0.28035857D+03

 Singles contribution to E2=   -0.9213847141D-02
 Leave Link  801 at Sat Mar 31 14:44:59 2018, MaxMem= 10737418240 cpu:             656.4 elap:              20.6
 (Enter /home1/apps/gaussian/16rA.03/g16/l804.exe)
 Open-shell transformation, MDV= 10737418240 ITran=4 ISComp=2.
 Unit  1 TFree=       4464145 TCopy=       3213379.
 Semi-Direct transformation.
 ModeAB=           4 MOrb=            13 LenV=   10733120413
 LASXX=     88669000 LTotXX=    88669000 LenRXX=   178270504
 LTotAB=    89601504 MaxLAS=   593951020 LenRXY=           0
 NonZer=   266939504 LenScr=   401980416 LnRSAI=   593951020
 LnScr1=   894420992 LExtra=    29296705 Total=   2097919637
 MaxDsk= 67108864000 SrtSym=           T ITran=            4
 DoSDTr:  NPSUse= 32
 JobTyp=1 Pass  1:  I=   1 to  13.
 (rs|ai) integrals will be sorted in core.
 Complete sort for first half transformation.
 First half transformation complete.
 Begin second half transformation for I=  10.
 Complete sort for second half transformation.
 Second half transformation complete.
 ModeAB=           4 MOrb=            10 LenV=   10733120413
 LASXX=     68559916 LTotXX=    68559916 LenRXX=   133134714
 LTotAB=    64574798 MaxLAS=   456885400 LenRXY=           0
 NonZer=   201694630 LenScr=   303728640 LnRSAI=   456885400
 LnScr1=   688016384 LExtra=   207567209 Total=   1789332347
 MaxDsk= 67108864000 SrtSym=           T ITran=            4
 DoSDTr:  NPSUse= 32
 JobTyp=2 Pass  1:  I=   1 to  10.
 (rs|ai) integrals will be sorted in core.
 Complete sort for first half transformation.
 First half transformation complete.
 Begin second half transformation for I=  10.
 Complete sort for second half transformation.
 Second half transformation complete.
 Spin components of T(2) and E(2):
     alpha-alpha T2 =       0.3724028441D-01 E2=     -0.1996108918D+00
     alpha-beta  T2 =       0.1608977421D+00 E2=     -0.8032253280D+00
     beta-beta   T2 =       0.3014653448D-01 E2=     -0.1220334212D+00
 ANorm=    0.1109686143D+01
 E2 =    -0.1134083488D+01 EUMP2 =    -0.16175686263854D+03
 (S**2,0)=  0.37500D+01           (S**2,1)=  0.37500D+01
 E(PUHF)=      -0.16062277915D+03        E(PMP2)=      -0.16175686264D+03
 Leave Link  804 at Sat Mar 31 14:57:02 2018, MaxMem= 10737418240 cpu:           23131.5 elap:             723.2
 (Enter /home1/apps/gaussian/16rA.03/g16/l913.exe)
 CIDS:  MDV= 10737418240.
 IFCWin=0 IBDFC=1 NFBD=     0     0 NFCmp=     0     0 NFFFC=     0     0
 Using original routines for 1st iteration.
 Using DD4UQ or CC4UQ for 2nd and later iterations.
 Keep R2 and R3 ints in memory in symmetry-blocked form, NReq=3425136703.
 FoFCou: FMM=F IPFlag=           8 FMFlag=           0 FMFlg1=           0
         NFxFlg=           0 DoJE=F BraDBF=F KetDBF=F FulRan=T
         wScrn=  0.000000 ICntrl=       600 IOpCl=  0 I1Cent=           0 NGrid=           0
         NMat0=    1 NMatS0=  73920 NMatT0=    0 NMatD0=    1 NMtDS0=    0 NMtDT0=    0
 Petite list used in FoFCou.
 CIDS: In Core Option IDoMem=           1.
 CCSD(T)
 =======
 Iterations= 150 Convergence= 0.100D-06
 Produce multiple copies of IABC intergrals
 Iteration Nr.   1
 **********************
 DD1Dir will call FoFMem   1 times, MxPair=       384
 NAB=   130 NAA=    78 NBB=    45.
 DD1Dir will call FoFMem   1 times, MxPair=       384
 NAB=   130 NAA=    78 NBB=    45.
 MP4(R+Q)= -0.64603945D-01
 Maximum subspace dimension=  5
 A-vector RMS=  2.3960361D-04 Max=  2.7978267D-02 conv= 1.00D-05.
 RLE energy=       -1.1136978095
 E3=        0.85021473D-01        EROMP3=      -0.16167184117D+03
 E4(SDQ)=  -0.59517479D-01        ROMP4(SDQ)=  -0.16173135864D+03
 VARIATIONAL ENERGIES WITH THE FIRST-ORDER WAVEFUNCTION:
 DE(Corr)=  -1.1133214     E(Corr)=     -161.73610055    
 NORM(A)=   0.10987267D+01
 Iteration Nr.   2
 **********************
 DD1Dir will call FoFMem   1 times, MxPair=       384
 NAB=   130 NAA=    78 NBB=    45.
 A-vector RMS=  4.8396518D-03 Max=  8.5931094D-02 conv= 1.00D-05.
 RLE energy=       -1.0711522739
 DE(Corr)=  -1.0286266     E(CORR)=     -161.65140572     Delta= 8.47D-02
 NORM(A)=   0.10917196D+01
 Iteration Nr.   3
 **********************
 DD1Dir will call FoFMem   1 times, MxPair=       384
 NAB=   130 NAA=    78 NBB=    45.
 A-vector RMS=  1.5389928D-03 Max=  2.2235313D-02 conv= 1.00D-05.
 RLE energy=       -1.0969754679
 DE(Corr)=  -1.0633586     E(CORR)=     -161.68613777     Delta=-3.47D-02
 NORM(A)=   0.10992486D+01
 Iteration Nr.   4
 **********************
 DD1Dir will call FoFMem   1 times, MxPair=       384
 NAB=   130 NAA=    78 NBB=    45.
 A-vector RMS=  3.6208092D-03 Max=  6.9297939D-02 conv= 1.00D-05.
 RLE energy=       -1.0606897332
 DE(Corr)=  -1.0493743     E(CORR)=     -161.67215348     Delta= 1.40D-02
 NORM(A)=   0.12074307D+01
 Iteration Nr.   5
 **********************
 DD1Dir will call FoFMem   1 times, MxPair=       384
 NAB=   130 NAA=    78 NBB=    45.
 A-vector RMS=  5.0074038D-03 Max=  1.0707657D-01 conv= 1.00D-05.
 RLE energy=       -1.0905313993
 DE(Corr)=  -1.1356396     E(CORR)=     -161.75841875     Delta=-8.63D-02
 NORM(A)=   0.11993738D+01
 Iteration Nr.   6
 **********************
 DD1Dir will call FoFMem   1 times, MxPair=       384
 NAB=   130 NAA=    78 NBB=    45.
 A-vector RMS=  9.3423256D-04 Max=  1.8275108D-02 conv= 1.00D-05.
 RLE energy=       -1.0967679684
 DE(Corr)=  -1.1035062     E(CORR)=     -161.72628534     Delta= 3.21D-02
 NORM(A)=   0.12000235D+01
 Iteration Nr.   7
 **********************
 DD1Dir will call FoFMem   1 times, MxPair=       384
 NAB=   130 NAA=    78 NBB=    45.
 A-vector RMS=  5.1827635D-04 Max=  8.9897579D-03 conv= 1.00D-05.
 RLE energy=       -1.0956465366
 DE(Corr)=  -1.0946648     E(CORR)=     -161.71744395     Delta= 8.84D-03
 NORM(A)=   0.12126850D+01
 Iteration Nr.   8
 **********************
 DD1Dir will call FoFMem   1 times, MxPair=       384
 NAB=   130 NAA=    78 NBB=    45.
 A-vector RMS=  2.9640324D-04 Max=  5.8167251D-03 conv= 1.00D-05.
 RLE energy=       -1.0973416249
 DE(Corr)=  -1.0972150     E(CORR)=     -161.71999416     Delta=-2.55D-03
 NORM(A)=   0.12234882D+01
 Iteration Nr.   9
 **********************
 DD1Dir will call FoFMem   1 times, MxPair=       384
 NAB=   130 NAA=    78 NBB=    45.
 A-vector RMS=  2.0867143D-04 Max=  3.7905081D-03 conv= 1.00D-05.
 RLE energy=       -1.0985596388
 DE(Corr)=  -1.0977659     E(CORR)=     -161.72054503     Delta=-5.51D-04
 NORM(A)=   0.12302118D+01
 Iteration Nr.  10
 **********************
 DD1Dir will call FoFMem   1 times, MxPair=       384
 NAB=   130 NAA=    78 NBB=    45.
 A-vector RMS=  1.1759616D-04 Max=  2.4432152D-03 conv= 1.00D-05.
 RLE energy=       -1.0985151964
 DE(Corr)=  -1.0982474     E(CORR)=     -161.72102651     Delta=-4.81D-04
 NORM(A)=   0.12315496D+01
 Iteration Nr.  11
 **********************
 DD1Dir will call FoFMem   1 times, MxPair=       384
 NAB=   130 NAA=    78 NBB=    45.
 A-vector RMS=  9.2841095D-05 Max=  3.6785265D-03 conv= 1.00D-05.
 RLE energy=       -1.0987944764
 DE(Corr)=  -1.0988075     E(CORR)=     -161.72158665     Delta=-5.60D-04
 NORM(A)=   0.12304604D+01
 Iteration Nr.  12
 **********************
 DD1Dir will call FoFMem   1 times, MxPair=       384
 NAB=   130 NAA=    78 NBB=    45.
 A-vector RMS=  8.7593320D-05 Max=  2.5701433D-03 conv= 1.00D-05.
 RLE energy=       -1.0986028967
 DE(Corr)=  -1.0983000     E(CORR)=     -161.72107913     Delta= 5.08D-04
 NORM(A)=   0.12312620D+01
 Iteration Nr.  13
 **********************
 DD1Dir will call FoFMem   1 times, MxPair=       384
 NAB=   130 NAA=    78 NBB=    45.
 A-vector RMS=  5.7022287D-05 Max=  2.0637510D-03 conv= 1.00D-05.
 RLE energy=       -1.0985965510
 DE(Corr)=  -1.0987380     E(CORR)=     -161.72151718     Delta=-4.38D-04
 NORM(A)=   0.12308177D+01
 Iteration Nr.  14
 **********************
 DD1Dir will call FoFMem   1 times, MxPair=       384
 NAB=   130 NAA=    78 NBB=    45.
 A-vector RMS=  3.4495324D-05 Max=  7.8550385D-04 conv= 1.00D-05.
 RLE energy=       -1.0986601853
 DE(Corr)=  -1.0986411     E(CORR)=     -161.72142030     Delta= 9.69D-05
 NORM(A)=   0.12307801D+01
 Iteration Nr.  15
 **********************
 DD1Dir will call FoFMem   1 times, MxPair=       384
 NAB=   130 NAA=    78 NBB=    45.
 A-vector RMS=  2.5351743D-05 Max=  5.3614560D-04 conv= 1.00D-05.
 RLE energy=       -1.0986053046
 DE(Corr)=  -1.0985750     E(CORR)=     -161.72135418     Delta= 6.61D-05
 NORM(A)=   0.12308459D+01
 Iteration Nr.  16
 **********************
 DD1Dir will call FoFMem   1 times, MxPair=       384
 NAB=   130 NAA=    78 NBB=    45.
 A-vector RMS=  2.4310936D-05 Max=  5.0833577D-04 conv= 1.00D-05.
 RLE energy=       -1.0985849769
 DE(Corr)=  -1.0986314     E(CORR)=     -161.72141054     Delta=-5.64D-05
 NORM(A)=   0.12309071D+01
 Iteration Nr.  17
 **********************
 DD1Dir will call FoFMem   1 times, MxPair=       384
 NAB=   130 NAA=    78 NBB=    45.
 A-vector RMS=  1.8459688D-05 Max=  4.8304787D-04 conv= 1.00D-05.
 RLE energy=       -1.0986759709
 DE(Corr)=  -1.0986620     E(CORR)=     -161.72144112     Delta=-3.06D-05
 NORM(A)=   0.12309268D+01
 Iteration Nr.  18
 **********************
 DD1Dir will call FoFMem   1 times, MxPair=       384
 NAB=   130 NAA=    78 NBB=    45.
 A-vector RMS=  1.8169074D-05 Max=  4.1632900D-04 conv= 1.00D-05.
 RLE energy=       -1.0986000275
 DE(Corr)=  -1.0985748     E(CORR)=     -161.72135395     Delta= 8.72D-05
 NORM(A)=   0.12310121D+01
 Iteration Nr.  19
 **********************
 DD1Dir will call FoFMem   1 times, MxPair=       384
 NAB=   130 NAA=    78 NBB=    45.
 A-vector RMS=  1.1793547D-05 Max=  2.8393330D-04 conv= 1.00D-05.
 RLE energy=       -1.0986378398
 DE(Corr)=  -1.0986702     E(CORR)=     -161.72144936     Delta=-9.54D-05
 NORM(A)=   0.12310154D+01
 Iteration Nr.  20
 **********************
 DD1Dir will call FoFMem   1 times, MxPair=       384
 NAB=   130 NAA=    78 NBB=    45.
 A-vector RMS=  7.9344796D-06 Max=  2.0697109D-04 conv= 1.00D-05.
 RLE energy=       -1.0986410637
 DE(Corr)=  -1.0986241     E(CORR)=     -161.72140320     Delta= 4.62D-05
 NORM(A)=   0.12310263D+01
 Iteration Nr.  21
 **********************
 DD1Dir will call FoFMem   1 times, MxPair=       384
 NAB=   130 NAA=    78 NBB=    45.
 A-vector RMS=  5.6456915D-06 Max=  1.0316517D-04 conv= 1.00D-05.
 RLE energy=       -1.0986277719
 DE(Corr)=  -1.0986237     E(CORR)=     -161.72140284     Delta= 3.67D-07
 NORM(A)=   0.12310309D+01
 Iteration Nr.  22
 **********************
 DD1Dir will call FoFMem   1 times, MxPair=       384
 NAB=   130 NAA=    78 NBB=    45.
 A-vector RMS=  4.4240672D-06 Max=  7.3593889D-05 conv= 1.00D-05.
 RLE energy=       -1.0986257512
 DE(Corr)=  -1.0986318     E(CORR)=     -161.72141099     Delta=-8.15D-06
 NORM(A)=   0.12310240D+01
 Iteration Nr.  23
 **********************
 DD1Dir will call FoFMem   1 times, MxPair=       384
 NAB=   130 NAA=    78 NBB=    45.
 A-vector RMS=  3.8665765D-06 Max=  8.7768697D-05 conv= 1.00D-05.
 RLE energy=       -1.0986330397
 DE(Corr)=  -1.0986287     E(CORR)=     -161.72140789     Delta= 3.10D-06
 NORM(A)=   0.12310073D+01
 Iteration Nr.  24
 **********************
 DD1Dir will call FoFMem   1 times, MxPair=       384
 NAB=   130 NAA=    78 NBB=    45.
 A-vector RMS=  2.6996413D-06 Max=  9.9467033D-05 conv= 1.00D-05.
 RLE energy=       -1.0986157165
 DE(Corr)=  -1.0986154     E(CORR)=     -161.72139451     Delta= 1.34D-05
 NORM(A)=   0.12310087D+01
 Iteration Nr.  25
 **********************
 DD1Dir will call FoFMem   1 times, MxPair=       384
 NAB=   130 NAA=    78 NBB=    45.
 A-vector RMS=  2.7845010D-06 Max=  7.3349798D-05 conv= 1.00D-05.
 RLE energy=       -1.0986246203
 DE(Corr)=  -1.0986315     E(CORR)=     -161.72141065     Delta=-1.61D-05
 NORM(A)=   0.12309895D+01
 Iteration Nr.  26
 **********************
 DD1Dir will call FoFMem   1 times, MxPair=       384
 NAB=   130 NAA=    78 NBB=    45.
 A-vector RMS=  1.8859904D-06 Max=  7.3277343D-05 conv= 1.00D-05.
 RLE energy=       -1.0986205362
 DE(Corr)=  -1.0986158     E(CORR)=     -161.72139499     Delta= 1.57D-05
 NORM(A)=   0.12309829D+01
 Iteration Nr.  27
 **********************
 DD1Dir will call FoFMem   1 times, MxPair=       384
 NAB=   130 NAA=    78 NBB=    45.
 A-vector RMS=  1.4410627D-06 Max=  3.1641253D-05 conv= 1.00D-05.
 RLE energy=       -1.0986179246
 DE(Corr)=  -1.0986178     E(CORR)=     -161.72139698     Delta=-1.99D-06
 NORM(A)=   0.12309762D+01
 Iteration Nr.  28
 **********************
 DD1Dir will call FoFMem   1 times, MxPair=       384
 NAB=   130 NAA=    78 NBB=    45.
 A-vector RMS=  1.0414081D-06 Max=  2.3663197D-05 conv= 1.00D-05.
 RLE energy=       -1.0986177776
 DE(Corr)=  -1.0986180     E(CORR)=     -161.72139714     Delta=-1.61D-07
 NORM(A)=   0.12309683D+01
 Iteration Nr.  29
 **********************
 DD1Dir will call FoFMem   1 times, MxPair=       384
 NAB=   130 NAA=    78 NBB=    45.
 A-vector RMS=  1.0136246D-06 Max=  1.9165341D-05 conv= 1.00D-05.
 RLE energy=       -1.0986184923
 DE(Corr)=  -1.0986160     E(CORR)=     -161.72139518     Delta= 1.97D-06
 NORM(A)=   0.12309589D+01
 Iteration Nr.  30
 **********************
 DD1Dir will call FoFMem   1 times, MxPair=       384
 NAB=   130 NAA=    78 NBB=    45.
 A-vector RMS=  1.1061602D-06 Max=  2.4151930D-05 conv= 1.00D-05.
 RLE energy=       -1.0986118332
 DE(Corr)=  -1.0986131     E(CORR)=     -161.72139223     Delta= 2.95D-06
 NORM(A)=   0.12309577D+01
 Iteration Nr.  31
 **********************
 DD1Dir will call FoFMem   1 times, MxPair=       384
 NAB=   130 NAA=    78 NBB=    45.
 A-vector RMS=  1.1372094D-06 Max=  3.0458880D-05 conv= 1.00D-05.
 RLE energy=       -1.0986162446
 DE(Corr)=  -1.0986195     E(CORR)=     -161.72139870     Delta=-6.47D-06
 NORM(A)=   0.12309477D+01
 Iteration Nr.  32
 **********************
 DD1Dir will call FoFMem   1 times, MxPair=       384
 NAB=   130 NAA=    78 NBB=    45.
 A-vector RMS=  6.3994502D-07 Max=  1.4865078D-05 conv= 1.00D-05.
 RLE energy=       -1.0986144773
 DE(Corr)=  -1.0986131     E(CORR)=     -161.72139226     Delta= 6.43D-06
 NORM(A)=   0.12309448D+01
 Iteration Nr.  33
 **********************
 DD1Dir will call FoFMem   1 times, MxPair=       384
 NAB=   130 NAA=    78 NBB=    45.
 A-vector RMS=  5.3382316D-07 Max=  1.2230421D-05 conv= 1.00D-05.
 RLE energy=       -1.0986141940
 DE(Corr)=  -1.0986147     E(CORR)=     -161.72139388     Delta=-1.62D-06
 NORM(A)=   0.12309417D+01
 Iteration Nr.  34
 **********************
 DD1Dir will call FoFMem   1 times, MxPair=       384
 NAB=   130 NAA=    78 NBB=    45.
 A-vector RMS=  3.7905594D-07 Max=  6.5056444D-06 conv= 1.00D-05.
 RLE energy=       -1.0986146897
 DE(Corr)=  -1.0986146     E(CORR)=     -161.72139376     Delta= 1.14D-07
 NORM(A)=   0.12309396D+01
 Iteration Nr.  35
 **********************
 DD1Dir will call FoFMem   1 times, MxPair=       384
 NAB=   130 NAA=    78 NBB=    45.
 A-vector RMS=  3.1823247D-07 Max=  5.4602753D-06 conv= 1.00D-05.
 RLE energy=       -1.0986149728
 DE(Corr)=  -1.0986141     E(CORR)=     -161.72139328     Delta= 4.81D-07
 NORM(A)=   0.12309381D+01
 Iteration Nr.  36
 **********************
 DD1Dir will call FoFMem   1 times, MxPair=       384
 NAB=   130 NAA=    78 NBB=    45.
 A-vector RMS=  2.7343072D-07 Max=  6.0420559D-06 conv= 1.00D-05.
 RLE energy=       -1.0986136310
 DE(Corr)=  -1.0986139     E(CORR)=     -161.72139304     Delta= 2.39D-07
 NORM(A)=   0.12309387D+01
 Iteration Nr.  37
 **********************
 DD1Dir will call FoFMem   1 times, MxPair=       384
 NAB=   130 NAA=    78 NBB=    45.
 A-vector RMS=  2.8328765D-07 Max=  9.4846820D-06 conv= 1.00D-05.
 RLE energy=       -1.0986149869
 DE(Corr)=  -1.0986156     E(CORR)=     -161.72139479     Delta=-1.74D-06
 NORM(A)=   0.12309379D+01
 Iteration Nr.  38
 **********************
 DD1Dir will call FoFMem   1 times, MxPair=       384
 NAB=   130 NAA=    78 NBB=    45.
 A-vector RMS=  1.4621739D-07 Max=  3.2233611D-06 conv= 1.00D-05.
 RLE energy=       -1.0986146663
 DE(Corr)=  -1.0986143     E(CORR)=     -161.72139340     Delta= 1.38D-06
 NORM(A)=   0.12309386D+01
 Iteration Nr.  39
 **********************
 DD1Dir will call FoFMem   1 times, MxPair=       384
 NAB=   130 NAA=    78 NBB=    45.
 A-vector RMS=  1.2639949D-07 Max=  4.0570335D-06 conv= 1.00D-05.
 RLE energy=       -1.0986147807
 DE(Corr)=  -1.0986149     E(CORR)=     -161.72139410     Delta=-6.96D-07
 NORM(A)=   0.12309389D+01
 Iteration Nr.  40
 **********************
 DD1Dir will call FoFMem   1 times, MxPair=       384
 NAB=   130 NAA=    78 NBB=    45.
 A-vector RMS=  1.0094228D-07 Max=  2.0390985D-06 conv= 1.00D-05.
 RLE energy=       -1.0986149952
 DE(Corr)=  -1.0986150     E(CORR)=     -161.72139417     Delta=-6.58D-08
 NORM(A)=   0.12309395D+01
 CI/CC converged in   40 iterations to DelEn=-6.58D-08 Conv= 1.00D-07 ErrA1= 1.01D-07 Conv= 1.00D-05
 Wavefunction amplitudes converged. E(Corr)=     -161.72139417    
 Dominant configurations:
 ***********************
 Spin Case        I    J    A    B          Value
    AA           13        14            0.102542D+00
    BB            7        11           -0.116375D+00
    BB           10        11           -0.106458D+00
    BB            8        27            0.180588D+00
    BB            8        34           -0.121934D+00
    BB            8        35            0.199634D+00
    BB            9        26            0.180588D+00
    BB            9        33           -0.121934D+00
    BB            9        36            0.199634D+00
 Largest amplitude= 2.00D-01
 Time for triples=   166289.59 seconds.
 T4(CCSD)= -0.85137514D-01
 T5(CCSD)=  0.26871177D-01
 CCSD(T)= -0.16177966050D+03
 Discarding MO integrals.
 Leave Link  913 at Sat Mar 31 17:04:05 2018, MaxMem= 10737418240 cpu:          242796.6 elap:            7621.9
 (Enter /home1/apps/gaussian/16rA.03/g16/l601.exe)
 Copying SCF densities to generalized density rwf, IOpCl= 0 IROHF=1.

 **********************************************************************

            Population analysis using the SCF density.

 **********************************************************************

 Orbital symmetries:
       Occupied  (SG) (SG) (PI) (PI) (SG) (DLTA) (SG) (PI) (PI)
                 (SG) (DLTA) (PI) (PI)
       Virtual   (SG) (PI) (PI) (SG) (SG) (PI) (PI) (DLTA) (DLTA)
                 (SG) (PI) (PI) (SG) (SG) (SG) (PI) (PI) (DLTA)
                 (DLTA) (SG) (PI) (PI) (PI) (PI) (SG) (SG) (SG)
                 (DLTA) (DLTA) (DLTA) (DLTA) (PI) (PI) (SG) (PI)
                 (PI) (PHI) (PHI) (SG) (PI) (PI) (DLTA) (DLTA)
                 (SG) (PI) (PI) (SG) (PI) (PI) (SG) (PHI) (PHI)
                 (SG) (?A) (?A) (PI) (PI) (SG) (?A) (?A) (DLTA)
                 (DLTA) (PI) (PI) (SG) (PI) (PI) (SG) (PHI) (PHI)
                 (SG) (DLTA) (DLTA) (PI) (PI) (?B) (?B) (PHI) (PHI)
                 (SG) (PI) (PI) (DLTA) (DLTA) (SG) (PI) (PI) (SG)
                 (PI) (PI) (?B) (?B) (PHI) (PHI) (SG) (SG) (PI)
                 (PI) (DLTA) (DLTA) (DLTA) (DLTA) (SG) (PHI) (PHI)
                 (PI) (PI) (DLTA) (DLTA) (SG) (PI) (PI) (DLTA)
                 (DLTA) (SG) (SG) (PI) (PI) (?C) (?C) (DLTA) (DLTA)
                 (?C) (?C) (PI) (PI) (SG) (?B) (?B) (?D) (?D) (?B)
                 (?B) (PHI) (PHI) (PHI) (PHI) (DLTA) (DLTA) (SG)
                 (SG) (PI) (PI) (DLTA) (DLTA) (SG) (PI) (PI) (SG)
                 (DLTA) (DLTA) (PI) (PI) (SG) (PI) (PI) (SG) (?B)
                 (?B) (PHI) (PHI) (DLTA) (DLTA) (PI) (PI) (SG)
                 (SG) (PHI) (PHI) (DLTA) (DLTA) (PI) (PI) (DLTA)
                 (DLTA) (SG) (PI) (PI) (?C) (?C) (?C) (?C) (DLTA)
                 (DLTA) (SG) (PI) (PI) (SG) (SG) (?E) (?E) (?C)
                 (?C) (DLTA) (DLTA) (?C) (?C) (?E) (?F) (?F) (?D)
                 (?D) (PHI) (PHI) (DLTA) (DLTA) (?F) (PI) (PI)
                 (SG) (DLTA) (DLTA) (PI) (PI) (SG) (PI) (PI) (SG)
                 (SG) (PI) (PI) (SG) (DLTA) (DLTA) (PI) (PI) (SG)
                 (?C) (?C) (DLTA) (DLTA) (?C) (?C) (SG) (SG) (?B)
                 (?C) (?C) (?B) (DLTA) (DLTA) (?C) (?C) (SG) (?G)
                 (?G) (?H) (?H) (?H) (?H) (DLTA) (DLTA) (?H) (?H)
                 (?G) (DLTA) (DLTA) (PI) (PI) (SG) (PI) (PI) (SG)
                 (DLTA) (DLTA) (PI) (PI) (SG) (SG) (SG) (PI) (PI)
                 (SG) (PI) (PI) (SG) (DLTA) (DLTA) (PI) (PI) (SG)
                 (DLTA) (DLTA) (PHI) (PHI) (PI) (PI) (SG) (SG)
                 (SG) (PI) (PI) (SG) (PI) (PI) (SG) (SG) (DLTA)
                 (DLTA) (PI) (PI) (SG) (DLTA) (DLTA) (PI) (PI)
                 (SG) (SG) (PI) (PI) (SG) (PI) (PI) (SG) (SG) (SG)
                 (DLTA) (DLTA) (PI) (PI) (SG) (PI) (PI) (SG) (SG)
                 (PI) (PI) (SG) (SG) (SG) (PI) (PI) (SG) (DLTA)
                 (DLTA) (PI) (PI) (SG) (SG) (SG) (PI) (PI) (SG)
                 (SG) (PI) (PI) (SG) (SG) (SG) (PI) (PI) (SG) (SG)
                 (SG) (PI) (PI) (SG) (SG) (SG) (PI) (PI) (SG) (SG)
                 (SG) (SG) (SG) (SG)
 Unable to determine electronic state:  partially filled degenerate orbitals.
 Alpha  occ. eigenvalues --   -4.70789  -3.22859  -3.22755  -3.22755  -1.13467
 Alpha  occ. eigenvalues --   -0.76437  -0.76437  -0.75852  -0.70661  -0.68207
 Alpha  occ. eigenvalues --   -0.37926  -0.37926  -0.35830
 Alpha virt. eigenvalues --   -0.05254   0.01699   0.01699   0.01861   0.03761
 Alpha virt. eigenvalues --    0.06629   0.06629   0.07066   0.07075   0.07093
 Alpha virt. eigenvalues --    0.08210   0.08210   0.12521   0.14273   0.20915
 Alpha virt. eigenvalues --    0.21206   0.21206   0.22345   0.22467   0.22831
 Alpha virt. eigenvalues --    0.23815   0.23815   0.27237   0.27237   0.35667
 Alpha virt. eigenvalues --    0.45946   0.52004   0.57839   0.57886   0.61148
 Alpha virt. eigenvalues --    0.61697   0.61809   0.61809   0.62418   0.63594
 Alpha virt. eigenvalues --    0.63594   0.67133   0.67133   0.69697   0.75364
 Alpha virt. eigenvalues --    0.75364   0.80014   0.80162   0.82908   0.86446
 Alpha virt. eigenvalues --    0.86446   0.97421   1.08576   1.08576   1.20067
 Alpha virt. eigenvalues --    1.46847   1.47050   1.47050   1.60387   1.60730
 Alpha virt. eigenvalues --    1.61030   1.61030   1.65888   1.67079   1.67256
 Alpha virt. eigenvalues --    1.72559   1.72653   1.75511   1.75511   1.79048
 Alpha virt. eigenvalues --    1.89008   1.89008   2.02017   2.04812   2.04812
 Alpha virt. eigenvalues --    2.07128   2.10876   2.11669   2.12788   2.12788
 Alpha virt. eigenvalues --    2.24105   2.24105   2.32869   2.32869   2.45046
 Alpha virt. eigenvalues --    2.46352   2.46352   2.68137   2.68591   2.73090
 Alpha virt. eigenvalues --    2.82072   2.82072   3.10551   3.30892   3.30892
 Alpha virt. eigenvalues --    3.79335   3.79335   3.90685   3.90685   3.93588
 Alpha virt. eigenvalues --    3.99240   4.03268   4.03268   4.06339   4.08753
 Alpha virt. eigenvalues --    4.21760   4.22039   4.22554   4.23966   4.23966
 Alpha virt. eigenvalues --    4.37512   4.37512   4.39545   4.39570   4.47351
 Alpha virt. eigenvalues --    4.54659   4.54659   4.61756   4.61932   4.98671
 Alpha virt. eigenvalues --    5.28932   5.28932   5.29092   5.47401   5.47401
 Alpha virt. eigenvalues --    5.54745   5.56990   5.72326   5.72326   5.88325
 Alpha virt. eigenvalues --    5.88325   5.89377   6.27186   6.27190   6.28040
 Alpha virt. eigenvalues --    6.28040   6.32479   6.32490   6.33345   6.33345
 Alpha virt. eigenvalues --    6.43271   6.43271   6.45932   6.47391   6.48860
 Alpha virt. eigenvalues --    6.67650   6.79352   6.79352   6.96424   6.97490
 Alpha virt. eigenvalues --    7.48644   7.58614   7.58614   8.09151   9.06697
 Alpha virt. eigenvalues --    9.09945   9.17779   9.17779   9.50385   9.66864
 Alpha virt. eigenvalues --    9.66864  10.67374  10.79589  10.79589  10.85404
 Alpha virt. eigenvalues --   10.85404  11.04561  11.04583  11.14190  11.14190
 Alpha virt. eigenvalues --   11.27239  11.76841  12.03305  12.03305  12.12934
 Alpha virt. eigenvalues --   12.12961  12.54996  12.54996  12.71353  12.71404
 Alpha virt. eigenvalues --   12.72865  13.05979  13.05979  13.11547  13.11547
 Alpha virt. eigenvalues --   13.18707  13.18707  13.23869  13.27126  13.41972
 Alpha virt. eigenvalues --   13.68593  13.68593  13.77309  14.50260  15.72620
 Alpha virt. eigenvalues --   15.72620  15.72818  15.72885  15.80172  15.82983
 Alpha virt. eigenvalues --   16.00460  16.00460  16.11569  16.79797  16.79813
 Alpha virt. eigenvalues --   16.82082  16.82082  16.84771  16.84771  17.04755
 Alpha virt. eigenvalues --   17.07053  17.09112  17.41758  17.41758  17.61161
 Alpha virt. eigenvalues --   18.01848  18.05652  18.12639  18.12639  18.85688
 Alpha virt. eigenvalues --   26.02563  26.02563  26.55632  27.98057  28.49063
 Alpha virt. eigenvalues --   28.49063  29.70352  32.84495  32.88668  32.93195
 Alpha virt. eigenvalues --   32.93195  33.17263  33.41659  33.41659  33.44192
 Alpha virt. eigenvalues --   33.47141  33.75120  33.75120  34.11780  35.42429
 Alpha virt. eigenvalues --   36.22345  36.22345  36.23531  36.23545  36.27608
 Alpha virt. eigenvalues --   36.30650  36.40432  36.40432  36.69804  40.44940
 Alpha virt. eigenvalues --   40.45008  40.47420  40.47420  40.47925  40.47925
 Alpha virt. eigenvalues --   40.56992  40.60053  40.75513  40.75513  40.77103
 Alpha virt. eigenvalues --   46.99615  46.99615  47.18623  47.18623  47.63362
 Alpha virt. eigenvalues --   47.88389  47.88389  48.62639  56.53985  56.58297
 Alpha virt. eigenvalues --   56.62804  56.62804  56.92374  57.69942  70.06334
 Alpha virt. eigenvalues --   70.58836  70.58836  71.80150  87.01200  87.01200
 Alpha virt. eigenvalues --   87.82689  99.87740  99.91271  99.95823  99.95823
 Alpha virt. eigenvalues --  100.22253 103.60002 103.60002 103.60070 103.60070
 Alpha virt. eigenvalues --  103.64248 103.64248 103.65763 108.87615 133.32986
 Alpha virt. eigenvalues --  156.36879 156.36879 157.26501 160.49155 160.49155
 Alpha virt. eigenvalues --  161.35594 194.44371 205.71740 205.73584 205.78394
 Alpha virt. eigenvalues --  205.78394 205.98932 210.39307 210.39307 210.49642
 Alpha virt. eigenvalues --  210.49642 210.72756 256.54957 302.10514 302.10514
 Alpha virt. eigenvalues --  302.96830 328.12067 328.12067 328.91961 338.31180
 Alpha virt. eigenvalues --  503.71182 511.36566 511.37170 511.41529 511.41529
 Alpha virt. eigenvalues --  511.58097 582.93932 582.93932 583.74753 587.34794
 Alpha virt. eigenvalues --  696.59130 696.59130 697.335741008.839751059.74126
 Alpha virt. eigenvalues -- 1163.258651163.258651164.046921601.637351601.63855
 Alpha virt. eigenvalues -- 1601.669351601.669351601.771172071.339152227.46000
 Alpha virt. eigenvalues -- 2431.043872431.043872431.767904388.653435414.23466
 Alpha virt. eigenvalues -- 5414.234665414.883726103.633809659.99756**********
 Alpha virt. eigenvalues -- **************************************************
 Alpha virt. eigenvalues -- **************************************************
 Alpha virt. eigenvalues -- **************************************************
 Alpha virt. eigenvalues -- ********************
     Molecular Orbital Coefficients:
                           6         7         8         9        10
                           O         O         O         O         O
     Eigenvalues --    -0.76437  -0.76437  -0.75852  -0.70661  -0.68207
   1 1   Co 1S          0.00000  -0.00000   0.00000   0.00000   0.00000
   2        2S          0.00000   0.00000   0.00000   0.00000  -0.00000
   3        3S          0.00000  -0.00000   0.00000   0.00000   0.00000
   4        4S          0.00000   0.00000   0.00000   0.00000  -0.00000
   5        5S          0.00000  -0.00000   0.00000   0.00000   0.00000
   6        6S          0.00000   0.00000   0.00000   0.00000  -0.00000
   7        7S          0.00000  -0.00000   0.00000   0.00000   0.00001
   8        8S          0.00000   0.00000   0.00000   0.00000  -0.00002
   9        9S          0.00000  -0.00000   0.00000   0.00000   0.00007
  10       10S          0.00000   0.00001   0.00000   0.00000  -0.00021
  11       11S          0.00000  -0.00002   0.00000   0.00000   0.00057
  12       12S          0.00000   0.00006   0.00000   0.00000  -0.00144
  13       13S          0.00000  -0.00017   0.00000   0.00000   0.00355
  14       14S          0.00000   0.00066   0.00000   0.00000  -0.01150
  15       15S          0.00000   0.00001   0.00000   0.00000   0.00838
  16       16S          0.00000  -0.02178   0.00000   0.00000   0.17765
  17       17S          0.00000   0.01190   0.00000   0.00000  -0.10794
  18       18S          0.00000   0.06058   0.00000   0.00000  -0.39156
  19       19S          0.00000   0.00042   0.00000   0.00000  -0.13622
  20       20S          0.00000  -0.06911   0.00000   0.00000   0.31401
  21       21S          0.00000  -0.02913   0.00000   0.00000   0.30983
  22       22S          0.00000  -0.00539   0.00000   0.00000   0.05087
  23       23S          0.00000   0.01387   0.00000   0.00000  -0.08606
  24       24S          0.00000  -0.03864   0.00000   0.00000   0.19826
  25       25S          0.00000   0.00173   0.00000   0.00000  -0.00072
  26       26PX         0.00000   0.00000   0.00000  -0.00000   0.00000
  27       26PY         0.00000   0.00000  -0.00000   0.00000   0.00000
  28       26PZ         0.00000  -0.00000   0.00000   0.00000   0.00000
  29       27PX         0.00000   0.00000   0.00000   0.00000   0.00000
  30       27PY         0.00000   0.00000   0.00000   0.00000   0.00000
  31       27PZ         0.00000   0.00000   0.00000   0.00000  -0.00000
  32       28PX         0.00000   0.00000   0.00000  -0.00000   0.00000
  33       28PY         0.00000   0.00000  -0.00000   0.00000   0.00000
  34       28PZ         0.00000  -0.00000   0.00000   0.00000   0.00000
  35       29PX         0.00000   0.00000   0.00000   0.00000   0.00000
  36       29PY         0.00000   0.00000   0.00000   0.00000   0.00000
  37       29PZ         0.00000   0.00000   0.00000   0.00000  -0.00000
  38       30PX         0.00000   0.00000   0.00000  -0.00000   0.00000
  39       30PY         0.00000   0.00000  -0.00000   0.00000   0.00000
  40       30PZ         0.00000  -0.00000   0.00000   0.00000   0.00001
  41       31PX         0.00000   0.00000   0.00000   0.00001   0.00000
  42       31PY         0.00000   0.00000   0.00001   0.00000   0.00000
  43       31PZ         0.00000   0.00001   0.00000   0.00000  -0.00002
  44       32PX         0.00000   0.00000   0.00000  -0.00004   0.00000
  45       32PY         0.00000   0.00000  -0.00004   0.00000   0.00000
  46       32PZ         0.00000  -0.00002   0.00000   0.00000   0.00007
  47       33PX         0.00000   0.00000   0.00000   0.00012   0.00000
  48       33PY         0.00000   0.00000   0.00012   0.00000   0.00000
  49       33PZ         0.00000   0.00006   0.00000   0.00000  -0.00020
  50       34PX         0.00000   0.00000   0.00000  -0.00040   0.00000
  51       34PY         0.00000   0.00000  -0.00040   0.00000   0.00000
  52       34PZ         0.00000  -0.00017   0.00000   0.00000   0.00067
  53       35PX         0.00000   0.00000   0.00000   0.00134   0.00000
  54       35PY         0.00000   0.00000   0.00134   0.00000   0.00000
  55       35PZ         0.00000   0.00058   0.00000   0.00000  -0.00234
  56       36PX         0.00000   0.00000   0.00000  -0.00299   0.00000
  57       36PY         0.00000   0.00000  -0.00299   0.00000   0.00000
  58       36PZ         0.00000   0.00283   0.00000   0.00000  -0.00389
  59       37PX         0.00000   0.00000   0.00000  -0.01606   0.00000
  60       37PY         0.00000   0.00000  -0.01606   0.00000   0.00000
  61       37PZ         0.00000  -0.00270   0.00000   0.00000   0.02218
  62       38PX         0.00000   0.00000   0.00000  -0.02029   0.00000
  63       38PY         0.00000   0.00000  -0.02029   0.00000   0.00000
  64       38PZ         0.00000   0.00009   0.00000   0.00000   0.02505
  65       39PX         0.00000   0.00000   0.00000  -0.03385   0.00000
  66       39PY         0.00000   0.00000  -0.03385   0.00000   0.00000
  67       39PZ         0.00000  -0.00561   0.00000   0.00000   0.04652
  68       40PX         0.00000   0.00000   0.00000  -0.00307   0.00000
  69       40PY         0.00000   0.00000  -0.00307   0.00000   0.00000
  70       40PZ         0.00000   0.00365   0.00000   0.00000  -0.00765
  71       41PX         0.00000   0.00000   0.00000   0.05257   0.00000
  72       41PY         0.00000   0.00000   0.05257   0.00000   0.00000
  73       41PZ         0.00000   0.01857   0.00000   0.00000  -0.05098
  74       42PX         0.00000   0.00000   0.00000   0.05745   0.00000
  75       42PY         0.00000   0.00000   0.05745   0.00000   0.00000
  76       42PZ         0.00000   0.01177   0.00000   0.00000  -0.01274
  77       43PX         0.00000   0.00000   0.00000   0.00594   0.00000
  78       43PY         0.00000   0.00000   0.00594   0.00000   0.00000
  79       43PZ         0.00000  -0.00022   0.00000   0.00000   0.00598
  80       44PX         0.00000   0.00000   0.00000   0.00520   0.00000
  81       44PY         0.00000   0.00000   0.00520   0.00000   0.00000
  82       44PZ         0.00000  -0.00247   0.00000   0.00000   0.00072
  83       45PX         0.00000   0.00000   0.00000  -0.00564   0.00000
  84       45PY         0.00000   0.00000  -0.00564   0.00000   0.00000
  85       45PZ         0.00000  -0.00463   0.00000   0.00000   0.00620
  86       46PX         0.00000   0.00000   0.00000  -0.00165   0.00000
  87       46PY         0.00000   0.00000  -0.00165   0.00000   0.00000
  88       46PZ         0.00000  -0.00031   0.00000   0.00000  -0.00109
  89       47D 0        0.00000  -0.00001   0.00000   0.00000   0.00000
  90       47D+1        0.00000   0.00000   0.00000   0.00000   0.00000
  91       47D-1        0.00000   0.00000   0.00000   0.00000   0.00000
  92       47D+2        0.00000   0.00000   0.00000   0.00000  -0.00000
  93       47D-2       -0.00001   0.00000   0.00000   0.00000   0.00000
  94       48D 0        0.00000   0.00011   0.00000   0.00000  -0.00002
  95       48D+1        0.00000   0.00000   0.00000  -0.00002   0.00000
  96       48D-1        0.00000   0.00000  -0.00002   0.00000   0.00000
  97       48D+2        0.00000  -0.00000   0.00000   0.00000   0.00000
  98       48D-2        0.00012   0.00000   0.00000   0.00000   0.00000
  99       49D 0        0.00000  -0.00067   0.00000   0.00000   0.00014
 100       49D+1        0.00000   0.00000   0.00000   0.00010   0.00000
 101       49D-1        0.00000   0.00000   0.00010   0.00000   0.00000
 102       49D+2        0.00000   0.00000   0.00000   0.00000  -0.00000
 103       49D-2       -0.00072   0.00000   0.00000   0.00000   0.00000
 104       50D 0        0.00000   0.01372   0.00000   0.00000  -0.00296
 105       50D+1        0.00000   0.00000   0.00000  -0.00206   0.00000
 106       50D-1        0.00000   0.00000  -0.00206   0.00000   0.00000
 107       50D+2        0.00000  -0.00000   0.00000   0.00000   0.00000
 108       50D-2        0.01470   0.00000   0.00000   0.00000   0.00000
 109       51D 0        0.00000   0.15373   0.00000   0.00000  -0.03487
 110       51D+1        0.00000   0.00000   0.00000  -0.02282   0.00000
 111       51D-1        0.00000   0.00000  -0.02282   0.00000   0.00000
 112       51D+2        0.00000  -0.00000   0.00000   0.00000   0.00000
 113       51D-2        0.16517   0.00000   0.00000   0.00000   0.00000
 114       52D 0        0.00000   0.27893   0.00000   0.00000  -0.06907
 115       52D+1        0.00000   0.00000   0.00000  -0.04151   0.00000
 116       52D-1        0.00000   0.00000  -0.04151   0.00000   0.00000
 117       52D+2        0.00000  -0.00000   0.00000   0.00000   0.00000
 118       52D-2        0.30154   0.00000   0.00000   0.00000   0.00000
 119       53D 0        0.00000   0.29667   0.00000   0.00000  -0.06843
 120       53D+1        0.00000   0.00000   0.00000  -0.04482   0.00000
 121       53D-1        0.00000   0.00000  -0.04482   0.00000   0.00000
 122       53D+2        0.00000  -0.00000   0.00000   0.00000   0.00000
 123       53D-2        0.31870   0.00000   0.00000   0.00000   0.00000
 124       54D 0        0.00000   0.27841   0.00000   0.00000  -0.05816
 125       54D+1        0.00000   0.00000   0.00000  -0.04456   0.00000
 126       54D-1        0.00000   0.00000  -0.04456   0.00000   0.00000
 127       54D+2        0.00000  -0.00000   0.00000   0.00000   0.00000
 128       54D-2        0.29473   0.00000   0.00000   0.00000   0.00000
 129       55D 0        0.00000   0.19430   0.00000   0.00000  -0.03253
 130       55D+1        0.00000   0.00000   0.00000  -0.04781   0.00000
 131       55D-1        0.00000   0.00000  -0.04781   0.00000   0.00000
 132       55D+2        0.00000  -0.00000   0.00000   0.00000   0.00000
 133       55D-2        0.20222   0.00000   0.00000   0.00000   0.00000
 134       56D 0        0.00000   0.06487   0.00000   0.00000  -0.01291
 135       56D+1        0.00000   0.00000   0.00000  -0.02264   0.00000
 136       56D-1        0.00000   0.00000  -0.02264   0.00000   0.00000
 137       56D+2        0.00000  -0.00000   0.00000   0.00000   0.00000
 138       56D-2        0.06872   0.00000   0.00000   0.00000   0.00000
 139       57D 0        0.00000   0.00235   0.00000   0.00000  -0.00817
 140       57D+1        0.00000   0.00000   0.00000  -0.00772   0.00000
 141       57D-1        0.00000   0.00000  -0.00772   0.00000   0.00000
 142       57D+2        0.00000   0.00000   0.00000   0.00000  -0.00000
 143       57D-2        0.00389   0.00000   0.00000   0.00000   0.00000
 144       58D 0        0.00000  -0.00241   0.00000   0.00000   0.00345
 145       58D+1        0.00000   0.00000   0.00000  -0.00017   0.00000
 146       58D-1        0.00000   0.00000  -0.00017   0.00000   0.00000
 147       58D+2        0.00000   0.00000   0.00000   0.00000  -0.00000
 148       58D-2       -0.00343   0.00000   0.00000   0.00000   0.00000
 149       59D 0        0.00000  -0.03209   0.00000   0.00000   0.01529
 150       59D+1        0.00000   0.00000   0.00000   0.00437   0.00000
 151       59D-1        0.00000   0.00000   0.00437   0.00000   0.00000
 152       59D+2        0.00000   0.00000   0.00000   0.00000  -0.00000
 153       59D-2       -0.03720   0.00000   0.00000   0.00000   0.00000
 154       60D 0        0.00000   0.00061   0.00000   0.00000   0.00156
 155       60D+1        0.00000   0.00000   0.00000   0.00262   0.00000
 156       60D-1        0.00000   0.00000   0.00262   0.00000   0.00000
 157       60D+2        0.00000   0.00000   0.00000   0.00000  -0.00000
 158       60D-2        0.00002   0.00000   0.00000   0.00000   0.00000
 159       61F 0        0.00000   0.00041   0.00000   0.00000  -0.00029
 160       61F+1        0.00000   0.00000   0.00000   0.00014   0.00000
 161       61F-1        0.00000   0.00000   0.00014   0.00000   0.00000
 162       61F+2        0.00000  -0.00000   0.00000   0.00000  -0.00000
 163       61F-2        0.00040   0.00000   0.00000   0.00000   0.00000
 164       61F+3        0.00000   0.00000   0.00000   0.00003   0.00000
 165       61F-3        0.00000   0.00000  -0.00003   0.00000   0.00000
 166       62F 0        0.00000   0.00092   0.00000   0.00000  -0.00081
 167       62F+1        0.00000   0.00000   0.00000   0.00049   0.00000
 168       62F-1        0.00000   0.00000   0.00049   0.00000   0.00000
[...]
 167       62F+1        0.00002   0.00001   0.00001   0.00001
 168       62F-1        0.00002   0.00001   0.00001   0.00001
 169       62F+2        0.00000   0.00000   0.00000   0.00000
 170       62F-2        0.00001   0.00000   0.00000   0.00000
 171       62F+3        0.00002   0.00001   0.00001   0.00000
 172       62F-3        0.00002   0.00001   0.00001   0.00000
 173       63F 0        0.00032   0.00016   0.00016  -0.00000
 174       63F+1        0.00015   0.00011   0.00004   0.00007
 175       63F-1        0.00015   0.00011   0.00004   0.00007
 176       63F+2        0.00002   0.00002   0.00000   0.00002
 177       63F-2        0.00005   0.00003   0.00003   0.00000
 178       63F+3        0.00004   0.00002   0.00002   0.00000
 179       63F-3        0.00004   0.00002   0.00002   0.00000
 180       64F 0        0.00383   0.00191   0.00191   0.00000
 181       64F+1        0.00415   0.00247   0.00169   0.00078
 182       64F-1        0.00415   0.00247   0.00169   0.00078
 183       64F+2        0.00013   0.00013   0.00000   0.00013
 184       64F-2        0.00025   0.00013   0.00013   0.00000
 185       64F+3        0.00002   0.00001   0.00001   0.00000
 186       64F-3        0.00002   0.00001   0.00001   0.00000
 187       65F 0        0.00054   0.00027   0.00027  -0.00000
 188       65F+1        0.00413   0.00250   0.00163   0.00086
 189       65F-1        0.00413   0.00250   0.00163   0.00086
 190       65F+2        0.00005   0.00005  -0.00000   0.00005
 191       65F-2        0.00013   0.00006   0.00006   0.00000
 192       65F+3        0.00000   0.00000   0.00000  -0.00000
 193       65F-3        0.00000   0.00000   0.00000  -0.00000
 194       66G 0        0.00000   0.00000   0.00000   0.00000
 195       66G+1        0.00000   0.00000   0.00000   0.00000
 196       66G-1        0.00000   0.00000   0.00000   0.00000
 197       66G+2        0.00000   0.00000   0.00000   0.00000
 198       66G-2        0.00000   0.00000   0.00000   0.00000
 199       66G+3        0.00000   0.00000   0.00000   0.00000
 200       66G-3        0.00000   0.00000   0.00000   0.00000
 201       66G+4        0.00000   0.00000   0.00000   0.00000
 202       66G-4        0.00000   0.00000   0.00000   0.00000
 203       67G 0        0.00000   0.00000   0.00000  -0.00000
 204       67G+1        0.00000   0.00000  -0.00000   0.00000
 205       67G-1        0.00000   0.00000  -0.00000   0.00000
 206       67G+2        0.00000   0.00000   0.00000   0.00000
 207       67G-2        0.00000   0.00000   0.00000   0.00000
 208       67G+3        0.00000   0.00000   0.00000   0.00000
 209       67G-3        0.00000   0.00000   0.00000   0.00000
 210       67G+4        0.00000   0.00000   0.00000   0.00000
 211       67G-4        0.00000   0.00000   0.00000   0.00000
 212       68G 0        0.00011   0.00005   0.00005   0.00000
 213       68G+1        0.00007   0.00004   0.00003   0.00000
 214       68G-1        0.00007   0.00004   0.00003   0.00000
 215       68G+2        0.00000   0.00000   0.00000   0.00000
 216       68G-2        0.00000   0.00000   0.00000   0.00000
 217       68G+3        0.00000   0.00000   0.00000   0.00000
 218       68G-3        0.00000   0.00000   0.00000   0.00000
 219       68G+4        0.00000   0.00000   0.00000   0.00000
 220       68G-4        0.00000   0.00000   0.00000   0.00000
 221       69G 0        0.00051   0.00026   0.00026   0.00000
 222       69G+1        0.00119   0.00061   0.00058   0.00003
 223       69G-1        0.00119   0.00061   0.00058   0.00003
 224       69G+2        0.00000   0.00000  -0.00000   0.00000
 225       69G-2       -0.00000  -0.00000  -0.00000   0.00000
 226       69G+3        0.00000   0.00000   0.00000   0.00000
 227       69G-3        0.00000   0.00000   0.00000   0.00000
 228       69G+4        0.00000   0.00000   0.00000   0.00000
 229       69G-4       -0.00000  -0.00000  -0.00000   0.00000
 230       70H 0        0.00000   0.00000   0.00000   0.00000
 231       70H+1        0.00000   0.00000   0.00000   0.00000
 232       70H-1        0.00000   0.00000   0.00000   0.00000
 233       70H+2        0.00000   0.00000   0.00000   0.00000
 234       70H-2        0.00000   0.00000   0.00000   0.00000
 235       70H+3        0.00000   0.00000   0.00000   0.00000
 236       70H-3        0.00000   0.00000   0.00000   0.00000
 237       70H+4        0.00000   0.00000   0.00000   0.00000
 238       70H-4        0.00000   0.00000   0.00000   0.00000
 239       70H+5        0.00000   0.00000   0.00000   0.00000
 240       70H-5        0.00000   0.00000   0.00000   0.00000
 241       71H 0       -0.00000  -0.00000  -0.00000  -0.00000
 242       71H+1       -0.00000  -0.00000  -0.00000   0.00000
 243       71H-1       -0.00000  -0.00000  -0.00000   0.00000
 244       71H+2       -0.00000  -0.00000   0.00000  -0.00000
 245       71H-2       -0.00000  -0.00000  -0.00000   0.00000
 246       71H+3        0.00000   0.00000   0.00000   0.00000
 247       71H-3        0.00000   0.00000   0.00000   0.00000
 248       71H+4        0.00000   0.00000   0.00000   0.00000
 249       71H-4        0.00000   0.00000   0.00000   0.00000
 250       71H+5        0.00000   0.00000   0.00000   0.00000
 251       71H-5        0.00000   0.00000   0.00000   0.00000
 252       72H 0        0.00007   0.00004   0.00004   0.00000
 253       72H+1        0.00005   0.00002   0.00003  -0.00000
 254       72H-1        0.00005   0.00002   0.00003  -0.00000
 255       72H+2        0.00000   0.00000  -0.00000   0.00000
 256       72H-2        0.00000   0.00000   0.00000   0.00000
 257       72H+3        0.00000   0.00000   0.00000   0.00000
 258       72H-3        0.00000   0.00000   0.00000   0.00000
 259       72H+4        0.00000   0.00000   0.00000   0.00000
 260       72H-4        0.00000   0.00000   0.00000   0.00000
 261       72H+5        0.00000   0.00000   0.00000   0.00000
 262       72H-5        0.00000   0.00000   0.00000   0.00000
 263 2   O  1S         -0.00000  -0.00000  -0.00000   0.00000
 264        2S          0.00000   0.00000   0.00000  -0.00000
 265        3S         -0.00000  -0.00000  -0.00000   0.00000
 266        4S          0.00000   0.00000   0.00000  -0.00000
 267        5S         -0.00001  -0.00000  -0.00000   0.00000
 268        6S         -0.00036  -0.00018  -0.00018   0.00000
 269        7S         -0.00492  -0.00246  -0.00246   0.00000
 270        8S         -0.05096  -0.02548  -0.02548   0.00000
 271        9S         -0.08902  -0.04451  -0.04451  -0.00000
 272       10S          0.42710   0.21355   0.21355   0.00000
 273       11S          1.06494   0.53247   0.53247   0.00000
 274       12S          0.54659   0.27330   0.27330   0.00000
 275       13S          0.04206   0.02103   0.02103  -0.00000
 276       14S          0.00262   0.00131   0.00131  -0.00000
 277       15S          0.00014   0.00007   0.00007  -0.00000
 278       16S          0.02666   0.01333   0.01333   0.00000
 279       17PX        -0.00011  -0.00006  -0.00005  -0.00000
 280       17PY        -0.00011  -0.00006  -0.00005  -0.00000
 281       17PZ        -0.00009  -0.00004  -0.00004  -0.00000
 282       18PX        -0.22184  -0.11334  -0.10850  -0.00485
 283       18PY        -0.22184  -0.11334  -0.10850  -0.00485
 284       18PZ        -0.16044  -0.08022  -0.08022  -0.00000
 285       19PX         0.14387   0.07357   0.07029   0.00328
 286       19PY         0.14387   0.07357   0.07029   0.00328
 287       19PZ         0.09867   0.04934   0.04934   0.00000
 288       20PX         0.47664   0.24340   0.23324   0.01017
 289       20PY         0.47664   0.24340   0.23324   0.01017
 290       20PZ         0.34098   0.17049   0.17049   0.00000
 291       21PX         0.70506   0.35823   0.34683   0.01140
 292       21PY         0.70506   0.35823   0.34683   0.01140
 293       21PZ         0.52265   0.26132   0.26132   0.00000
 294       22PX         0.44453   0.22525   0.21928   0.00598
 295       22PY         0.44453   0.22525   0.21928   0.00598
 296       22PZ         0.32450   0.16225   0.16225  -0.00000
 297       23PX         0.24038   0.12282   0.11755   0.00527
 298       23PY         0.24038   0.12282   0.11755   0.00527
 299       23PZ         0.17331   0.08665   0.08665   0.00000
 300       24PX         0.00038   0.00019   0.00018   0.00001
 301       24PY         0.00038   0.00019   0.00018   0.00001
 302       24PZ         0.00029   0.00015   0.00015   0.00000
 303       25PX         0.00001   0.00000   0.00000   0.00000
 304       25PY         0.00001   0.00000   0.00000   0.00000
 305       25PZ         0.00000   0.00000   0.00000   0.00000
 306       26PX         0.04460   0.02301   0.02159   0.00142
 307       26PY         0.04460   0.02301   0.02159   0.00142
 308       26PZ         0.04303   0.02152   0.02152   0.00000
 309       27D 0        0.00007   0.00004   0.00004  -0.00000
 310       27D+1        0.00005   0.00002   0.00002   0.00000
 311       27D-1        0.00005   0.00002   0.00002   0.00000
 312       27D+2        0.00000   0.00000   0.00000   0.00000
 313       27D-2        0.00000   0.00000   0.00000   0.00000
 314       28D 0        0.00149   0.00075   0.00075  -0.00000
 315       28D+1        0.00074   0.00040   0.00034   0.00006
 316       28D-1        0.00074   0.00040   0.00034   0.00006
 317       28D+2        0.00001   0.00001   0.00000   0.00001
 318       28D-2        0.00002   0.00001   0.00001   0.00000
 319       29D 0        0.00564   0.00282   0.00282   0.00000
 320       29D+1        0.00472   0.00234   0.00238  -0.00005
 321       29D-1        0.00472   0.00234   0.00238  -0.00005
 322       29D+2        0.00007   0.00007   0.00000   0.00007
 323       29D-2        0.00020   0.00010   0.00010   0.00000
 324       30D 0        0.00000   0.00000   0.00000   0.00000
 325       30D+1        0.00000   0.00000   0.00000   0.00000
 326       30D-1        0.00000   0.00000   0.00000   0.00000
 327       30D+2        0.00000   0.00000   0.00000   0.00000
 328       30D-2        0.00000   0.00000   0.00000   0.00000
 329       31D 0       -0.00000  -0.00000  -0.00000  -0.00000
 330       31D+1       -0.00000  -0.00000  -0.00000  -0.00000
 331       31D-1       -0.00000  -0.00000  -0.00000  -0.00000
 332       31D+2       -0.00000  -0.00000  -0.00000  -0.00000
 333       31D-2       -0.00000  -0.00000  -0.00000   0.00000
 334       32D 0        0.00364   0.00182   0.00182   0.00000
 335       32D+1        0.00395   0.00179   0.00216  -0.00036
 336       32D-1        0.00395   0.00179   0.00216  -0.00036
 337       32D+2        0.00005   0.00005   0.00000   0.00005
 338       32D-2        0.00009   0.00005   0.00005   0.00000
 339       33F 0        0.00003   0.00001   0.00001  -0.00000
 340       33F+1        0.00001   0.00001   0.00001   0.00000
 341       33F-1        0.00001   0.00001   0.00001   0.00000
 342       33F+2        0.00000   0.00000  -0.00000   0.00000
 343       33F-2        0.00000   0.00000   0.00000   0.00000
 344       33F+3        0.00000   0.00000   0.00000   0.00000
 345       33F-3        0.00000   0.00000   0.00000   0.00000
 346       34F 0        0.00101   0.00051   0.00051   0.00000
 347       34F+1        0.00047   0.00029   0.00019   0.00010
 348       34F-1        0.00047   0.00029   0.00019   0.00010
 349       34F+2        0.00002   0.00002   0.00000   0.00002
 350       34F-2        0.00006   0.00003   0.00003   0.00000
 351       34F+3       -0.00000  -0.00000   0.00000  -0.00000
 352       34F-3       -0.00000  -0.00000   0.00000  -0.00000
 353       35F 0        0.00000   0.00000   0.00000  -0.00000
 354       35F+1        0.00000   0.00000   0.00000   0.00000
 355       35F-1        0.00000   0.00000   0.00000   0.00000
 356       35F+2        0.00000   0.00000  -0.00000   0.00000
 357       35F-2        0.00000   0.00000   0.00000   0.00000
 358       35F+3       -0.00000  -0.00000  -0.00000  -0.00000
 359       35F-3       -0.00000  -0.00000  -0.00000  -0.00000
 360       36F 0        0.00129   0.00065   0.00065   0.00000
 361       36F+1        0.00067   0.00024   0.00042  -0.00018
 362       36F-1        0.00067   0.00024   0.00042  -0.00018
 363       36F+2        0.00002   0.00002   0.00000   0.00002
 364       36F-2        0.00005   0.00003   0.00003   0.00000
 365       36F+3       -0.00000  -0.00000  -0.00000  -0.00000
 366       36F-3       -0.00000  -0.00000  -0.00000  -0.00000
 367       37G 0        0.00003   0.00001   0.00001   0.00000
 368       37G+1        0.00001   0.00001   0.00000   0.00001
 369       37G-1        0.00001   0.00001   0.00000   0.00001
 370       37G+2        0.00000   0.00000  -0.00000   0.00000
 371       37G-2        0.00000   0.00000   0.00000   0.00000
 372       37G+3        0.00000   0.00000   0.00000   0.00000
 373       37G-3        0.00000   0.00000   0.00000   0.00000
 374       37G+4       -0.00000  -0.00000  -0.00000  -0.00000
 375       37G-4       -0.00000  -0.00000  -0.00000   0.00000
 376       38G 0        0.00059   0.00030   0.00030   0.00000
 377       38G+1        0.00017   0.00012   0.00005   0.00007
 378       38G-1        0.00017   0.00012   0.00005   0.00007
 379       38G+2        0.00002   0.00002   0.00000   0.00002
 380       38G-2        0.00005   0.00002   0.00002   0.00000
 381       38G+3       -0.00000  -0.00000  -0.00000  -0.00000
 382       38G-3       -0.00000  -0.00000  -0.00000  -0.00000
 383       38G+4        0.00000   0.00000   0.00000  -0.00000
 384       38G-4       -0.00000  -0.00000  -0.00000   0.00000
          Condensed to atoms (all electrons):
               1          2
     1  Co  15.706612   0.282603
     2  O    0.282603   6.728182
          Atomic-Atomic Spin Densities.
               1          2
     1  Co   2.961689  -0.026506
     2  O   -0.026506   0.091323
 Mulliken charges and spin densities:
               1          2
     1  Co   1.010785   2.935183
     2  O   -1.010785   0.064817
 Sum of Mulliken charges =  -0.00000   3.00000
 Mulliken charges and spin densities with hydrogens summed into heavy atoms:
               1          2
     1  Co   1.010785   2.935183
     2  O   -1.010785   0.064817
 Electronic spatial extent (au):  <R**2>=             90.5574
 Charge=             -0.0000 electrons
 Dipole moment (field-independent basis, Debye):
    X=              0.0000    Y=              0.0000    Z=              8.1176  Tot=              8.1176
 Quadrupole moment (field-independent basis, Debye-Ang):
   XX=            -18.9038   YY=            -18.9038   ZZ=            -22.1017
   XY=              0.0000   XZ=              0.0000   YZ=              0.0000
 Traceless Quadrupole moment (field-independent basis, Debye-Ang):
   XX=              1.0659   YY=              1.0659   ZZ=             -2.1319
   XY=              0.0000   XZ=              0.0000   YZ=              0.0000
 Octapole moment (field-independent basis, Debye-Ang**2):
  XXX=              0.0000  YYY=              0.0000  ZZZ=             23.6983  XYY=              0.0000
  XXY=              0.0000  XXZ=              5.8018  XZZ=              0.0000  YZZ=              0.0000
  YYZ=              5.8018  XYZ=              0.0000
 Hexadecapole moment (field-independent basis, Debye-Ang**3):
 XXXX=            -22.2162 YYYY=            -22.2162 ZZZZ=           -100.5289 XXXY=              0.0000
 XXXZ=              0.0000 YYYX=              0.0000 YYYZ=              0.0000 ZZZX=              0.0000
 ZZZY=              0.0000 XXYY=             -7.5510 XXZZ=            -20.0207 YYZZ=            -20.0207
 XXYZ=              0.0000 YYXZ=              0.0000 ZZXY=              0.0000
 N-N= 3.175063265520D+01 E-N=-4.443560507327D+02  KE= 9.638008049513D+01
 Symmetry A1   KE= 3.996877520081D+01
 Symmetry A2   KE= 1.494598259551D+01
 Symmetry B1   KE= 2.073266135087D+01
 Symmetry B2   KE= 2.073266134659D+01
 Symmetry A1   SP= 1.000000000000D+00
 Symmetry A2   SP= 0.000000000000D+00
 Symmetry B1   SP= 1.000000000000D+00
 Symmetry B2   SP= 1.000000000000D+00
 Orbital energies and kinetic energies (alpha):
                                 1                 2
   6         O                -0.764366          7.472991
   7         O                -0.764366          6.739214
   8         O                -0.758525          2.082143
   9         O                -0.706610          2.082143
  10         O                -0.682073          1.779103
  11         O                -0.379264          7.730749
  12         O                -0.379264          7.683388
  13         O                -0.358297          7.683388
  14         V                -0.052545          0.660941
  15         V                 0.016986          0.084888
  16         V                 0.016986          0.084888
  17         V                 0.018608          0.180301
  18         V                 0.037607          0.048306
 Total kinetic energy from orbitals= 1.194776050549D+02
                          Isotropic Fermi Contact Couplings
        Atom                 a.u.       MegaHertz       Gauss      10(-4) cm-1
     1  Co(59)            -0.00000      -0.00000      -0.00000      -0.00000
     2  O(17)              0.00000      -0.00000      -0.00000      -0.00000
 --------------------------------------------------------
       Center         ----  Spin Dipole Couplings  ----
                      3XX-RR        3YY-RR        3ZZ-RR
 --------------------------------------------------------
     1   Atom        0.032767      0.032767     -0.065534
     2   Atom       -0.021658     -0.021658      0.043317
 --------------------------------------------------------
                        XY            XZ            YZ
 --------------------------------------------------------
     1   Atom        0.000000      0.000000      0.000000
     2   Atom        0.000000      0.000000      0.000000
 --------------------------------------------------------


 ---------------------------------------------------------------------------------
              Anisotropic Spin Dipole Couplings in Principal Axis System
 ---------------------------------------------------------------------------------

       Atom             a.u.   MegaHertz   Gauss  10(-4) cm-1        Axes

              Baa    -0.0655    -8.276    -2.953    -2.760  0.0000  0.0000  1.0000
     1 Co(59) Bbb     0.0328     4.138     1.476     1.380  1.0000  0.0000  0.0000
              Bcc     0.0328     4.138     1.476     1.380 -0.0000  1.0000  0.0000
 
              Baa    -0.0217     1.567     0.559     0.523  1.0000  0.0000  0.0000
     2 O(17)  Bbb    -0.0217     1.567     0.559     0.523 -0.0000  1.0000  0.0000
              Bcc     0.0433    -3.134    -1.118    -1.046  0.0000  0.0000  1.0000
 

 ---------------------------------------------------------------------------------

 No NMR shielding tensors so no spin-rotation constants.
 Leave Link  601 at Sat Mar 31 17:04:13 2018, MaxMem= 10737418240 cpu:             238.0 elap:               7.7
 (Enter /home1/apps/gaussian/16rA.03/g16/l9999.exe)

 Test job not archived.
 1\1\GINC-C419-011\SP\ROCCSD(T)-Full\Gen\Co1O1(4)\GWANG18\31-Mar-2018\0
 \\#P ROCCSD(T)=(MaxCyc=150, Full)/Gen SCF=(maxcycle=400) Pseudo=Read I
 ntegral(NoXCTest) Pop=Regular MaxDisk=500GB Guess=Read IOp(5/15=2)\\Co
 O\\0,4\Co,0,0.,0.,0.\O,0,0.,0.,1.7\\Version=ES64L-G16RevA.03\HF=-160.6
 227792\MP2=-161.7568626\MP3=-161.6718412\PUHF=-160.6227792\PMP2-0=-161
 .7568626\MP4SDQ=-161.7313586\CCSD=-161.7213942\CCSD(T)=-161.7796605\RM
 SD=4.737e-09\PG=C*V [C*(O1Co1)]\\@


 THE THINKER DIES, BUT HIS THOUGHTS ARE BEYOND THE 
 REACH OF DESTRUCTION.  MEN ARE MORTAL; BUT IDEAS 
 ARE IMMORTAL.
                              -- WALTER LIPPMANN
 Job cpu time:       3 days  2 hours 49 minutes 12.3 seconds.
 Elapsed time:       0 days  2 hours 21 minutes 11.2 seconds.
 File lengths (MBytes):  RWF=  16011 Int=      0 D2E=      0 Chk=     19 Scr=      1
 Normal termination of Gaussian 16 at Sat Mar 31 17:04:14 2018.
