 Entering Gaussian System, Link 0=g16
 Initial command:
 /home1/apps/gaussian/16rA.03/g16/l1.exe "/tmp/Gau-179342.inp" -scrdir="/tmp/"
 Entering Link 1 = /home1/apps/gaussian/16rA.03/g16/l1.exe PID=    179343.
  
 Copyright (c) 1988,1990,1992,1993,1995,1998,2003,2009,2016,
            Gaussian, Inc.  All Rights Reserved.
  
 This is part of the Gaussian(R) 16 program.  It is based on
 the Gaussian(R) 09 system (copyright 2009, Gaussian, Inc.),
 the Gaussian(R) 03 system (copyright 2003, Gaussian, Inc.),
 the Gaussian(R) 98 system (copyright 1998, Gaussian, Inc.),
 the Gaussian(R) 94 system (copyright 1995, Gaussian, Inc.),
 the Gaussian 92(TM) system (copyright 1992, Gaussian, Inc.),
 the Gaussian 90(TM) system (copyright 1990, Gaussian, Inc.),
 the Gaussian 88(TM) system (copyright 1988, Gaussian, Inc.),
 the Gaussian 86(TM) system (copyright 1986, Carnegie Mellon
 University), and the Gaussian 82(TM) system (copyright 1983,
 Carnegie Mellon University). Gaussian is a federally registered
 trademark of Gaussian, Inc.
  
 This software contains proprietary and confidential information,
 including trade secrets, belonging to Gaussian, Inc.
  
 This software is provided under written license and may be
 used, copied, transmitted, or stored only in accord with that
 written license.
  
 The following legend is applicable only to US Government
 contracts under FAR:
  
                    RESTRICTED RIGHTS LEGEND
  
 Use, reproduction and disclosure by the US Government is
 subject to restrictions as set forth in subparagraphs (a)
 and (c) of the Commercial Computer Software - Restricted
 Rights clause in FAR 52.227-19.
  
 Gaussian, Inc.
 340 Quinnipiac St., Bldg. 40, Wallingford CT 06492
  
  
 ---------------------------------------------------------------
 Warning -- This program may not be used in any manner that
 competes with the business of Gaussian, Inc. or will provide
 assistance to any competitor of Gaussian, Inc.  The licensee
 of this program is prohibited from giving any competitor of
 Gaussian, Inc. access to this program.  By using this program,
 the user acknowledges that Gaussian, Inc. is engaged in the
 business of creating and licensing software in the field of
 computational chemistry and represents and warrants to the
 licensee that it is not a competitor of Gaussian, Inc. and that
 it will not use this program in any manner prohibited above.
 ---------------------------------------------------------------
  

 Cite this work as:
 Gaussian 16, Revision A.03,
 M. J. Frisch, G. W. Trucks, H. B. Schlegel, G. E. Scuseria, 
 M. A. Robb, J. R. Cheeseman, G. Scalmani, V. Barone, 
 G. A. Petersson, H. Nakatsuji, X. Li, M. Caricato, A. V. Marenich, 
 J. Bloino, B. G. Janesko, R. Gomperts, B. Mennucci, H. P. Hratchian, 
 J. V. Ortiz, A. F. Izmaylov, J. L. Sonnenberg, D. Williams-Young, 
 F. Ding, F. Lipparini, F. Egidi, J. Goings, B. Peng, A. Petrone, 
 T. Henderson, D. Ranasinghe, V. G. Zakrzewski, J. Gao, N. Rega, 
 G. Zheng, W. Liang, M. Hada, M. Ehara, K. Toyota, R. Fukuda, 
 J. Hasegawa, M. Ishida, T. Nakajima, Y. Honda, O. Kitao, H. Nakai, 
 T. Vreven, K. Throssell, J. A. Montgomery, Jr., J. E. Peralta, 
 F. Ogliaro, M. J. Bearpark, J. J. Heyd, E. N. Brothers, K. N. Kudin, 
 V. N. Staroverov, T. A. Keith, R. Kobayashi, J. Normand, 
 K. Raghavachari, A. P. Rendell, J. C. Burant, S. S. Iyengar, 
 J. Tomasi, M. Cossi, J. M. Millam, M. Klene, C. Adamo, R. Cammi, 
 J. W. Ochterski, R. L. Martin, K. Morokuma, O. Farkas, 
 J. B. Foresman, and D. J. Fox, Gaussian, Inc., Wallingford CT, 2016.
 
 ******************************************
 Gaussian 16:  ES64L-G16RevA.03 25-Dec-2016
                26-Feb-2018 
 ******************************************
 %MEM=64GB
 %CPU=0-15
 SetSPE:  set environment variable "MP_BIND" = "yes"
 SetSPE:  set environment variable "MP_BLIST" = "0,1,2,3,4,5,6,7,8,9,10,11,12,13,14,15"
 Will use up to   16 processors via shared memory.
 %RWF=/scratch/04843/aannabe/gaussian/
 %Int=/scratch/04843/aannabe/gaussian/
 %D2E=/scratch/04843/aannabe/gaussian/
 %NoSave
 %CHK=MnH
 ----------------------------------------------------------------------
 #P ROCCSD(T)=(maxcyc=150, Full, SaveAmplitudes, ReadAmplitudes)/Gen 5d
  7f SCF=(maxcycles=300) Integral(NoXCTest) MaxDisk=500GB Pop=Regular P
 seudo=Read Guess=Read IOp(5/15=2)
 ----------------------------------------------------------------------
 1/38=1,172=1/1;
 2/12=2,17=6,18=5,40=1/2;
 3/5=7,8=11,11=2,16=1,17=8,25=1,30=1,47=8,116=101/1,2,3;
 4/5=1/1;
 5/5=2,7=300,15=2,38=6/2;
 8/5=-1,6=4,9=120000,10=90,24=1/1,4;
 9/5=7,6=150,14=2,77=1/13;
 6//1;
 99/5=1,9=1/99;
 Leave Link    1 at Mon Feb 26 16:01:31 2018, MaxMem=  8589934592 cpu:               8.7 elap:               0.6
 (Enter /home1/apps/gaussian/16rA.03/g16/l101.exe)
 ---
 MnH
 ---
 Symbolic Z-matrix:
 Charge =  0 Multiplicity = 7
 Mn                    0.        0.        0. 
 H                     0.        0.        1.9 
 
 ITRead=  0  0
 MicOpt= -1 -1
 NAtoms=      2 NQM=        2 NQMF=       0 NMMI=      0 NMMIF=      0
                NMic=       0 NMicF=      0.
                    Isotopes and Nuclear Properties:
 (Nuclear quadrupole moments (NQMom) in fm**2, nuclear magnetic moments (NMagM)
  in nuclear magnetons)

  Atom         1           2
 IAtWgt=          55           1
 AtmWgt=  54.9380463   1.0078250
 NucSpn=           5           1
 AtZEff=  -0.0000000  -0.0000000
 NQMom=   33.0000000   0.0000000
 NMagM=    3.4532000   2.7928460
 AtZNuc=  25.0000000   1.0000000
 Leave Link  101 at Mon Feb 26 16:01:31 2018, MaxMem=  8589934592 cpu:               1.5 elap:               0.1
 (Enter /home1/apps/gaussian/16rA.03/g16/l202.exe)
                          Input orientation:                          
 ---------------------------------------------------------------------
 Center     Atomic      Atomic             Coordinates (Angstroms)
 Number     Number       Type             X           Y           Z
 ---------------------------------------------------------------------
      1         25           0        0.000000    0.000000    0.000000
      2          1           0        0.000000    0.000000    1.900000
 ---------------------------------------------------------------------
 Stoichiometry    HMn(7)
 Framework group  C*V[C*(HMn)]
 Deg. of freedom     1
 Full point group                 C*V     NOp   4
 Largest Abelian subgroup         C2V     NOp   4
 Largest concise Abelian subgroup C1      NOp   1
                         Standard orientation:                         
 ---------------------------------------------------------------------
 Center     Atomic      Atomic             Coordinates (Angstroms)
 Number     Number       Type             X           Y           Z
 ---------------------------------------------------------------------
      1         25           0        0.000000    0.000000    0.073077
      2          1           0        0.000000    0.000000   -1.826923
 ---------------------------------------------------------------------
 Rotational constants (GHZ):           0.0000000         141.4554504         141.4554504
 Leave Link  202 at Mon Feb 26 16:01:32 2018, MaxMem=  8589934592 cpu:               0.4 elap:               0.1
 (Enter /home1/apps/gaussian/16rA.03/g16/l301.exe)
 General basis read from cards:  (5D, 7F)
 Centers:       1
 S 1 1.00
     Exponent=  3.9608050000D+06 Coefficients=  1.0000000000D+00
 S 1 1.00
     Exponent=  5.9311550000D+05 Coefficients=  1.0000000000D+00
 S 1 1.00
     Exponent=  1.3497680000D+05 Coefficients=  1.0000000000D+00
 S 1 1.00
     Exponent=  3.8230670000D+04 Coefficients=  1.0000000000D+00
 S 1 1.00
     Exponent=  1.2471540000D+04 Coefficients=  1.0000000000D+00
 S 1 1.00
     Exponent=  4.5017430000D+03 Coefficients=  1.0000000000D+00
 S 1 1.00
     Exponent=  1.7552120000D+03 Coefficients=  1.0000000000D+00
 S 1 1.00
     Exponent=  7.2730390000D+02 Coefficients=  1.0000000000D+00
 S 1 1.00
     Exponent=  3.1636780000D+02 Coefficients=  1.0000000000D+00
 S 1 1.00
     Exponent=  1.4300980000D+02 Coefficients=  1.0000000000D+00
 S 1 1.00
     Exponent=  6.6218050000D+01 Coefficients=  1.0000000000D+00
 S 1 1.00
     Exponent=  2.9918960000D+01 Coefficients=  1.0000000000D+00
 S 1 1.00
     Exponent=  1.4303180000D+01 Coefficients=  1.0000000000D+00
 S 1 1.00
     Exponent=  6.8394510000D+00 Coefficients=  1.0000000000D+00
 S 1 1.00
     Exponent=  3.0123740000D+00 Coefficients=  1.0000000000D+00
 S 1 1.00
     Exponent=  1.4188080000D+00 Coefficients=  1.0000000000D+00
 S 1 1.00
     Exponent=  6.2362400000D-01 Coefficients=  1.0000000000D+00
 S 1 1.00
     Exponent=  1.3409800000D-01 Coefficients=  1.0000000000D+00
 S 1 1.00
     Exponent=  6.5548000000D-02 Coefficients=  1.0000000000D+00
 S 1 1.00
     Exponent=  2.9584000000D-02 Coefficients=  1.0000000000D+00
 S 1 1.00
     Exponent=  4.1714000000D+00 Coefficients=  1.0000000000D+00
 S 1 1.00
     Exponent=  1.0701000000D+00 Coefficients=  1.0000000000D+00
 S 1 1.00
     Exponent=  1.3350000000D-02 Coefficients=  1.0000000000D+00
 P 1 1.00
     Exponent=  1.6205860000D+04 Coefficients=  1.0000000000D+00
 P 1 1.00
     Exponent=  3.8362740000D+03 Coefficients=  1.0000000000D+00
 P 1 1.00
     Exponent=  1.2460480000D+03 Coefficients=  1.0000000000D+00
 P 1 1.00
     Exponent=  4.7675350000D+02 Coefficients=  1.0000000000D+00
 P 1 1.00
     Exponent=  2.0218950000D+02 Coefficients=  1.0000000000D+00
 P 1 1.00
     Exponent=  9.2094870000D+01 Coefficients=  1.0000000000D+00
 P 1 1.00
     Exponent=  4.4147200000D+01 Coefficients=  1.0000000000D+00
 P 1 1.00
     Exponent=  2.1854680000D+01 Coefficients=  1.0000000000D+00
 P 1 1.00
     Exponent=  1.1085960000D+01 Coefficients=  1.0000000000D+00
 P 1 1.00
     Exponent=  5.6741080000D+00 Coefficients=  1.0000000000D+00
 P 1 1.00
     Exponent=  2.8231700000D+00 Coefficients=  1.0000000000D+00
 P 1 1.00
     Exponent=  1.3686210000D+00 Coefficients=  1.0000000000D+00
 P 1 1.00
     Exponent=  6.4443100000D-01 Coefficients=  1.0000000000D+00
 P 1 1.00
     Exponent=  2.4834600000D-01 Coefficients=  1.0000000000D+00
 P 1 1.00
     Exponent=  9.7175000000D-02 Coefficients=  1.0000000000D+00
 P 1 1.00
     Exponent=  3.6565000000D-02 Coefficients=  1.0000000000D+00
 P 1 1.00
     Exponent=  6.0568000000D+00 Coefficients=  1.0000000000D+00
 P 1 1.00
     Exponent=  1.3911000000D+00 Coefficients=  1.0000000000D+00
 P 1 1.00
     Exponent=  1.3760000000D-02 Coefficients=  1.0000000000D+00
 D 1 1.00
     Exponent=  1.0190400000D+02 Coefficients=  1.0000000000D+00
 D 1 1.00
     Exponent=  3.0033700000D+01 Coefficients=  1.0000000000D+00
 D 1 1.00
     Exponent=  1.0923800000D+01 Coefficients=  1.0000000000D+00
 D 1 1.00
     Exponent=  4.3974000000D+00 Coefficients=  1.0000000000D+00
 D 1 1.00
     Exponent=  1.8159500000D+00 Coefficients=  1.0000000000D+00
 D 1 1.00
     Exponent=  7.2573100000D-01 Coefficients=  1.0000000000D+00
 D 1 1.00
     Exponent=  2.6996100000D-01 Coefficients=  1.0000000000D+00
 D 1 1.00
     Exponent=  8.7760000000D-02 Coefficients=  1.0000000000D+00
 D 1 1.00
     Exponent=  3.9511000000D+00 Coefficients=  1.0000000000D+00
 D 1 1.00
     Exponent=  1.8488000000D+00 Coefficients=  1.0000000000D+00
 D 1 1.00
     Exponent=  2.8530000000D-02 Coefficients=  1.0000000000D+00
 F 1 1.00
     Exponent=  5.1541000000D+00 Coefficients=  1.0000000000D+00
 F 1 1.00
     Exponent=  1.9044000000D+00 Coefficients=  1.0000000000D+00
 F 1 1.00
     Exponent=  6.4380000000D-01 Coefficients=  1.0000000000D+00
 F 1 1.00
     Exponent=  2.1764000000D-01 Coefficients=  1.0000000000D+00
 G 1 1.00
     Exponent=  4.7163000000D+00 Coefficients=  1.0000000000D+00
 G 1 1.00
     Exponent=  1.7022000000D+00 Coefficients=  1.0000000000D+00
 G 1 1.00
     Exponent=  6.1436000000D-01 Coefficients=  1.0000000000D+00
 ****
 Centers:       2
 S 1 1.00
     Exponent=  3.3870000000D+01 Coefficients=  1.0000000000D+00
 S 1 1.00
     Exponent=  5.0950000000D+00 Coefficients=  1.0000000000D+00
 S 1 1.00
     Exponent=  1.1590000000D+00 Coefficients=  1.0000000000D+00
 S 1 1.00
     Exponent=  3.2580000000D-01 Coefficients=  1.0000000000D+00
 S 1 1.00
     Exponent=  1.0270000000D-01 Coefficients=  1.0000000000D+00
 S 1 1.00
     Exponent=  2.5260000000D-02 Coefficients=  1.0000000000D+00
 P 1 1.00
     Exponent=  1.4070000000D+00 Coefficients=  1.0000000000D+00
 P 1 1.00
     Exponent=  3.8800000000D-01 Coefficients=  1.0000000000D+00
 P 1 1.00
     Exponent=  1.0200000000D-01 Coefficients=  1.0000000000D+00
 D 1 1.00
     Exponent=  1.0570000000D+00 Coefficients=  1.0000000000D+00
 D 1 1.00
     Exponent=  2.4700000000D-01 Coefficients=  1.0000000000D+00
 ****
 ======================================================================================================
                                       Pseudopotential Parameters
 ======================================================================================================
  Center     Atomic      Valence      Angular      Power
  Number     Number     Electrons     Momentum     of R      Exponent        Coefficient   SO-Coeffient
 ======================================================================================================
    1         25           15
                                      F and up 
                                                     2        1.0000000        0.00000000    0.00000000
                                      S - F
                                                     2       18.5200000      226.43090200    0.00000000
                                                     2        8.3730000       30.35907200    0.00000000
                                      P - F
                                                     2       18.9200000      142.15470500    0.00000000
                                                     2        8.0170000       21.53650900    0.00000000
                                      D - F
                                                     2       22.7200000      -22.56811900    0.00000000
                                                     2        7.6400000       -1.20581000    0.00000000
    2          1            1
                                      P and up 
                                                     2       21.7769666      -10.85192405    0.00000000
                                                     1       21.2435951        1.00000000    0.00000000
                                                     3       21.2435951       21.24359508    0.00000000
                                      S - P
                                                     2        1.0000000        0.00000000    0.00000000
 ======================================================================================================
 Ernie: Thresh=  0.10000D-02 Tol=  0.10000D-05 Strict=F.
 There are   120 symmetry adapted cartesian basis functions of A1  symmetry.
 There are    26 symmetry adapted cartesian basis functions of A2  symmetry.
 There are    56 symmetry adapted cartesian basis functions of B1  symmetry.
 There are    56 symmetry adapted cartesian basis functions of B2  symmetry.
 There are    94 symmetry adapted basis functions of A1  symmetry.
 There are    23 symmetry adapted basis functions of A2  symmetry.
 There are    49 symmetry adapted basis functions of B1  symmetry.
 There are    49 symmetry adapted basis functions of B2  symmetry.
   215 basis functions,   258 primitive gaussians,   258 cartesian basis functions
    11 alpha electrons        5 beta electrons
       nuclear repulsion energy         4.1777148231 Hartrees.
 IExCor=    0 DFT=F Ex=HF Corr=None ExCW=0 ScaHFX=  1.000000
 ScaDFX=  1.000000  1.000000  1.000000  1.000000 ScalE2=  1.000000  1.000000
 IRadAn=      5 IRanWt=     -1 IRanGd=            0 ICorTp=0 IEmpDi=  4
 NAtoms=    2 NActive=    2 NUniq=    2 SFac= 1.00D+00 NAtFMM=   60 NAOKFM=F Big=F
 Integral buffers will be    131072 words long.
 Raffenetti 2 integral format.
 Two-electron integral symmetry is turned on.
 Leave Link  301 at Mon Feb 26 16:01:33 2018, MaxMem=  8589934592 cpu:               3.6 elap:               0.3
 (Enter /home1/apps/gaussian/16rA.03/g16/l302.exe)
 NPDir=0 NMtPBC=     1 NCelOv=     1 NCel=       1 NClECP=     1 NCelD=      1
         NCelK=      1 NCelE2=     1 NClLst=     1 CellRange=     0.0.
 One-electron integrals computed using PRISM.
 One-electron integral symmetry used in STVInt
   4 Symmetry operations used in ECPInt.
 ECPInt:  NShTT=    2556 NPrTT=    2556 LenC2=    2520 LenP2D=    2519.
 LDataN:  DoStor=T MaxTD1= 8 Len=  415
 NBasis=   215 RedAO= T EigKep=  1.45D-06  NBF=    94    23    49    49
 NBsUse=   212 1.00D-06 EigRej=  1.76D-07 NBFU=    93    23    48    48
 Leave Link  302 at Mon Feb 26 16:01:34 2018, MaxMem=  8589934592 cpu:              16.3 elap:               1.1
 (Enter /home1/apps/gaussian/16rA.03/g16/l303.exe)
 DipDrv:  MaxL=1.
 Leave Link  303 at Mon Feb 26 16:01:34 2018, MaxMem=  8589934592 cpu:               1.0 elap:               0.1
 (Enter /home1/apps/gaussian/16rA.03/g16/l401.exe)
 Initial guess from the checkpoint file:  "MnH.chk"
 B after Tr=     0.000000    0.000000    0.000000
         Rot=    1.000000    0.000000    0.000000    0.000000 Ang=   0.00 deg.
 Guess basis will be translated and rotated to current coordinates.
 JPrj=2 DoOrth=T DoCkMO=T.
 Initial guess orbital symmetries:
       Occupied  (SG) (PI) (PI) (SG) (SG) (DLTA) (DLTA) (SG) (PI)
                 (PI) (SG)
       Virtual   (PI) (PI) (SG) (SG) (PI) (PI) (DLTA) (DLTA) (SG)
                 (PI) (PI) (SG) (SG) (SG) (PI) (PI) (SG) (DLTA)
                 (DLTA) (PI) (PI) (PI) (PI) (SG) (SG) (SG) (SG)
                 (DLTA) (DLTA) (PHI) (PHI) (PI) (PI) (PI) (PI)
                 (SG) (SG) (DLTA) (DLTA) (PI) (PI) (SG) (DLTA)
                 (DLTA) (PI) (PI) (SG) (PI) (PI) (SG) (SG) (PHI)
                 (PHI) (DLTA) (DLTA) (PI) (PI) (SG) (PI) (PI) (SG)
                 (?A) (?A) (PHI) (PHI) (SG) (DLTA) (DLTA) (PI)
                 (PI) (DLTA) (DLTA) (SG) (PI) (PI) (SG) (DLTA)
                 (DLTA) (PI) (PI) (PI) (PI) (SG) (SG) (SG) (PHI)
                 (PHI) (DLTA) (DLTA) (PI) (PI) (SG) (DLTA) (DLTA)
                 (PI) (PI) (PI) (PI) (SG) (SG) (?A) (?A) (PHI)
                 (PHI) (DLTA) (DLTA) (PI) (PI) (SG) (SG) (SG) (DLTA)
                 (DLTA) (PI) (PI) (SG) (PI) (PI) (PHI) (PHI) (DLTA)
                 (DLTA) (PI) (PI) (SG) (SG) (?A) (?A) (PHI) (PHI)
                 (DLTA) (DLTA) (PI) (PI) (SG) (SG) (DLTA) (DLTA)
                 (PI) (PI) (SG) (PI) (PI) (SG) (SG) (DLTA) (DLTA)
                 (PI) (PI) (SG) (PI) (PI) (SG) (SG) (SG) (PI) (PI)
                 (SG) (DLTA) (DLTA) (PI) (PI) (SG) (SG) (PI) (PI)
                 (SG) (SG) (DLTA) (DLTA) (PI) (PI) (SG) (PI) (PI)
                 (SG) (SG) (PI) (PI) (SG) (SG) (PI) (PI) (SG) (SG)
                 (PI) (PI) (SG) (SG) (PI) (PI) (SG) (SG) (SG) (PI)
                 (PI) (SG) (SG) (SG) (SG) (SG)
 The electronic state of the initial guess is 7-SG.
 Leave Link  401 at Mon Feb 26 16:01:35 2018, MaxMem=  8589934592 cpu:               5.0 elap:               0.4
 (Enter /home1/apps/gaussian/16rA.03/g16/l502.exe)
 Keep R1 and R2 ints in memory in symmetry-blocked form, NReq=338797193.
 FoFCou: FMM=F IPFlag=           8 FMFlag=           0 FMFlg1=           0
         NFxFlg=           0 DoJE=F BraDBF=F KetDBF=F FulRan=T
         wScrn=  0.000000 ICntrl=       600 IOpCl=  0 I1Cent=           0 NGrid=           0
         NMat0=    1 NMatS0=  23220 NMatT0=    0 NMatD0=    1 NMtDS0=    0 NMtDT0=    0
 Petite list used in FoFCou.
 Restricted open shell SCF:
 Using DIIS extrapolation, IDIIS=  1040.
 NGot=  8589934592 LenX=  8451450423 LenY=  8451383418
 Requested convergence on RMS density matrix=1.00D-08 within 300 cycles.
 Requested convergence on MAX density matrix=1.00D-06.
 Requested convergence on             energy=1.00D-06.
 No special actions if energy rises.

 Cycle   1  Pass 1  IDiag  1:
 E= -103.453987811959    
 DIIS: error= 4.54D-01 at cycle   1 NSaved=   1.
 NSaved= 1 IEnMin= 1 EnMin= -103.453987811959     IErMin= 1 ErrMin= 4.54D-01
 ErrMax= 4.54D-01  0.00D+00 EMaxC= 1.00D-01 BMatC= 3.14D+01 BMatP= 3.14D+01
 IDIUse=3 WtCom= 0.00D+00 WtEn= 1.00D+00
 Coeff-Com:  0.100D+01
 Coeff-En:   0.100D+01
 Coeff:      0.100D+01
 Gap=     0.054 Goal=   None    Shift=    0.000
 GapD=    0.054 DampG=0.500 DampE=0.125 DampFc=0.1250 IDamp=-1.
 Damping current iteration by 1.25D-01
 RMSDP=2.11D-02 MaxDP=1.53D+00              OVMax= 4.98D-02

 Cycle   2  Pass 1  IDiag  1:
 E= -103.549691531472     Delta-E=       -0.095703719513 Rises=F Damp=T
 DIIS: error= 3.92D-01 at cycle   2 NSaved=   2.
 NSaved= 2 IEnMin= 2 EnMin= -103.549691531472     IErMin= 2 ErrMin= 3.92D-01
 ErrMax= 3.92D-01  0.00D+00 EMaxC= 1.00D-01 BMatC= 2.38D+01 BMatP= 3.14D+01
 IDIUse=3 WtCom= 0.00D+00 WtEn= 1.00D+00
 Coeff-Com: -0.670D+01 0.770D+01
 Coeff-En:   0.000D+00 0.100D+01
 Coeff:      0.000D+00 0.100D+01
 Gap=     0.081 Goal=   None    Shift=    0.000
 RMSDP=1.86D-02 MaxDP=1.35D+00 DE=-9.57D-02 OVMax= 2.94D-02

 Cycle   3  Pass 1  IDiag  1:
 E= -104.238989671035     Delta-E=       -0.689298139563 Rises=F Damp=F
 DIIS: error= 1.84D-02 at cycle   3 NSaved=   3.
 NSaved= 3 IEnMin= 3 EnMin= -104.238989671035     IErMin= 3 ErrMin= 1.84D-02
 ErrMax= 1.84D-02  0.00D+00 EMaxC= 1.00D-01 BMatC= 2.10D-02 BMatP= 2.38D+01
 IDIUse=3 WtCom= 8.16D-01 WtEn= 1.84D-01
 Coeff-Com: -0.130D+01 0.148D+01 0.823D+00
 Coeff-En:   0.000D+00 0.000D+00 0.100D+01
 Coeff:     -0.106D+01 0.121D+01 0.856D+00
 Gap=     0.079 Goal=   None    Shift=    0.000
 RMSDP=5.98D-04 MaxDP=3.90D-02 DE=-6.89D-01 OVMax= 3.80D-02

 Cycle   4  Pass 1  IDiag  1:
 E= -104.237967948955     Delta-E=        0.001021722080 Rises=F Damp=F
 DIIS: error= 9.14D-03 at cycle   4 NSaved=   4.
 NSaved= 4 IEnMin= 3 EnMin= -104.238989671035     IErMin= 4 ErrMin= 9.14D-03
 ErrMax= 9.14D-03  0.00D+00 EMaxC= 1.00D-01 BMatC= 8.29D-03 BMatP= 2.10D-02
 IDIUse=3 WtCom= 9.09D-01 WtEn= 9.14D-02
 Coeff-Com: -0.107D+01 0.122D+01 0.305D+00 0.547D+00
 Coeff-En:   0.000D+00 0.000D+00 0.571D+00 0.429D+00
 Coeff:     -0.972D+00 0.111D+01 0.329D+00 0.537D+00
 Gap=     0.073 Goal=   None    Shift=    0.000
 RMSDP=1.22D-03 MaxDP=1.05D-01 DE= 1.02D-03 OVMax= 7.93D-02

 Cycle   5  Pass 1  IDiag  1:
 E= -104.237101311250     Delta-E=        0.000866637706 Rises=F Damp=F
 DIIS: error= 9.22D-03 at cycle   5 NSaved=   5.
 NSaved= 5 IEnMin= 3 EnMin= -104.238989671035     IErMin= 4 ErrMin= 9.14D-03
 ErrMax= 9.22D-03  0.00D+00 EMaxC= 1.00D-01 BMatC= 5.81D-03 BMatP= 8.29D-03
 IDIUse=3 WtCom= 9.08D-01 WtEn= 9.22D-02
 Coeff-Com: -0.961D+00 0.110D+01 0.430D-01 0.410D+00 0.411D+00
 Coeff-En:   0.000D+00 0.000D+00 0.000D+00 0.527D+00 0.473D+00
 Coeff:     -0.872D+00 0.995D+00 0.390D-01 0.421D+00 0.417D+00
 Gap=     0.075 Goal=   None    Shift=    0.000
 RMSDP=2.00D-03 MaxDP=1.96D-01 DE= 8.67D-04 OVMax= 8.80D-02

 Cycle   6  Pass 1  IDiag  1:
 E= -104.239000187973     Delta-E=       -0.001898876723 Rises=F Damp=F
 DIIS: error= 7.15D-03 at cycle   6 NSaved=   6.
 NSaved= 6 IEnMin= 6 EnMin= -104.239000187973     IErMin= 6 ErrMin= 7.15D-03
 ErrMax= 7.15D-03  0.00D+00 EMaxC= 1.00D-01 BMatC= 4.21D-03 BMatP= 5.81D-03
 IDIUse=3 WtCom= 9.28D-01 WtEn= 7.15D-02
 Coeff-Com: -0.795D+00 0.909D+00-0.151D+00 0.198D+00 0.459D+00 0.380D+00
 Coeff-En:   0.000D+00 0.000D+00 0.000D+00 0.000D+00 0.455D+00 0.545D+00
 Coeff:     -0.738D+00 0.844D+00-0.140D+00 0.184D+00 0.458D+00 0.392D+00
 Gap=     0.080 Goal=   None    Shift=    0.000
 RMSDP=1.42D-03 MaxDP=1.47D-01 DE=-1.90D-03 OVMax= 4.18D-02

 Cycle   7  Pass 1  IDiag  1:
 E= -104.241902384114     Delta-E=       -0.002902196142 Rises=F Damp=F
 DIIS: error= 5.51D-03 at cycle   7 NSaved=   7.
 NSaved= 7 IEnMin= 7 EnMin= -104.241902384114     IErMin= 7 ErrMin= 5.51D-03
 ErrMax= 5.51D-03  0.00D+00 EMaxC= 1.00D-01 BMatC= 1.81D-03 BMatP= 4.21D-03
 IDIUse=3 WtCom= 9.45D-01 WtEn= 5.51D-02
 Rare condition: small coef for last iteration:  0.000D+00
 Coeff-Com: -0.716D+00 0.818D+00-0.139D+00 0.897D-01 0.292D+00 0.276D+00
 Coeff-Com:  0.379D+00
 Coeff-En:   0.000D+00 0.000D+00 0.000D+00 0.000D+00 0.205D+00 0.198D+00
 Coeff-En:   0.597D+00
 Coeff:     -0.716D+00 0.818D+00-0.139D+00 0.897D-01 0.292D+00 0.276D+00
 Coeff:      0.379D+00
 Gap=     0.079 Goal=   None    Shift=    0.000
 RMSDP=3.13D-04 MaxDP=3.47D-02 DE=-2.90D-03 OVMax= 9.45D-03

 Cycle   8  Pass 1  IDiag  1:
 E= -104.241974439415     Delta-E=       -0.000072055300 Rises=F Damp=F
 DIIS: error= 4.83D-03 at cycle   8 NSaved=   8.
 NSaved= 8 IEnMin= 8 EnMin= -104.241974439415     IErMin= 8 ErrMin= 4.83D-03
 ErrMax= 4.83D-03  0.00D+00 EMaxC= 1.00D-01 BMatC= 1.66D-03 BMatP= 1.81D-03
 IDIUse=3 WtCom= 9.52D-01 WtEn= 4.83D-02
 EnCoef did   100 forward-backward iterations
 Rare condition: small coef for last iteration:  0.000D+00
 Coeff-Com: -0.650D+00 0.743D+00-0.117D+00 0.184D-01 0.130D+00 0.143D+00
 Coeff-Com:  0.273D+00 0.460D+00
 Coeff-En:   0.000D+00 0.000D+00 0.000D+00 0.000D+00 0.192D+00 0.174D+00
 Coeff-En:   0.212D+00 0.422D+00
 Coeff:     -0.650D+00 0.743D+00-0.117D+00 0.184D-01 0.130D+00 0.143D+00
 Coeff:      0.273D+00 0.460D+00
 Gap=     0.079 Goal=   None    Shift=    0.000
 RMSDP=1.11D-04 MaxDP=1.07D-02 DE=-7.21D-05 OVMax= 5.55D-03

 Cycle   9  Pass 1  IDiag  1:
 E= -104.242168314303     Delta-E=       -0.000193874889 Rises=F Damp=F
 DIIS: error= 4.38D-03 at cycle   9 NSaved=   9.
 NSaved= 9 IEnMin= 9 EnMin= -104.242168314303     IErMin= 9 ErrMin= 4.38D-03
 ErrMax= 4.38D-03  0.00D+00 EMaxC= 1.00D-01 BMatC= 1.35D-03 BMatP= 1.66D-03
 IDIUse=3 WtCom= 9.56D-01 WtEn= 4.38D-02
 EnCoef did   100 forward-backward iterations
 Coeff-Com: -0.590D+00 0.674D+00-0.988D-01-0.804D-02 0.365D-01 0.496D-01
 Coeff-Com:  0.108D+00 0.415D+00 0.414D+00
 Coeff-En:   0.000D+00 0.000D+00 0.000D+00 0.000D+00 0.444D+00 0.530D+00
 Coeff-En:   0.000D+00 0.000D+00 0.263D-01
 Coeff:     -0.564D+00 0.644D+00-0.945D-01-0.769D-02 0.543D-01 0.707D-01
 Coeff:      0.103D+00 0.397D+00 0.397D+00
 Gap=     0.079 Goal=   None    Shift=    0.000
 RMSDP=1.34D-04 MaxDP=1.17D-02 DE=-1.94D-04 OVMax= 4.65D-03

 Cycle  10  Pass 1  IDiag  1:
 E= -104.242384165830     Delta-E=       -0.000215851527 Rises=F Damp=F
 DIIS: error= 3.85D-03 at cycle  10 NSaved=  10.
 NSaved=10 IEnMin=10 EnMin= -104.242384165830     IErMin=10 ErrMin= 3.85D-03
 ErrMax= 3.85D-03  0.00D+00 EMaxC= 1.00D-01 BMatC= 9.99D-04 BMatP= 1.35D-03
 IDIUse=3 WtCom= 9.61D-01 WtEn= 3.85D-02
 EnCoef did   100 forward-backward iterations
 Rare condition: small coef for last iteration:  0.000D+00
 Coeff-Com: -0.446D+00 0.510D+00-0.669D-01-0.129D-01-0.486D-01-0.646D-01
 Coeff-Com: -0.231D+00 0.823D-01 0.506D+00 0.772D+00
 Coeff-En:   0.000D+00 0.000D+00 0.000D+00 0.000D+00 0.163D+00 0.121D+00
 Coeff-En:   0.000D+00 0.000D+00 0.000D+00 0.716D+00
 Coeff:     -0.446D+00 0.510D+00-0.669D-01-0.129D-01-0.486D-01-0.646D-01
 Coeff:     -0.231D+00 0.823D-01 0.506D+00 0.772D+00
 Gap=     0.080 Goal=   None    Shift=    0.000
 RMSDP=9.52D-05 MaxDP=8.45D-03 DE=-2.16D-04 OVMax= 3.42D-03

 Cycle  11  Pass 1  IDiag  1:
 E= -104.242541505705     Delta-E=       -0.000157339875 Rises=F Damp=F
 DIIS: error= 3.09D-03 at cycle  11 NSaved=  11.
 NSaved=11 IEnMin=11 EnMin= -104.242541505705     IErMin=11 ErrMin= 3.09D-03
 ErrMax= 3.09D-03  0.00D+00 EMaxC= 1.00D-01 BMatC= 6.32D-04 BMatP= 9.99D-04
 IDIUse=3 WtCom= 9.69D-01 WtEn= 3.09D-02
 EnCoef did   100 forward-backward iterations
 Coeff-Com: -0.315D+00 0.360D+00-0.420D-01-0.502D-02-0.727D-01-0.106D+00
 Coeff-Com: -0.328D+00-0.116D+00 0.314D+00 0.651D+00 0.660D+00
 Coeff-En:   0.000D+00 0.000D+00 0.000D+00 0.000D+00 0.437D+00 0.522D+00
 Coeff-En:   0.000D+00 0.000D+00 0.000D+00 0.000D+00 0.413D-01
 Coeff:     -0.306D+00 0.349D+00-0.407D-01-0.486D-02-0.570D-01-0.866D-01
 Coeff:     -0.317D+00-0.113D+00 0.304D+00 0.630D+00 0.641D+00
 Gap=     0.081 Goal=   None    Shift=    0.000
 RMSDP=1.20D-04 MaxDP=9.17D-03 DE=-1.57D-04 OVMax= 4.06D-03

 Cycle  12  Pass 1  IDiag  1:
 E= -104.242727641378     Delta-E=       -0.000186135673 Rises=F Damp=F
 DIIS: error= 2.09D-03 at cycle  12 NSaved=  12.
 NSaved=12 IEnMin=12 EnMin= -104.242727641378     IErMin=12 ErrMin= 2.09D-03
 ErrMax= 2.09D-03  0.00D+00 EMaxC= 1.00D-01 BMatC= 2.91D-04 BMatP= 6.32D-04
 IDIUse=3 WtCom= 9.79D-01 WtEn= 2.09D-02
 EnCoef did   100 forward-backward iterations
 Rare condition: small coef for last iteration: -0.119D-15
 Coeff-Com: -0.200D+00 0.228D+00-0.320D-01 0.166D-01 0.177D-01-0.258D-02
 Coeff-Com: -0.405D-01 0.393D-01-0.149D+00-0.479D+00 0.642D+00 0.959D+00
 Coeff-En:   0.000D+00 0.000D+00 0.000D+00 0.000D+00 0.132D+00 0.797D-01
 Coeff-En:   0.000D+00 0.000D+00 0.000D+00 0.000D+00 0.000D+00 0.788D+00
 Coeff:     -0.200D+00 0.228D+00-0.320D-01 0.166D-01 0.177D-01-0.258D-02
 Coeff:     -0.405D-01 0.393D-01-0.149D+00-0.479D+00 0.642D+00 0.959D+00
 Gap=     0.082 Goal=   None    Shift=    0.000
 RMSDP=6.06D-05 MaxDP=6.80D-03 DE=-1.86D-04 OVMax= 2.54D-03

 Cycle  13  Pass 1  IDiag  1:
 E= -104.242795171063     Delta-E=       -0.000067529685 Rises=F Damp=F
 DIIS: error= 1.36D-03 at cycle  13 NSaved=  13.
 NSaved=13 IEnMin=13 EnMin= -104.242795171063     IErMin=13 ErrMin= 1.36D-03
 ErrMax= 1.36D-03  0.00D+00 EMaxC= 1.00D-01 BMatC= 1.27D-04 BMatP= 2.91D-04
 IDIUse=3 WtCom= 9.86D-01 WtEn= 1.36D-02
 EnCoef did   100 forward-backward iterations
 Coeff-Com: -0.101D+00 0.116D+00-0.179D-01 0.794D-02 0.320D-01 0.381D-01
 Coeff-Com:  0.137D+00 0.108D+00-0.207D+00-0.712D+00 0.145D+00 0.496D+00
 Coeff-Com:  0.958D+00
 Coeff-En:   0.000D+00 0.000D+00 0.000D+00 0.000D+00 0.424D+00 0.505D+00
 Coeff-En:   0.000D+00 0.000D+00 0.000D+00 0.000D+00 0.000D+00 0.000D+00
 Coeff-En:   0.710D-01
 Coeff:     -0.998D-01 0.114D+00-0.177D-01 0.784D-02 0.374D-01 0.445D-01
 Coeff:      0.135D+00 0.106D+00-0.204D+00-0.703D+00 0.143D+00 0.490D+00
 Coeff:      0.946D+00
 Gap=     0.082 Goal=   None    Shift=    0.000
 RMSDP=7.69D-05 MaxDP=5.85D-03 DE=-6.75D-05 OVMax= 3.25D-03

 Cycle  14  Pass 1  IDiag  1:
 E= -104.242845643946     Delta-E=       -0.000050472884 Rises=F Damp=F
 DIIS: error= 6.69D-04 at cycle  14 NSaved=  14.
 NSaved=14 IEnMin=14 EnMin= -104.242845643946     IErMin=14 ErrMin= 6.69D-04
 ErrMax= 6.69D-04  0.00D+00 EMaxC= 1.00D-01 BMatC= 3.14D-05 BMatP= 1.27D-04
 IDIUse=3 WtCom= 9.93D-01 WtEn= 6.69D-03
 EnCoef did   100 forward-backward iterations
 Rare condition: small coef for last iteration:  0.454D-15
 Coeff-Com: -0.414D-01 0.473D-01-0.718D-02-0.383D-03 0.138D-01 0.234D-01
 Coeff-Com:  0.945D-01 0.608D-01-0.121D+00-0.417D+00-0.198D-01 0.662D-01
 Coeff-Com:  0.753D+00 0.548D+00
 Coeff-En:   0.000D+00 0.000D+00 0.000D+00 0.000D+00 0.121D+00 0.644D-01
 Coeff-En:   0.000D+00 0.000D+00 0.000D+00 0.000D+00 0.000D+00 0.000D+00
 Coeff-En:   0.000D+00 0.815D+00
 Coeff:     -0.414D-01 0.473D-01-0.718D-02-0.383D-03 0.138D-01 0.234D-01
 Coeff:      0.945D-01 0.608D-01-0.121D+00-0.417D+00-0.198D-01 0.662D-01
 Coeff:      0.753D+00 0.548D+00
 Gap=     0.082 Goal=   None    Shift=    0.000
 RMSDP=4.63D-05 MaxDP=3.34D-03 DE=-5.05D-05 OVMax= 1.75D-03

 Cycle  15  Pass 1  IDiag  1:
 E= -104.242857823327     Delta-E=       -0.000012179381 Rises=F Damp=F
 DIIS: error= 2.77D-04 at cycle  15 NSaved=  15.
 NSaved=15 IEnMin=15 EnMin= -104.242857823327     IErMin=15 ErrMin= 2.77D-04
 ErrMax= 2.77D-04  0.00D+00 EMaxC= 1.00D-01 BMatC= 5.57D-06 BMatP= 3.14D-05
 IDIUse=3 WtCom= 9.97D-01 WtEn= 2.77D-03
 EnCoef did   100 forward-backward iterations
 Coeff-Com: -0.137D-01 0.156D-01-0.224D-02-0.202D-02 0.474D-02 0.113D-01
 Coeff-Com:  0.500D-01 0.213D-01-0.707D-01-0.206D+00-0.474D-01-0.428D-01
 Coeff-Com:  0.419D+00 0.487D+00 0.376D+00
 Coeff-En:   0.000D+00 0.000D+00 0.000D+00 0.000D+00 0.416D+00 0.494D+00
 Coeff-En:   0.000D+00 0.000D+00 0.000D+00 0.000D+00 0.000D+00 0.000D+00
 Coeff-En:   0.000D+00 0.000D+00 0.903D-01
 Coeff:     -0.136D-01 0.156D-01-0.223D-02-0.201D-02 0.588D-02 0.126D-01
 Coeff:      0.498D-01 0.213D-01-0.705D-01-0.205D+00-0.472D-01-0.427D-01
 Coeff:      0.418D+00 0.485D+00 0.375D+00
 Gap=     0.082 Goal=   None    Shift=    0.000
 RMSDP=2.56D-05 MaxDP=2.10D-03 DE=-1.22D-05 OVMax= 9.05D-04

 Cycle  16  Pass 1  IDiag  1:
 E= -104.242860439874     Delta-E=       -0.000002616547 Rises=F Damp=F
 DIIS: error= 9.97D-05 at cycle  16 NSaved=  16.
 NSaved=16 IEnMin=16 EnMin= -104.242860439874     IErMin=16 ErrMin= 9.97D-05
 ErrMax= 9.97D-05  0.00D+00 EMaxC= 1.00D-01 BMatC= 6.11D-07 BMatP= 5.57D-06
 IDIUse=1 WtCom= 1.00D+00 WtEn= 0.00D+00
 Coeff-Com:  0.915D-03-0.105D-02 0.208D-03-0.128D-02 0.533D-03 0.215D-02
 Coeff-Com:  0.771D-02-0.312D-02-0.193D-01-0.394D-01-0.165D-01-0.418D-01
 Coeff-Com:  0.732D-01 0.154D+00 0.260D+00 0.624D+00
 Coeff:      0.915D-03-0.105D-02 0.208D-03-0.128D-02 0.533D-03 0.215D-02
 Coeff:      0.771D-02-0.312D-02-0.193D-01-0.394D-01-0.165D-01-0.418D-01
 Coeff:      0.732D-01 0.154D+00 0.260D+00 0.624D+00
 Gap=     0.082 Goal=   None    Shift=    0.000
 RMSDP=1.53D-05 MaxDP=1.54D-03 DE=-2.62D-06 OVMax= 3.71D-04

 Cycle  17  Pass 1  IDiag  1:
 E= -104.242860700372     Delta-E=       -0.000000260498 Rises=F Damp=F
 DIIS: error= 1.43D-05 at cycle  17 NSaved=  17.
 NSaved=17 IEnMin=17 EnMin= -104.242860700372     IErMin=17 ErrMin= 1.43D-05
 ErrMax= 1.43D-05  0.00D+00 EMaxC= 1.00D-01 BMatC= 1.26D-08 BMatP= 6.11D-07
 IDIUse=1 WtCom= 1.00D+00 WtEn= 0.00D+00
 Coeff-Com:  0.142D-02-0.162D-02 0.228D-03-0.330D-03-0.246D-04-0.625D-03
 Coeff-Com: -0.711D-02-0.720D-02 0.643D-02 0.274D-01 0.257D-02-0.126D-01
 Coeff-Com: -0.629D-01-0.367D-01 0.811D-01 0.453D+00 0.557D+00
 Coeff:      0.142D-02-0.162D-02 0.228D-03-0.330D-03-0.246D-04-0.625D-03
 Coeff:     -0.711D-02-0.720D-02 0.643D-02 0.274D-01 0.257D-02-0.126D-01
 Coeff:     -0.629D-01-0.367D-01 0.811D-01 0.453D+00 0.557D+00
 Gap=     0.082 Goal=   None    Shift=    0.000
 RMSDP=9.11D-06 MaxDP=1.06D-03 DE=-2.60D-07 OVMax= 1.47D-04

 Cycle  18  Pass 1  IDiag  1:
 E= -104.242860713245     Delta-E=       -0.000000012873 Rises=F Damp=F
 DIIS: error= 1.02D-05 at cycle  18 NSaved=  18.
 NSaved=18 IEnMin=18 EnMin= -104.242860713245     IErMin=18 ErrMin= 1.02D-05
 ErrMax= 1.02D-05  0.00D+00 EMaxC= 1.00D-01 BMatC= 7.04D-09 BMatP= 1.26D-08
 IDIUse=1 WtCom= 1.00D+00 WtEn= 0.00D+00
 Coeff-Com: -0.139D-02 0.159D-02-0.231D-03-0.921D-04 0.133D-03-0.911D-04
 Coeff-Com: -0.283D-02-0.153D-02 0.514D-02 0.150D-01 0.184D-02 0.430D-03
 Coeff-Com: -0.223D-01-0.268D-01-0.323D-02 0.519D-01 0.229D+00 0.753D+00
 Coeff:     -0.139D-02 0.159D-02-0.231D-03-0.921D-04 0.133D-03-0.911D-04
 Coeff:     -0.283D-02-0.153D-02 0.514D-02 0.150D-01 0.184D-02 0.430D-03
 Coeff:     -0.223D-01-0.268D-01-0.323D-02 0.519D-01 0.229D+00 0.753D+00
 Gap=     0.082 Goal=   None    Shift=    0.000
 RMSDP=2.95D-06 MaxDP=2.23D-04 DE=-1.29D-08 OVMax= 9.31D-05

 Cycle  19  Pass 1  IDiag  1:
 E= -104.242860712363     Delta-E=        0.000000000882 Rises=F Damp=F
 DIIS: error= 9.91D-06 at cycle  19 NSaved=  19.
 NSaved=19 IEnMin=18 EnMin= -104.242860713245     IErMin=19 ErrMin= 9.91D-06
 ErrMax= 9.91D-06  0.00D+00 EMaxC= 1.00D-01 BMatC= 6.27D-09 BMatP= 7.04D-09
 IDIUse=1 WtCom= 1.00D+00 WtEn= 0.00D+00
 Coeff-Com: -0.787D-03 0.899D-03-0.124D-03-0.419D-04-0.523D-04-0.141D-03
 Coeff-Com: -0.118D-02-0.620D-03 0.185D-02 0.624D-02 0.397D-03 0.396D-03
 Coeff-Com: -0.750D-02-0.898D-02-0.613D-02-0.211D-02 0.771D-01 0.394D+00
 Coeff-Com:  0.547D+00
 Coeff:     -0.787D-03 0.899D-03-0.124D-03-0.419D-04-0.523D-04-0.141D-03
 Coeff:     -0.118D-02-0.620D-03 0.185D-02 0.624D-02 0.397D-03 0.396D-03
 Coeff:     -0.750D-02-0.898D-02-0.613D-02-0.211D-02 0.771D-01 0.394D+00
 Coeff:      0.547D+00
 Gap=     0.082 Goal=   None    Shift=    0.000
 RMSDP=1.09D-06 MaxDP=8.87D-05 DE= 8.82D-10 OVMax= 2.22D-05

 Cycle  20  Pass 1  IDiag  1:
 E= -104.242860714973     Delta-E=       -0.000000002610 Rises=F Damp=F
 DIIS: error= 5.40D-06 at cycle  20 NSaved=  20.
 NSaved=20 IEnMin=20 EnMin= -104.242860714973     IErMin=20 ErrMin= 5.40D-06
 ErrMax= 5.40D-06  0.00D+00 EMaxC= 1.00D-01 BMatC= 1.98D-09 BMatP= 6.27D-09
 IDIUse=1 WtCom= 1.00D+00 WtEn= 0.00D+00
 Coeff-Com: -0.860D-04 0.982D-04-0.108D-04 0.160D-05-0.108D-03-0.133D-03
 Coeff-Com: -0.258D-03-0.193D-03 0.341D-04 0.975D-03-0.269D-03-0.144D-03
 Coeff-Com: -0.883D-03-0.591D-03-0.351D-02-0.104D-01 0.591D-02 0.101D+00
 Coeff-Com:  0.331D+00 0.578D+00
 Coeff:     -0.860D-04 0.982D-04-0.108D-04 0.160D-05-0.108D-03-0.133D-03
 Coeff:     -0.258D-03-0.193D-03 0.341D-04 0.975D-03-0.269D-03-0.144D-03
 Coeff:     -0.883D-03-0.591D-03-0.351D-02-0.104D-01 0.591D-02 0.101D+00
 Coeff:      0.331D+00 0.578D+00
 Gap=     0.082 Goal=   None    Shift=    0.000
 RMSDP=4.87D-07 MaxDP=4.78D-05 DE=-2.61D-09 OVMax= 1.75D-05

 Cycle  21  Pass 1  IDiag  1:
 E= -104.242860715931     Delta-E=       -0.000000000958 Rises=F Damp=F
 DIIS: error= 6.14D-07 at cycle  21 NSaved=  20.
 NSaved=20 IEnMin=20 EnMin= -104.242860715931     IErMin=20 ErrMin= 6.14D-07
 ErrMax= 6.14D-07  0.00D+00 EMaxC= 1.00D-01 BMatC= 2.91D-11 BMatP= 1.98D-09
 IDIUse=1 WtCom= 1.00D+00 WtEn= 0.00D+00
 Coeff-Com: -0.108D-07-0.693D-06 0.141D-04-0.380D-04-0.303D-04 0.149D-03
 Coeff-Com:  0.145D-03-0.194D-03-0.566D-03-0.375D-03-0.175D-03 0.117D-02
 Coeff-Com:  0.765D-03-0.236D-02-0.101D-01-0.900D-02 0.122D-01 0.104D+00
 Coeff-Com:  0.309D+00 0.595D+00
 Coeff:     -0.108D-07-0.693D-06 0.141D-04-0.380D-04-0.303D-04 0.149D-03
 Coeff:      0.145D-03-0.194D-03-0.566D-03-0.375D-03-0.175D-03 0.117D-02
 Coeff:      0.765D-03-0.236D-02-0.101D-01-0.900D-02 0.122D-01 0.104D+00
 Coeff:      0.309D+00 0.595D+00
 Gap=     0.082 Goal=   None    Shift=    0.000
 RMSDP=1.60D-07 MaxDP=1.19D-05 DE=-9.58D-10 OVMax= 4.59D-06

 Cycle  22  Pass 1  IDiag  1:
 E= -104.242860715946     Delta-E=       -0.000000000015 Rises=F Damp=F
 DIIS: error= 1.19D-07 at cycle  22 NSaved=  20.
 NSaved=20 IEnMin=20 EnMin= -104.242860715946     IErMin=20 ErrMin= 1.19D-07
 ErrMax= 1.19D-07  0.00D+00 EMaxC= 1.00D-01 BMatC= 1.13D-12 BMatP= 2.91D-11
 IDIUse=1 WtCom= 1.00D+00 WtEn= 0.00D+00
 Coeff-Com: -0.103D-05 0.820D-05 0.136D-05 0.112D-04 0.142D-03 0.143D-03
 Coeff-Com: -0.737D-04-0.433D-03-0.208D-03-0.107D-03 0.944D-03 0.357D-03
 Coeff-Com: -0.117D-02-0.586D-02-0.575D-02-0.144D-03 0.124D-01 0.625D-01
 Coeff-Com:  0.295D+00 0.643D+00
 Coeff:     -0.103D-05 0.820D-05 0.136D-05 0.112D-04 0.142D-03 0.143D-03
 Coeff:     -0.737D-04-0.433D-03-0.208D-03-0.107D-03 0.944D-03 0.357D-03
 Coeff:     -0.117D-02-0.586D-02-0.575D-02-0.144D-03 0.124D-01 0.625D-01
 Coeff:      0.295D+00 0.643D+00
 Gap=     0.082 Goal=   None    Shift=    0.000
 RMSDP=8.36D-08 MaxDP=8.49D-06 DE=-1.52D-11 OVMax= 1.56D-06

 Cycle  23  Pass 1  IDiag  1:
 E= -104.242860715948     Delta-E=       -0.000000000002 Rises=F Damp=F
 DIIS: error= 4.75D-08 at cycle  23 NSaved=  20.
 NSaved=20 IEnMin=20 EnMin= -104.242860715948     IErMin=20 ErrMin= 4.75D-08
 ErrMax= 4.75D-08  0.00D+00 EMaxC= 1.00D-01 BMatC= 1.53D-13 BMatP= 1.13D-12
 IDIUse=1 WtCom= 1.00D+00 WtEn= 0.00D+00
 Coeff-Com:  0.270D-06-0.548D-06 0.211D-05 0.177D-04 0.273D-04 0.258D-04
 Coeff-Com: -0.340D-04-0.217D-04-0.645D-04 0.237D-03 0.228D-04-0.206D-03
 Coeff-Com: -0.135D-02-0.113D-02-0.219D-03-0.717D-02-0.225D-01 0.777D-02
 Coeff-Com:  0.281D+00 0.744D+00
 Coeff:      0.270D-06-0.548D-06 0.211D-05 0.177D-04 0.273D-04 0.258D-04
 Coeff:     -0.340D-04-0.217D-04-0.645D-04 0.237D-03 0.228D-04-0.206D-03
 Coeff:     -0.135D-02-0.113D-02-0.219D-03-0.717D-02-0.225D-01 0.777D-02
 Coeff:      0.281D+00 0.744D+00
 Gap=     0.082 Goal=   None    Shift=    0.000
 RMSDP=3.20D-08 MaxDP=2.44D-06 DE=-2.27D-12 OVMax= 7.84D-07

 Cycle  24  Pass 1  IDiag  1:
 E= -104.242860715949     Delta-E=       -0.000000000000 Rises=F Damp=F
 DIIS: error= 4.82D-08 at cycle  24 NSaved=  20.
 NSaved=20 IEnMin=20 EnMin= -104.242860715949     IErMin=19 ErrMin= 4.75D-08
 ErrMax= 4.82D-08  0.00D+00 EMaxC= 1.00D-01 BMatC= 1.12D-13 BMatP= 1.53D-13
 IDIUse=1 WtCom= 1.00D+00 WtEn= 0.00D+00
 Coeff-Com:  0.290D-06-0.498D-06-0.489D-05 0.139D-05 0.260D-04 0.148D-04
 Coeff-Com:  0.183D-04-0.223D-04 0.666D-04-0.352D-04-0.510D-04-0.444D-03
 Coeff-Com: -0.362D-03-0.519D-03-0.630D-02-0.208D-01-0.213D-01 0.137D+00
 Coeff-Com:  0.535D+00 0.378D+00
 Coeff:      0.290D-06-0.498D-06-0.489D-05 0.139D-05 0.260D-04 0.148D-04
 Coeff:      0.183D-04-0.223D-04 0.666D-04-0.352D-04-0.510D-04-0.444D-03
 Coeff:     -0.362D-03-0.519D-03-0.630D-02-0.208D-01-0.213D-01 0.137D+00
 Coeff:      0.535D+00 0.378D+00
 Gap=     0.082 Goal=   None    Shift=    0.000
 RMSDP=1.71D-08 MaxDP=1.82D-06 DE=-1.99D-13 OVMax= 7.84D-07

 Cycle  25  Pass 1  IDiag  1:
 E= -104.242860715948     Delta-E=        0.000000000000 Rises=F Damp=F
 DIIS: error= 2.46D-08 at cycle  25 NSaved=  20.
 NSaved=20 IEnMin=19 EnMin= -104.242860715949     IErMin=20 ErrMin= 2.46D-08
 ErrMax= 2.46D-08  0.00D+00 EMaxC= 1.00D-01 BMatC= 3.16D-14 BMatP= 1.12D-13
 IDIUse=1 WtCom= 1.00D+00 WtEn= 0.00D+00
 Coeff-Com: -0.105D-05-0.114D-04-0.103D-04 0.137D-04 0.237D-04 0.266D-04
 Coeff-Com:  0.388D-05-0.432D-04-0.322D-04 0.841D-04 0.307D-03 0.247D-03
 Coeff-Com: -0.536D-03-0.333D-02-0.104D-01-0.249D-01-0.325D-02 0.153D+00
 Coeff-Com:  0.343D+00 0.546D+00
 Coeff:     -0.105D-05-0.114D-04-0.103D-04 0.137D-04 0.237D-04 0.266D-04
 Coeff:      0.388D-05-0.432D-04-0.322D-04 0.841D-04 0.307D-03 0.247D-03
 Coeff:     -0.536D-03-0.333D-02-0.104D-01-0.249D-01-0.325D-02 0.153D+00
 Coeff:      0.343D+00 0.546D+00
 Gap=     0.082 Goal=   None    Shift=    0.000
 RMSDP=8.52D-09 MaxDP=6.69D-07 DE= 2.27D-13 OVMax= 2.90D-07

 SCF Done:  E(ROHF) =  -104.242860716     A.U. after   25 cycles
            NFock= 25  Conv=0.85D-08     -V/T= 2.7676
 <Sx>= 0.0000 <Sy>= 0.0000 <Sz>= 3.0000 <S**2>=12.0000 S= 3.0000
 <L.S>=  0.00000000000    
 KE= 5.897491832521D+01 PE=-2.485419068057D+02 EE= 8.114641294144D+01
 Annihilation of the first spin contaminant:
 S**2 before annihilation    12.0000,   after    12.0000
 Leave Link  502 at Mon Feb 26 16:01:54 2018, MaxMem=  8589934592 cpu:             251.5 elap:              18.0
 (Enter /home1/apps/gaussian/16rA.03/g16/l801.exe)
 Windowed orbitals will be sorted by symmetry type.
 GenMOA:  NOpAll=  4 NOp2=4 NOpUse=  4 JSym2X=1
 FoFJK:  IHMeth= 1 ICntrl=       0 DoSepK=F KAlg= 0 I1Cent=           0 FoldK=F
 IRaf=         0 NMat=       1 IRICut=       1 DoRegI=T DoRafI=F ISym2E= 1 IDoP0=0 IntGTp=1.
 FoFCou: FMM=F IPFlag=           8 FMFlag=      100000 FMFlg1=           0
         NFxFlg=           0 DoJE=F BraDBF=F KetDBF=F FulRan=T
         wScrn=  0.000000 ICntrl=         0 IOpCl=  1 I1Cent=           0 NGrid=           0
         NMat0=    1 NMatS0=      1 NMatT0=    0 NMatD0=    1 NMtDS0=    0 NMtDT0=    0
 Petite list used in FoFCou.
 <Sx>= 0.0000 <Sy>= 0.0000 <Sz>= 3.0000 <S**2>=12.0000 S= 3.0000
 Range of M.O.s used for correlation:     1   212
 NBasis=   215 NAE=    11 NBE=     5 NFC=     0 NFV=     0
 NROrb=    212 NOA=    11 NOB=     5 NVA=   201 NVB=   207

 **** Warning!!: The largest alpha MO coefficient is  0.31708165D+03


 **** Warning!!: The largest beta MO coefficient is  0.31639972D+03

 Singles contribution to E2=   -0.2036024489D-02
 Leave Link  801 at Mon Feb 26 16:01:58 2018, MaxMem=  8589934592 cpu:              64.6 elap:               4.1
 (Enter /home1/apps/gaussian/16rA.03/g16/l804.exe)
 Open-shell transformation, MDV=  8589934592 ITran=4 ISComp=2.
 Unit  1 TFree=       1395127 TCopy=       1089025.
 Semi-Direct transformation.
 ModeAB=           2 MOrb=            11 LenV=    8588448837
 LASXX=     13028729 LTotXX=    13028729 LenRXX=    13028729
 LTotAB=    13295547 MaxLAS=    77914452 LenRXY=    77914452
 NonZer=    79336972 LenScr=   119775744 LnRSAI=           0
 LnScr1=           0 LExtra=     4805943 Total=    215524868
 MaxDsk= 67108864000 SrtSym=           F ITran=            4
 DoSDTr:  NPSUse= 16
 JobTyp=1 Pass  1:  I=   1 to  11.
 (rs|ai) integrals will be sorted in core.
 Complete sort for first half transformation.
 First half transformation complete.
 Begin second half transformation for I=  10.
 Begin second half transformation for I=  10.
 Complete sort for second half transformation.
 Second half transformation complete.
 ModeAB=           2 MOrb=             5 LenV=    8588448837
 LASXX=      6078645 LTotXX=     6078645 LenRXX=    35415660
 LTotAB=     5560512 MaxLAS=    35415660 LenRXY=     5560512
 NonZer=    36062260 LenScr=    54871040 LnRSAI=           0
 LnScr1=           0 LExtra=    95749124 Total=    191596336
 MaxDsk= 67108864000 SrtSym=           F ITran=            4
 DoSDTr:  NPSUse= 16
 JobTyp=2 Pass  1:  I=   1 to   5.
 (rs|ai) integrals will be sorted in core.
 Complete sort for first half transformation.
 First half transformation complete.
 Complete sort for second half transformation.
 Second half transformation complete.
 Spin components of T(2) and E(2):
     alpha-alpha T2 =       0.2438158707D-01 E2=     -0.1523702784D+00
     alpha-beta  T2 =       0.5325823741D-01 E2=     -0.3742421179D+00
     beta-beta   T2 =       0.6279952785D-02 E2=     -0.4078195317D-01
 ANorm=    0.1041605799D+01
 E2 =    -0.5694303739D+00 EUMP2 =    -0.10481229108983D+03
 (S**2,0)=  0.12000D+02           (S**2,1)=  0.12000D+02
 E(PUHF)=      -0.10424286072D+03        E(PMP2)=      -0.10481229109D+03
 Leave Link  804 at Mon Feb 26 16:03:32 2018, MaxMem=  8589934592 cpu:            1495.4 elap:              93.6
 (Enter /home1/apps/gaussian/16rA.03/g16/l913.exe)
 CIDS:  MDV=  8589934592.
 IFCWin=0 IBDFC=1 NFBD=     0     0 NFCmp=     0     0 NFFFC=     0     0
 Using original routines for 1st iteration.
 Using DD4UQ or CC4UQ for 2nd and later iterations.
 Keep R2 and R3 ints in memory in symmetry-blocked form, NReq=338807815.
 FoFCou: FMM=F IPFlag=           8 FMFlag=           0 FMFlg1=           0
         NFxFlg=           0 DoJE=F BraDBF=F KetDBF=F FulRan=T
         wScrn=  0.000000 ICntrl=       600 IOpCl=  0 I1Cent=           0 NGrid=           0
         NMat0=    1 NMatS0=  23220 NMatT0=    0 NMatD0=    1 NMtDS0=    0 NMtDT0=    0
 Petite list used in FoFCou.
 CIDS: In Core Option IDoMem=           1.
 CCSD(T)
 =======
 Iterations= 150 Convergence= 0.100D-06
 Produce multiple copies of IABC intergrals
 Iteration Nr.   1
 **********************
 DD1Dir will call FoFMem   1 times, MxPair=       176
 NAB=    55 NAA=    55 NBB=    10.
 DD1Dir will call FoFMem   1 times, MxPair=       176
 NAB=    55 NAA=    55 NBB=    10.
 MP4(R+Q)=  0.92134912D-02
 Maximum subspace dimension=  5
 A-vector RMS=  9.0800370D-05 Max=  8.6694089D-04 conv= 1.00D-05.
 RLE energy=       -0.5625133974
 E3=       -0.22473556D-02        EROMP3=      -0.10481453845D+03
 E4(SDQ)=  -0.47184656D-02        ROMP4(SDQ)=  -0.10481925691D+03
 VARIATIONAL ENERGIES WITH THE FIRST-ORDER WAVEFUNCTION:
 DE(Corr)= -0.56242758     E(Corr)=     -104.80528830    
 NORM(A)=   0.10398797D+01
 Iteration Nr.   2
 **********************
 DD1Dir will call FoFMem   1 times, MxPair=       176
 NAB=    55 NAA=    55 NBB=    10.
 A-vector RMS=  2.1619357D-03 Max=  1.4891751D-02 conv= 1.00D-05.
 RLE energy=       -0.5628662675
 DE(Corr)= -0.56447555     E(CORR)=     -104.80733626     Delta=-2.05D-03
 NORM(A)=   0.10404675D+01
 Iteration Nr.   3
 **********************
 DD1Dir will call FoFMem   1 times, MxPair=       176
 NAB=    55 NAA=    55 NBB=    10.
 A-vector RMS=  1.8707317D-03 Max=  1.2923269D-02 conv= 1.00D-05.
 RLE energy=       -0.5694397366
 DE(Corr)= -0.56628902     E(CORR)=     -104.80914974     Delta=-1.81D-03
 NORM(A)=   0.10446481D+01
 Iteration Nr.   4
 **********************
 DD1Dir will call FoFMem   1 times, MxPair=       176
 NAB=    55 NAA=    55 NBB=    10.
 A-vector RMS=  1.3125051D-03 Max=  9.5030921D-03 conv= 1.00D-05.
 RLE energy=       -0.5859758721
 DE(Corr)= -0.57048863     E(CORR)=     -104.81334934     Delta=-4.20D-03
 NORM(A)=   0.10709066D+01
 Iteration Nr.   5
 **********************
 DD1Dir will call FoFMem   1 times, MxPair=       176
 NAB=    55 NAA=    55 NBB=    10.
 A-vector RMS=  1.1481922D-03 Max=  8.9272954D-03 conv= 1.00D-05.
 RLE energy=       -0.5778653448
 DE(Corr)= -0.58456652     E(CORR)=     -104.82742723     Delta=-1.41D-02
 NORM(A)=   0.10573786D+01
 Iteration Nr.   6
 **********************
 DD1Dir will call FoFMem   1 times, MxPair=       176
 NAB=    55 NAA=    55 NBB=    10.
 A-vector RMS=  1.3598623D-04 Max=  1.4154278D-03 conv= 1.00D-05.
 RLE energy=       -0.5773954045
 DE(Corr)= -0.57777584     E(CORR)=     -104.82063655     Delta= 6.79D-03
 NORM(A)=   0.10572826D+01
 Iteration Nr.   7
 **********************
 DD1Dir will call FoFMem   1 times, MxPair=       176
 NAB=    55 NAA=    55 NBB=    10.
 A-vector RMS=  4.4967364D-05 Max=  3.8995016D-04 conv= 1.00D-05.
 RLE energy=       -0.5774118251
 DE(Corr)= -0.57739239     E(CORR)=     -104.82025311     Delta= 3.83D-04
 NORM(A)=   0.10574754D+01
 Iteration Nr.   8
 **********************
 DD1Dir will call FoFMem   1 times, MxPair=       176
 NAB=    55 NAA=    55 NBB=    10.
 A-vector RMS=  2.6566873D-05 Max=  2.5740901D-04 conv= 1.00D-05.
 RLE energy=       -0.5774088623
 DE(Corr)= -0.57742433     E(CORR)=     -104.82028505     Delta=-3.19D-05
 NORM(A)=   0.10574504D+01
 Iteration Nr.   9
 **********************
 DD1Dir will call FoFMem   1 times, MxPair=       176
 NAB=    55 NAA=    55 NBB=    10.
 A-vector RMS=  1.1885248D-05 Max=  1.3855422D-04 conv= 1.00D-05.
 RLE energy=       -0.5774139450
 DE(Corr)= -0.57740593     E(CORR)=     -104.82026664     Delta= 1.84D-05
 NORM(A)=   0.10574517D+01
 Iteration Nr.  10
 **********************
 DD1Dir will call FoFMem   1 times, MxPair=       176
 NAB=    55 NAA=    55 NBB=    10.
 A-vector RMS=  7.5161974D-06 Max=  1.0939630D-04 conv= 1.00D-05.
 RLE energy=       -0.5774121996
 DE(Corr)= -0.57741325     E(CORR)=     -104.82027397     Delta=-7.32D-06
 NORM(A)=   0.10574270D+01
 Iteration Nr.  11
 **********************
 DD1Dir will call FoFMem   1 times, MxPair=       176
 NAB=    55 NAA=    55 NBB=    10.
 A-vector RMS=  4.8844421D-06 Max=  4.4644328D-05 conv= 1.00D-05.
 RLE energy=       -0.5774102311
 DE(Corr)= -0.57740954     E(CORR)=     -104.82027025     Delta= 3.72D-06
 NORM(A)=   0.10574207D+01
 Iteration Nr.  12
 **********************
 DD1Dir will call FoFMem   1 times, MxPair=       176
 NAB=    55 NAA=    55 NBB=    10.
 A-vector RMS=  1.6746703D-06 Max=  1.6432047D-05 conv= 1.00D-05.
 RLE energy=       -0.5774112437
 DE(Corr)= -0.57741111     E(CORR)=     -104.82027183     Delta=-1.58D-06
 NORM(A)=   0.10574183D+01
 Iteration Nr.  13
 **********************
 DD1Dir will call FoFMem   1 times, MxPair=       176
 NAB=    55 NAA=    55 NBB=    10.
 A-vector RMS=  1.3250225D-06 Max=  1.3282568D-05 conv= 1.00D-05.
 RLE energy=       -0.5774110742
 DE(Corr)= -0.57741058     E(CORR)=     -104.82027130     Delta= 5.30D-07
 NORM(A)=   0.10574209D+01
 Iteration Nr.  14
 **********************
 DD1Dir will call FoFMem   1 times, MxPair=       176
 NAB=    55 NAA=    55 NBB=    10.
 A-vector RMS=  4.6500829D-07 Max=  4.5475451D-06 conv= 1.00D-05.
 RLE energy=       -0.5774115667
 DE(Corr)= -0.57741134     E(CORR)=     -104.82027205     Delta=-7.54D-07
 NORM(A)=   0.10574230D+01
 Iteration Nr.  15
 **********************
 DD1Dir will call FoFMem   1 times, MxPair=       176
 NAB=    55 NAA=    55 NBB=    10.
 A-vector RMS=  4.1913030D-07 Max=  5.2424938D-06 conv= 1.00D-05.
 RLE energy=       -0.5774119672
 DE(Corr)= -0.57741167     E(CORR)=     -104.82027239     Delta=-3.35D-07
 NORM(A)=   0.10574248D+01
 Iteration Nr.  16
 **********************
 DD1Dir will call FoFMem   1 times, MxPair=       176
 NAB=    55 NAA=    55 NBB=    10.
 A-vector RMS=  2.3570551D-07 Max=  2.8034708D-06 conv= 1.00D-05.
 RLE energy=       -0.5774120563
 DE(Corr)= -0.57741192     E(CORR)=     -104.82027263     Delta=-2.45D-07
 NORM(A)=   0.10574259D+01
 Iteration Nr.  17
 **********************
 DD1Dir will call FoFMem   1 times, MxPair=       176
 NAB=    55 NAA=    55 NBB=    10.
 A-vector RMS=  1.1586634D-07 Max=  1.1297779D-06 conv= 1.00D-05.
 RLE energy=       -0.5774122167
 DE(Corr)= -0.57741214     E(CORR)=     -104.82027285     Delta=-2.22D-07
 NORM(A)=   0.10574262D+01
 Iteration Nr.  18
 **********************
 DD1Dir will call FoFMem   1 times, MxPair=       176
 NAB=    55 NAA=    55 NBB=    10.
 A-vector RMS=  8.3284650D-08 Max=  9.4224866D-07 conv= 1.00D-05.
 RLE energy=       -0.5774121834
 DE(Corr)= -0.57741216     E(CORR)=     -104.82027288     Delta=-2.27D-08
 NORM(A)=   0.10574264D+01
 CI/CC converged in   18 iterations to DelEn=-2.27D-08 Conv= 1.00D-07 ErrA1= 8.33D-08 Conv= 1.00D-05
 Wavefunction amplitudes converged. E(Corr)=     -104.82027288    
 Largest amplitude= 4.39D-02
 Time for triples=     5720.97 seconds.
 T4(CCSD)= -0.16184974D-01
 T5(CCSD)=  0.70642155D-03
 CCSD(T)= -0.10483575143D+03
 Discarding MO integrals.
 Leave Link  913 at Mon Feb 26 16:12:12 2018, MaxMem=  8589934592 cpu:            8309.9 elap:             520.4
 (Enter /home1/apps/gaussian/16rA.03/g16/l601.exe)
 Copying SCF densities to generalized density rwf, IOpCl= 0 IROHF=1.

 **********************************************************************

            Population analysis using the SCF density.

 **********************************************************************

 Orbital symmetries:
       Occupied  (SG) (PI) (PI) (SG) (SG) (DLTA) (DLTA) (PI) (PI)
                 (SG) (SG)
       Virtual   (PI) (PI) (SG) (SG) (PI) (PI) (SG) (DLTA) (DLTA)
                 (PI) (PI) (SG) (SG) (SG) (PI) (PI) (SG) (PI) (PI)
                 (DLTA) (DLTA) (PI) (PI) (SG) (SG) (SG) (SG) (DLTA)
                 (DLTA) (PHI) (PHI) (PI) (PI) (SG) (PI) (PI) (PI)
                 (PI) (SG) (DLTA) (DLTA) (SG) (DLTA) (DLTA) (PI)
                 (PI) (SG) (PI) (PI) (SG) (SG) (PHI) (PHI) (DLTA)
                 (DLTA) (SG) (PI) (PI) (PI) (PI) (SG) (?A) (?A)
                 (PHI) (PHI) (SG) (DLTA) (DLTA) (PI) (PI) (DLTA)
                 (DLTA) (SG) (PI) (PI) (SG) (DLTA) (DLTA) (PI)
                 (PI) (PI) (PI) (SG) (SG) (SG) (PHI) (PHI) (DLTA)
                 (DLTA) (PI) (PI) (DLTA) (DLTA) (SG) (PI) (PI)
                 (SG) (PI) (PI) (SG) (?A) (?A) (PHI) (PHI) (DLTA)
                 (DLTA) (PI) (PI) (SG) (SG) (SG) (DLTA) (DLTA)
                 (PI) (PI) (SG) (PHI) (PHI) (DLTA) (DLTA) (PI)
                 (PI) (PI) (PI) (SG) (SG) (?A) (?A) (PHI) (PHI)
                 (DLTA) (DLTA) (PI) (PI) (SG) (DLTA) (DLTA) (PI)
                 (PI) (SG) (SG) (PI) (PI) (SG) (DLTA) (DLTA) (PI)
                 (PI) (SG) (SG) (SG) (PI) (PI) (SG) (SG) (DLTA)
                 (DLTA) (PI) (PI) (SG) (PI) (PI) (SG) (SG) (PI)
                 (PI) (SG) (SG) (DLTA) (DLTA) (PI) (PI) (SG) (PI)
                 (PI) (SG) (SG) (PI) (PI) (SG) (SG) (PI) (PI) (SG)
                 (SG) (PI) (PI) (SG) (SG) (PI) (PI) (SG) (SG) (SG)
                 (PI) (PI) (SG) (SG) (SG) (SG) (SG)
 The electronic state is 7-SG.
 Alpha  occ. eigenvalues --   -4.18580  -2.77565  -2.77565  -2.77304  -0.66054
 Alpha  occ. eigenvalues --   -0.66054  -0.65429  -0.65378  -0.65378  -0.39499
 Alpha  occ. eigenvalues --   -0.26704
 Alpha virt. eigenvalues --    0.01134   0.01134   0.02321   0.03118   0.05628
 Alpha virt. eigenvalues --    0.05628   0.08082   0.08412   0.08412   0.08901
 Alpha virt. eigenvalues --    0.08901   0.10166   0.13499   0.18669   0.22560
 Alpha virt. eigenvalues --    0.22560   0.24079   0.29146   0.29146   0.29401
 Alpha virt. eigenvalues --    0.29401   0.35242   0.35242   0.35707   0.42975
 Alpha virt. eigenvalues --    0.47334   0.68347   0.74261   0.74261   0.76036
 Alpha virt. eigenvalues --    0.76036   0.78674   0.78674   0.85003   0.86082
 Alpha virt. eigenvalues --    0.86082   0.95237   0.95237   0.96029   0.96604
 Alpha virt. eigenvalues --    0.96604   1.01041   1.02275   1.02275   1.11682
 Alpha virt. eigenvalues --    1.11682   1.29068   1.44216   1.44216   1.74821
 Alpha virt. eigenvalues --    1.83157   2.31611   2.31611   2.35028   2.35028
 Alpha virt. eigenvalues --    2.37596   2.38487   2.38487   2.60791   2.60791
 Alpha virt. eigenvalues --    2.62901   2.76111   2.76111   2.77527   2.77538
 Alpha virt. eigenvalues --    2.77538   2.83120   2.83120   2.84314   2.84314
 Alpha virt. eigenvalues --    2.85542   2.85542   2.88618   3.06604   3.06604
 Alpha virt. eigenvalues --    3.47779   3.99412   3.99412   4.16817   4.16817
 Alpha virt. eigenvalues --    4.36390   4.36390   4.51046   4.94996   5.22129
 Alpha virt. eigenvalues --    6.37824   6.37824   6.39887   6.39887   6.44675
 Alpha virt. eigenvalues --    6.44675   6.69553   6.71296   6.71296   6.77101
 Alpha virt. eigenvalues --    6.77101   6.95247   7.39177   7.39177   7.55290
 Alpha virt. eigenvalues --    8.15544   8.15544   8.16304   8.16304   8.18959
 Alpha virt. eigenvalues --    8.18959   8.31887   8.31887   8.58508  10.31997
 Alpha virt. eigenvalues --   12.09992  13.51990  13.51990  13.57080  13.57080
 Alpha virt. eigenvalues --   13.66194  17.61834  17.61834  17.63048  17.63048
 Alpha virt. eigenvalues --   17.65692  17.65692  17.67621  17.67621  17.75010
 Alpha virt. eigenvalues --   17.88227  22.14772  22.14772  22.15094  22.15094
 Alpha virt. eigenvalues --   22.16369  22.16369  22.22258  22.22258  22.34618
 Alpha virt. eigenvalues --   25.08559  25.08559  25.13150  25.13150  25.18962
 Alpha virt. eigenvalues --   25.42007  36.50365  36.50365  36.66887  45.74501
 Alpha virt. eigenvalues --   45.74501  45.78525  45.78525  45.85516  51.78472
 Alpha virt. eigenvalues --   63.93120  69.30033  69.30033  69.47481  96.19254
 Alpha virt. eigenvalues --  100.43080 100.43080 100.46238 100.46238 100.51817
 Alpha virt. eigenvalues --  126.73710 126.73710 126.90161 147.44144 231.28912
 Alpha virt. eigenvalues --  231.28912 231.44890 271.39082 328.53322 328.53322
 Alpha virt. eigenvalues --  328.55275 328.55275 328.58787 439.66853 439.66853
 Alpha virt. eigenvalues --  439.82383 532.01451 888.00747 888.00747 888.15192
 Alpha virt. eigenvalues -- 1096.270421949.026691949.026691949.155732403.19907
 Alpha virt. eigenvalues -- 4773.213174773.213174773.324075613.09122**********
 Alpha virt. eigenvalues -- **************************************************
 Alpha virt. eigenvalues -- **************************************************
 Alpha virt. eigenvalues -- **********
     Molecular Orbital Coefficients:
                           1         2         3         4         5
                           O         O         O         O         O
     Eigenvalues --    -4.18580  -2.77565  -2.77565  -2.77304  -0.66054
   1 1   Mn 1S          0.00000   0.00000   0.00000  -0.00000  -0.00000
   2        2S          0.00000   0.00000   0.00000  -0.00000  -0.00000
   3        3S         -0.00000   0.00000   0.00000   0.00000   0.00000
   4        4S          0.00000   0.00000   0.00000  -0.00000  -0.00000
   5        5S         -0.00000   0.00000   0.00000   0.00000   0.00000
   6        6S          0.00007   0.00000   0.00000  -0.00000  -0.00001
   7        7S         -0.00009   0.00000   0.00000   0.00000   0.00001
   8        8S          0.00069   0.00000   0.00000  -0.00000  -0.00010
   9        9S         -0.00120   0.00000   0.00000   0.00001   0.00017
  10       10S          0.00530   0.00000   0.00000  -0.00002  -0.00073
  11       11S         -0.01359   0.00000   0.00000   0.00006   0.00188
  12       12S          0.05008   0.00000   0.00000  -0.00023  -0.00711
  13       13S          0.00569   0.00000   0.00000   0.00006   0.00076
  14       14S         -0.53571   0.00000   0.00000   0.00191   0.07229
  15       15S         -0.01976   0.00000   0.00000  -0.00124  -0.01227
  16       16S          0.84673   0.00000   0.00000  -0.00020  -0.11498
  17       17S          0.39342   0.00000   0.00000   0.00076  -0.11852
  18       18S          0.01187   0.00000   0.00000   0.00248   0.20205
  19       19S         -0.00598   0.00000   0.00000   0.00586   0.13464
  20       20S          0.00274   0.00000   0.00000  -0.00180   0.02394
  21       21S          0.21198   0.00000   0.00000   0.00018  -0.02108
  22       22S         -0.08848   0.00000   0.00000  -0.00505  -0.02075
  23       23S         -0.00048   0.00000   0.00000  -0.00054  -0.01610
  24       24PX         0.00000   0.00000   0.00000   0.00000   0.00000
  25       24PY         0.00000   0.00000   0.00000   0.00000   0.00000
  26       24PZ         0.00000   0.00000   0.00000   0.00000   0.00000
  27       25PX         0.00000  -0.00000   0.00000   0.00000   0.00000
  28       25PY         0.00000   0.00000  -0.00000   0.00000   0.00000
  29       25PZ        -0.00000   0.00000   0.00000  -0.00000  -0.00000
  30       26PX         0.00000   0.00003   0.00000   0.00000   0.00000
  31       26PY         0.00000   0.00000   0.00003   0.00000   0.00000
  32       26PZ         0.00000   0.00000   0.00000   0.00003   0.00000
  33       27PX         0.00000  -0.00002   0.00000   0.00000   0.00000
  34       27PY         0.00000   0.00000  -0.00002   0.00000   0.00000
  35       27PZ        -0.00000   0.00000   0.00000  -0.00002  -0.00000
  36       28PX         0.00000   0.00044   0.00000   0.00000   0.00000
  37       28PY         0.00000   0.00000   0.00044   0.00000   0.00000
  38       28PZ         0.00000   0.00000   0.00000   0.00044   0.00004
  39       29PX         0.00000  -0.00052   0.00000   0.00000   0.00000
  40       29PY         0.00000   0.00000  -0.00052   0.00000   0.00000
  41       29PZ        -0.00000   0.00000   0.00000  -0.00053  -0.00004
  42       30PX         0.00000   0.00491   0.00000   0.00000   0.00000
  43       30PY         0.00000   0.00000   0.00491   0.00000   0.00000
  44       30PZ         0.00002   0.00000   0.00000   0.00494   0.00047
  45       31PX         0.00000  -0.00103   0.00000   0.00000   0.00000
  46       31PY         0.00000   0.00000  -0.00103   0.00000   0.00000
  47       31PZ        -0.00003   0.00000   0.00000  -0.00108  -0.00003
  48       32PX         0.00000  -0.09500   0.00000   0.00000   0.00000
  49       32PY         0.00000   0.00000  -0.09500   0.00000   0.00000
  50       32PZ        -0.00017   0.00000   0.00000  -0.09508  -0.01047
  51       33PX         0.00000  -0.00653   0.00000   0.00000   0.00000
  52       33PY         0.00000   0.00000  -0.00653   0.00000   0.00000
  53       33PZ         0.00213   0.00000   0.00000  -0.00397  -0.00979
  54       34PX         0.00000   0.33105   0.00000   0.00000   0.00000
  55       34PY         0.00000   0.00000   0.33105   0.00000   0.00000
  56       34PZ         0.00073   0.00000   0.00000   0.33174   0.03834
  57       35PX         0.00000   0.21733   0.00000   0.00000   0.00000
  58       35PY         0.00000   0.00000   0.21733   0.00000   0.00000
  59       35PZ        -0.00083   0.00000   0.00000   0.21960   0.02216
  60       36PX         0.00000   0.28721   0.00000   0.00000   0.00000
  61       36PY         0.00000   0.00000   0.28721   0.00000   0.00000
  62       36PZ         0.00083   0.00000   0.00000   0.28343   0.04431
  63       37PX         0.00000   0.03997   0.00000   0.00000   0.00000
  64       37PY         0.00000   0.00000   0.03997   0.00000   0.00000
  65       37PZ         0.00105   0.00000   0.00000   0.03899  -0.06253
  66       38PX         0.00000  -0.00337   0.00000   0.00000   0.00000
  67       38PY         0.00000   0.00000  -0.00337   0.00000   0.00000
  68       38PZ         0.00111   0.00000   0.00000  -0.00555  -0.10479
  69       39PX         0.00000   0.00154   0.00000   0.00000   0.00000
  70       39PY         0.00000   0.00000   0.00154   0.00000   0.00000
  71       39PZ         0.00015   0.00000   0.00000   0.00251  -0.03279
  72       40PX         0.00000   0.03979   0.00000   0.00000   0.00000
  73       40PY         0.00000   0.00000   0.03979   0.00000   0.00000
  74       40PZ        -0.00198   0.00000   0.00000   0.03753   0.01362
  75       41PX         0.00000   0.24310   0.00000   0.00000   0.00000
  76       41PY         0.00000   0.00000   0.24310   0.00000   0.00000
  77       41PZ         0.00221   0.00000   0.00000   0.24293   0.02878
  78       42PX         0.00000  -0.00046   0.00000   0.00000   0.00000
  79       42PY         0.00000   0.00000  -0.00046   0.00000   0.00000
  80       42PZ        -0.00010   0.00000   0.00000   0.00013   0.00689
  81       43D 0       -0.00001   0.00000   0.00000   0.00001   0.00018
  82       43D+1        0.00000   0.00000   0.00000   0.00000   0.00000
  83       43D-1        0.00000   0.00000   0.00000   0.00000   0.00000
  84       43D+2        0.00000   0.00000   0.00000   0.00000   0.00000
  85       43D-2        0.00000   0.00000   0.00000   0.00000   0.00000
  86       44D 0       -0.00006   0.00000   0.00000   0.00013   0.00231
  87       44D+1        0.00000   0.00003   0.00000   0.00000   0.00000
  88       44D-1        0.00000   0.00000   0.00003   0.00000   0.00000
  89       44D+2        0.00000   0.00000   0.00000  -0.00000   0.00000
  90       44D-2        0.00000   0.00000   0.00000   0.00000   0.00000
  91       45D 0       -0.00026   0.00000   0.00000   0.00054   0.00955
  92       45D+1        0.00000   0.00011   0.00000   0.00000   0.00000
  93       45D-1        0.00000   0.00000   0.00011   0.00000   0.00000
  94       45D+2        0.00000   0.00000   0.00000   0.00000   0.00000
  95       45D-2        0.00000   0.00000   0.00000   0.00000   0.00000
  96       46D 0       -0.00002   0.00000   0.00000   0.00072   0.01955
  97       46D+1        0.00000   0.00051   0.00000   0.00000   0.00000
  98       46D-1        0.00000   0.00000   0.00051   0.00000   0.00000
  99       46D+2       -0.00000   0.00000   0.00000  -0.00000   0.00000
 100       46D-2        0.00000   0.00000   0.00000   0.00000   0.00000
 101       47D 0       -0.01341   0.00000   0.00000   0.00792   0.04475
 102       47D+1        0.00000  -0.00578   0.00000   0.00000   0.00000
 103       47D-1        0.00000   0.00000  -0.00578   0.00000   0.00000
 104       47D+2        0.00000   0.00000   0.00000   0.00000   0.00000
 105       47D-2        0.00000   0.00000   0.00000   0.00000   0.00000
 106       48D 0       -0.00187   0.00000   0.00000   0.00249   0.03566
 107       48D+1        0.00000   0.00077   0.00000   0.00000   0.00000
 108       48D-1        0.00000   0.00000   0.00077   0.00000   0.00000
 109       48D+2       -0.00000   0.00000   0.00000  -0.00000   0.00000
 110       48D-2        0.00000   0.00000   0.00000   0.00000   0.00000
 111       49D 0       -0.00094   0.00000   0.00000   0.00173   0.04629
 112       49D+1        0.00000   0.00031   0.00000   0.00000   0.00000
 113       49D-1        0.00000   0.00000   0.00031   0.00000   0.00000
 114       49D+2       -0.00000   0.00000   0.00000   0.00000   0.00000
 115       49D-2        0.00000   0.00000   0.00000   0.00000   0.00000
 116       50D 0       -0.00020   0.00000   0.00000   0.00163   0.02454
 117       50D+1        0.00000   0.00009   0.00000   0.00000   0.00000
 118       50D-1        0.00000   0.00000   0.00009   0.00000   0.00000
 119       50D+2        0.00000   0.00000   0.00000  -0.00000   0.00000
 120       50D-2        0.00000   0.00000   0.00000   0.00000   0.00000
 121       51D 0       -0.00075   0.00000   0.00000   0.00070   0.00272
 122       51D+1        0.00000  -0.00025   0.00000   0.00000   0.00000
 123       51D-1        0.00000   0.00000  -0.00025   0.00000   0.00000
 124       51D+2        0.00000   0.00000   0.00000   0.00000   0.00000
 125       51D-2        0.00000   0.00000   0.00000   0.00000   0.00000
 126       52D 0        0.01228   0.00000   0.00000  -0.00606  -0.01171
 127       52D+1        0.00000   0.00621   0.00000   0.00000   0.00000
 128       52D-1        0.00000   0.00000   0.00621   0.00000   0.00000
 129       52D+2       -0.00000   0.00000   0.00000  -0.00000   0.00000
 130       52D-2        0.00000   0.00000   0.00000   0.00000   0.00000
 131       53D 0        0.00006   0.00000   0.00000  -0.00054   0.00091
 132       53D+1        0.00000   0.00002   0.00000   0.00000   0.00000
 133       53D-1        0.00000   0.00000   0.00002   0.00000   0.00000
 134       53D+2       -0.00000   0.00000   0.00000   0.00000   0.00000
 135       53D-2        0.00000   0.00000   0.00000   0.00000   0.00000
 136       54F 0       -0.00001   0.00000   0.00000  -0.00007  -0.00022
 137       54F+1        0.00000  -0.00006   0.00000   0.00000   0.00000
 138       54F-1        0.00000   0.00000  -0.00006   0.00000   0.00000
 139       54F+2       -0.00000   0.00000   0.00000  -0.00000   0.00000
 140       54F-2        0.00000   0.00000   0.00000   0.00000   0.00000
 141       54F+3        0.00000  -0.00000   0.00000   0.00000   0.00000
 142       54F-3        0.00000   0.00000  -0.00000   0.00000   0.00000
 143       55F 0        0.00007   0.00000   0.00000  -0.00063  -0.00049
 144       55F+1        0.00000  -0.00048   0.00000   0.00000   0.00000
 145       55F-1        0.00000   0.00000  -0.00048   0.00000   0.00000
 146       55F+2        0.00000   0.00000   0.00000   0.00000  -0.00000
 147       55F-2        0.00000   0.00000   0.00000   0.00000   0.00000
 148       55F+3        0.00000   0.00000   0.00000   0.00000   0.00000
 149       55F-3        0.00000   0.00000   0.00000   0.00000   0.00000
 150       56F 0        0.00018   0.00000   0.00000  -0.00132  -0.00419
 151       56F+1        0.00000  -0.00123   0.00000   0.00000   0.00000
 152       56F-1        0.00000   0.00000  -0.00123   0.00000   0.00000
 153       56F+2        0.00000   0.00000   0.00000   0.00000   0.00000
 154       56F-2        0.00000   0.00000   0.00000   0.00000   0.00000
 155       56F+3        0.00000   0.00000   0.00000   0.00000   0.00000
 156       56F-3        0.00000   0.00000   0.00000   0.00000   0.00000
 157       57F 0        0.00019   0.00000   0.00000  -0.00016  -0.00740
 158       57F+1        0.00000   0.00012   0.00000   0.00000   0.00000
 159       57F-1        0.00000   0.00000   0.00012   0.00000   0.00000
 160       57F+2       -0.00000   0.00000   0.00000  -0.00000  -0.00000
 161       57F-2        0.00000   0.00000   0.00000   0.00000   0.00000
 162       57F+3        0.00000  -0.00000   0.00000   0.00000   0.00000
 163       57F-3        0.00000   0.00000  -0.00000   0.00000   0.00000
 164       58G 0       -0.00000   0.00000   0.00000  -0.00000   0.00003
 165       58G+1        0.00000  -0.00000   0.00000   0.00000   0.00000
 166       58G-1        0.00000   0.00000  -0.00000   0.00000   0.00000
 167       58G+2        0.00000   0.00000   0.00000   0.00000  -0.00000
 168       58G-2        0.00000   0.00000   0.00000   0.00000   0.00000
 169       58G+3        0.00000  -0.00000   0.00000   0.00000   0.00000
 170       58G-3        0.00000   0.00000  -0.00000   0.00000   0.00000
 171       58G+4       -0.00000   0.00000   0.00000   0.00000  -0.00000
 172       58G-4        0.00000   0.00000   0.00000   0.00000   0.00000
 173       59G 0        0.00000   0.00000   0.00000   0.00007  -0.00005
 174       59G+1        0.00000   0.00007   0.00000   0.00000   0.00000
 175       59G-1        0.00000   0.00000   0.00007   0.00000   0.00000
 176       59G+2       -0.00000   0.00000   0.00000   0.00000   0.00000
 177       59G-2        0.00000   0.00000   0.00000   0.00000   0.00000
 178       59G+3        0.00000  -0.00000   0.00000   0.00000   0.00000
 179       59G-3        0.00000   0.00000   0.00000   0.00000   0.00000
 180       59G+4        0.00000   0.00000   0.00000  -0.00000   0.00000
 181       59G-4        0.00000   0.00000   0.00000   0.00000   0.00000
 182       60G 0       -0.00004   0.00000   0.00000   0.00003   0.00114
 183       60G+1        0.00000   0.00004   0.00000   0.00000   0.00000
 184       60G-1        0.00000   0.00000   0.00004   0.00000   0.00000
 185       60G+2       -0.00000   0.00000   0.00000   0.00000  -0.00000
 186       60G-2        0.00000   0.00000   0.00000   0.00000   0.00000
 187       60G+3        0.00000   0.00000   0.00000   0.00000   0.00000
 188       60G-3        0.00000   0.00000   0.00000   0.00000   0.00000
 189       60G+4       -0.00000   0.00000   0.00000   0.00000  -0.00000
 190       60G-4        0.00000   0.00000   0.00000   0.00000   0.00000
 191 2   H  1S          0.00001   0.00000   0.00000  -0.00005   0.00316
 192        2S          0.00004   0.00000   0.00000  -0.00043   0.03434
 193        3S          0.00012   0.00000   0.00000  -0.00166   0.13122
 194        4S          0.00069   0.00000   0.00000  -0.00348   0.30943
 195        5S          0.00147   0.00000   0.00000  -0.00696   0.31657
 196        6S         -0.00030   0.00000   0.00000   0.00200   0.04563
 197        7PX         0.00000   0.00006   0.00000   0.00000   0.00000
 198        7PY         0.00000   0.00000   0.00006   0.00000   0.00000
 199        7PZ         0.00008   0.00000   0.00000  -0.00042   0.00331
 200        8PX         0.00000   0.00015   0.00000   0.00000   0.00000
 201        8PY         0.00000   0.00000   0.00015   0.00000   0.00000
 202        8PZ         0.00064   0.00000   0.00000  -0.00125   0.02091
 203        9PX         0.00000   0.00010   0.00000   0.00000   0.00000
 204        9PY         0.00000   0.00000   0.00010   0.00000   0.00000
 205        9PZ         0.00063   0.00000   0.00000  -0.00238   0.02004
 206       10D 0        0.00011   0.00000   0.00000  -0.00040   0.00161
 207       10D+1        0.00000   0.00010   0.00000   0.00000   0.00000
 208       10D-1        0.00000   0.00000   0.00010   0.00000   0.00000
 209       10D+2        0.00000   0.00000   0.00000  -0.00000  -0.00000
 210       10D-2        0.00000   0.00000   0.00000   0.00000   0.00000
 211       11D 0        0.00030   0.00000   0.00000  -0.00041   0.00103
 212       11D+1        0.00000  -0.00008   0.00000   0.00000   0.00000
 213       11D-1        0.00000   0.00000  -0.00008   0.00000   0.00000
 214       11D+2       -0.00000   0.00000   0.00000  -0.00000   0.00000
 215       11D-2        0.00000   0.00000   0.00000   0.00000   0.00000
                           6         7         8         9        10
                           O         O         O         O         O
     Eigenvalues --    -0.66054  -0.65429  -0.65378  -0.65378  -0.39499
   1 1   Mn 1S         -0.00000   0.00000   0.00000   0.00000   0.00000
   2        2S          0.00000   0.00000   0.00000   0.00000   0.00000
   3        3S         -0.00000   0.00000   0.00000   0.00000  -0.00000
   4        4S          0.00000   0.00000   0.00000   0.00000   0.00000
   5        5S         -0.00000   0.00000   0.00000   0.00000  -0.00000
   6        6S          0.00000   0.00000   0.00000   0.00000   0.00001
   7        7S         -0.00000   0.00000   0.00000   0.00000  -0.00001
   8        8S          0.00000   0.00000   0.00000   0.00000   0.00009
   9        9S         -0.00000   0.00000   0.00000   0.00000  -0.00016
  10       10S          0.00000   0.00000   0.00000   0.00000   0.00071
  11       11S         -0.00000   0.00000   0.00000   0.00000  -0.00181
  12       12S          0.00000   0.00000   0.00000   0.00000   0.00678
  13       13S         -0.00000   0.00000   0.00000   0.00000  -0.00180
  14       14S          0.00000   0.00000   0.00000   0.00000  -0.06076
  15       15S          0.00000   0.00000   0.00000   0.00000   0.03789
  16       16S         -0.00000   0.00000   0.00000   0.00000   0.05064
  17       17S         -0.00000   0.00000   0.00000   0.00000   0.05686
  18       18S          0.00000   0.00000   0.00000   0.00000  -0.21525
  19       19S         -0.00000   0.00000   0.00000   0.00000  -0.18229
  20       20S          0.00000   0.00000   0.00000   0.00000  -0.07147
  21       21S         -0.00000   0.00000   0.00000   0.00000  -0.00033
  22       22S          0.00000   0.00000   0.00000   0.00000   0.09992
  23       23S         -0.00000   0.00000   0.00000   0.00000   0.00413
  24       24PX         0.00000   0.00000  -0.00000   0.00000   0.00000
  25       24PY         0.00000   0.00000   0.00000  -0.00000   0.00000
  26       24PZ         0.00000   0.00000   0.00000   0.00000   0.00000
  27       25PX         0.00000   0.00000   0.00000   0.00000   0.00000
  28       25PY         0.00000   0.00000   0.00000   0.00000   0.00000
  29       25PZ        -0.00000   0.00000   0.00000   0.00000   0.00000
  30       26PX         0.00000   0.00000  -0.00000   0.00000   0.00000
  31       26PY         0.00000   0.00000   0.00000  -0.00000   0.00000
  32       26PZ         0.00000   0.00000   0.00000   0.00000   0.00000
  33       27PX         0.00000   0.00000   0.00000   0.00000   0.00000
  34       27PY         0.00000   0.00000   0.00000   0.00000   0.00000
  35       27PZ        -0.00000   0.00000   0.00000   0.00000   0.00000
  36       28PX         0.00000   0.00000  -0.00000   0.00000   0.00000
  37       28PY         0.00000   0.00000   0.00000  -0.00000   0.00000
  38       28PZ         0.00000   0.00000   0.00000   0.00000   0.00000
  39       29PX         0.00000   0.00000   0.00001   0.00000   0.00000
  40       29PY         0.00000   0.00000   0.00000   0.00001   0.00000
  41       29PZ        -0.00000   0.00000   0.00000   0.00000   0.00000
  42       30PX         0.00000   0.00000  -0.00005   0.00000   0.00000
  43       30PY         0.00000   0.00000   0.00000  -0.00005   0.00000
  44       30PZ         0.00000   0.00000   0.00000   0.00000   0.00005
  45       31PX         0.00000   0.00000   0.00003   0.00000   0.00000
  46       31PY         0.00000   0.00000   0.00000   0.00003   0.00000
  47       31PZ        -0.00000   0.00000   0.00000   0.00000   0.00012
  48       32PX         0.00000   0.00000   0.00074   0.00000   0.00000
  49       32PY         0.00000   0.00000   0.00000   0.00074   0.00000
  50       32PZ         0.00000   0.00000   0.00000   0.00000  -0.00248
  51       33PX         0.00000   0.00000  -0.00137   0.00000   0.00000
  52       33PY         0.00000   0.00000   0.00000  -0.00137   0.00000
  53       33PZ         0.00000   0.00000   0.00000   0.00000  -0.01107
  54       34PX         0.00000   0.00000  -0.00264   0.00000   0.00000
  55       34PY         0.00000   0.00000   0.00000  -0.00264   0.00000
  56       34PZ        -0.00000   0.00000   0.00000   0.00000   0.00899
  57       35PX         0.00000   0.00000  -0.00150   0.00000   0.00000
  58       35PY         0.00000   0.00000   0.00000  -0.00150   0.00000
  59       35PZ         0.00000   0.00000   0.00000   0.00000   0.00531
  60       36PX         0.00000   0.00000  -0.00333   0.00000   0.00000
  61       36PY         0.00000   0.00000   0.00000  -0.00333   0.00000
  62       36PZ        -0.00000   0.00000   0.00000   0.00000   0.01386
  63       37PX         0.00000   0.00000   0.01176   0.00000   0.00000
  64       37PY         0.00000   0.00000   0.00000   0.01176   0.00000
  65       37PZ         0.00000   0.00000   0.00000   0.00000  -0.01061
  66       38PX         0.00000   0.00000   0.00982   0.00000   0.00000
  67       38PY         0.00000   0.00000   0.00000   0.00982   0.00000
  68       38PZ         0.00000   0.00000   0.00000   0.00000  -0.08730
  69       39PX         0.00000   0.00000   0.00006   0.00000   0.00000
  70       39PY         0.00000   0.00000   0.00000   0.00006   0.00000
  71       39PZ         0.00000   0.00000   0.00000   0.00000  -0.04726
  72       40PX         0.00000   0.00000   0.00095   0.00000   0.00000
  73       40PY         0.00000   0.00000   0.00000   0.00095   0.00000
  74       40PZ        -0.00000   0.00000   0.00000   0.00000   0.01136
  75       41PX         0.00000   0.00000  -0.00366   0.00000   0.00000
  76       41PY         0.00000   0.00000   0.00000  -0.00366   0.00000
  77       41PZ        -0.00000   0.00000   0.00000   0.00000   0.00206
  78       42PX         0.00000   0.00000   0.00014   0.00000   0.00000
  79       42PY         0.00000   0.00000   0.00000   0.00014   0.00000
  80       42PZ         0.00000   0.00000   0.00000   0.00000   0.00199
  81       43D 0       -0.00000   0.00000   0.00000   0.00000   0.00187
[...]
   1 1   Mn 1S          0.00000   0.00000   0.00000   0.00000
   2        2S          0.00000   0.00000   0.00000   0.00000
   3        3S         -0.00000  -0.00000  -0.00000   0.00000
   4        4S          0.00000   0.00000   0.00000   0.00000
   5        5S         -0.00000  -0.00000  -0.00000  -0.00000
   6        6S          0.00000   0.00000   0.00000   0.00000
   7        7S         -0.00000  -0.00000  -0.00000  -0.00000
   8        8S          0.00000   0.00000   0.00000   0.00000
   9        9S         -0.00001  -0.00001  -0.00001  -0.00000
  10       10S          0.00009   0.00004   0.00004   0.00000
  11       11S         -0.00048  -0.00024  -0.00023  -0.00001
  12       12S          0.00516   0.00264   0.00252   0.00012
  13       13S          0.00157   0.00077   0.00080  -0.00004
  14       14S         -0.39138  -0.19957  -0.19181  -0.00776
  15       15S         -0.02328  -0.01054  -0.01275   0.00221
  16       16S          1.59878   0.80643   0.79235   0.01408
  17       17S          0.71959   0.35111   0.36848  -0.01737
  18       18S          0.43043   0.32707   0.10336   0.22371
  19       19S          0.48122   0.40444   0.07678   0.32766
  20       20S          0.11993   0.10629   0.01364   0.09265
  21       21S          0.23923   0.12123   0.11800   0.00322
  22       22S         -0.16869  -0.08343  -0.08527   0.00184
  23       23S         -0.01480  -0.00821  -0.00659  -0.00162
  24       24PX         0.00000   0.00000   0.00000   0.00000
  25       24PY         0.00000   0.00000   0.00000   0.00000
  26       24PZ         0.00000   0.00000   0.00000   0.00000
  27       25PX        -0.00000  -0.00000  -0.00000  -0.00000
  28       25PY        -0.00000  -0.00000  -0.00000  -0.00000
  29       25PZ        -0.00000  -0.00000  -0.00000  -0.00000
  30       26PX         0.00000   0.00000   0.00000   0.00000
  31       26PY         0.00000   0.00000   0.00000   0.00000
  32       26PZ         0.00000   0.00000   0.00000   0.00000
  33       27PX        -0.00000  -0.00000  -0.00000  -0.00000
  34       27PY        -0.00000  -0.00000  -0.00000  -0.00000
  35       27PZ        -0.00000  -0.00000  -0.00000  -0.00000
  36       28PX         0.00001   0.00000   0.00000   0.00000
  37       28PY         0.00001   0.00000   0.00000   0.00000
  38       28PZ         0.00001   0.00000   0.00000   0.00000
  39       29PX        -0.00002  -0.00001  -0.00001  -0.00000
  40       29PY        -0.00002  -0.00001  -0.00001  -0.00000
  41       29PZ        -0.00002  -0.00001  -0.00001  -0.00000
  42       30PX         0.00051   0.00026   0.00026   0.00000
  43       30PY         0.00051   0.00026   0.00026   0.00000
  44       30PZ         0.00053   0.00027   0.00026   0.00001
  45       31PX        -0.00028  -0.00014  -0.00014  -0.00000
  46       31PY        -0.00028  -0.00014  -0.00014  -0.00000
  47       31PZ        -0.00030  -0.00015  -0.00015  -0.00000
  48       32PX        -0.05977  -0.02989  -0.02988  -0.00000
  49       32PY        -0.05977  -0.02989  -0.02988  -0.00000
  50       32PZ        -0.06126  -0.03097  -0.03029  -0.00068
  51       33PX        -0.00758  -0.00379  -0.00379   0.00001
  52       33PY        -0.00758  -0.00379  -0.00379   0.00001
  53       33PZ        -0.00625  -0.00342  -0.00282  -0.00060
  54       34PX         0.56911   0.28456   0.28455   0.00001
  55       34PY         0.56911   0.28456   0.28455   0.00001
  56       34PZ         0.58105   0.29315   0.28790   0.00525
  57       35PX         0.42999   0.21500   0.21499   0.00000
  58       35PY         0.42999   0.21500   0.21499   0.00000
  59       35PZ         0.43753   0.21953   0.21800   0.00152
  60       36PX         0.50228   0.25113   0.25115  -0.00001
  61       36PY         0.50228   0.25113   0.25115  -0.00001
  62       36PZ         0.48223   0.23796   0.24426  -0.00630
  63       37PX         0.04249   0.02133   0.02116   0.00017
  64       37PY         0.04249   0.02133   0.02116   0.00017
  65       37PZ         0.12950   0.08741   0.04209   0.04531
  66       38PX        -0.00145  -0.00064  -0.00081   0.00017
  67       38PY        -0.00145  -0.00064  -0.00081   0.00017
  68       38PZ         0.32120   0.26485   0.05634   0.20851
  69       39PX         0.00027   0.00013   0.00013   0.00000
  70       39PY         0.00027   0.00013   0.00013   0.00000
  71       39PZ         0.12156   0.10611   0.01545   0.09065
  72       40PX         0.04395   0.02197   0.02198  -0.00000
  73       40PY         0.04395   0.02197   0.02198  -0.00000
  74       40PZ         0.04393   0.02248   0.02145   0.00103
  75       41PX         0.48087   0.24044   0.24043   0.00001
  76       41PY         0.48087   0.24044   0.24043   0.00001
  77       41PZ         0.48487   0.24357   0.24131   0.00226
  78       42PX        -0.00003  -0.00001  -0.00001   0.00000
  79       42PY        -0.00003  -0.00001  -0.00001   0.00000
  80       42PZ        -0.00451  -0.00285  -0.00167  -0.00118
  81       43D 0        0.00010   0.00010   0.00000   0.00010
  82       43D+1        0.00010   0.00010   0.00000   0.00010
  83       43D-1        0.00010   0.00010   0.00000   0.00010
  84       43D+2        0.00010   0.00010   0.00000   0.00010
  85       43D-2        0.00010   0.00010   0.00000   0.00010
  86       44D 0        0.00496   0.00492   0.00004   0.00489
  87       44D+1        0.00496   0.00496   0.00000   0.00496
  88       44D-1        0.00496   0.00496   0.00000   0.00496
  89       44D+2        0.00494   0.00494  -0.00000   0.00494
  90       44D-2        0.00494   0.00494   0.00000   0.00494
  91       45D 0        0.04798   0.04759   0.00038   0.04721
  92       45D+1        0.04797   0.04797   0.00000   0.04797
  93       45D-1        0.04797   0.04797   0.00000   0.04797
  94       45D+2        0.04766   0.04766   0.00000   0.04766
  95       45D-2        0.04766   0.04766   0.00000   0.04766
  96       46D 0        0.15803   0.15667   0.00136   0.15531
  97       46D+1        0.15849   0.15849   0.00000   0.15849
  98       46D-1        0.15849   0.15849   0.00000   0.15849
  99       46D+2        0.16039   0.16039   0.00000   0.16039
 100       46D-2        0.16039   0.16039   0.00000   0.16039
 101       47D 0        0.51485   0.51020   0.00465   0.50555
 102       47D+1        0.50247   0.50247  -0.00001   0.50248
 103       47D-1        0.50247   0.50247  -0.00001   0.50248
 104       47D+2        0.44113   0.44113  -0.00000   0.44113
 105       47D-2        0.44113   0.44113  -0.00000   0.44113
 106       48D 0        0.31149   0.30582   0.00568   0.30014
 107       48D+1        0.30969   0.30968   0.00000   0.30968
 108       48D-1        0.30969   0.30968   0.00000   0.30968
 109       48D+2        0.31393   0.31393   0.00000   0.31393
 110       48D-2        0.31393   0.31393   0.00000   0.31393
 111       49D 0        0.13447   0.12027   0.01420   0.10607
 112       49D+1        0.11348   0.11348   0.00000   0.11348
 113       49D-1        0.11348   0.11348   0.00000   0.11348
 114       49D+2        0.11395   0.11395  -0.00000   0.11395
 115       49D-2        0.11395   0.11395  -0.00000   0.11395
 116       50D 0        0.02252   0.01315   0.00938   0.00377
 117       50D+1        0.00696   0.00696   0.00000   0.00696
 118       50D-1        0.00696   0.00696   0.00000   0.00696
 119       50D+2        0.00565   0.00565   0.00000   0.00565
 120       50D-2        0.00565   0.00565   0.00000   0.00565
 121       51D 0        0.02738   0.02717   0.00020   0.02697
 122       51D+1        0.02666   0.02666  -0.00000   0.02666
 123       51D-1        0.02666   0.02666  -0.00000   0.02666
 124       51D+2        0.02287   0.02287  -0.00000   0.02287
 125       51D-2        0.02287   0.02287   0.00000   0.02287
 126       52D 0       -0.18257  -0.18132  -0.00126  -0.18006
 127       52D+1       -0.17081  -0.17082   0.00001  -0.17083
 128       52D-1       -0.17081  -0.17082   0.00001  -0.17083
 129       52D+2       -0.11053  -0.11053  -0.00000  -0.11053
 130       52D-2       -0.11053  -0.11053  -0.00000  -0.11053
 131       53D 0        0.00037   0.00020   0.00017   0.00002
 132       53D+1       -0.00008  -0.00008   0.00000  -0.00008
 133       53D-1       -0.00008  -0.00008   0.00000  -0.00008
 134       53D+2       -0.00008  -0.00008   0.00000  -0.00008
 135       53D-2       -0.00008  -0.00008   0.00000  -0.00008
 136       54F 0        0.00000   0.00000   0.00000   0.00000
 137       54F+1        0.00000   0.00000   0.00000   0.00000
 138       54F-1        0.00000   0.00000   0.00000   0.00000
 139       54F+2        0.00000   0.00000  -0.00000   0.00000
 140       54F-2        0.00000   0.00000   0.00000   0.00000
 141       54F+3       -0.00000  -0.00000  -0.00000  -0.00000
 142       54F-3        0.00000   0.00000   0.00000   0.00000
 143       55F 0        0.00001   0.00001   0.00001   0.00000
 144       55F+1        0.00000   0.00000   0.00000   0.00000
 145       55F-1        0.00000   0.00000   0.00000   0.00000
 146       55F+2        0.00000   0.00000   0.00000   0.00000
 147       55F-2        0.00000   0.00000   0.00000   0.00000
 148       55F+3        0.00000  -0.00000   0.00000  -0.00000
 149       55F-3        0.00000   0.00000  -0.00000   0.00000
 150       56F 0        0.00058   0.00032   0.00025   0.00007
 151       56F+1        0.00002   0.00001   0.00000   0.00001
 152       56F-1        0.00002   0.00001   0.00000   0.00001
 153       56F+2        0.00000   0.00000  -0.00000   0.00000
 154       56F-2        0.00000   0.00000  -0.00000   0.00000
 155       56F+3        0.00000   0.00000   0.00000   0.00000
 156       56F-3        0.00000   0.00000   0.00000   0.00000
 157       57F 0        0.00335   0.00177   0.00158   0.00019
 158       57F+1        0.00001   0.00001  -0.00000   0.00001
 159       57F-1        0.00001   0.00001  -0.00000   0.00001
 160       57F+2        0.00002   0.00002  -0.00000   0.00002
 161       57F-2        0.00002   0.00002  -0.00000   0.00002
 162       57F+3        0.00000   0.00000  -0.00000   0.00000
 163       57F-3       -0.00000  -0.00000  -0.00000  -0.00000
 164       58G 0        0.00000   0.00000   0.00000   0.00000
 165       58G+1        0.00000   0.00000  -0.00000   0.00000
 166       58G-1        0.00000   0.00000  -0.00000   0.00000
 167       58G+2        0.00000   0.00000  -0.00000   0.00000
 168       58G-2        0.00000   0.00000   0.00000   0.00000
 169       58G+3       -0.00000  -0.00000  -0.00000  -0.00000
 170       58G-3       -0.00000  -0.00000   0.00000  -0.00000
 171       58G+4        0.00000   0.00000   0.00000   0.00000
 172       58G-4       -0.00000  -0.00000   0.00000  -0.00000
 173       59G 0        0.00000   0.00000  -0.00000   0.00000
 174       59G+1        0.00000   0.00000   0.00000   0.00000
 175       59G-1        0.00000   0.00000   0.00000   0.00000
 176       59G+2        0.00000   0.00000   0.00000   0.00000
 177       59G-2        0.00000   0.00000   0.00000   0.00000
 178       59G+3       -0.00000  -0.00000   0.00000  -0.00000
 179       59G-3        0.00000   0.00000   0.00000   0.00000
 180       59G+4       -0.00000  -0.00000   0.00000  -0.00000
 181       59G-4        0.00000   0.00000   0.00000   0.00000
 182       60G 0        0.00012   0.00007   0.00005   0.00002
 183       60G+1        0.00001   0.00001   0.00000   0.00001
 184       60G-1        0.00001   0.00001   0.00000   0.00001
 185       60G+2        0.00000   0.00000   0.00000   0.00000
 186       60G-2        0.00000   0.00000   0.00000   0.00000
 187       60G+3       -0.00000  -0.00000   0.00000  -0.00000
 188       60G-3        0.00000   0.00000   0.00000   0.00000
 189       60G+4        0.00000   0.00000   0.00000   0.00000
 190       60G-4        0.00000   0.00000   0.00000   0.00000
 191 2   H  1S          0.00065   0.00034   0.00031   0.00003
 192        2S          0.02246   0.01178   0.01068   0.00109
 193        3S          0.17187   0.08998   0.08189   0.00808
 194        4S          0.57305   0.29789   0.27516   0.02274
 195        5S          0.59510   0.30665   0.28846   0.01819
 196        6S          0.05300   0.02514   0.02786  -0.00272
 197        7PX         0.00002   0.00002   0.00000   0.00002
 198        7PY         0.00002   0.00002   0.00000   0.00002
 199        7PZ         0.00051   0.00029   0.00022   0.00008
 200        8PX         0.00019   0.00019   0.00000   0.00018
 201        8PY         0.00019   0.00019   0.00000   0.00018
 202        8PZ         0.00608   0.00278   0.00330  -0.00052
 203        9PX        -0.00017  -0.00018   0.00001  -0.00019
 204        9PY        -0.00017  -0.00018   0.00001  -0.00019
 205        9PZ         0.00594   0.00219   0.00375  -0.00155
 206       10D 0        0.00016   0.00011   0.00005   0.00006
 207       10D+1        0.00002   0.00002   0.00000   0.00002
 208       10D-1        0.00002   0.00002   0.00000   0.00002
 209       10D+2        0.00000   0.00000  -0.00000   0.00000
 210       10D-2        0.00000   0.00000   0.00000   0.00000
 211       11D 0        0.00011  -0.00005   0.00016  -0.00021
 212       11D+1       -0.00033  -0.00032  -0.00001  -0.00031
 213       11D-1       -0.00033  -0.00032  -0.00001  -0.00031
 214       11D+2       -0.00003  -0.00003  -0.00000  -0.00003
 215       11D-2       -0.00003  -0.00003   0.00000  -0.00003
          Condensed to atoms (all electrons):
               1          2
     1  Mn  14.262188   0.309470
     2  H    0.309470   1.118872
          Atomic-Atomic Spin Densities.
               1          2
     1  Mn   5.995049  -0.039723
     2  H   -0.039723   0.084397
 Mulliken charges and spin densities:
               1          2
     1  Mn   0.428342   5.955326
     2  H   -0.428342   0.044674
 Sum of Mulliken charges =   0.00000   6.00000
 Mulliken charges and spin densities with hydrogens summed into heavy atoms:
               1          2
     1  Mn   0.000000   6.000000
 Electronic spatial extent (au):  <R**2>=             56.7141
 Charge=              0.0000 electrons
 Dipole moment (field-independent basis, Debye):
    X=              0.0000    Y=              0.0000    Z=              2.0659  Tot=              2.0659
 Quadrupole moment (field-independent basis, Debye-Ang):
   XX=            -16.2819   YY=            -16.2819   ZZ=            -27.3025
   XY=              0.0000   XZ=              0.0000   YZ=              0.0000
 Traceless Quadrupole moment (field-independent basis, Debye-Ang):
   XX=              3.6736   YY=              3.6736   ZZ=             -7.3471
   XY=              0.0000   XZ=              0.0000   YZ=              0.0000
 Octapole moment (field-independent basis, Debye-Ang**2):
  XXX=              0.0000  YYY=              0.0000  ZZZ=             12.4261  XYY=              0.0000
  XXY=              0.0000  XXZ=              1.1507  XZZ=              0.0000  YZZ=              0.0000
  YYZ=              1.1507  XYZ=              0.0000
 Hexadecapole moment (field-independent basis, Debye-Ang**3):
 XXXX=            -27.5731 YYYY=            -27.5731 ZZZZ=           -116.3679 XXXY=              0.0000
 XXXZ=              0.0000 YYYX=              0.0000 YYYZ=              0.0000 ZZZX=              0.0000
 ZZZY=              0.0000 XXYY=             -9.1910 XXZZ=            -21.9152 YYZZ=            -21.9152
 XXYZ=              0.0000 YYXZ=              0.0000 ZZXY=              0.0000
 N-N= 4.177714823053D+00 E-N=-2.485419071066D+02  KE= 5.897491832521D+01
 Symmetry A1   KE= 2.547300285466D+01
 Symmetry A2   KE= 6.528945190285D+00
 Symmetry B1   KE= 1.348648514020D+01
 Symmetry B2   KE= 1.348648514040D+01
 Symmetry A1   SP= 3.000000000000D+00
 Symmetry A2   SP= 1.000000000000D+00
 Symmetry B1   SP= 1.000000000000D+00
 Symmetry B2   SP= 1.000000000000D+00
 Orbital energies and kinetic energies (alpha):
                                 1                 2
   1         O                -4.185799          2.086261
   2         O                -2.775645          3.467338
   3         O                -2.775645          3.467338
   4         O                -2.773042          3.475727
   5         O                -0.660541          0.473928
   6         O                -0.660541          6.528945
   7         O                -0.654295          6.528945
   8         O                -0.653778          6.551810
   9         O                -0.653778          6.551810
  10         O                -0.394992          5.476461
  11         O                -0.267042          1.395766
  12         V                 0.011339          0.068755
  13         V                 0.011339          0.068755
  14         V                 0.023215          0.037562
  15         V                 0.031176          0.042032
  16         V                 0.056277          0.181016
 Total kinetic energy from orbitals= 9.200865655401D+01
                          Isotropic Fermi Contact Couplings
        Atom                 a.u.       MegaHertz       Gauss      10(-4) cm-1
     1  Mn(55)             0.00112       0.20599       0.07350       0.06871
     2  H(1)               0.01540      11.47608       4.09495       3.82801
 --------------------------------------------------------
       Center         ----  Spin Dipole Couplings  ----
                      3XX-RR        3YY-RR        3ZZ-RR
 --------------------------------------------------------
     1   Atom       -0.112129     -0.112129      0.224258
     2   Atom       -0.105208     -0.105208      0.210415
 --------------------------------------------------------
                        XY            XZ            YZ
 --------------------------------------------------------
     1   Atom        0.000000      0.000000      0.000000
     2   Atom        0.000000      0.000000      0.000000
 --------------------------------------------------------


 ---------------------------------------------------------------------------------
              Anisotropic Spin Dipole Couplings in Principal Axis System
 ---------------------------------------------------------------------------------

       Atom             a.u.   MegaHertz   Gauss  10(-4) cm-1        Axes

              Baa    -0.1121   -14.795    -5.279    -4.935  1.0000  0.0000  0.0000
     1 Mn(55) Bbb    -0.1121   -14.795    -5.279    -4.935 -0.0000  1.0000  0.0000
              Bcc     0.2243    29.589    10.558     9.870  0.0000  0.0000  1.0000
 
              Baa    -0.1052   -56.134   -20.030   -18.724 -0.0000  1.0000  0.0000
     2 H(1)   Bbb    -0.1052   -56.134   -20.030   -18.724  1.0000  0.0000  0.0000
              Bcc     0.2104   112.268    40.060    37.448  0.0000  0.0000  1.0000
 

 ---------------------------------------------------------------------------------

 No NMR shielding tensors so no spin-rotation constants.
 Leave Link  601 at Mon Feb 26 16:12:15 2018, MaxMem=  8589934592 cpu:              43.1 elap:               2.8
 (Enter /home1/apps/gaussian/16rA.03/g16/l9999.exe)

 Test job not archived.
 1\1\GINC-C402-082\SP\ROCCSD(T)-Full\Gen\H1Mn1(7)\AANNABE\26-Feb-2018\0
 \\#P ROCCSD(T)=(maxcyc=150, Full, SaveAmplitudes, ReadAmplitudes)/Gen 
 5d 7f SCF=(maxcycles=300) Integral(NoXCTest) MaxDisk=500GB Pop=Regular
  Pseudo=Read Guess=Read IOp(5/15=2)\\MnH\\0,7\Mn,0,0.,0.,0.\H,0,0.,0.,
 1.9\\Version=ES64L-G16RevA.03\State=7-SG\HF=-104.2428607\MP2=-104.8122
 911\MP3=-104.8145384\PUHF=-104.2428607\PMP2-0=-104.8122911\MP4SDQ=-104
 .8192569\CCSD=-104.8202729\CCSD(T)=-104.8357514\RMSD=8.518e-09\PG=C*V 
 [C*(H1Mn1)]\\@


 THE REAL VOYAGE OF DISCOVERY CONSISTS NOT IN SEEKING NEW LANDSCAPES 
 BUT IN HAVING NEW EYES.
                                                    -- MARCEL PROUST
 Job cpu time:       0 days  2 hours 50 minutes  5.5 seconds.
 Elapsed time:       0 days  0 hours 10 minutes 41.7 seconds.
 File lengths (MBytes):  RWF=   2543 Int=      0 D2E=      0 Chk=     13 Scr=      1
 Normal termination of Gaussian 16 at Mon Feb 26 16:12:16 2018.
