 Entering Gaussian System, Link 0=g16
 Initial command:
 /home1/apps/gaussian/16rA.03/g16/l1.exe "/tmp/Gau-113708.inp" -scrdir="/tmp/"
 Entering Link 1 = /home1/apps/gaussian/16rA.03/g16/l1.exe PID=    113709.
  
 Copyright (c) 1988,1990,1992,1993,1995,1998,2003,2009,2016,
            Gaussian, Inc.  All Rights Reserved.
  
 This is part of the Gaussian(R) 16 program.  It is based on
 the Gaussian(R) 09 system (copyright 2009, Gaussian, Inc.),
 the Gaussian(R) 03 system (copyright 2003, Gaussian, Inc.),
 the Gaussian(R) 98 system (copyright 1998, Gaussian, Inc.),
 the Gaussian(R) 94 system (copyright 1995, Gaussian, Inc.),
 the Gaussian 92(TM) system (copyright 1992, Gaussian, Inc.),
 the Gaussian 90(TM) system (copyright 1990, Gaussian, Inc.),
 the Gaussian 88(TM) system (copyright 1988, Gaussian, Inc.),
 the Gaussian 86(TM) system (copyright 1986, Carnegie Mellon
 University), and the Gaussian 82(TM) system (copyright 1983,
 Carnegie Mellon University). Gaussian is a federally registered
 trademark of Gaussian, Inc.
  
 This software contains proprietary and confidential information,
 including trade secrets, belonging to Gaussian, Inc.
  
 This software is provided under written license and may be
 used, copied, transmitted, or stored only in accord with that
 written license.
  
 The following legend is applicable only to US Government
 contracts under FAR:
  
                    RESTRICTED RIGHTS LEGEND
  
 Use, reproduction and disclosure by the US Government is
 subject to restrictions as set forth in subparagraphs (a)
 and (c) of the Commercial Computer Software - Restricted
 Rights clause in FAR 52.227-19.
  
 Gaussian, Inc.
 340 Quinnipiac St., Bldg. 40, Wallingford CT 06492
  
  
 ---------------------------------------------------------------
 Warning -- This program may not be used in any manner that
 competes with the business of Gaussian, Inc. or will provide
 assistance to any competitor of Gaussian, Inc.  The licensee
 of this program is prohibited from giving any competitor of
 Gaussian, Inc. access to this program.  By using this program,
 the user acknowledges that Gaussian, Inc. is engaged in the
 business of creating and licensing software in the field of
 computational chemistry and represents and warrants to the
 licensee that it is not a competitor of Gaussian, Inc. and that
 it will not use this program in any manner prohibited above.
 ---------------------------------------------------------------
  

 Cite this work as:
 Gaussian 16, Revision A.03,
 M. J. Frisch, G. W. Trucks, H. B. Schlegel, G. E. Scuseria, 
 M. A. Robb, J. R. Cheeseman, G. Scalmani, V. Barone, 
 G. A. Petersson, H. Nakatsuji, X. Li, M. Caricato, A. V. Marenich, 
 J. Bloino, B. G. Janesko, R. Gomperts, B. Mennucci, H. P. Hratchian, 
 J. V. Ortiz, A. F. Izmaylov, J. L. Sonnenberg, D. Williams-Young, 
 F. Ding, F. Lipparini, F. Egidi, J. Goings, B. Peng, A. Petrone, 
 T. Henderson, D. Ranasinghe, V. G. Zakrzewski, J. Gao, N. Rega, 
 G. Zheng, W. Liang, M. Hada, M. Ehara, K. Toyota, R. Fukuda, 
 J. Hasegawa, M. Ishida, T. Nakajima, Y. Honda, O. Kitao, H. Nakai, 
 T. Vreven, K. Throssell, J. A. Montgomery, Jr., J. E. Peralta, 
 F. Ogliaro, M. J. Bearpark, J. J. Heyd, E. N. Brothers, K. N. Kudin, 
 V. N. Staroverov, T. A. Keith, R. Kobayashi, J. Normand, 
 K. Raghavachari, A. P. Rendell, J. C. Burant, S. S. Iyengar, 
 J. Tomasi, M. Cossi, J. M. Millam, M. Klene, C. Adamo, R. Cammi, 
 J. W. Ochterski, R. L. Martin, K. Morokuma, O. Farkas, 
 J. B. Foresman, and D. J. Fox, Gaussian, Inc., Wallingford CT, 2016.
 
 ******************************************
 Gaussian 16:  ES64L-G16RevA.03 25-Dec-2016
                28-Mar-2018 
 ******************************************
 %mem=80GB
 %cpu=0-31
 SetSPE:  set environment variable "MP_BIND" = "yes"
 SetSPE:  set environment variable "MP_BLIST" = "0,1,2,3,4,5,6,7,8,9,10,11,12,13,14,15,16,17,18,19,20,21,22,23,24,25,26,27,28,29,30,31"
 Will use up to   32 processors via shared memory.
 %chk=qz.chk
 %rwf=/scratch/04843/gwang18/zno/
 ----------------------------------------------------------------------
 #P ROCCSD(T)=(MaxCyc=150, Full)/Gen SCF=(maxcycle=400) Pseudo=Read Int
 egral(NoXCTest) Pop=Regular MaxDisk=500GB Guess=Read IOp(5/15=2)
 ----------------------------------------------------------------------
 1/38=1,172=1/1;
 2/12=2,17=6,18=5,40=1/2;
 3/5=7,11=2,16=1,17=8,25=1,30=1,47=8,116=101/1,2,3;
 4/5=1/1;
 5/5=2,7=400,15=2,38=6/2;
 8/5=-1,6=4,9=120000,10=90/1,4;
 9/5=7,6=150,14=2/13;
 6//1;
 99/5=1,9=1/99;
 Leave Link    1 at Wed Mar 28 00:19:36 2018, MaxMem= 10737418240 cpu:               6.4 elap:               0.2
 (Enter /home1/apps/gaussian/16rA.03/g16/l101.exe)
 ---
 ZnO
 ---
 Symbolic Z-matrix:
 Charge =  0 Multiplicity = 1
 Zn                    0.        0.        0. 
 O                     0.        0.        1.6 
 
 ITRead=  0  0
 MicOpt= -1 -1
 NAtoms=      2 NQM=        2 NQMF=       0 NMMI=      0 NMMIF=      0
                NMic=       0 NMicF=      0.
                    Isotopes and Nuclear Properties:
 (Nuclear quadrupole moments (NQMom) in fm**2, nuclear magnetic moments (NMagM)
  in nuclear magnetons)

  Atom         1           2
 IAtWgt=          64          16
 AtmWgt=  63.9291454  15.9949146
 NucSpn=           0           0
 AtZEff=  -0.0000000  -0.0000000
 NQMom=    0.0000000   0.0000000
 NMagM=    0.0000000   0.0000000
 AtZNuc=  30.0000000   8.0000000
 Leave Link  101 at Wed Mar 28 00:19:37 2018, MaxMem= 10737418240 cpu:               3.0 elap:               0.1
 (Enter /home1/apps/gaussian/16rA.03/g16/l202.exe)
                          Input orientation:                          
 ---------------------------------------------------------------------
 Center     Atomic      Atomic             Coordinates (Angstroms)
 Number     Number       Type             X           Y           Z
 ---------------------------------------------------------------------
      1         30           0        0.000000    0.000000    0.000000
      2          8           0        0.000000    0.000000    1.600000
 ---------------------------------------------------------------------
 Stoichiometry    OZn
 Framework group  C*V[C*(OZn)]
 Deg. of freedom     1
 Full point group                 C*V     NOp   4
 Largest Abelian subgroup         C2V     NOp   4
 Largest concise Abelian subgroup C1      NOp   1
                         Standard orientation:                         
 ---------------------------------------------------------------------
 Center     Atomic      Atomic             Coordinates (Angstroms)
 Number     Number       Type             X           Y           Z
 ---------------------------------------------------------------------
      1         30           0        0.000000    0.000000    0.336842
      2          8           0        0.000000    0.000000   -1.263158
 ---------------------------------------------------------------------
 Rotational constants (GHZ):           0.0000000          15.4302849          15.4302849
 Leave Link  202 at Wed Mar 28 00:19:37 2018, MaxMem= 10737418240 cpu:               0.8 elap:               0.1
 (Enter /home1/apps/gaussian/16rA.03/g16/l301.exe)
 General basis read from cards:  (5D, 7F)
 Centers:       1
 S 1 1.00
     Exponent=  1.7852930000D+07 Coefficients=  1.0000000000D+00
 S 1 1.00
     Exponent=  2.6730380000D+06 Coefficients=  1.0000000000D+00
 S 1 1.00
     Exponent=  6.0832440000D+05 Coefficients=  1.0000000000D+00
 S 1 1.00
     Exponent=  1.7231760000D+05 Coefficients=  1.0000000000D+00
 S 1 1.00
     Exponent=  5.6222690000D+04 Coefficients=  1.0000000000D+00
 S 1 1.00
     Exponent=  2.0299850000D+04 Coefficients=  1.0000000000D+00
 S 1 1.00
     Exponent=  7.9188710000D+03 Coefficients=  1.0000000000D+00
 S 1 1.00
     Exponent=  3.2853400000D+03 Coefficients=  1.0000000000D+00
 S 1 1.00
     Exponent=  1.4335240000D+03 Coefficients=  1.0000000000D+00
 S 1 1.00
     Exponent=  6.5228890000D+02 Coefficients=  1.0000000000D+00
 S 1 1.00
     Exponent=  3.0743600000D+02 Coefficients=  1.0000000000D+00
 S 1 1.00
     Exponent=  1.4914660000D+02 Coefficients=  1.0000000000D+00
 S 1 1.00
     Exponent=  7.3451080000D+01 Coefficients=  1.0000000000D+00
 S 1 1.00
     Exponent=  3.3925620000D+01 Coefficients=  1.0000000000D+00
 S 1 1.00
     Exponent=  1.7189470000D+01 Coefficients=  1.0000000000D+00
 S 1 1.00
     Exponent=  8.6665950000D+00 Coefficients=  1.0000000000D+00
 S 1 1.00
     Exponent=  3.9725050000D+00 Coefficients=  1.0000000000D+00
 S 1 1.00
     Exponent=  1.8946650000D+00 Coefficients=  1.0000000000D+00
 S 1 1.00
     Exponent=  8.5938500000D-01 Coefficients=  1.0000000000D+00
 S 1 1.00
     Exponent=  1.9525600000D-01 Coefficients=  1.0000000000D+00
 S 1 1.00
     Exponent=  8.5854000000D-02 Coefficients=  1.0000000000D+00
 S 1 1.00
     Exponent=  3.6781000000D-02 Coefficients=  1.0000000000D+00
 S 1 1.00
     Exponent=  8.3276000000D+00 Coefficients=  1.0000000000D+00
 S 1 1.00
     Exponent=  3.4194000000D+00 Coefficients=  1.0000000000D+00
 S 1 1.00
     Exponent=  1.5760000000D-02 Coefficients=  1.0000000000D+00
 P 1 1.00
     Exponent=  5.2867930000D+04 Coefficients=  1.0000000000D+00
 P 1 1.00
     Exponent=  1.2511790000D+04 Coefficients=  1.0000000000D+00
 P 1 1.00
     Exponent=  4.0652860000D+03 Coefficients=  1.0000000000D+00
 P 1 1.00
     Exponent=  1.5575950000D+03 Coefficients=  1.0000000000D+00
 P 1 1.00
     Exponent=  6.6328920000D+02 Coefficients=  1.0000000000D+00
 P 1 1.00
     Exponent=  3.0415610000D+02 Coefficients=  1.0000000000D+00
 P 1 1.00
     Exponent=  1.4736800000D+02 Coefficients=  1.0000000000D+00
 P 1 1.00
     Exponent=  7.4454690000D+01 Coefficients=  1.0000000000D+00
 P 1 1.00
     Exponent=  3.8714930000D+01 Coefficients=  1.0000000000D+00
 P 1 1.00
     Exponent=  2.0570220000D+01 Coefficients=  1.0000000000D+00
 P 1 1.00
     Exponent=  1.1054250000D+01 Coefficients=  1.0000000000D+00
 P 1 1.00
     Exponent=  5.8746610000D+00 Coefficients=  1.0000000000D+00
 P 1 1.00
     Exponent=  3.0529360000D+00 Coefficients=  1.0000000000D+00
 P 1 1.00
     Exponent=  1.5472250000D+00 Coefficients=  1.0000000000D+00
 P 1 1.00
     Exponent=  7.5415100000D-01 Coefficients=  1.0000000000D+00
 P 1 1.00
     Exponent=  2.6534900000D-01 Coefficients=  1.0000000000D+00
 P 1 1.00
     Exponent=  1.0206700000D-01 Coefficients=  1.0000000000D+00
 P 1 1.00
     Exponent=  3.8755000000D-02 Coefficients=  1.0000000000D+00
 P 1 1.00
     Exponent=  1.2535700000D+01 Coefficients=  1.0000000000D+00
 P 1 1.00
     Exponent=  3.4227000000D+00 Coefficients=  1.0000000000D+00
 P 1 1.00
     Exponent=  1.4720000000D-02 Coefficients=  1.0000000000D+00
 D 1 1.00
     Exponent=  6.3978060000D+02 Coefficients=  1.0000000000D+00
 D 1 1.00
     Exponent=  1.9267420000D+02 Coefficients=  1.0000000000D+00
 D 1 1.00
     Exponent=  7.4843680000D+01 Coefficients=  1.0000000000D+00
 D 1 1.00
     Exponent=  3.2860480000D+01 Coefficients=  1.0000000000D+00
 D 1 1.00
     Exponent=  1.5393530000D+01 Coefficients=  1.0000000000D+00
 D 1 1.00
     Exponent=  7.5255120000D+00 Coefficients=  1.0000000000D+00
 D 1 1.00
     Exponent=  3.7154290000D+00 Coefficients=  1.0000000000D+00
 D 1 1.00
     Exponent=  1.8064590000D+00 Coefficients=  1.0000000000D+00
 D 1 1.00
     Exponent=  8.5297300000D-01 Coefficients=  1.0000000000D+00
 D 1 1.00
     Exponent=  3.8478000000D-01 Coefficients=  1.0000000000D+00
 D 1 1.00
     Exponent=  1.5933700000D-01 Coefficients=  1.0000000000D+00
 D 1 1.00
     Exponent=  9.2094000000D+00 Coefficients=  1.0000000000D+00
 D 1 1.00
     Exponent=  5.2262000000D+00 Coefficients=  1.0000000000D+00
 D 1 1.00
     Exponent=  6.5980000000D-02 Coefficients=  1.0000000000D+00
 F 1 1.00
     Exponent=  1.3235500000D+01 Coefficients=  1.0000000000D+00
 F 1 1.00
     Exponent=  5.6706000000D+00 Coefficients=  1.0000000000D+00
 F 1 1.00
     Exponent=  2.4295000000D+00 Coefficients=  1.0000000000D+00
 F 1 1.00
     Exponent=  8.5300000000D-01 Coefficients=  1.0000000000D+00
 F 1 1.00
     Exponent=  2.9949000000D-01 Coefficients=  1.0000000000D+00
 G 1 1.00
     Exponent=  1.0790200000D+01 Coefficients=  1.0000000000D+00
 G 1 1.00
     Exponent=  4.9368000000D+00 Coefficients=  1.0000000000D+00
 G 1 1.00
     Exponent=  2.0693000000D+00 Coefficients=  1.0000000000D+00
 G 1 1.00
     Exponent=  8.6736000000D-01 Coefficients=  1.0000000000D+00
 H 1 1.00
     Exponent=  9.6086000000D+00 Coefficients=  1.0000000000D+00
 H 1 1.00
     Exponent=  4.4136000000D+00 Coefficients=  1.0000000000D+00
 H 1 1.00
     Exponent=  2.0273400000D+00 Coefficients=  1.0000000000D+00
 ****
 Centers:       2
 S 1 1.00
     Exponent=  6.1420000000D+04 Coefficients=  1.0000000000D+00
 S 1 1.00
     Exponent=  9.1990000000D+03 Coefficients=  1.0000000000D+00
 S 1 1.00
     Exponent=  2.0910000000D+03 Coefficients=  1.0000000000D+00
 S 1 1.00
     Exponent=  5.9090000000D+02 Coefficients=  1.0000000000D+00
 S 1 1.00
     Exponent=  1.9230000000D+02 Coefficients=  1.0000000000D+00
 S 1 1.00
     Exponent=  6.9320000000D+01 Coefficients=  1.0000000000D+00
 S 1 1.00
     Exponent=  2.6970000000D+01 Coefficients=  1.0000000000D+00
 S 1 1.00
     Exponent=  1.1100000000D+01 Coefficients=  1.0000000000D+00
 S 1 1.00
     Exponent=  4.6820000000D+00 Coefficients=  1.0000000000D+00
 S 1 1.00
     Exponent=  1.4280000000D+00 Coefficients=  1.0000000000D+00
 S 1 1.00
     Exponent=  5.5470000000D-01 Coefficients=  1.0000000000D+00
 S 1 1.00
     Exponent=  2.0670000000D-01 Coefficients=  1.0000000000D+00
 S 1 1.00
     Exponent=  1.2974000000D+01 Coefficients=  1.0000000000D+00
 S 1 1.00
     Exponent=  3.4900000000D+01 Coefficients=  1.0000000000D+00
 S 1 1.00
     Exponent=  9.3881000000D+01 Coefficients=  1.0000000000D+00
 S 1 1.00
     Exponent=  6.9590000000D-02 Coefficients=  1.0000000000D+00
 P 1 1.00
     Exponent=  6.3420000000D+01 Coefficients=  1.0000000000D+00
 P 1 1.00
     Exponent=  1.4660000000D+01 Coefficients=  1.0000000000D+00
 P 1 1.00
     Exponent=  4.4590000000D+00 Coefficients=  1.0000000000D+00
 P 1 1.00
     Exponent=  1.5310000000D+00 Coefficients=  1.0000000000D+00
 P 1 1.00
     Exponent=  5.3020000000D-01 Coefficients=  1.0000000000D+00
 P 1 1.00
     Exponent=  1.7500000000D-01 Coefficients=  1.0000000000D+00
 P 1 1.00
     Exponent=  1.4475000000D+01 Coefficients=  1.0000000000D+00
 P 1 1.00
     Exponent=  4.2730000000D+01 Coefficients=  1.0000000000D+00
 P 1 1.00
     Exponent=  1.2614000000D+02 Coefficients=  1.0000000000D+00
 P 1 1.00
     Exponent=  5.3480000000D-02 Coefficients=  1.0000000000D+00
 D 1 1.00
     Exponent=  3.7750000000D+00 Coefficients=  1.0000000000D+00
 D 1 1.00
     Exponent=  1.3000000000D+00 Coefficients=  1.0000000000D+00
 D 1 1.00
     Exponent=  4.4400000000D-01 Coefficients=  1.0000000000D+00
 D 1 1.00
     Exponent=  1.4927000000D+01 Coefficients=  1.0000000000D+00
 D 1 1.00
     Exponent=  5.7544000000D+01 Coefficients=  1.0000000000D+00
 D 1 1.00
     Exponent=  1.5400000000D-01 Coefficients=  1.0000000000D+00
 F 1 1.00
     Exponent=  2.6660000000D+00 Coefficients=  1.0000000000D+00
 F 1 1.00
     Exponent=  8.5900000000D-01 Coefficients=  1.0000000000D+00
 F 1 1.00
     Exponent=  2.6483000000D+01 Coefficients=  1.0000000000D+00
 F 1 1.00
     Exponent=  3.2400000000D-01 Coefficients=  1.0000000000D+00
 G 1 1.00
     Exponent=  1.8460000000D+00 Coefficients=  1.0000000000D+00
 G 1 1.00
     Exponent=  7.1400000000D-01 Coefficients=  1.0000000000D+00
 ****
 ======================================================================================================
                                       Pseudopotential Parameters
 ======================================================================================================
  Center     Atomic      Valence      Angular      Power
  Number     Number     Electrons     Momentum     of R      Exponent        Coefficient   SO-Coeffient
 ======================================================================================================
    1         30           20
                                      G and up 
                                                     2        1.0000000        0.00000000    0.00000000
                                      S - G
                                                     2       34.1740010      399.98639900    0.00000000
                                                     2       14.4563710       85.48975000    0.00000000
                                      P - G
                                                     2       39.8886830       92.38107700    0.00000000
                                                     2       39.6550170      184.77117600    0.00000000
                                                     2       15.2905460       23.00254100    0.00000000
                                                     2       14.9035240       46.05742700    0.00000000
                                      D - G
                                                     2       43.7082960      -13.69073400    0.00000000
                                                     2       43.6985360      -20.54398000    0.00000000
                                                     2       15.1507180       -1.31615400    0.00000000
                                                     2       15.2824410       -1.83871500    0.00000000
                                      F - G
                                                     2        8.1600140       -0.37036000    0.00000000
                                                     2       12.2284220       -1.06294300    0.00000000
    2          8            6
                                      F and up 
                                                     2        1.0000000        0.00000000    0.00000000
                                      S - F
                                                     2       12.9686000       73.60860000    0.00000000
                                      P - F
                                                     2       15.2430000       -3.91720000    0.00000000
                                      D - F
                                                     2        9.6172000       -0.65590000    0.00000000
 ======================================================================================================
 Ernie: Thresh=  0.10000D-02 Tol=  0.10000D-05 Strict=F.
 There are   213 symmetry adapted cartesian basis functions of A1  symmetry.
 There are    56 symmetry adapted cartesian basis functions of A2  symmetry.
 There are   114 symmetry adapted cartesian basis functions of B1  symmetry.
 There are   114 symmetry adapted cartesian basis functions of B2  symmetry.
 There are   157 symmetry adapted basis functions of A1  symmetry.
 There are    47 symmetry adapted basis functions of A2  symmetry.
 There are    90 symmetry adapted basis functions of B1  symmetry.
 There are    90 symmetry adapted basis functions of B2  symmetry.
   384 basis functions,   497 primitive gaussians,   497 cartesian basis functions
    13 alpha electrons       13 beta electrons
       nuclear repulsion energy        39.6882908190 Hartrees.
 IExCor=    0 DFT=F Ex=HF Corr=None ExCW=0 ScaHFX=  1.000000
 ScaDFX=  1.000000  1.000000  1.000000  1.000000 ScalE2=  1.000000  1.000000
 IRadAn=      5 IRanWt=     -1 IRanGd=            0 ICorTp=0 IEmpDi=  4
 NAtoms=    2 NActive=    2 NUniq=    2 SFac= 1.00D+00 NAtFMM=   60 NAOKFM=F Big=F
 Integral buffers will be    131072 words long.
 Raffenetti 2 integral format.
 Two-electron integral symmetry is turned on.
 Leave Link  301 at Wed Mar 28 00:19:37 2018, MaxMem= 10737418240 cpu:              10.0 elap:               0.3
 (Enter /home1/apps/gaussian/16rA.03/g16/l302.exe)
 NPDir=0 NMtPBC=     1 NCelOv=     1 NCel=       1 NClECP=     1 NCelD=      1
         NCelK=      1 NCelE2=     1 NClLst=     1 CellRange=     0.0.
 One-electron integrals computed using PRISM.
 One-electron integral symmetry used in STVInt
   4 Symmetry operations used in ECPInt.
 ECPInt:  NShTT=    6105 NPrTT=    6105 LenC2=    5482 LenP2D=    5481.
 LDataN:  DoStor=T MaxTD1=10 Len=  848
 NBasis=   384 RedAO= T EigKep=  2.15D-06  NBF=   157    47    90    90
 NBsUse=   380 1.00D-06 EigRej=  9.70D-07 NBFU=   155    47    89    89
 Leave Link  302 at Wed Mar 28 00:19:42 2018, MaxMem= 10737418240 cpu:             162.0 elap:               5.1
 (Enter /home1/apps/gaussian/16rA.03/g16/l303.exe)
 DipDrv:  MaxL=1.
 Leave Link  303 at Wed Mar 28 00:19:43 2018, MaxMem= 10737418240 cpu:               3.9 elap:               0.2
 (Enter /home1/apps/gaussian/16rA.03/g16/l401.exe)
 Initial guess from the checkpoint file:  "qz.chk"
 B after Tr=     0.000000    0.000000    0.000000
         Rot=    1.000000    0.000000    0.000000    0.000000 Ang=   0.00 deg.
 Guess basis will be translated and rotated to current coordinates.
 JPrj=2 DoOrth=T DoCkMO=T.
 Initial guess orbital symmetries:
       Occupied  (SG) (SG) (PI) (PI) (SG) (PI) (PI) (DLTA) (DLTA)
                 (SG) (PI) (PI) (SG)
       Virtual   (SG) (SG) (PI) (PI) (SG) (PI) (PI) (SG) (SG) (SG)
                 (PI) (PI) (DLTA) (DLTA) (PI) (PI) (SG) (PI) (PI)
                 (SG) (SG) (SG) (DLTA) (DLTA) (SG) (PI) (PI) (DLTA)
                 (DLTA) (PI) (PI) (SG) (PI) (PI) (PI) (PI) (SG)
                 (SG) (SG) (PHI) (PHI) (DLTA) (DLTA) (PI) (PI)
                 (PHI) (PHI) (SG) (DLTA) (DLTA) (SG) (PI) (PI)
                 (DLTA) (DLTA) (SG) (PI) (PI) (DLTA) (DLTA) (SG)
                 (PI) (PI) (SG) (PI) (PI) (SG) (PI) (PI) (SG) (SG)
                 (PHI) (PHI) (DLTA) (DLTA) (PI) (PI) (SG) (PHI)
                 (PHI) (DLTA) (DLTA) (PI) (PI) (SG) (DLTA) (DLTA)
                 (DLTA) (DLTA) (PI) (PI) (PI) (PI) (SG) (?A) (?A)
                 (PHI) (PHI) (SG) (DLTA) (DLTA) (SG) (PI) (PI)
                 (PI) (PI) (SG) (SG) (PHI) (PHI) (DLTA) (DLTA)
                 (PI) (PI) (SG) (PI) (PI) (SG) (DLTA) (DLTA) (SG)
                 (PI) (PI) (SG) (PI) (PI) (SG) (SG) (?A) (?A) (PHI)
                 (PHI) (DLTA) (DLTA) (PI) (PI) (SG) (DLTA) (DLTA)
                 (PI) (PI) (SG) (SG) (PHI) (PHI) (DLTA) (DLTA)
                 (PI) (PI) (SG) (PI) (PI) (SG) (SG) (PI) (PI) (SG)
                 (DLTA) (DLTA) (PI) (PI) (SG) (?A) (?A) (PHI) (PHI)
                 (DLTA) (DLTA) (PI) (PI) (SG) (DLTA) (DLTA) (PI)
                 (PI) (SG) (SG) (PI) (PI) (SG) (SG) (DLTA) (DLTA)
                 (PI) (PI) (SG) (PI) (PI) (SG) (PI) (PI) (SG) (SG)
                 (SG) (PI) (PI) (SG) (DLTA) (DLTA) (PI) (PI) (SG)
                 (SG) (SG) (PI) (PI) (SG) (PI) (PI) (SG) (SG) (SG)
                 (DLTA) (DLTA) (PI) (PI) (SG) (PI) (PI) (SG) (SG)
                 (SG) (PI) (PI) (SG) (SG) (PI) (PI) (SG) (SG) (SG)
                 (PI) (PI) (SG) (SG) (SG) (PI) (PI) (SG) (SG) (SG)
                 (PI) (PI) (SG) (SG) (SG) (SG) (SG) (SG) (SG) (DLTA)
                 (SG) (SG) (SG) (SG) (DLTA) (SG) (SG) (DLTA) (SG)
                 (SG) (DLTA) (SG) (?A) (DLTA) (SG) (SG) (DLTA)
                 (?A) (SG) (DLTA) (SG) (SG) (DLTA) (SG) (DLTA)
                 (?A) (DLTA) (SG) (DLTA) (DLTA) (SG) (SG) (SG)
                 (DLTA) (DLTA) (?A) (?A) (?A) (DLTA) (DLTA) (DLTA)
                 (DLTA) (?A) (DLTA) (DLTA) (?A) (DLTA) (DLTA) (DLTA)
                 (?A) (DLTA) (DLTA) (DLTA) (DLTA) (DLTA) (?A) (?A)
                 (?A) (PI) (PI) (PI) (PI) (PI) (PI) (PHI) (PI)
                 (PI) (PHI) (PI) (PI) (PHI) (PI) (?B) (PHI) (PI)
                 (PI) (PHI) (PI) (PHI) (PI) (PI) (PHI) (PI) (PHI)
                 (?B) (PHI) (?B) (PI) (PI) (PI) (PI) (PI) (PI)
                 (PHI) (PI) (PI) (PHI) (PI) (PI) (PHI) (PI) (?B)
                 (PHI) (PI) (PI) (PHI) (PI) (PHI) (PI) (PI) (PHI)
                 (PI) (PHI) (?B) (PHI) (?B)
 The electronic state of the initial guess is 1-SG.
 Leave Link  401 at Wed Mar 28 00:19:43 2018, MaxMem= 10737418240 cpu:              24.9 elap:               0.9
 (Enter /home1/apps/gaussian/16rA.03/g16/l502.exe)
 Keep R1 and R2 ints in memory in symmetry-blocked form, NReq=3425113631.
 FoFCou: FMM=F IPFlag=           8 FMFlag=           0 FMFlg1=           0
         NFxFlg=           0 DoJE=F BraDBF=F KetDBF=F FulRan=T
         wScrn=  0.000000 ICntrl=       600 IOpCl=  0 I1Cent=           0 NGrid=           0
         NMat0=    1 NMatS0=  73920 NMatT0=    0 NMatD0=    1 NMtDS0=    0 NMtDT0=    0
 Petite list used in FoFCou.
 Restricted open shell SCF:
 Using DIIS extrapolation, IDIIS=  1040.
 NGot= 10737418240 LenX=  9351085953 LenY=  9350838447
 Requested convergence on RMS density matrix=1.00D-08 within 400 cycles.
 Requested convergence on MAX density matrix=1.00D-06.
 Requested convergence on             energy=1.00D-06.
 No special actions if energy rises.

 Cycle   1  Pass 1  IDiag  1:
 E= -241.648148807273    
 DIIS: error= 5.29D-01 at cycle   1 NSaved=   1.
 NSaved= 1 IEnMin= 1 EnMin= -241.648148807273     IErMin= 1 ErrMin= 5.29D-01
 ErrMax= 5.29D-01  0.00D+00 EMaxC= 1.00D-01 BMatC= 4.07D+01 BMatP= 4.07D+01
 IDIUse=3 WtCom= 0.00D+00 WtEn= 1.00D+00
 Coeff-Com:  0.100D+01
 Coeff-En:   0.100D+01
 Coeff:      0.100D+01
 Gap=     0.337 Goal=   None    Shift=    0.000
 GapD=    0.337 DampG=1.000 DampE=0.125 DampFc=0.1250 IDamp=-1.
 Damping current iteration by 1.25D-01
 RMSDP=1.17D-03 MaxDP=4.09D-02              OVMax= 3.35D-03

 Cycle   2  Pass 1  IDiag  1:
 E= -241.648374819386     Delta-E=       -0.000226012113 Rises=F Damp=T
 DIIS: error= 4.63D-01 at cycle   2 NSaved=   2.
 NSaved= 2 IEnMin= 2 EnMin= -241.648374819386     IErMin= 2 ErrMin= 4.63D-01
 ErrMax= 4.63D-01  0.00D+00 EMaxC= 1.00D-01 BMatC= 3.12D+01 BMatP= 4.07D+01
 IDIUse=3 WtCom= 0.00D+00 WtEn= 1.00D+00
 Coeff-Com: -0.700D+01 0.800D+01
 Coeff-En:   0.000D+00 0.100D+01
 Coeff:      0.000D+00 0.100D+01
 Gap=     0.337 Goal=   None    Shift=    0.000
 RMSDP=1.03D-03 MaxDP=3.64D-02 DE=-2.26D-04 OVMax= 1.51D-04

 Cycle   3  Pass 1  IDiag  1:
 E= -241.649986327406     Delta-E=       -0.001611508020 Rises=F Damp=F
 DIIS: error= 1.91D-04 at cycle   3 NSaved=   3.
 NSaved= 3 IEnMin= 3 EnMin= -241.649986327406     IErMin= 3 ErrMin= 1.91D-04
 ErrMax= 1.91D-04  0.00D+00 EMaxC= 1.00D-01 BMatC= 6.57D-06 BMatP= 3.12D+01
 IDIUse=3 WtCom= 9.98D-01 WtEn= 1.91D-03
 Large coefficients: NSaved=  3 BigCof=   37.48 CofMax=   10.00 Det=-3.61D-09
 Inversion failed.  Reducing to  2 matrices.
 Coeff-Com: -0.181D-04 0.100D+01
 Coeff-En:   0.000D+00 0.100D+01
 Coeff:     -0.180D-04 0.100D+01
 Gap=     0.337 Goal=   None    Shift=    0.000
 RMSDP=5.98D-05 MaxDP=4.94D-03 DE=-1.61D-03 OVMax= 9.11D-04

 Cycle   4  Pass 1  IDiag  1:
 E= -241.649988648533     Delta-E=       -0.000002321127 Rises=F Damp=F
 DIIS: error= 1.34D-04 at cycle   4 NSaved=   3.
 NSaved= 3 IEnMin= 3 EnMin= -241.649988648533     IErMin= 3 ErrMin= 1.34D-04
 ErrMax= 1.34D-04  0.00D+00 EMaxC= 1.00D-01 BMatC= 1.41D-06 BMatP= 6.57D-06
 IDIUse=3 WtCom= 9.99D-01 WtEn= 1.34D-03
 Coeff-Com: -0.422D-05 0.222D+00 0.778D+00
 Coeff-En:   0.000D+00 0.000D+00 0.100D+01
 Coeff:     -0.421D-05 0.222D+00 0.778D+00
 Gap=     0.337 Goal=   None    Shift=    0.000
 RMSDP=4.49D-06 MaxDP=2.75D-04 DE=-2.32D-06 OVMax= 7.07D-04

 Cycle   5  Pass 1  IDiag  1:
 E= -241.649989111606     Delta-E=       -0.000000463072 Rises=F Damp=F
 DIIS: error= 9.79D-05 at cycle   5 NSaved=   4.
 NSaved= 4 IEnMin= 4 EnMin= -241.649989111606     IErMin= 4 ErrMin= 9.79D-05
 ErrMax= 9.79D-05  0.00D+00 EMaxC= 1.00D-01 BMatC= 7.98D-07 BMatP= 1.41D-06
 IDIUse=1 WtCom= 1.00D+00 WtEn= 0.00D+00
 Coeff-Com:  0.687D-06-0.439D-01 0.430D+00 0.614D+00
 Coeff:      0.687D-06-0.439D-01 0.430D+00 0.614D+00
 Gap=     0.337 Goal=   None    Shift=    0.000
 RMSDP=2.96D-06 MaxDP=3.03D-04 DE=-4.63D-07 OVMax= 3.69D-04

 Cycle   6  Pass 1  IDiag  1:
 E= -241.649989713431     Delta-E=       -0.000000601825 Rises=F Damp=F
 DIIS: error= 5.90D-06 at cycle   6 NSaved=   5.
 NSaved= 5 IEnMin= 5 EnMin= -241.649989713431     IErMin= 5 ErrMin= 5.90D-06
 ErrMax= 5.90D-06  0.00D+00 EMaxC= 1.00D-01 BMatC= 3.30D-09 BMatP= 7.98D-07
 IDIUse=1 WtCom= 1.00D+00 WtEn= 0.00D+00
 Coeff-Com:  0.152D-06-0.937D-02 0.647D-01 0.114D+00 0.831D+00
 Coeff:      0.152D-06-0.937D-02 0.647D-01 0.114D+00 0.831D+00
 Gap=     0.337 Goal=   None    Shift=    0.000
 RMSDP=2.85D-07 MaxDP=2.83D-05 DE=-6.02D-07 OVMax= 3.49D-05

 Cycle   7  Pass 1  IDiag  1:
 E= -241.649989717731     Delta-E=       -0.000000004300 Rises=F Damp=F
 DIIS: error= 4.54D-06 at cycle   7 NSaved=   6.
 NSaved= 6 IEnMin= 6 EnMin= -241.649989717731     IErMin= 6 ErrMin= 4.54D-06
 ErrMax= 4.54D-06  0.00D+00 EMaxC= 1.00D-01 BMatC= 2.11D-09 BMatP= 3.30D-09
 IDIUse=1 WtCom= 1.00D+00 WtEn= 0.00D+00
 Coeff-Com: -0.601D-07 0.404D-02-0.586D-01-0.614D-01 0.434D+00 0.682D+00
 Coeff:     -0.601D-07 0.404D-02-0.586D-01-0.614D-01 0.434D+00 0.682D+00
 Gap=     0.337 Goal=   None    Shift=    0.000
 RMSDP=1.48D-07 MaxDP=1.48D-05 DE=-4.30D-09 OVMax= 2.82D-05

 Cycle   8  Pass 1  IDiag  1:
 E= -241.649989720438     Delta-E=       -0.000000002707 Rises=F Damp=F
 DIIS: error= 2.32D-06 at cycle   8 NSaved=   7.
 NSaved= 7 IEnMin= 7 EnMin= -241.649989720438     IErMin= 7 ErrMin= 2.32D-06
 ErrMax= 2.32D-06  0.00D+00 EMaxC= 1.00D-01 BMatC= 4.38D-10 BMatP= 2.11D-09
 IDIUse=1 WtCom= 1.00D+00 WtEn= 0.00D+00
 Coeff-Com:  0.127D-07-0.109D-02 0.255D-01 0.411D-01-0.475D+00-0.732D+00
 Coeff-Com:  0.214D+01
 Coeff:      0.127D-07-0.109D-02 0.255D-01 0.411D-01-0.475D+00-0.732D+00
 Coeff:      0.214D+01
 Gap=     0.337 Goal=   None    Shift=    0.000
 RMSDP=1.75D-07 MaxDP=1.84D-05 DE=-2.71D-09 OVMax= 5.87D-05

 Cycle   9  Pass 1  IDiag  1:
 E= -241.649989723430     Delta-E=       -0.000000002992 Rises=F Damp=F
 DIIS: error= 1.40D-06 at cycle   9 NSaved=   8.
 NSaved= 8 IEnMin= 8 EnMin= -241.649989723430     IErMin= 8 ErrMin= 1.40D-06
 ErrMax= 1.40D-06  0.00D+00 EMaxC= 1.00D-01 BMatC= 1.17D-10 BMatP= 4.38D-10
 IDIUse=1 WtCom= 1.00D+00 WtEn= 0.00D+00
 Coeff-Com:  0.172D-07-0.109D-02 0.107D-01 0.203D-01-0.423D-01-0.217D-01
 Coeff-Com: -0.475D+00 0.151D+01
 Coeff:      0.172D-07-0.109D-02 0.107D-01 0.203D-01-0.423D-01-0.217D-01
 Coeff:     -0.475D+00 0.151D+01
 Gap=     0.337 Goal=   None    Shift=    0.000
 RMSDP=1.06D-07 MaxDP=1.16D-05 DE=-2.99D-09 OVMax= 3.40D-05

 Cycle  10  Pass 1  IDiag  1:
 E= -241.649989724209     Delta-E=       -0.000000000779 Rises=F Damp=F
 DIIS: error= 3.66D-07 at cycle  10 NSaved=   9.
 NSaved= 9 IEnMin= 9 EnMin= -241.649989724209     IErMin= 9 ErrMin= 3.66D-07
 ErrMax= 3.66D-07  0.00D+00 EMaxC= 1.00D-01 BMatC= 1.38D-11 BMatP= 1.17D-10
 IDIUse=1 WtCom= 1.00D+00 WtEn= 0.00D+00
 Coeff-Com: -0.456D-08 0.352D-03-0.675D-02-0.910D-02 0.905D-01 0.137D+00
 Coeff-Com: -0.361D+00-0.262D+00 0.141D+01
 Coeff:     -0.456D-08 0.352D-03-0.675D-02-0.910D-02 0.905D-01 0.137D+00
 Coeff:     -0.361D+00-0.262D+00 0.141D+01
 Gap=     0.337 Goal=   None    Shift=    0.000
 RMSDP=5.32D-08 MaxDP=6.28D-06 DE=-7.79D-10 OVMax= 1.58D-05

 Cycle  11  Pass 1  IDiag  1:
 E= -241.649989724313     Delta-E=       -0.000000000104 Rises=F Damp=F
 DIIS: error= 7.24D-08 at cycle  11 NSaved=  10.
 NSaved=10 IEnMin=10 EnMin= -241.649989724313     IErMin=10 ErrMin= 7.24D-08
 ErrMax= 7.24D-08  0.00D+00 EMaxC= 1.00D-01 BMatC= 5.97D-13 BMatP= 1.38D-11
 IDIUse=1 WtCom= 1.00D+00 WtEn= 0.00D+00
 Coeff-Com: -0.150D-08 0.823D-04-0.619D-03-0.110D-02-0.373D-02-0.234D-02
 Coeff-Com:  0.723D-01-0.110D+00-0.144D+00 0.119D+01
 Coeff:     -0.150D-08 0.823D-04-0.619D-03-0.110D-02-0.373D-02-0.234D-02
 Coeff:      0.723D-01-0.110D+00-0.144D+00 0.119D+01
 Gap=     0.337 Goal=   None    Shift=    0.000
 RMSDP=5.57D-09 MaxDP=6.01D-07 DE=-1.04D-10 OVMax= 1.43D-06

 SCF Done:  E(ROHF) =  -241.649989724     A.U. after   11 cycles
            NFock= 11  Conv=0.56D-08     -V/T= 2.4580
 <Sx>= 0.0000 <Sy>= 0.0000 <Sz>= 0.0000 <S**2>=-0.0000 S=-0.0000
 <L.S>=  0.00000000000    
 KE= 1.657429897159D+02 PE=-6.796573411449D+02 EE= 2.325760708857D+02
 Annihilation of the first spin contaminant:
 S**2 before annihilation    -0.0000,   after    -0.0000
 Leave Link  502 at Wed Mar 28 00:20:52 2018, MaxMem= 10737418240 cpu:            2039.7 elap:              68.7
 (Enter /home1/apps/gaussian/16rA.03/g16/l801.exe)
 Windowed orbitals will be sorted by symmetry type.
 GenMOA:  NOpAll=  4 NOp2=4 NOpUse=  4 JSym2X=1
 FoFJK:  IHMeth= 1 ICntrl=       0 DoSepK=F KAlg= 0 I1Cent=           0 FoldK=F
 IRaf=         0 NMat=       1 IRICut=       1 DoRegI=T DoRafI=F ISym2E= 1 IDoP0=0 IntGTp=1.
 FoFCou: FMM=F IPFlag=           8 FMFlag=      100000 FMFlg1=           0
         NFxFlg=           0 DoJE=F BraDBF=F KetDBF=F FulRan=T
         wScrn=  0.000000 ICntrl=         0 IOpCl=  1 I1Cent=           0 NGrid=           0
         NMat0=    1 NMatS0=      1 NMatT0=    0 NMatD0=    1 NMtDS0=    0 NMtDT0=    0
 Petite list used in FoFCou.
 <Sx>= 0.0000 <Sy>= 0.0000 <Sz>= 0.0000 <S**2>= 0.0000 S= 0.0000
 Range of M.O.s used for correlation:     1   380
 NBasis=   384 NAE=    13 NBE=    13 NFC=     0 NFV=     0
 NROrb=    380 NOA=    13 NOB=    13 NVA=   367 NVB=   367

 **** Warning!!: The largest alpha MO coefficient is  0.28285392D+03


 **** Warning!!: The largest beta MO coefficient is  0.28285392D+03

 Singles contribution to E2=   -0.9456166672D-13
 Leave Link  801 at Wed Mar 28 00:21:13 2018, MaxMem= 10737418240 cpu:             649.9 elap:              20.4
 (Enter /home1/apps/gaussian/16rA.03/g16/l804.exe)
 Open-shell transformation, MDV= 10737418240 ITran=4 ISComp=2.
 Unit  1 TFree=       4463804 TCopy=       3315992.
 Semi-Direct transformation.
 ModeAB=           4 MOrb=            13 LenV=   10733133096
 LASXX=     88669000 LTotXX=    88669000 LenRXX=   178270504
 LTotAB=    89601504 MaxLAS=   591095700 LenRXY=           0
 NonZer=   266939504 LenScr=   401980416 LnRSAI=   591095700
 LnScr1=   890121216 LExtra=    36575562 Total=   2098043398
 MaxDsk= 67108864000 SrtSym=           T ITran=            4
 DoSDTr:  NPSUse= 32
 JobTyp=1 Pass  1:  I=   1 to  13.
 (rs|ai) integrals will be sorted in core.
 Complete sort for first half transformation.
 First half transformation complete.
 Begin second half transformation for I=  10.
 Complete sort for second half transformation.
 Second half transformation complete.
 ModeAB=           4 MOrb=            13 LenV=   10733133096
 LASXX=     88669000 LTotXX=    88669000 LenRXX=   172217940
 LTotAB=    83548940 MaxLAS=   591095700 LenRXY=           0
 NonZer=   260886940 LenScr=   392865792 LnRSAI=   591095700
 LnScr1=   890121216 LExtra=   214846066 Total=   2261146714
 MaxDsk= 67108864000 SrtSym=           T ITran=            4
 DoSDTr:  NPSUse= 32
 JobTyp=2 Pass  1:  I=   1 to  13.
 (rs|ai) integrals will be sorted in core.
 Complete sort for first half transformation.
 First half transformation complete.
 Begin second half transformation for I=  10.
 Complete sort for second half transformation.
 Second half transformation complete.
 Spin components of T(2) and E(2):
     alpha-alpha T2 =       0.3430194980D-01 E2=     -0.2077061219D+00
     alpha-beta  T2 =       0.1640848688D+00 E2=     -0.9909452428D+00
     beta-beta   T2 =       0.3430194980D-01 E2=     -0.2077061219D+00
 ANorm=    0.1110265179D+01
 E2 =    -0.1406357487D+01 EUMP2 =    -0.24305634721088D+03
 (S**2,0)=  0.00000D+00           (S**2,1)=  0.00000D+00
 E(PUHF)=      -0.24164998972D+03        E(PMP2)=      -0.24305634721D+03
 Leave Link  804 at Wed Mar 28 00:33:52 2018, MaxMem= 10737418240 cpu:           24273.6 elap:             759.0
 (Enter /home1/apps/gaussian/16rA.03/g16/l913.exe)
 CIDS:  MDV= 10737418240.
 IFCWin=0 IBDFC=1 NFBD=     0     0 NFCmp=     0     0 NFFFC=     0     0
 Using original routines for 1st iteration.
 Using DD4UQ or CC4UQ for 2nd and later iterations.
 Keep R2 and R3 ints in memory in symmetry-blocked form, NReq=3425139157.
 FoFCou: FMM=F IPFlag=           8 FMFlag=           0 FMFlg1=           0
         NFxFlg=           0 DoJE=F BraDBF=F KetDBF=F FulRan=T
         wScrn=  0.000000 ICntrl=       600 IOpCl=  0 I1Cent=           0 NGrid=           0
         NMat0=    1 NMatS0=  73920 NMatT0=    0 NMatD0=    1 NMtDS0=    0 NMtDT0=    0
 Petite list used in FoFCou.
 CIDS: In Core Option IDoMem=           1.
 CCSD(T)
 =======
 Iterations= 150 Convergence= 0.100D-06
 Produce multiple copies of IABC intergrals
 Iteration Nr.   1
 **********************
 DD1Dir will call FoFMem   1 times, MxPair=       494
 NAB=   169 NAA=    78 NBB=    78.
 DD1Dir will call FoFMem   1 times, MxPair=       494
 NAB=   169 NAA=    78 NBB=    78.
 MP4(R+Q)= -0.17175980D+00
 Maximum subspace dimension=  5
 A-vector RMS=  1.8503926D-05 Max=  2.7663331D-02 conv= 1.00D-05.
 RLE energy=       -1.3991465757
 E3=        0.17900788D+00        EROMP3=      -0.24287733933D+03
 E4(SDQ)=  -0.10746018D+00        ROMP4(SDQ)=  -0.24298479952D+03
 VARIATIONAL ENERGIES WITH THE FIRST-ORDER WAVEFUNCTION:
 DE(Corr)=  -1.3991094     E(Corr)=     -243.04909914    
 NORM(A)=   0.11021177D+01
 Iteration Nr.   2
 **********************
 DD1Dir will call FoFMem   1 times, MxPair=       494
 NAB=   169 NAA=    78 NBB=    78.
 A-vector RMS=  3.9353043D-03 Max=  6.4598968D-02 conv= 1.00D-05.
 RLE energy=       -1.3468200549
 DE(Corr)=  -1.2158538     E(CORR)=     -242.86584353     Delta= 1.83D-01
 NORM(A)=   0.10927418D+01
 Iteration Nr.   3
 **********************
 DD1Dir will call FoFMem   1 times, MxPair=       494
 NAB=   169 NAA=    78 NBB=    78.
 A-vector RMS=  2.2547963D-03 Max=  3.4893110D-02 conv= 1.00D-05.
 RLE energy=       -1.3301741639
 DE(Corr)=  -1.2428181     E(CORR)=     -242.89280786     Delta=-2.70D-02
 NORM(A)=   0.10948485D+01
 Iteration Nr.   4
 **********************
 DD1Dir will call FoFMem   1 times, MxPair=       494
 NAB=   169 NAA=    78 NBB=    78.
 A-vector RMS=  2.2799270D-03 Max=  4.2495539D-02 conv= 1.00D-05.
 RLE energy=       -1.2568604855
 DE(Corr)=  -1.2539654     E(CORR)=     -242.90395512     Delta=-1.11D-02
 NORM(A)=   0.11103323D+01
 Iteration Nr.   5
 **********************
 DD1Dir will call FoFMem   1 times, MxPair=       494
 NAB=   169 NAA=    78 NBB=    78.
 A-vector RMS=  1.3456401D-03 Max=  2.6535009D-02 conv= 1.00D-05.
 RLE energy=       -1.2982305879
 DE(Corr)=  -1.3082013     E(CORR)=     -242.95819103     Delta=-5.42D-02
 NORM(A)=   0.11059069D+01
 Iteration Nr.   6
 **********************
 DD1Dir will call FoFMem   1 times, MxPair=       494
 NAB=   169 NAA=    78 NBB=    78.
 A-vector RMS=  6.3135644D-04 Max=  1.4040600D-02 conv= 1.00D-05.
 RLE energy=       -1.2884586695
 DE(Corr)=  -1.2806168     E(CORR)=     -242.93060655     Delta= 2.76D-02
 NORM(A)=   0.11101559D+01
 Iteration Nr.   7
 **********************
 DD1Dir will call FoFMem   1 times, MxPair=       494
 NAB=   169 NAA=    78 NBB=    78.
 A-vector RMS=  7.1838227D-05 Max=  1.5210081D-03 conv= 1.00D-05.
 RLE energy=       -1.2879324307
 DE(Corr)=  -1.2878458     E(CORR)=     -242.93783552     Delta=-7.23D-03
 NORM(A)=   0.11107054D+01
 Iteration Nr.   8
 **********************
 DD1Dir will call FoFMem   1 times, MxPair=       494
 NAB=   169 NAA=    78 NBB=    78.
 A-vector RMS=  3.4419999D-05 Max=  8.5934818D-04 conv= 1.00D-05.
 RLE energy=       -1.2879998678
 DE(Corr)=  -1.2880693     E(CORR)=     -242.93805899     Delta=-2.23D-04
 NORM(A)=   0.11109269D+01
 Iteration Nr.   9
 **********************
 DD1Dir will call FoFMem   1 times, MxPair=       494
 NAB=   169 NAA=    78 NBB=    78.
 A-vector RMS=  2.5475955D-05 Max=  5.6534779D-04 conv= 1.00D-05.
 RLE energy=       -1.2880053342
 DE(Corr)=  -1.2879641     E(CORR)=     -242.93795381     Delta= 1.05D-04
 NORM(A)=   0.11110395D+01
 Iteration Nr.  10
 **********************
 DD1Dir will call FoFMem   1 times, MxPair=       494
 NAB=   169 NAA=    78 NBB=    78.
 A-vector RMS=  1.2845706D-05 Max=  2.0958072D-04 conv= 1.00D-05.
 RLE energy=       -1.2879515319
 DE(Corr)=  -1.2879923     E(CORR)=     -242.93798207     Delta=-2.83D-05
 NORM(A)=   0.11110499D+01
 Iteration Nr.  11
 **********************
 DD1Dir will call FoFMem   1 times, MxPair=       494
 NAB=   169 NAA=    78 NBB=    78.
 A-vector RMS=  6.5216595D-06 Max=  1.5690019D-04 conv= 1.00D-05.
 RLE energy=       -1.2879886533
 DE(Corr)=  -1.2879921     E(CORR)=     -242.93798179     Delta= 2.79D-07
 NORM(A)=   0.11110190D+01
 Iteration Nr.  12
 **********************
 DD1Dir will call FoFMem   1 times, MxPair=       494
 NAB=   169 NAA=    78 NBB=    78.
 A-vector RMS=  1.9349835D-06 Max=  3.1489412D-05 conv= 1.00D-05.
 RLE energy=       -1.2879777862
 DE(Corr)=  -1.2879770     E(CORR)=     -242.93796670     Delta= 1.51D-05
 NORM(A)=   0.11110187D+01
 Iteration Nr.  13
 **********************
 DD1Dir will call FoFMem   1 times, MxPair=       494
 NAB=   169 NAA=    78 NBB=    78.
 A-vector RMS=  1.7568649D-06 Max=  3.6179375D-05 conv= 1.00D-05.
 RLE energy=       -1.2879819455
 DE(Corr)=  -1.2879848     E(CORR)=     -242.93797456     Delta=-7.86D-06
 NORM(A)=   0.11110184D+01
 Iteration Nr.  14
 **********************
 DD1Dir will call FoFMem   1 times, MxPair=       494
 NAB=   169 NAA=    78 NBB=    78.
 A-vector RMS=  1.0545313D-06 Max=  1.8927995D-05 conv= 1.00D-05.
 RLE energy=       -1.2879826631
 DE(Corr)=  -1.2879807     E(CORR)=     -242.93797044     Delta= 4.13D-06
 NORM(A)=   0.11110227D+01
 Iteration Nr.  15
 **********************
 DD1Dir will call FoFMem   1 times, MxPair=       494
 NAB=   169 NAA=    78 NBB=    78.
 A-vector RMS=  4.3110318D-07 Max=  1.0597697D-05 conv= 1.00D-05.
 RLE energy=       -1.2879828415
 DE(Corr)=  -1.2879827     E(CORR)=     -242.93797242     Delta=-1.99D-06
 NORM(A)=   0.11110246D+01
 Iteration Nr.  16
 **********************
 DD1Dir will call FoFMem   1 times, MxPair=       494
 NAB=   169 NAA=    78 NBB=    78.
 A-vector RMS=  2.0133192D-07 Max=  4.7757655D-06 conv= 1.00D-05.
 RLE energy=       -1.2879830768
 DE(Corr)=  -1.2879830     E(CORR)=     -242.93797275     Delta=-3.23D-07
 NORM(A)=   0.11110256D+01
 Iteration Nr.  17
 **********************
 DD1Dir will call FoFMem   1 times, MxPair=       494
 NAB=   169 NAA=    78 NBB=    78.
 A-vector RMS=  1.5876961D-07 Max=  4.1631615D-06 conv= 1.00D-05.
 RLE energy=       -1.2879829999
 DE(Corr)=  -1.2879829     E(CORR)=     -242.93797261     Delta= 1.37D-07
 NORM(A)=   0.11110261D+01
 Iteration Nr.  18
 **********************
 DD1Dir will call FoFMem   1 times, MxPair=       494
 NAB=   169 NAA=    78 NBB=    78.
 A-vector RMS=  6.1933956D-08 Max=  1.7020156D-06 conv= 1.00D-05.
 RLE energy=       -1.2879831796
 DE(Corr)=  -1.2879832     E(CORR)=     -242.93797294     Delta=-3.29D-07
 NORM(A)=   0.11110264D+01
 Iteration Nr.  19
 **********************
 DD1Dir will call FoFMem   1 times, MxPair=       494
 NAB=   169 NAA=    78 NBB=    78.
 A-vector RMS=  3.8641919D-08 Max=  7.0398451D-07 conv= 1.00D-05.
 RLE energy=       -1.2879831077
 DE(Corr)=  -1.2879830     E(CORR)=     -242.93797276     Delta= 1.75D-07
 NORM(A)=   0.11110265D+01
 Iteration Nr.  20
 **********************
 DD1Dir will call FoFMem   1 times, MxPair=       494
 NAB=   169 NAA=    78 NBB=    78.
 A-vector RMS=  2.4387161D-08 Max=  5.0256303D-07 conv= 1.00D-05.
 RLE energy=       -1.2879830713
 DE(Corr)=  -1.2879831     E(CORR)=     -242.93797278     Delta=-1.32D-08
 NORM(A)=   0.11110265D+01
 CI/CC converged in   20 iterations to DelEn=-1.32D-08 Conv= 1.00D-07 ErrA1= 2.44D-08 Conv= 1.00D-05
 Wavefunction amplitudes converged. E(Corr)=     -242.93797278    
 Dominant configurations:
 ***********************
 Spin Case        I    J    A    B          Value
   ABAB          13   13   14   14      -0.108614D+00
 Largest amplitude= 1.09D-01
 Time for triples=   189048.83 seconds.
 T4(CCSD)= -0.60127691D-01
 T5(CCSD)=  0.88841997D-02
 CCSD(T)= -0.24298921627D+03
 Discarding MO integrals.
 Leave Link  913 at Wed Mar 28 02:36:42 2018, MaxMem= 10737418240 cpu:          234914.0 elap:            7369.7
 (Enter /home1/apps/gaussian/16rA.03/g16/l601.exe)
 Copying SCF densities to generalized density rwf, IOpCl= 0 IROHF=1.

 **********************************************************************

            Population analysis using the SCF density.

 **********************************************************************

 Orbital symmetries:
       Occupied  (SG) (SG) (PI) (PI) (SG) (PI) (PI) (DLTA) (DLTA)
                 (SG) (PI) (PI) (SG)
       Virtual   (SG) (PI) (PI) (SG) (SG) (PI) (PI) (SG) (SG) (SG)
                 (DLTA) (DLTA) (PI) (PI) (PI) (PI) (SG) (PI) (PI)
                 (SG) (SG) (DLTA) (DLTA) (DLTA) (DLTA) (SG) (PI)
                 (PI) (SG) (PI) (PI) (SG) (PI) (PI) (PI) (PI) (SG)
                 (SG) (PHI) (PHI) (DLTA) (DLTA) (PI) (PI) (SG)
                 (PHI) (PHI) (SG) (DLTA) (DLTA) (PI) (PI) (DLTA)
                 (DLTA) (SG) (PI) (PI) (DLTA) (DLTA) (SG) (SG)
                 (PI) (PI) (SG) (PI) (PI) (PI) (PI) (DLTA) (DLTA)
                 (SG) (PHI) (PHI) (SG) (PI) (PI) (PHI) (PHI) (?A)
                 (?A) (DLTA) (DLTA) (PI) (PI) (SG) (DLTA) (DLTA)
                 (?A) (?A) (SG) (SG) (PHI) (PHI) (PI) (PI) (PHI)
                 (PHI) (DLTA) (DLTA) (DLTA) (DLTA) (SG) (PI) (PI)
                 (SG) (PI) (PI) (DLTA) (DLTA) (SG) (PI) (PI) (SG)
                 (PI) (PI) (SG) (PHI) (PHI) (DLTA) (DLTA) (DLTA)
                 (DLTA) (PI) (PI) (SG) (PI) (PI) (SG) (PI) (PI)
                 (SG) (?A) (?A) (PHI) (PHI) (PI) (PI) (SG) (DLTA)
                 (DLTA) (SG) (PHI) (PHI) (?A) (?A) (PI) (PI) (?B)
                 (?B) (DLTA) (DLTA) (?A) (?A) (PHI) (PHI) (DLTA)
                 (DLTA) (SG) (PI) (PI) (SG) (PHI) (PHI) (DLTA)
                 (DLTA) (SG) (PI) (PI) (DLTA) (DLTA) (PI) (PI)
                 (SG) (SG) (PI) (PI) (DLTA) (DLTA) (SG) (PI) (PI)
                 (SG) (PHI) (PHI) (DLTA) (DLTA) (PI) (PI) (SG)
                 (SG) (?A) (?A) (PHI) (PHI) (DLTA) (DLTA) (PI)
                 (PI) (SG) (?B) (?B) (?A) (?A) (PHI) (PHI) (DLTA)
                 (DLTA) (PI) (PI) (PI) (PI) (SG) (SG) (SG) (DLTA)
                 (DLTA) (PI) (PI) (SG) (PI) (PI) (SG) (DLTA) (DLTA)
                 (PI) (PI) (SG) (PHI) (PHI) (DLTA) (DLTA) (PI)
                 (PI) (SG) (SG) (DLTA) (DLTA) (PI) (PI) (SG) (?A)
                 (?A) (PHI) (PHI) (DLTA) (DLTA) (PI) (PI) (SG)
                 (SG) (?B) (?B) (?A) (?A) (PHI) (PHI) (DLTA) (DLTA)
                 (PI) (PI) (SG) (PI) (PI) (PI) (PI) (SG) (SG) (DLTA)
                 (DLTA) (PI) (PI) (SG) (DLTA) (DLTA) (PHI) (PHI)
                 (PI) (PI) (SG) (SG) (SG) (PI) (PI) (SG) (PI) (PI)
                 (SG) (DLTA) (DLTA) (PI) (PI) (SG) (SG) (DLTA)
                 (DLTA) (PI) (PI) (SG) (SG) (PI) (PI) (SG) (PI)
                 (PI) (SG) (DLTA) (DLTA) (PI) (PI) (SG) (SG) (SG)
                 (PI) (PI) (SG) (SG) (SG) (PI) (PI) (SG) (PI) (PI)
                 (SG) (DLTA) (DLTA) (PI) (PI) (SG) (SG) (SG) (PI)
                 (PI) (SG) (SG) (SG) (DLTA) (DLTA) (PI) (PI) (SG)
                 (PI) (PI) (SG) (SG) (SG) (PI) (PI) (SG) (SG) (PI)
                 (PI) (SG) (SG) (SG) (PI) (PI) (SG) (SG) (SG) (PI)
                 (PI) (SG) (SG) (SG) (SG) (SG) (SG)
 The electronic state is 1-SG.
 Alpha  occ. eigenvalues --   -5.92528  -3.99852  -3.99508  -3.99508  -1.18336
 Alpha  occ. eigenvalues --   -0.83180  -0.83180  -0.82204  -0.82204  -0.79889
 Alpha  occ. eigenvalues --   -0.39672  -0.39672  -0.38378
 Alpha virt. eigenvalues --   -0.04650   0.02456   0.02456   0.02463   0.04205
 Alpha virt. eigenvalues --    0.07939   0.07939   0.12003   0.16528   0.17702
 Alpha virt. eigenvalues --    0.17828   0.17828   0.20576   0.20576   0.23144
 Alpha virt. eigenvalues --    0.23144   0.23298   0.25960   0.25960   0.34951
 Alpha virt. eigenvalues --    0.47708   0.56262   0.56262   0.59214   0.59214
 Alpha virt. eigenvalues --    0.60493   0.62204   0.62204   0.64299   0.66911
 Alpha virt. eigenvalues --    0.66911   0.69372   0.80249   0.80249   0.94394
 Alpha virt. eigenvalues --    0.94394   0.96874   1.03206   1.07175   1.07175
 Alpha virt. eigenvalues --    1.18919   1.18919   1.37301   1.37301   1.43235
 Alpha virt. eigenvalues --    1.48035   1.48035   1.49581   1.52193   1.52193
 Alpha virt. eigenvalues --    1.54850   1.54850   1.67367   1.67367   1.69705
 Alpha virt. eigenvalues --    1.76056   1.76056   1.79124   1.79124   1.92630
 Alpha virt. eigenvalues --    2.24545   2.29982   2.29982   2.52820   2.59918
 Alpha virt. eigenvalues --    2.59918   2.91568   2.91568   3.18744   3.18744
 Alpha virt. eigenvalues --    3.20944   3.24191   3.24191   3.29035   3.33946
 Alpha virt. eigenvalues --    3.33946   3.56194   3.56194   3.73521   3.73521
 Alpha virt. eigenvalues --    3.75898   3.75898   3.76964   3.76964   3.77626
 Alpha virt. eigenvalues --    3.87747   3.87747   3.93378   3.93378   4.03892
 Alpha virt. eigenvalues --    4.17509   4.20989   4.20989   4.24426   4.24426
 Alpha virt. eigenvalues --    4.29049   4.29049   4.34075   4.34075   4.49300
 Alpha virt. eigenvalues --    4.49300   4.55106   4.57813   4.57813   4.69909
 Alpha virt. eigenvalues --    5.01364   5.01364   5.04683   5.04683   5.78565
 Alpha virt. eigenvalues --    5.81545   5.81545   6.03480   7.37073   7.37073
 Alpha virt. eigenvalues --    7.63330   8.36616   8.36616   8.45827   8.45827
 Alpha virt. eigenvalues --    8.51162   8.51162   8.56381   8.56381   8.60785
 Alpha virt. eigenvalues --    8.89817   8.89817   9.13866   9.48531   9.48531
 Alpha virt. eigenvalues --    9.97927  10.42176  10.42176  10.45308  10.45308
 Alpha virt. eigenvalues --   10.62438  10.62438  10.62454  10.65099  10.65099
 Alpha virt. eigenvalues --   10.70727  10.77507  10.77507  10.77917  10.77917
 Alpha virt. eigenvalues --   10.90636  10.90636  10.95403  10.95403  10.95834
 Alpha virt. eigenvalues --   10.95834  10.96280  10.96280  11.05864  11.05864
 Alpha virt. eigenvalues --   11.17190  11.17190  11.27144  11.72449  11.72449
 Alpha virt. eigenvalues --   11.79685  12.03646  12.03646  12.18229  12.18229
 Alpha virt. eigenvalues --   12.70270  12.82727  12.82727  12.84442  12.84442
 Alpha virt. eigenvalues --   13.21368  13.21368  13.42428  14.95702  17.24263
 Alpha virt. eigenvalues --   17.24263  17.24767  17.24767  17.31149  17.49729
 Alpha virt. eigenvalues --   17.49729  18.21885  20.60040  20.60040  20.68058
 Alpha virt. eigenvalues --   20.68058  21.05818  21.05818  21.50995  23.92852
 Alpha virt. eigenvalues --   24.62879  24.62879  24.67109  24.67109  24.83217
 Alpha virt. eigenvalues --   24.83217  24.99013  24.99013  25.15594  27.21010
 Alpha virt. eigenvalues --   27.21010  27.21182  27.21182  27.22850  27.22850
 Alpha virt. eigenvalues --   27.31083  27.31083  27.31194  27.31194  27.60933
 Alpha virt. eigenvalues --   27.60933  27.63892  28.55663  31.77755  31.96327
 Alpha virt. eigenvalues --   31.96327  32.09817  32.09817  32.29215  35.58702
 Alpha virt. eigenvalues --   35.58702  36.44265  47.47960  47.47960  47.65937
 Alpha virt. eigenvalues --   47.65937  48.07698  50.85189  50.85189  50.91012
 Alpha virt. eigenvalues --   50.91012  51.16802  51.16802  51.46373  52.65253
 Alpha virt. eigenvalues --   55.42512  55.42512  55.55395  55.55395  55.81016
 Alpha virt. eigenvalues --   56.40701  56.40701  56.43782  56.43782  56.55087
 Alpha virt. eigenvalues --   56.55087  56.67365  56.67365  56.74341  59.66718
 Alpha virt. eigenvalues --   61.70400  61.70400  61.70882  61.70882  61.72004
 Alpha virt. eigenvalues --   61.72004  61.76543  61.76543  61.86254  61.86254
 Alpha virt. eigenvalues --   61.94744  67.37853  67.37853  68.06920  68.06920
 Alpha virt. eigenvalues --   68.35338  69.21579  92.68053  92.68053  92.80334
 Alpha virt. eigenvalues --   92.80334  92.99470 104.14493 104.14493 104.15131
 Alpha virt. eigenvalues --  104.15131 104.17849 104.17849 104.20648 107.56200
 Alpha virt. eigenvalues --  117.98708 127.70518 127.70518 128.91698 148.39454
 Alpha virt. eigenvalues --  148.39454 149.32219 159.77011 159.77011 159.88438
 Alpha virt. eigenvalues --  159.88438 160.06702 190.21155 201.65001 201.65001
 Alpha virt. eigenvalues --  201.74922 201.74922 201.99639 211.96173 233.89868
 Alpha virt. eigenvalues --  233.89868 235.01417 312.41478 312.41478 313.26238
 Alpha virt. eigenvalues --  315.89442 315.89442 315.99129 315.99129 316.14081
 Alpha virt. eigenvalues --  329.66890 332.40519 417.88017 417.88017 418.97509
 Alpha virt. eigenvalues --  570.28904 617.89800 653.56683 653.56683 654.36488
 Alpha virt. eigenvalues --  761.91767 761.91767 762.99679 768.36029 768.36029
 Alpha virt. eigenvalues --  768.43532 768.43532 768.594311019.372571188.90100
 Alpha virt. eigenvalues -- 1451.698231451.698231452.795882118.336532379.38811
 Alpha virt. eigenvalues -- 2438.993692438.993692439.041822439.041822439.12261
 Alpha virt. eigenvalues -- 2942.092202942.092202943.124195009.137855820.73379
 Alpha virt. eigenvalues -- 6474.124276474.124276475.05614********************
 Alpha virt. eigenvalues -- **************************************************
 Alpha virt. eigenvalues -- **************************************************
 Alpha virt. eigenvalues -- **************************************************
 Alpha virt. eigenvalues -- ********************
     Molecular Orbital Coefficients:
                           9        10        11        12        13
                           O         O         O         O         O
     Eigenvalues --    -0.82204  -0.79889  -0.39672  -0.39672  -0.38378
   1 1   Zn 1S          0.00000   0.00000   0.00000   0.00000  -0.00000
   2        2S         -0.00000   0.00000   0.00000   0.00000  -0.00000
   3        3S          0.00000   0.00000   0.00000   0.00000  -0.00000
   4        4S         -0.00000   0.00000   0.00000   0.00000  -0.00000
   5        5S          0.00000   0.00000   0.00000   0.00000  -0.00000
   6        6S          0.00000   0.00000   0.00000   0.00000  -0.00000
   7        7S          0.00000   0.00000   0.00000   0.00000  -0.00000
   8        8S          0.00000   0.00000   0.00000   0.00000  -0.00001
   9        9S          0.00000   0.00000   0.00000   0.00000  -0.00002
  10       10S          0.00000   0.00000   0.00000   0.00000  -0.00004
  11       11S          0.00000   0.00001   0.00000   0.00000  -0.00007
  12       12S          0.00000   0.00000   0.00000   0.00000  -0.00013
  13       13S         -0.00000  -0.00012   0.00000   0.00000   0.00120
  14       14S          0.00000   0.00215   0.00000   0.00000  -0.01813
  15       15S         -0.00000  -0.00465   0.00000   0.00000   0.03891
  16       16S         -0.00000  -0.01016   0.00000   0.00000   0.07987
  17       17S          0.00000   0.02675   0.00000   0.00000  -0.17612
  18       18S          0.00000   0.03243   0.00000   0.00000  -0.22983
  19       19S          0.00000   0.01120   0.00000   0.00000  -0.13854
  20       20S         -0.00000  -0.06859   0.00000   0.00000   0.32390
  21       21S         -0.00000  -0.02420   0.00000   0.00000   0.30414
  22       22S         -0.00000  -0.00463   0.00000   0.00000   0.05341
  23       23S         -0.00000  -0.00015   0.00000   0.00000   0.00113
  24       24S         -0.00000  -0.01966   0.00000   0.00000   0.11412
  25       25S          0.00000   0.00104   0.00000   0.00000  -0.00156
  26       26PX         0.00000   0.00000   0.00000  -0.00000   0.00000
  27       26PY         0.00000   0.00000  -0.00000   0.00000   0.00000
  28       26PZ        -0.00000   0.00000   0.00000   0.00000   0.00000
  29       27PX         0.00000   0.00000   0.00000  -0.00000   0.00000
  30       27PY         0.00000   0.00000  -0.00000   0.00000   0.00000
  31       27PZ         0.00000  -0.00000   0.00000   0.00000   0.00000
  32       28PX         0.00000   0.00000   0.00000  -0.00000   0.00000
  33       28PY         0.00000   0.00000  -0.00000   0.00000   0.00000
  34       28PZ        -0.00000   0.00000   0.00000   0.00000   0.00000
  35       29PX         0.00000   0.00000   0.00000  -0.00000   0.00000
  36       29PY         0.00000   0.00000  -0.00000   0.00000   0.00000
  37       29PZ        -0.00000  -0.00000   0.00000   0.00000   0.00000
  38       30PX         0.00000   0.00000   0.00000  -0.00000   0.00000
  39       30PY         0.00000   0.00000  -0.00000   0.00000   0.00000
  40       30PZ         0.00000   0.00000   0.00000   0.00000   0.00000
  41       31PX         0.00000   0.00000   0.00000  -0.00002   0.00000
  42       31PY         0.00000   0.00000  -0.00002   0.00000   0.00000
  43       31PZ        -0.00000  -0.00001   0.00000   0.00000   0.00001
  44       32PX         0.00000   0.00000   0.00000   0.00002   0.00000
  45       32PY         0.00000   0.00000   0.00002   0.00000   0.00000
  46       32PZ         0.00000   0.00002   0.00000   0.00000  -0.00001
  47       33PX         0.00000   0.00000   0.00000  -0.00029   0.00000
  48       33PY         0.00000   0.00000  -0.00029   0.00000   0.00000
  49       33PZ        -0.00000  -0.00011   0.00000   0.00000   0.00023
  50       34PX         0.00000   0.00000   0.00000   0.00023   0.00000
  51       34PY         0.00000   0.00000   0.00023   0.00000   0.00000
  52       34PZ         0.00000   0.00016   0.00000   0.00000  -0.00006
  53       35PX         0.00000   0.00000   0.00000   0.00459   0.00000
  54       35PY         0.00000   0.00000   0.00459   0.00000   0.00000
  55       35PZ         0.00000   0.00075   0.00000   0.00000  -0.00499
  56       36PX         0.00000   0.00000   0.00000   0.00159   0.00000
  57       36PY         0.00000   0.00000   0.00159   0.00000   0.00000
  58       36PZ        -0.00000  -0.00293   0.00000   0.00000  -0.00748
  59       37PX         0.00000   0.00000   0.00000  -0.01474   0.00000
  60       37PY         0.00000   0.00000  -0.01474   0.00000   0.00000
  61       37PZ        -0.00000  -0.00248   0.00000   0.00000   0.01641
  62       38PX         0.00000   0.00000   0.00000  -0.01386   0.00000
  63       38PY         0.00000   0.00000  -0.01386   0.00000   0.00000
  64       38PZ        -0.00000  -0.00494   0.00000   0.00000   0.01821
  65       39PX         0.00000   0.00000   0.00000  -0.03711   0.00000
  66       39PY         0.00000   0.00000  -0.03711   0.00000   0.00000
  67       39PZ        -0.00000  -0.00775   0.00000   0.00000   0.03659
  68       40PX         0.00000   0.00000   0.00000  -0.00178   0.00000
  69       40PY         0.00000   0.00000  -0.00178   0.00000   0.00000
  70       40PZ        -0.00000  -0.00202   0.00000   0.00000  -0.00263
  71       41PX         0.00000   0.00000   0.00000   0.06634   0.00000
  72       41PY         0.00000   0.00000   0.06634   0.00000   0.00000
  73       41PZ         0.00000   0.02266   0.00000   0.00000  -0.05116
  74       42PX         0.00000   0.00000   0.00000   0.06884   0.00000
  75       42PY         0.00000   0.00000   0.06884   0.00000   0.00000
  76       42PZ         0.00000   0.00845   0.00000   0.00000   0.00571
  77       43PX         0.00000   0.00000   0.00000   0.00974   0.00000
  78       43PY         0.00000   0.00000   0.00974   0.00000   0.00000
  79       43PZ         0.00000   0.00011   0.00000   0.00000   0.00956
  80       44PX         0.00000   0.00000   0.00000   0.00063   0.00000
  81       44PY         0.00000   0.00000   0.00063   0.00000   0.00000
  82       44PZ         0.00000   0.00342   0.00000   0.00000   0.00492
  83       45PX         0.00000   0.00000   0.00000  -0.01599   0.00000
  84       45PY         0.00000   0.00000  -0.01599   0.00000   0.00000
  85       45PZ        -0.00000  -0.00452   0.00000   0.00000   0.00780
  86       46PX         0.00000   0.00000   0.00000  -0.00219   0.00000
  87       46PY         0.00000   0.00000  -0.00219   0.00000   0.00000
  88       46PZ        -0.00000  -0.00006   0.00000   0.00000  -0.00162
  89       47D 0        0.00000   0.00012   0.00000   0.00000  -0.00002
  90       47D+1        0.00000   0.00000   0.00000   0.00002   0.00000
  91       47D-1        0.00000   0.00000   0.00002   0.00000   0.00000
  92       47D+2        0.00012  -0.00000   0.00000   0.00000   0.00000
  93       47D-2        0.00000   0.00000   0.00000   0.00000   0.00000
  94       48D 0        0.00000   0.00114   0.00000   0.00000  -0.00016
  95       48D+1        0.00000   0.00000   0.00000   0.00021   0.00000
  96       48D-1        0.00000   0.00000   0.00021   0.00000   0.00000
  97       48D+2        0.00120  -0.00000   0.00000   0.00000   0.00000
  98       48D-2        0.00000   0.00000   0.00000   0.00000   0.00000
  99       49D 0        0.00000   0.00907   0.00000   0.00000  -0.00126
 100       49D+1        0.00000   0.00000   0.00000   0.00170   0.00000
 101       49D-1        0.00000   0.00000   0.00170   0.00000   0.00000
 102       49D+2        0.00955  -0.00000   0.00000   0.00000   0.00000
 103       49D-2        0.00000   0.00000   0.00000   0.00000   0.00000
 104       50D 0        0.00000   0.03894   0.00000   0.00000  -0.00534
 105       50D+1        0.00000   0.00000   0.00000   0.00733   0.00000
 106       50D-1        0.00000   0.00000   0.00733   0.00000   0.00000
 107       50D+2        0.04100  -0.00000   0.00000   0.00000   0.00000
 108       50D-2        0.00000   0.00000   0.00000   0.00000   0.00000
 109       51D 0        0.00000   0.09856   0.00000   0.00000  -0.01405
 110       51D+1        0.00000   0.00000   0.00000   0.01846   0.00000
 111       51D-1        0.00000   0.00000   0.01846   0.00000   0.00000
 112       51D+2        0.10360  -0.00000   0.00000   0.00000   0.00000
 113       51D-2        0.00000   0.00000   0.00000   0.00000   0.00000
 114       52D 0        0.00000   0.18174   0.00000   0.00000  -0.03047
 115       52D+1        0.00000   0.00000   0.00000   0.03240   0.00000
 116       52D-1        0.00000   0.00000   0.03240   0.00000   0.00000
 117       52D+2        0.18876  -0.00000   0.00000   0.00000   0.00000
 118       52D-2        0.00000   0.00000   0.00000   0.00000   0.00000
 119       53D 0        0.00000   0.26902   0.00000   0.00000  -0.03899
 120       53D+1        0.00000   0.00000   0.00000   0.04891   0.00000
 121       53D-1        0.00000   0.00000   0.04891   0.00000   0.00000
 122       53D+2        0.28086  -0.00000   0.00000   0.00000   0.00000
 123       53D-2        0.00000   0.00000   0.00000   0.00000   0.00000
 124       54D 0        0.00000   0.28608   0.00000   0.00000  -0.03894
 125       54D+1        0.00000   0.00000   0.00000   0.05393   0.00000
 126       54D-1        0.00000   0.00000   0.05393   0.00000   0.00000
 127       54D+2        0.30174  -0.00000   0.00000   0.00000   0.00000
 128       54D-2        0.00000   0.00000   0.00000   0.00000   0.00000
 129       55D 0        0.00000   0.23863   0.00000   0.00000  -0.03044
 130       55D+1        0.00000   0.00000   0.00000   0.04048   0.00000
 131       55D-1        0.00000   0.00000   0.04048   0.00000   0.00000
 132       55D+2        0.24611  -0.00000   0.00000   0.00000   0.00000
 133       55D-2        0.00000   0.00000   0.00000   0.00000   0.00000
 134       56D 0        0.00000   0.13157   0.00000   0.00000  -0.00788
 135       56D+1        0.00000   0.00000   0.00000   0.01232   0.00000
 136       56D-1        0.00000   0.00000   0.01232   0.00000   0.00000
 137       56D+2        0.13946  -0.00000   0.00000   0.00000  -0.00000
 138       56D-2        0.00000   0.00000   0.00000   0.00000   0.00000
 139       57D 0        0.00000   0.03130   0.00000   0.00000  -0.00711
 140       57D+1        0.00000   0.00000   0.00000   0.00241   0.00000
 141       57D-1        0.00000   0.00000   0.00241   0.00000   0.00000
 142       57D+2        0.03390  -0.00000   0.00000   0.00000  -0.00000
 143       57D-2        0.00000   0.00000   0.00000   0.00000   0.00000
 144       58D 0        0.00000   0.01018   0.00000   0.00000   0.00188
 145       58D+1        0.00000   0.00000   0.00000   0.00290   0.00000
 146       58D-1        0.00000   0.00000   0.00290   0.00000   0.00000
 147       58D+2        0.01211  -0.00000   0.00000   0.00000  -0.00000
 148       58D-2        0.00000   0.00000   0.00000   0.00000   0.00000
 149       59D 0        0.00000   0.00610   0.00000   0.00000   0.00327
 150       59D+1        0.00000   0.00000   0.00000   0.00297   0.00000
 151       59D-1        0.00000   0.00000   0.00297   0.00000   0.00000
 152       59D+2        0.00910  -0.00000   0.00000   0.00000  -0.00000
 153       59D-2        0.00000   0.00000   0.00000   0.00000   0.00000
 154       60D 0        0.00000   0.00022   0.00000   0.00000  -0.00881
 155       60D+1        0.00000   0.00000   0.00000  -0.00239   0.00000
 156       60D-1        0.00000   0.00000  -0.00239   0.00000   0.00000
 157       60D+2        0.00031  -0.00000   0.00000   0.00000   0.00000
 158       60D-2        0.00000   0.00000   0.00000   0.00000   0.00000
 159       61F 0        0.00000   0.00030   0.00000   0.00000  -0.00014
 160       61F+1        0.00000   0.00000   0.00000   0.00012   0.00000
 161       61F-1        0.00000   0.00000   0.00012   0.00000   0.00000
 162       61F+2        0.00024  -0.00000   0.00000   0.00000   0.00000
 163       61F-2        0.00000   0.00000   0.00000   0.00000   0.00000
 164       61F+3        0.00000   0.00000   0.00000   0.00000   0.00000
 165       61F-3        0.00000   0.00000  -0.00000   0.00000   0.00000
 166       62F 0        0.00000   0.00074   0.00000   0.00000  -0.00053
 167       62F+1        0.00000   0.00000   0.00000   0.00055   0.00000
 168       62F-1        0.00000   0.00000   0.00055   0.00000   0.00000
 169       62F+2        0.00065  -0.00000   0.00000   0.00000  -0.00000
 170       62F-2        0.00000   0.00000   0.00000   0.00000   0.00000
 171       62F+3        0.00000   0.00000   0.00000   0.00000   0.00000
 172       62F-3        0.00000   0.00000   0.00000   0.00000   0.00000
 173       63F 0        0.00000   0.00213   0.00000   0.00000  -0.00146
 174       63F+1        0.00000   0.00000   0.00000   0.00126   0.00000
 175       63F-1        0.00000   0.00000   0.00126   0.00000   0.00000
 176       63F+2        0.00168  -0.00000   0.00000   0.00000   0.00000
 177       63F-2        0.00000   0.00000   0.00000   0.00000   0.00000
 178       63F+3        0.00000   0.00000   0.00000   0.00000   0.00000
 179       63F-3        0.00000   0.00000  -0.00000   0.00000   0.00000
 180       64F 0        0.00000   0.00453   0.00000   0.00000  -0.00620
 181       64F+1        0.00000   0.00000   0.00000   0.00700   0.00000
 182       64F-1        0.00000   0.00000   0.00700   0.00000   0.00000
 183       64F+2        0.00486  -0.00000   0.00000   0.00000  -0.00000
 184       64F-2        0.00000   0.00000   0.00000   0.00000   0.00000
 185       64F+3        0.00000   0.00000   0.00000   0.00000   0.00000
 186       64F-3        0.00000   0.00000   0.00000   0.00000   0.00000
 187       65F 0        0.00000   0.00805   0.00000   0.00000  -0.00841
 188       65F+1        0.00000   0.00000   0.00000   0.00914   0.00000
 189       65F-1        0.00000   0.00000   0.00914   0.00000   0.00000
 190       65F+2        0.00550  -0.00000   0.00000   0.00000   0.00000
 191       65F-2        0.00000   0.00000   0.00000   0.00000   0.00000
 192       65F+3        0.00000   0.00000   0.00000   0.00000   0.00000
 193       65F-3        0.00000   0.00000   0.00000   0.00000   0.00000
 194       66G 0       -0.00000  -0.00003   0.00000   0.00000   0.00002
 195       66G+1        0.00000   0.00000   0.00000  -0.00000   0.00000
 196       66G-1        0.00000   0.00000  -0.00000   0.00000   0.00000
 197       66G+2       -0.00002  -0.00000   0.00000   0.00000   0.00000
 198       66G-2        0.00000   0.00000   0.00000   0.00000   0.00000
 199       66G+3        0.00000   0.00000   0.00000   0.00000   0.00000
 200       66G-3        0.00000   0.00000   0.00000   0.00000   0.00000
 201       66G+4        0.00000   0.00000   0.00000   0.00000  -0.00000
 202       66G-4        0.00000   0.00000   0.00000   0.00000   0.00000
 203       67G 0       -0.00000  -0.00008   0.00000   0.00000   0.00003
 204       67G+1        0.00000   0.00000   0.00000  -0.00008   0.00000
 205       67G-1        0.00000   0.00000  -0.00008   0.00000   0.00000
 206       67G+2       -0.00002  -0.00000   0.00000   0.00000   0.00000
 207       67G-2        0.00000   0.00000   0.00000   0.00000   0.00000
 208       67G+3        0.00000   0.00000   0.00000  -0.00000   0.00000
 209       67G-3        0.00000   0.00000  -0.00000   0.00000   0.00000
 210       67G+4        0.00000   0.00000   0.00000   0.00000  -0.00000
 211       67G-4        0.00000   0.00000   0.00000   0.00000   0.00000
 212       68G 0        0.00000   0.00023   0.00000   0.00000   0.00014
 213       68G+1        0.00000   0.00000   0.00000  -0.00009   0.00000
 214       68G-1        0.00000   0.00000  -0.00009   0.00000   0.00000
 215       68G+2        0.00009   0.00000   0.00000   0.00000  -0.00000
 216       68G-2        0.00000   0.00000   0.00000   0.00000   0.00000
 217       68G+3        0.00000   0.00000   0.00000   0.00000   0.00000
 218       68G-3        0.00000   0.00000   0.00000   0.00000   0.00000
 219       68G+4        0.00000   0.00000   0.00000   0.00000  -0.00000
 220       68G-4        0.00000   0.00000   0.00000   0.00000   0.00000
 221       69G 0        0.00000   0.00109   0.00000   0.00000   0.00191
 222       69G+1        0.00000   0.00000   0.00000  -0.00179   0.00000
 223       69G-1        0.00000   0.00000  -0.00179   0.00000   0.00000
 224       69G+2        0.00013  -0.00000   0.00000   0.00000   0.00000
 225       69G-2        0.00000   0.00000   0.00000   0.00000   0.00000
 226       69G+3        0.00000   0.00000   0.00000  -0.00000   0.00000
 227       69G-3        0.00000   0.00000  -0.00000   0.00000   0.00000
 228       69G+4        0.00000  -0.00000   0.00000   0.00000   0.00000
 229       69G-4        0.00000   0.00000   0.00000   0.00000   0.00000
 230       70H 0       -0.00000  -0.00007   0.00000   0.00000  -0.00005
 231       70H+1        0.00000   0.00000   0.00000   0.00003   0.00000
 232       70H-1        0.00000   0.00000   0.00003   0.00000   0.00000
 233       70H+2       -0.00002   0.00000   0.00000   0.00000  -0.00000
 234       70H-2        0.00000   0.00000   0.00000   0.00000   0.00000
 235       70H+3        0.00000   0.00000   0.00000   0.00000   0.00000
 236       70H-3        0.00000   0.00000   0.00000   0.00000   0.00000
 237       70H+4        0.00000   0.00000   0.00000   0.00000  -0.00000
 238       70H-4        0.00000   0.00000   0.00000   0.00000   0.00000
 239       70H+5        0.00000   0.00000   0.00000   0.00000   0.00000
 240       70H-5        0.00000   0.00000  -0.00000   0.00000   0.00000
 241       71H 0        0.00000   0.00016   0.00000   0.00000   0.00020
 242       71H+1        0.00000   0.00000   0.00000  -0.00011   0.00000
 243       71H-1        0.00000   0.00000  -0.00011   0.00000   0.00000
 244       71H+2        0.00002  -0.00000   0.00000   0.00000  -0.00000
 245       71H-2        0.00000   0.00000   0.00000   0.00000   0.00000
 246       71H+3        0.00000   0.00000   0.00000  -0.00000   0.00000
 247       71H-3        0.00000   0.00000  -0.00000   0.00000   0.00000
 248       71H+4        0.00000  -0.00000   0.00000   0.00000   0.00000
 249       71H-4        0.00000   0.00000   0.00000   0.00000   0.00000
 250       71H+5        0.00000   0.00000   0.00000   0.00000   0.00000
 251       71H-5        0.00000   0.00000   0.00000   0.00000   0.00000
 252       72H 0       -0.00000  -0.00050   0.00000   0.00000  -0.00059
 253       72H+1        0.00000   0.00000   0.00000   0.00034   0.00000
 254       72H-1        0.00000   0.00000   0.00034   0.00000   0.00000
 255       72H+2       -0.00008   0.00000   0.00000   0.00000  -0.00000
 256       72H-2        0.00000   0.00000   0.00000   0.00000   0.00000
 257       72H+3        0.00000   0.00000   0.00000   0.00000   0.00000
 258       72H-3        0.00000   0.00000   0.00000   0.00000   0.00000
 259       72H+4        0.00000   0.00000   0.00000   0.00000  -0.00000
 260       72H-4        0.00000   0.00000   0.00000   0.00000   0.00000
 261       72H+5        0.00000   0.00000   0.00000   0.00000   0.00000
 262       72H-5        0.00000   0.00000   0.00000   0.00000   0.00000
 263 2   O  1S         -0.00000  -0.00000   0.00000   0.00000  -0.00000
 264        2S         -0.00000  -0.00000   0.00000   0.00000  -0.00000
 265        3S         -0.00000  -0.00001   0.00000   0.00000  -0.00001
 266        4S         -0.00000  -0.00007   0.00000   0.00000  -0.00005
 267        5S         -0.00000  -0.00015   0.00000   0.00000  -0.00015
 268        6S          0.00000   0.00076   0.00000   0.00000  -0.00007
 269        7S          0.00000   0.00448   0.00000   0.00000   0.00057
 270        8S          0.00000   0.07209   0.00000   0.00000   0.04977
 271        9S          0.00000   0.02245   0.00000   0.00000   0.01906
 272       10S         -0.00000  -0.06963   0.00000   0.00000  -0.06022
 273       11S         -0.00000  -0.14203   0.00000   0.00000  -0.11952
 274       12S         -0.00000  -0.09958   0.00000   0.00000  -0.13340
 275       13S         -0.00000  -0.05490   0.00000   0.00000  -0.03602
 276       14S         -0.00000  -0.00397   0.00000   0.00000  -0.00090
 277       15S         -0.00000  -0.00066   0.00000   0.00000  -0.00017
 278       16S          0.00000  -0.00153   0.00000   0.00000  -0.04623
 279       17PX         0.00000   0.00000   0.00000  -0.00206   0.00000
 280       17PY         0.00000   0.00000  -0.00206   0.00000   0.00000
 281       17PZ        -0.00000  -0.00049   0.00000   0.00000  -0.00170
 282       18PX         0.00000   0.00000   0.00000  -0.25959   0.00000
 283       18PY         0.00000   0.00000  -0.25959   0.00000   0.00000
 284       18PZ        -0.00000  -0.06339   0.00000   0.00000  -0.21535
 285       19PX         0.00000   0.00000   0.00000   0.13893   0.00000
 286       19PY         0.00000   0.00000   0.13893   0.00000   0.00000
 287       19PZ         0.00000   0.02285   0.00000   0.00000   0.10363
 288       20PX         0.00000   0.00000   0.00000   0.30585   0.00000
 289       20PY         0.00000   0.00000   0.30585   0.00000   0.00000
 290       20PZ         0.00000   0.05360   0.00000   0.00000   0.23209
 291       21PX         0.00000   0.00000   0.00000   0.39487   0.00000
 292       21PY         0.00000   0.00000   0.39487   0.00000   0.00000
 293       21PZ         0.00000   0.06086   0.00000   0.00000   0.29636
 294       22PX         0.00000   0.00000   0.00000   0.29261   0.00000
 295       22PY         0.00000   0.00000   0.29261   0.00000   0.00000
 296       22PZ         0.00000   0.02822   0.00000   0.00000   0.19953
 297       23PX         0.00000   0.00000   0.00000   0.29579   0.00000
 298       23PY         0.00000   0.00000   0.29579   0.00000   0.00000
 299       23PZ         0.00000   0.06978   0.00000   0.00000   0.24286
 300       24PX         0.00000   0.00000   0.00000   0.00775   0.00000
 301       24PY         0.00000   0.00000   0.00775   0.00000   0.00000
 302       24PZ         0.00000   0.00156   0.00000   0.00000   0.00610
 303       25PX         0.00000   0.00000   0.00000   0.00129   0.00000
 304       25PY         0.00000   0.00000   0.00129   0.00000   0.00000
 305       25PZ         0.00000   0.00024   0.00000   0.00000   0.00100
 306       26PX         0.00000   0.00000   0.00000   0.04637   0.00000
 307       26PY         0.00000   0.00000   0.04637   0.00000   0.00000
 308       26PZ         0.00000   0.00276   0.00000   0.00000   0.02928
 309       27D 0        0.00000   0.00116   0.00000   0.00000   0.00146
 310       27D+1        0.00000   0.00000   0.00000   0.00140   0.00000
 311       27D-1        0.00000   0.00000   0.00140   0.00000   0.00000
 312       27D+2        0.00013  -0.00000   0.00000   0.00000   0.00000
 313       27D-2        0.00000   0.00000   0.00000   0.00000   0.00000
 314       28D 0        0.00000   0.00667   0.00000   0.00000   0.00756
 315       28D+1        0.00000   0.00000   0.00000   0.00736   0.00000
 316       28D-1        0.00000   0.00000   0.00736   0.00000   0.00000
 317       28D+2        0.00087  -0.00000   0.00000   0.00000   0.00000
 318       28D-2        0.00000   0.00000   0.00000   0.00000   0.00000
 319       29D 0        0.00000   0.00818   0.00000   0.00000   0.01651
 320       29D+1        0.00000   0.00000   0.00000   0.02307   0.00000
 321       29D-1        0.00000   0.00000   0.02307   0.00000   0.00000
 322       29D+2        0.00187  -0.00000   0.00000   0.00000   0.00000
 323       29D-2        0.00000   0.00000   0.00000   0.00000   0.00000
 324       30D 0        0.00000   0.00016   0.00000   0.00000   0.00018
 325       30D+1        0.00000   0.00000   0.00000   0.00016   0.00000
 326       30D-1        0.00000   0.00000   0.00016   0.00000   0.00000
 327       30D+2        0.00002  -0.00000   0.00000   0.00000  -0.00000
 328       30D-2        0.00000   0.00000   0.00000   0.00000   0.00000
 329       31D 0       -0.00000  -0.00000   0.00000   0.00000  -0.00000
 330       31D+1        0.00000   0.00000   0.00000  -0.00000   0.00000
 331       31D-1        0.00000   0.00000  -0.00000   0.00000   0.00000
 332       31D+2       -0.00000  -0.00000   0.00000   0.00000   0.00000
 333       31D-2        0.00000   0.00000   0.00000   0.00000   0.00000
 334       32D 0        0.00000   0.00340   0.00000   0.00000   0.01051
 335       32D+1        0.00000   0.00000   0.00000   0.01797   0.00000
 336       32D-1        0.00000   0.00000   0.01797   0.00000   0.00000
 337       32D+2       -0.00019   0.00000   0.00000   0.00000  -0.00000
 338       32D-2        0.00000   0.00000   0.00000   0.00000   0.00000
 339       33F 0        0.00000   0.00078   0.00000   0.00000   0.00092
 340       33F+1        0.00000   0.00000   0.00000   0.00089   0.00000
 341       33F-1        0.00000   0.00000   0.00089   0.00000   0.00000
 342       33F+2        0.00008  -0.00000   0.00000   0.00000   0.00000
 343       33F-2        0.00000   0.00000   0.00000   0.00000   0.00000
 344       33F+3        0.00000   0.00000   0.00000  -0.00000   0.00000
 345       33F-3        0.00000   0.00000  -0.00000   0.00000   0.00000
 346       34F 0        0.00000   0.00326   0.00000   0.00000   0.00389
 347       34F+1        0.00000   0.00000   0.00000   0.00559   0.00000
 348       34F-1        0.00000   0.00000   0.00559   0.00000   0.00000
 349       34F+2        0.00085  -0.00000   0.00000   0.00000  -0.00000
 350       34F-2        0.00000   0.00000   0.00000   0.00000   0.00000
 351       34F+3        0.00000   0.00000   0.00000   0.00000   0.00000
 352       34F-3        0.00000   0.00000   0.00000   0.00000   0.00000
 353       35F 0        0.00000   0.00001   0.00000   0.00000   0.00002
 354       35F+1        0.00000   0.00000   0.00000   0.00002   0.00000
 355       35F-1        0.00000   0.00000   0.00002   0.00000   0.00000
 356       35F+2        0.00000  -0.00000   0.00000   0.00000   0.00000
 357       35F-2        0.00000   0.00000   0.00000   0.00000   0.00000
 358       35F+3        0.00000   0.00000   0.00000  -0.00000   0.00000
 359       35F-3        0.00000   0.00000  -0.00000   0.00000   0.00000
 360       36F 0        0.00000   0.00101   0.00000   0.00000   0.00534
 361       36F+1        0.00000   0.00000   0.00000   0.00598   0.00000
 362       36F-1        0.00000   0.00000   0.00598   0.00000   0.00000
 363       36F+2        0.00026  -0.00000   0.00000   0.00000   0.00000
 364       36F-2        0.00000   0.00000   0.00000   0.00000   0.00000
 365       36F+3        0.00000   0.00000   0.00000  -0.00000   0.00000
 366       36F-3        0.00000   0.00000  -0.00000   0.00000   0.00000
 367       37G 0        0.00000   0.00054   0.00000   0.00000   0.00006
 368       37G+1        0.00000   0.00000   0.00000   0.00034   0.00000
 369       37G-1        0.00000   0.00000   0.00034   0.00000   0.00000
[...]
 164       61F+3        0.00000   0.00000   0.00000   0.00000
 165       61F-3        0.00000   0.00000   0.00000   0.00000
 166       62F 0        0.00001   0.00001   0.00001   0.00000
 167       62F+1        0.00001   0.00000   0.00000   0.00000
 168       62F-1        0.00001   0.00000   0.00000   0.00000
 169       62F+2        0.00000   0.00000   0.00000   0.00000
 170       62F-2        0.00000   0.00000   0.00000   0.00000
 171       62F+3        0.00000   0.00000   0.00000   0.00000
 172       62F-3        0.00000   0.00000   0.00000   0.00000
 173       63F 0        0.00010   0.00005   0.00005   0.00000
 174       63F+1        0.00007   0.00003   0.00003   0.00000
 175       63F-1        0.00007   0.00003   0.00003   0.00000
 176       63F+2        0.00002   0.00001   0.00001   0.00000
 177       63F-2        0.00002   0.00001   0.00001   0.00000
 178       63F+3        0.00000   0.00000   0.00000   0.00000
 179       63F-3       -0.00000  -0.00000  -0.00000   0.00000
 180       64F 0        0.00169   0.00084   0.00084   0.00000
 181       64F+1        0.00157   0.00078   0.00078   0.00000
 182       64F-1        0.00157   0.00078   0.00078   0.00000
 183       64F+2        0.00008   0.00004   0.00004   0.00000
 184       64F-2        0.00008   0.00004   0.00004   0.00000
 185       64F+3        0.00000   0.00000   0.00000   0.00000
 186       64F-3        0.00000   0.00000   0.00000   0.00000
 187       65F 0        0.00238   0.00119   0.00119   0.00000
 188       65F+1        0.00643   0.00322   0.00322   0.00000
 189       65F-1        0.00643   0.00322   0.00322   0.00000
 190       65F+2        0.00008   0.00004   0.00004   0.00000
 191       65F-2        0.00008   0.00004   0.00004   0.00000
 192       65F+3       -0.00000  -0.00000  -0.00000   0.00000
 193       65F-3       -0.00000  -0.00000  -0.00000   0.00000
 194       66G 0        0.00000   0.00000   0.00000   0.00000
 195       66G+1        0.00000   0.00000   0.00000   0.00000
 196       66G-1        0.00000   0.00000   0.00000   0.00000
 197       66G+2        0.00000   0.00000   0.00000   0.00000
 198       66G-2        0.00000   0.00000   0.00000   0.00000
 199       66G+3        0.00000   0.00000   0.00000   0.00000
 200       66G-3        0.00000   0.00000   0.00000   0.00000
 201       66G+4        0.00000   0.00000   0.00000   0.00000
 202       66G-4       -0.00000  -0.00000  -0.00000   0.00000
 203       67G 0        0.00000   0.00000   0.00000   0.00000
 204       67G+1        0.00000   0.00000   0.00000   0.00000
 205       67G-1        0.00000   0.00000   0.00000   0.00000
 206       67G+2       -0.00000  -0.00000  -0.00000   0.00000
 207       67G-2       -0.00000  -0.00000  -0.00000   0.00000
 208       67G+3       -0.00000  -0.00000  -0.00000   0.00000
 209       67G-3       -0.00000  -0.00000  -0.00000   0.00000
 210       67G+4        0.00000   0.00000   0.00000   0.00000
 211       67G-4        0.00000   0.00000   0.00000   0.00000
 212       68G 0        0.00001   0.00001   0.00001   0.00000
 213       68G+1        0.00000   0.00000   0.00000   0.00000
 214       68G-1        0.00000   0.00000   0.00000   0.00000
 215       68G+2        0.00000   0.00000   0.00000   0.00000
 216       68G-2        0.00000   0.00000   0.00000   0.00000
 217       68G+3       -0.00000  -0.00000  -0.00000   0.00000
 218       68G-3       -0.00000  -0.00000  -0.00000   0.00000
 219       68G+4        0.00000   0.00000   0.00000   0.00000
 220       68G-4       -0.00000  -0.00000  -0.00000   0.00000
 221       69G 0        0.00039   0.00020   0.00020   0.00000
 222       69G+1        0.00038   0.00019   0.00019   0.00000
 223       69G-1        0.00038   0.00019   0.00019   0.00000
 224       69G+2        0.00000   0.00000   0.00000   0.00000
 225       69G-2        0.00000   0.00000   0.00000   0.00000
 226       69G+3       -0.00000  -0.00000  -0.00000   0.00000
 227       69G-3       -0.00000  -0.00000  -0.00000   0.00000
 228       69G+4       -0.00000  -0.00000  -0.00000   0.00000
 229       69G-4        0.00000   0.00000   0.00000   0.00000
 230       70H 0        0.00000   0.00000   0.00000   0.00000
 231       70H+1        0.00000   0.00000   0.00000   0.00000
 232       70H-1        0.00000   0.00000   0.00000   0.00000
 233       70H+2        0.00000   0.00000   0.00000   0.00000
 234       70H-2        0.00000   0.00000   0.00000   0.00000
 235       70H+3       -0.00000  -0.00000  -0.00000   0.00000
 236       70H-3       -0.00000  -0.00000  -0.00000   0.00000
 237       70H+4        0.00000   0.00000   0.00000   0.00000
 238       70H-4       -0.00000  -0.00000  -0.00000   0.00000
 239       70H+5        0.00000   0.00000   0.00000   0.00000
 240       70H-5       -0.00000  -0.00000  -0.00000   0.00000
 241       71H 0       -0.00000  -0.00000  -0.00000   0.00000
 242       71H+1       -0.00000  -0.00000  -0.00000   0.00000
 243       71H-1       -0.00000  -0.00000  -0.00000   0.00000
 244       71H+2       -0.00000  -0.00000  -0.00000   0.00000
 245       71H-2       -0.00000  -0.00000  -0.00000   0.00000
 246       71H+3        0.00000   0.00000   0.00000   0.00000
 247       71H-3       -0.00000  -0.00000  -0.00000   0.00000
 248       71H+4       -0.00000  -0.00000  -0.00000   0.00000
 249       71H-4       -0.00000  -0.00000  -0.00000   0.00000
 250       71H+5        0.00000   0.00000   0.00000   0.00000
 251       71H-5       -0.00000  -0.00000  -0.00000   0.00000
 252       72H 0        0.00002   0.00001   0.00001   0.00000
 253       72H+1        0.00001   0.00000   0.00000   0.00000
 254       72H-1        0.00001   0.00000   0.00000   0.00000
 255       72H+2        0.00000   0.00000   0.00000   0.00000
 256       72H-2        0.00000   0.00000   0.00000   0.00000
 257       72H+3       -0.00000  -0.00000  -0.00000   0.00000
 258       72H-3        0.00000   0.00000   0.00000   0.00000
 259       72H+4       -0.00000  -0.00000  -0.00000   0.00000
 260       72H-4        0.00000   0.00000   0.00000   0.00000
 261       72H+5       -0.00000  -0.00000  -0.00000   0.00000
 262       72H-5        0.00000   0.00000   0.00000   0.00000
 263 2   O  1S          0.00000   0.00000   0.00000   0.00000
 264        2S          0.00000   0.00000   0.00000   0.00000
 265        3S          0.00000   0.00000   0.00000   0.00000
 266        4S          0.00000   0.00000   0.00000   0.00000
 267        5S          0.00002   0.00001   0.00001   0.00000
 268        6S         -0.00006  -0.00003  -0.00003   0.00000
 269        7S         -0.00139  -0.00069  -0.00069   0.00000
 270        8S         -0.10062  -0.05031  -0.05031   0.00000
 271        9S         -0.07605  -0.03803  -0.03803   0.00000
 272       10S          0.44674   0.22337   0.22337   0.00000
 273       11S          1.07563   0.53782   0.53782   0.00000
 274       12S          0.54013   0.27006   0.27006   0.00000
 275       13S          0.06410   0.03205   0.03205   0.00000
 276       14S          0.00110   0.00055   0.00055   0.00000
 277       15S          0.00008   0.00004   0.00004   0.00000
 278       16S          0.03378   0.01689   0.01689   0.00000
 279       17PX        -0.00030  -0.00015  -0.00015   0.00000
 280       17PY        -0.00030  -0.00015  -0.00015   0.00000
 281       17PZ        -0.00020  -0.00010  -0.00010   0.00000
 282       18PX        -0.13280  -0.06640  -0.06640   0.00000
 283       18PY        -0.13280  -0.06640  -0.06640   0.00000
 284       18PZ        -0.08962  -0.04481  -0.04481   0.00000
 285       19PX         0.14968   0.07484   0.07484   0.00000
 286       19PY         0.14968   0.07484   0.07484   0.00000
 287       19PZ         0.09117   0.04558   0.04558   0.00000
 288       20PX         0.49340   0.24670   0.24670   0.00000
 289       20PY         0.49340   0.24670   0.24670   0.00000
 290       20PZ         0.31830   0.15915   0.15915   0.00000
 291       21PX         0.72176   0.36088   0.36088   0.00000
 292       21PY         0.72176   0.36088   0.36088   0.00000
 293       21PZ         0.49130   0.24565   0.24565   0.00000
 294       22PX         0.44350   0.22175   0.22175   0.00000
 295       22PY         0.44350   0.22175   0.22175   0.00000
 296       22PZ         0.30776   0.15388   0.15388   0.00000
 297       23PX         0.15273   0.07636   0.07636   0.00000
 298       23PY         0.15273   0.07636   0.07636   0.00000
 299       23PZ         0.10191   0.05095   0.05095   0.00000
 300       24PX         0.00162   0.00081   0.00081   0.00000
 301       24PY         0.00162   0.00081   0.00081   0.00000
 302       24PZ         0.00102   0.00051   0.00051   0.00000
 303       25PX         0.00009   0.00005   0.00005   0.00000
 304       25PY         0.00009   0.00005   0.00005   0.00000
 305       25PZ         0.00006   0.00003   0.00003   0.00000
 306       26PX         0.04020   0.02010   0.02010   0.00000
 307       26PY         0.04020   0.02010   0.02010   0.00000
 308       26PZ         0.03445   0.01722   0.01722   0.00000
 309       27D 0        0.00008   0.00004   0.00004   0.00000
 310       27D+1        0.00005   0.00002   0.00002   0.00000
 311       27D-1        0.00005   0.00002   0.00002   0.00000
 312       27D+2        0.00000   0.00000   0.00000   0.00000
 313       27D-2        0.00000   0.00000   0.00000   0.00000
 314       28D 0        0.00191   0.00095   0.00095   0.00000
 315       28D+1        0.00095   0.00048   0.00048   0.00000
 316       28D-1        0.00095   0.00048   0.00048   0.00000
 317       28D+2        0.00002   0.00001   0.00001   0.00000
 318       28D-2        0.00002   0.00001   0.00001   0.00000
 319       29D 0        0.00494   0.00247   0.00247   0.00000
 320       29D+1        0.00480   0.00240   0.00240   0.00000
 321       29D-1        0.00480   0.00240   0.00240   0.00000
 322       29D+2        0.00018   0.00009   0.00009   0.00000
 323       29D-2        0.00018   0.00009   0.00009   0.00000
 324       30D 0        0.00000   0.00000   0.00000   0.00000
 325       30D+1        0.00000   0.00000   0.00000   0.00000
 326       30D-1        0.00000   0.00000   0.00000   0.00000
 327       30D+2        0.00000   0.00000   0.00000   0.00000
 328       30D-2        0.00000   0.00000   0.00000   0.00000
 329       31D 0       -0.00000  -0.00000  -0.00000   0.00000
 330       31D+1       -0.00000  -0.00000  -0.00000   0.00000
 331       31D-1       -0.00000  -0.00000  -0.00000   0.00000
 332       31D+2       -0.00000  -0.00000  -0.00000   0.00000
 333       31D-2       -0.00000  -0.00000  -0.00000   0.00000
 334       32D 0        0.00230   0.00115   0.00115   0.00000
 335       32D+1        0.00315   0.00158   0.00158   0.00000
 336       32D-1        0.00315   0.00158   0.00158   0.00000
 337       32D+2       -0.00003  -0.00002  -0.00002   0.00000
 338       32D-2       -0.00003  -0.00002  -0.00002   0.00000
 339       33F 0        0.00004   0.00002   0.00002   0.00000
 340       33F+1        0.00002   0.00001   0.00001   0.00000
 341       33F-1        0.00002   0.00001   0.00001   0.00000
 342       33F+2        0.00000   0.00000   0.00000   0.00000
 343       33F-2        0.00000   0.00000   0.00000   0.00000
 344       33F+3        0.00000   0.00000   0.00000   0.00000
 345       33F-3       -0.00000  -0.00000  -0.00000   0.00000
 346       34F 0        0.00092   0.00046   0.00046   0.00000
 347       34F+1        0.00070   0.00035   0.00035   0.00000
 348       34F-1        0.00070   0.00035   0.00035   0.00000
 349       34F+2        0.00006   0.00003   0.00003   0.00000
 350       34F-2        0.00006   0.00003   0.00003   0.00000
 351       34F+3       -0.00000  -0.00000  -0.00000   0.00000
 352       34F-3       -0.00000  -0.00000  -0.00000   0.00000
 353       35F 0        0.00000   0.00000   0.00000   0.00000
 354       35F+1        0.00000   0.00000   0.00000   0.00000
 355       35F-1        0.00000   0.00000   0.00000   0.00000
 356       35F+2        0.00000   0.00000   0.00000   0.00000
 357       35F-2        0.00000   0.00000   0.00000   0.00000
 358       35F+3       -0.00000  -0.00000  -0.00000   0.00000
 359       35F-3       -0.00000  -0.00000  -0.00000   0.00000
 360       36F 0       -0.00046  -0.00023  -0.00023   0.00000
 361       36F+1        0.00035   0.00018   0.00018   0.00000
 362       36F-1        0.00035   0.00018   0.00018   0.00000
 363       36F+2        0.00007   0.00004   0.00004   0.00000
 364       36F-2        0.00007   0.00004   0.00004   0.00000
 365       36F+3       -0.00000  -0.00000  -0.00000   0.00000
 366       36F-3       -0.00000  -0.00000  -0.00000   0.00000
 367       37G 0        0.00004   0.00002   0.00002   0.00000
 368       37G+1        0.00002   0.00001   0.00001   0.00000
 369       37G-1        0.00002   0.00001   0.00001   0.00000
 370       37G+2        0.00000   0.00000   0.00000   0.00000
 371       37G-2        0.00000   0.00000   0.00000   0.00000
 372       37G+3        0.00000   0.00000   0.00000   0.00000
 373       37G-3        0.00000   0.00000   0.00000   0.00000
 374       37G+4        0.00000   0.00000   0.00000   0.00000
 375       37G-4        0.00000   0.00000   0.00000   0.00000
 376       38G 0        0.00012   0.00006   0.00006   0.00000
 377       38G+1        0.00023   0.00011   0.00011   0.00000
 378       38G-1        0.00023   0.00011   0.00011   0.00000
 379       38G+2        0.00005   0.00003   0.00003   0.00000
 380       38G-2        0.00005   0.00003   0.00003   0.00000
 381       38G+3        0.00000   0.00000   0.00000   0.00000
 382       38G-3        0.00000   0.00000   0.00000   0.00000
 383       38G+4       -0.00000  -0.00000  -0.00000   0.00000
 384       38G-4       -0.00000  -0.00000  -0.00000   0.00000
          Condensed to atoms (all electrons):
               1          2
     1  Zn  18.732413   0.257041
     2  O    0.257041   6.753505
          Atomic-Atomic Spin Densities.
               1          2
     1  Zn   0.000000   0.000000
     2  O    0.000000   0.000000
 Mulliken charges and spin densities:
               1          2
     1  Zn   1.010546   0.000000
     2  O   -1.010546   0.000000
 Sum of Mulliken charges =  -0.00000   0.00000
 Mulliken charges and spin densities with hydrogens summed into heavy atoms:
               1          2
     1  Zn   1.010546   0.000000
     2  O   -1.010546   0.000000
 Electronic spatial extent (au):  <R**2>=             84.7207
 Charge=              0.0000 electrons
 Dipole moment (field-independent basis, Debye):
    X=              0.0000    Y=              0.0000    Z=              7.1490  Tot=              7.1490
 Quadrupole moment (field-independent basis, Debye-Ang):
   XX=            -17.9374   YY=            -17.9374   ZZ=            -21.1948
   XY=              0.0000   XZ=              0.0000   YZ=              0.0000
 Traceless Quadrupole moment (field-independent basis, Debye-Ang):
   XX=              1.0858   YY=              1.0858   ZZ=             -2.1716
   XY=              0.0000   XZ=              0.0000   YZ=              0.0000
 Octapole moment (field-independent basis, Debye-Ang**2):
  XXX=              0.0000  YYY=              0.0000  ZZZ=             22.0911  XYY=              0.0000
  XXY=              0.0000  XXZ=              5.8969  XZZ=              0.0000  YZZ=              0.0000
  YYZ=              5.8969  XYZ=              0.0000
 Hexadecapole moment (field-independent basis, Debye-Ang**3):
 XXXX=            -18.9478 YYYY=            -18.9478 ZZZZ=            -87.9157 XXXY=              0.0000
 XXXZ=              0.0000 YYYX=              0.0000 YYYZ=              0.0000 ZZZX=              0.0000
 ZZZY=              0.0000 XXYY=             -6.3159 XXZZ=            -17.7946 YYZZ=            -17.7946
 XXYZ=              0.0000 YYXZ=              0.0000 ZZXY=              0.0000
 N-N= 3.968829081900D+01 E-N=-6.796573426613D+02  KE= 1.657429897159D+02
 Symmetry A1   KE= 6.705682730288D+01
 Symmetry A2   KE= 2.247764738238D+01
 Symmetry B1   KE= 3.810425751664D+01
 Symmetry B2   KE= 3.810425751548D+01
 Symmetry A1   SP= 0.000000000000D+00
 Symmetry A2   SP= 0.000000000000D+00
 Symmetry B1   SP= 0.000000000000D+00
 Symmetry B2   SP= 0.000000000000D+00
 Orbital energies and kinetic energies (alpha):
                                 1                 2
   9         O                -0.822041         11.238824
  10         O                -0.798893         10.304626
  11         O                -0.396724          2.394338
  12         O                -0.396724          2.394338
  13         O                -0.383779          1.739861
  14         V                -0.046503          0.744876
  15         V                 0.024561          0.089260
  16         V                 0.024561          0.089260
  17         V                 0.024626          0.193308
  18         V                 0.042051          0.045124
 Total kinetic energy from orbitals= 1.657429897159D+02
                          Isotropic Fermi Contact Couplings
        Atom                 a.u.       MegaHertz       Gauss      10(-4) cm-1
     1  Zn(67)             0.00000       0.00000       0.00000       0.00000
     2  O(17)              0.00000      -0.00000      -0.00000      -0.00000
 --------------------------------------------------------
       Center         ----  Spin Dipole Couplings  ----
                      3XX-RR        3YY-RR        3ZZ-RR
 --------------------------------------------------------
     1   Atom        0.000000      0.000000      0.000000
     2   Atom        0.000000      0.000000      0.000000
 --------------------------------------------------------
                        XY            XZ            YZ
 --------------------------------------------------------
     1   Atom        0.000000      0.000000      0.000000
     2   Atom        0.000000      0.000000      0.000000
 --------------------------------------------------------


 ---------------------------------------------------------------------------------
              Anisotropic Spin Dipole Couplings in Principal Axis System
 ---------------------------------------------------------------------------------

       Atom             a.u.   MegaHertz   Gauss  10(-4) cm-1        Axes

              Baa     0.0000     0.000     0.000     0.000  1.0000  0.0000  0.0000
     1 Zn(67) Bbb     0.0000     0.000     0.000     0.000 -0.0000  1.0000  0.0000
              Bcc     0.0000     0.000     0.000     0.000  0.0000  0.0000  1.0000
 
              Baa     0.0000    -0.000    -0.000    -0.000  1.0000  0.0000  0.0000
     2 O(17)  Bbb     0.0000    -0.000    -0.000    -0.000 -0.0000  1.0000  0.0000
              Bcc     0.0000    -0.000    -0.000    -0.000  0.0000  0.0000  1.0000
 

 ---------------------------------------------------------------------------------

 No NMR shielding tensors so no spin-rotation constants.
 Leave Link  601 at Wed Mar 28 02:36:49 2018, MaxMem= 10737418240 cpu:             199.3 elap:               6.5
 (Enter /home1/apps/gaussian/16rA.03/g16/l9999.exe)

 Test job not archived.
 1\1\GINC-C401-012\SP\ROCCSD(T)-Full\Gen\O1Zn1\GWANG18\28-Mar-2018\0\\#
 P ROCCSD(T)=(MaxCyc=150, Full)/Gen SCF=(maxcycle=400) Pseudo=Read Inte
 gral(NoXCTest) Pop=Regular MaxDisk=500GB Guess=Read IOp(5/15=2)\\ZnO\\
 0,1\Zn,0,0.,0.,0.\O,0,0.,0.,1.6\\Version=ES64L-G16RevA.03\State=1-SG\H
 F=-241.6499897\MP2=-243.0563472\MP3=-242.8773393\PUHF=-241.6499897\PMP
 2-0=-243.0563472\MP4SDQ=-242.9847995\CCSD=-242.9379728\CCSD(T)=-242.98
 92163\RMSD=5.565e-09\PG=C*V [C*(O1Zn1)]\\@


 ALMOST ANYTHING IS EASIER TO GET INTO THAN OUT OF.

                         -- AGNES ALLEN'S LAW FROM
                PAUL DICKSON'S "THE OFFICIAL RULES"
 Job cpu time:       3 days  0 hours 51 minutes 33.8 seconds.
 Elapsed time:       0 days  2 hours 17 minutes 11.5 seconds.
 File lengths (MBytes):  RWF=  17256 Int=      0 D2E=      0 Chk=     18 Scr=      1
 Normal termination of Gaussian 16 at Wed Mar 28 02:36:50 2018.
