 Entering Gaussian System, Link 0=g16
 Initial command:
 /home1/apps/gaussian/16rA.03/g16/l1.exe "/tmp/Gau-113202.inp" -scrdir="/tmp/"
 Entering Link 1 = /home1/apps/gaussian/16rA.03/g16/l1.exe PID=    113203.
  
 Copyright (c) 1988,1990,1992,1993,1995,1998,2003,2009,2016,
            Gaussian, Inc.  All Rights Reserved.
  
 This is part of the Gaussian(R) 16 program.  It is based on
 the Gaussian(R) 09 system (copyright 2009, Gaussian, Inc.),
 the Gaussian(R) 03 system (copyright 2003, Gaussian, Inc.),
 the Gaussian(R) 98 system (copyright 1998, Gaussian, Inc.),
 the Gaussian(R) 94 system (copyright 1995, Gaussian, Inc.),
 the Gaussian 92(TM) system (copyright 1992, Gaussian, Inc.),
 the Gaussian 90(TM) system (copyright 1990, Gaussian, Inc.),
 the Gaussian 88(TM) system (copyright 1988, Gaussian, Inc.),
 the Gaussian 86(TM) system (copyright 1986, Carnegie Mellon
 University), and the Gaussian 82(TM) system (copyright 1983,
 Carnegie Mellon University). Gaussian is a federally registered
 trademark of Gaussian, Inc.
  
 This software contains proprietary and confidential information,
 including trade secrets, belonging to Gaussian, Inc.
  
 This software is provided under written license and may be
 used, copied, transmitted, or stored only in accord with that
 written license.
  
 The following legend is applicable only to US Government
 contracts under FAR:
  
                    RESTRICTED RIGHTS LEGEND
  
 Use, reproduction and disclosure by the US Government is
 subject to restrictions as set forth in subparagraphs (a)
 and (c) of the Commercial Computer Software - Restricted
 Rights clause in FAR 52.227-19.
  
 Gaussian, Inc.
 340 Quinnipiac St., Bldg. 40, Wallingford CT 06492
  
  
 ---------------------------------------------------------------
 Warning -- This program may not be used in any manner that
 competes with the business of Gaussian, Inc. or will provide
 assistance to any competitor of Gaussian, Inc.  The licensee
 of this program is prohibited from giving any competitor of
 Gaussian, Inc. access to this program.  By using this program,
 the user acknowledges that Gaussian, Inc. is engaged in the
 business of creating and licensing software in the field of
 computational chemistry and represents and warrants to the
 licensee that it is not a competitor of Gaussian, Inc. and that
 it will not use this program in any manner prohibited above.
 ---------------------------------------------------------------
  

 Cite this work as:
 Gaussian 16, Revision A.03,
 M. J. Frisch, G. W. Trucks, H. B. Schlegel, G. E. Scuseria, 
 M. A. Robb, J. R. Cheeseman, G. Scalmani, V. Barone, 
 G. A. Petersson, H. Nakatsuji, X. Li, M. Caricato, A. V. Marenich, 
 J. Bloino, B. G. Janesko, R. Gomperts, B. Mennucci, H. P. Hratchian, 
 J. V. Ortiz, A. F. Izmaylov, J. L. Sonnenberg, D. Williams-Young, 
 F. Ding, F. Lipparini, F. Egidi, J. Goings, B. Peng, A. Petrone, 
 T. Henderson, D. Ranasinghe, V. G. Zakrzewski, J. Gao, N. Rega, 
 G. Zheng, W. Liang, M. Hada, M. Ehara, K. Toyota, R. Fukuda, 
 J. Hasegawa, M. Ishida, T. Nakajima, Y. Honda, O. Kitao, H. Nakai, 
 T. Vreven, K. Throssell, J. A. Montgomery, Jr., J. E. Peralta, 
 F. Ogliaro, M. J. Bearpark, J. J. Heyd, E. N. Brothers, K. N. Kudin, 
 V. N. Staroverov, T. A. Keith, R. Kobayashi, J. Normand, 
 K. Raghavachari, A. P. Rendell, J. C. Burant, S. S. Iyengar, 
 J. Tomasi, M. Cossi, J. M. Millam, M. Klene, C. Adamo, R. Cammi, 
 J. W. Ochterski, R. L. Martin, K. Morokuma, O. Farkas, 
 J. B. Foresman, and D. J. Fox, Gaussian, Inc., Wallingford CT, 2016.
 
 ******************************************
 Gaussian 16:  ES64L-G16RevA.03 25-Dec-2016
                27-Mar-2018 
 ******************************************
 %mem=80GB
 %cpu=0-31
 SetSPE:  set environment variable "MP_BIND" = "yes"
 SetSPE:  set environment variable "MP_BLIST" = "0,1,2,3,4,5,6,7,8,9,10,11,12,13,14,15,16,17,18,19,20,21,22,23,24,25,26,27,28,29,30,31"
 Will use up to   32 processors via shared memory.
 %chk=tz.chk
 %rwf=/scratch/04843/gwang18/zno/
 ----------------------------------------------------------------------
 #P ROCCSD(T)=(MaxCyc=150, Full)/Gen SCF=(maxcycle=400) Pseudo=Read Int
 egral(NoXCTest) Pop=Regular MaxDisk=500GB Guess=Read IOp(5/15=2)
 ----------------------------------------------------------------------
 1/38=1,172=1/1;
 2/12=2,17=6,18=5,40=1/2;
 3/5=7,11=2,16=1,17=8,25=1,30=1,47=8,116=101/1,2,3;
 4/5=1/1;
 5/5=2,7=400,15=2,38=6/2;
 8/5=-1,6=4,9=120000,10=90/1,4;
 9/5=7,6=150,14=2/13;
 6//1;
 99/5=1,9=1/99;
 Leave Link    1 at Tue Mar 27 23:30:28 2018, MaxMem= 10737418240 cpu:               9.6 elap:               0.3
 (Enter /home1/apps/gaussian/16rA.03/g16/l101.exe)
 ---
 ZnO
 ---
 Symbolic Z-matrix:
 Charge =  0 Multiplicity = 1
 Zn                    0.        0.        0. 
 O                     0.        0.        1.6 
 
 ITRead=  0  0
 MicOpt= -1 -1
 NAtoms=      2 NQM=        2 NQMF=       0 NMMI=      0 NMMIF=      0
                NMic=       0 NMicF=      0.
                    Isotopes and Nuclear Properties:
 (Nuclear quadrupole moments (NQMom) in fm**2, nuclear magnetic moments (NMagM)
  in nuclear magnetons)

  Atom         1           2
 IAtWgt=          64          16
 AtmWgt=  63.9291454  15.9949146
 NucSpn=           0           0
 AtZEff=  -0.0000000  -0.0000000
 NQMom=    0.0000000   0.0000000
 NMagM=    0.0000000   0.0000000
 AtZNuc=  30.0000000   8.0000000
 Leave Link  101 at Tue Mar 27 23:30:28 2018, MaxMem= 10737418240 cpu:               3.6 elap:               0.2
 (Enter /home1/apps/gaussian/16rA.03/g16/l202.exe)
                          Input orientation:                          
 ---------------------------------------------------------------------
 Center     Atomic      Atomic             Coordinates (Angstroms)
 Number     Number       Type             X           Y           Z
 ---------------------------------------------------------------------
      1         30           0        0.000000    0.000000    0.000000
      2          8           0        0.000000    0.000000    1.600000
 ---------------------------------------------------------------------
 Stoichiometry    OZn
 Framework group  C*V[C*(OZn)]
 Deg. of freedom     1
 Full point group                 C*V     NOp   4
 Largest Abelian subgroup         C2V     NOp   4
 Largest concise Abelian subgroup C1      NOp   1
                         Standard orientation:                         
 ---------------------------------------------------------------------
 Center     Atomic      Atomic             Coordinates (Angstroms)
 Number     Number       Type             X           Y           Z
 ---------------------------------------------------------------------
      1         30           0        0.000000    0.000000    0.336842
      2          8           0        0.000000    0.000000   -1.263158
 ---------------------------------------------------------------------
 Rotational constants (GHZ):           0.0000000          15.4302849          15.4302849
 Leave Link  202 at Tue Mar 27 23:30:29 2018, MaxMem= 10737418240 cpu:               0.8 elap:               0.1
 (Enter /home1/apps/gaussian/16rA.03/g16/l301.exe)
 General basis read from cards:  (5D, 7F)
 Centers:       1
 S 1 1.00
     Exponent=  5.8200210000D+06 Coefficients=  1.0000000000D+00
 S 1 1.00
     Exponent=  8.7152340000D+05 Coefficients=  1.0000000000D+00
 S 1 1.00
     Exponent=  1.9833500000D+05 Coefficients=  1.0000000000D+00
 S 1 1.00
     Exponent=  5.6176310000D+04 Coefficients=  1.0000000000D+00
 S 1 1.00
     Exponent=  1.8325820000D+04 Coefficients=  1.0000000000D+00
 S 1 1.00
     Exponent=  6.6149550000D+03 Coefficients=  1.0000000000D+00
 S 1 1.00
     Exponent=  2.5791990000D+03 Coefficients=  1.0000000000D+00
 S 1 1.00
     Exponent=  1.0688490000D+03 Coefficients=  1.0000000000D+00
 S 1 1.00
     Exponent=  4.6510450000D+02 Coefficients=  1.0000000000D+00
 S 1 1.00
     Exponent=  2.1041300000D+02 Coefficients=  1.0000000000D+00
 S 1 1.00
     Exponent=  9.7616290000D+01 Coefficients=  1.0000000000D+00
 S 1 1.00
     Exponent=  4.4380200000D+01 Coefficients=  1.0000000000D+00
 S 1 1.00
     Exponent=  2.1423080000D+01 Coefficients=  1.0000000000D+00
 S 1 1.00
     Exponent=  1.0308910000D+01 Coefficients=  1.0000000000D+00
 S 1 1.00
     Exponent=  4.5536450000D+00 Coefficients=  1.0000000000D+00
 S 1 1.00
     Exponent=  2.1328210000D+00 Coefficients=  1.0000000000D+00
 S 1 1.00
     Exponent=  9.2969700000D-01 Coefficients=  1.0000000000D+00
 S 1 1.00
     Exponent=  1.9214700000D-01 Coefficients=  1.0000000000D+00
 S 1 1.00
     Exponent=  8.7595000000D-02 Coefficients=  1.0000000000D+00
 S 1 1.00
     Exponent=  3.7702000000D-02 Coefficients=  1.0000000000D+00
 S 1 1.00
     Exponent=  7.0381000000D+00 Coefficients=  1.0000000000D+00
 S 1 1.00
     Exponent=  1.8099000000D+00 Coefficients=  1.0000000000D+00
 S 1 1.00
     Exponent=  1.6230000000D-02 Coefficients=  1.0000000000D+00
 P 1 1.00
     Exponent=  2.4411980000D+04 Coefficients=  1.0000000000D+00
 P 1 1.00
     Exponent=  5.7785180000D+03 Coefficients=  1.0000000000D+00
 P 1 1.00
     Exponent=  1.8768620000D+03 Coefficients=  1.0000000000D+00
 P 1 1.00
     Exponent=  7.1823610000D+02 Coefficients=  1.0000000000D+00
 P 1 1.00
     Exponent=  3.0483270000D+02 Coefficients=  1.0000000000D+00
 P 1 1.00
     Exponent=  1.3904530000D+02 Coefficients=  1.0000000000D+00
 P 1 1.00
     Exponent=  6.6804170000D+01 Coefficients=  1.0000000000D+00
 P 1 1.00
     Exponent=  3.3206990000D+01 Coefficients=  1.0000000000D+00
 P 1 1.00
     Exponent=  1.6928160000D+01 Coefficients=  1.0000000000D+00
 P 1 1.00
     Exponent=  8.6962290000D+00 Coefficients=  1.0000000000D+00
 P 1 1.00
     Exponent=  4.3505100000D+00 Coefficients=  1.0000000000D+00
 P 1 1.00
     Exponent=  2.1165230000D+00 Coefficients=  1.0000000000D+00
 P 1 1.00
     Exponent=  9.9538700000D-01 Coefficients=  1.0000000000D+00
 P 1 1.00
     Exponent=  3.7811200000D-01 Coefficients=  1.0000000000D+00
 P 1 1.00
     Exponent=  1.3457900000D-01 Coefficients=  1.0000000000D+00
 P 1 1.00
     Exponent=  4.6282000000D-02 Coefficients=  1.0000000000D+00
 P 1 1.00
     Exponent=  1.0150100000D+01 Coefficients=  1.0000000000D+00
 P 1 1.00
     Exponent=  2.3451000000D+00 Coefficients=  1.0000000000D+00
 P 1 1.00
     Exponent=  1.5920000000D-02 Coefficients=  1.0000000000D+00
 D 1 1.00
     Exponent=  2.0561770000D+02 Coefficients=  1.0000000000D+00
 D 1 1.00
     Exponent=  6.1449810000D+01 Coefficients=  1.0000000000D+00
 D 1 1.00
     Exponent=  2.3056890000D+01 Coefficients=  1.0000000000D+00
 D 1 1.00
     Exponent=  9.5777390000D+00 Coefficients=  1.0000000000D+00
 D 1 1.00
     Exponent=  4.1337340000D+00 Coefficients=  1.0000000000D+00
 D 1 1.00
     Exponent=  1.7475180000D+00 Coefficients=  1.0000000000D+00
 D 1 1.00
     Exponent=  6.9956000000D-01 Coefficients=  1.0000000000D+00
 D 1 1.00
     Exponent=  2.5160800000D-01 Coefficients=  1.0000000000D+00
 D 1 1.00
     Exponent=  7.7440000000D+00 Coefficients=  1.0000000000D+00
 D 1 1.00
     Exponent=  3.9663000000D+00 Coefficients=  1.0000000000D+00
 D 1 1.00
     Exponent=  9.0490000000D-02 Coefficients=  1.0000000000D+00
 F 1 1.00
     Exponent=  1.0327000000D+01 Coefficients=  1.0000000000D+00
 F 1 1.00
     Exponent=  4.0202000000D+00 Coefficients=  1.0000000000D+00
 F 1 1.00
     Exponent=  1.4851000000D+00 Coefficients=  1.0000000000D+00
 F 1 1.00
     Exponent=  5.4861000000D-01 Coefficients=  1.0000000000D+00
 G 1 1.00
     Exponent=  9.2538000000D+00 Coefficients=  1.0000000000D+00
 G 1 1.00
     Exponent=  4.1144000000D+00 Coefficients=  1.0000000000D+00
 G 1 1.00
     Exponent=  1.8293300000D+00 Coefficients=  1.0000000000D+00
 ****
 Centers:       2
 S 1 1.00
     Exponent=  1.5330000000D+04 Coefficients=  1.0000000000D+00
 S 1 1.00
     Exponent=  2.2990000000D+03 Coefficients=  1.0000000000D+00
 S 1 1.00
     Exponent=  5.2240000000D+02 Coefficients=  1.0000000000D+00
 S 1 1.00
     Exponent=  1.4730000000D+02 Coefficients=  1.0000000000D+00
 S 1 1.00
     Exponent=  4.7550000000D+01 Coefficients=  1.0000000000D+00
 S 1 1.00
     Exponent=  1.6760000000D+01 Coefficients=  1.0000000000D+00
 S 1 1.00
     Exponent=  6.2070000000D+00 Coefficients=  1.0000000000D+00
 S 1 1.00
     Exponent=  6.8820000000D-01 Coefficients=  1.0000000000D+00
 S 1 1.00
     Exponent=  1.7520000000D+00 Coefficients=  1.0000000000D+00
 S 1 1.00
     Exponent=  2.3840000000D-01 Coefficients=  1.0000000000D+00
 S 1 1.00
     Exponent=  7.8450000000D+00 Coefficients=  1.0000000000D+00
 S 1 1.00
     Exponent=  2.1032000000D+01 Coefficients=  1.0000000000D+00
 S 1 1.00
     Exponent=  7.3760000000D-02 Coefficients=  1.0000000000D+00
 P 1 1.00
     Exponent=  3.4460000000D+01 Coefficients=  1.0000000000D+00
 P 1 1.00
     Exponent=  7.7490000000D+00 Coefficients=  1.0000000000D+00
 P 1 1.00
     Exponent=  2.2800000000D+00 Coefficients=  1.0000000000D+00
 P 1 1.00
     Exponent=  7.1560000000D-01 Coefficients=  1.0000000000D+00
 P 1 1.00
     Exponent=  2.1400000000D-01 Coefficients=  1.0000000000D+00
 P 1 1.00
     Exponent=  1.5159000000D+01 Coefficients=  1.0000000000D+00
 P 1 1.00
     Exponent=  5.7437000000D+01 Coefficients=  1.0000000000D+00
 P 1 1.00
     Exponent=  5.9740000000D-02 Coefficients=  1.0000000000D+00
 D 1 1.00
     Exponent=  2.3140000000D+00 Coefficients=  1.0000000000D+00
 D 1 1.00
     Exponent=  6.4500000000D-01 Coefficients=  1.0000000000D+00
 D 1 1.00
     Exponent=  1.5858000000D+01 Coefficients=  1.0000000000D+00
 D 1 1.00
     Exponent=  2.1400000000D-01 Coefficients=  1.0000000000D+00
 F 1 1.00
     Exponent=  1.4280000000D+00 Coefficients=  1.0000000000D+00
 F 1 1.00
     Exponent=  5.0000000000D-01 Coefficients=  1.0000000000D+00
 ****
 ======================================================================================================
                                       Pseudopotential Parameters
 ======================================================================================================
  Center     Atomic      Valence      Angular      Power
  Number     Number     Electrons     Momentum     of R      Exponent        Coefficient   SO-Coeffient
 ======================================================================================================
    1         30           20
                                      G and up 
                                                     2        1.0000000        0.00000000    0.00000000
                                      S - G
                                                     2       34.1740010      399.98639900    0.00000000
                                                     2       14.4563710       85.48975000    0.00000000
                                      P - G
                                                     2       39.8886830       92.38107700    0.00000000
                                                     2       39.6550170      184.77117600    0.00000000
                                                     2       15.2905460       23.00254100    0.00000000
                                                     2       14.9035240       46.05742700    0.00000000
                                      D - G
                                                     2       43.7082960      -13.69073400    0.00000000
                                                     2       43.6985360      -20.54398000    0.00000000
                                                     2       15.1507180       -1.31615400    0.00000000
                                                     2       15.2824410       -1.83871500    0.00000000
                                      F - G
                                                     2        8.1600140       -0.37036000    0.00000000
                                                     2       12.2284220       -1.06294300    0.00000000
    2          8            6
                                      F and up 
                                                     2        1.0000000        0.00000000    0.00000000
                                      S - F
                                                     2       12.9686000       73.60860000    0.00000000
                                      P - F
                                                     2       15.2430000       -3.91720000    0.00000000
                                      D - F
                                                     2        9.6172000       -0.65590000    0.00000000
 ======================================================================================================
 Ernie: Thresh=  0.10000D-02 Tol=  0.10000D-05 Strict=F.
 There are   144 symmetry adapted cartesian basis functions of A1  symmetry.
 There are    30 symmetry adapted cartesian basis functions of A2  symmetry.
 There are    69 symmetry adapted cartesian basis functions of B1  symmetry.
 There are    69 symmetry adapted cartesian basis functions of B2  symmetry.
 There are   114 symmetry adapted basis functions of A1  symmetry.
 There are    27 symmetry adapted basis functions of A2  symmetry.
 There are    60 symmetry adapted basis functions of B1  symmetry.
 There are    60 symmetry adapted basis functions of B2  symmetry.
   261 basis functions,   312 primitive gaussians,   312 cartesian basis functions
    13 alpha electrons       13 beta electrons
       nuclear repulsion energy        39.6882908190 Hartrees.
 IExCor=    0 DFT=F Ex=HF Corr=None ExCW=0 ScaHFX=  1.000000
 ScaDFX=  1.000000  1.000000  1.000000  1.000000 ScalE2=  1.000000  1.000000
 IRadAn=      5 IRanWt=     -1 IRanGd=            0 ICorTp=0 IEmpDi=  4
 NAtoms=    2 NActive=    2 NUniq=    2 SFac= 1.00D+00 NAtFMM=   60 NAOKFM=F Big=F
 Integral buffers will be    131072 words long.
 Raffenetti 2 integral format.
 Two-electron integral symmetry is turned on.
 Leave Link  301 at Tue Mar 27 23:30:30 2018, MaxMem= 10737418240 cpu:               8.8 elap:               0.3
 (Enter /home1/apps/gaussian/16rA.03/g16/l302.exe)
 NPDir=0 NMtPBC=     1 NCelOv=     1 NCel=       1 NClECP=     1 NCelD=      1
         NCelK=      1 NCelE2=     1 NClLst=     1 CellRange=     0.0.
 One-electron integrals computed using PRISM.
 One-electron integral symmetry used in STVInt
   4 Symmetry operations used in ECPInt.
 ECPInt:  NShTT=    3828 NPrTT=    3828 LenC2=    3491 LenP2D=    3490.
 LDataN:  DoStor=T MaxTD1= 8 Len=  415
 NBasis=   261 RedAO= T EigKep=  3.30D-06  NBF=   114    27    60    60
 NBsUse=   261 1.00D-06 EigRej= -1.00D+00 NBFU=   114    27    60    60
 Leave Link  302 at Tue Mar 27 23:30:32 2018, MaxMem= 10737418240 cpu:              50.0 elap:               1.7
 (Enter /home1/apps/gaussian/16rA.03/g16/l303.exe)
 DipDrv:  MaxL=1.
 Leave Link  303 at Tue Mar 27 23:30:32 2018, MaxMem= 10737418240 cpu:               2.4 elap:               0.1
 (Enter /home1/apps/gaussian/16rA.03/g16/l401.exe)
 Initial guess from the checkpoint file:  "tz.chk"
 B after Tr=     0.000000    0.000000    0.000000
         Rot=    1.000000    0.000000    0.000000    0.000000 Ang=   0.00 deg.
 Guess basis will be translated and rotated to current coordinates.
 JPrj=2 DoOrth=T DoCkMO=T.
 Initial guess orbital symmetries:
       Occupied  (SG) (SG) (PI) (PI) (SG) (PI) (PI) (DLTA) (DLTA)
                 (SG) (PI) (PI) (SG)
       Virtual   (SG) (SG) (PI) (PI) (SG) (PI) (PI) (SG) (SG) (SG)
                 (PI) (PI) (DLTA) (DLTA) (PI) (PI) (SG) (PI) (PI)
                 (SG) (SG) (SG) (DLTA) (DLTA) (SG) (PI) (PI) (DLTA)
                 (DLTA) (PI) (PI) (SG) (PI) (PI) (PI) (PI) (SG)
                 (SG) (SG) (PHI) (PHI) (DLTA) (DLTA) (PI) (PI)
                 (PHI) (PHI) (SG) (DLTA) (DLTA) (SG) (PI) (PI)
                 (DLTA) (DLTA) (SG) (PI) (PI) (DLTA) (DLTA) (SG)
                 (PI) (PI) (SG) (PI) (PI) (SG) (PI) (PI) (SG) (SG)
                 (PHI) (PHI) (DLTA) (DLTA) (PI) (PI) (SG) (PHI)
                 (PHI) (DLTA) (DLTA) (PI) (PI) (SG) (DLTA) (DLTA)
                 (DLTA) (DLTA) (PI) (PI) (PI) (PI) (SG) (?A) (?A)
                 (PHI) (PHI) (SG) (DLTA) (DLTA) (SG) (PI) (PI)
                 (PI) (PI) (SG) (SG) (PHI) (PHI) (DLTA) (DLTA)
                 (PI) (PI) (SG) (PI) (PI) (SG) (DLTA) (DLTA) (SG)
                 (PI) (PI) (SG) (PI) (PI) (SG) (SG) (?A) (?A) (PHI)
                 (PHI) (DLTA) (DLTA) (PI) (PI) (SG) (DLTA) (DLTA)
                 (PI) (PI) (SG) (SG) (PHI) (PHI) (DLTA) (DLTA)
                 (PI) (PI) (SG) (PI) (PI) (SG) (SG) (PI) (PI) (SG)
                 (DLTA) (DLTA) (PI) (PI) (SG) (?A) (?A) (PHI) (PHI)
                 (DLTA) (DLTA) (PI) (PI) (SG) (DLTA) (DLTA) (PI)
                 (PI) (SG) (SG) (PI) (PI) (SG) (SG) (DLTA) (DLTA)
                 (PI) (PI) (SG) (PI) (PI) (SG) (PI) (PI) (SG) (SG)
                 (SG) (PI) (PI) (SG) (DLTA) (DLTA) (PI) (PI) (SG)
                 (SG) (SG) (PI) (PI) (SG) (PI) (PI) (SG) (SG) (SG)
                 (DLTA) (DLTA) (PI) (PI) (SG) (PI) (PI) (SG) (SG)
                 (SG) (PI) (PI) (SG) (SG) (PI) (PI) (SG) (SG) (SG)
                 (PI) (PI) (SG) (SG) (SG) (PI) (PI) (SG) (SG) (SG)
                 (PI) (PI) (SG) (SG) (SG) (SG) (SG)
 The electronic state of the initial guess is 1-SG.
 Leave Link  401 at Tue Mar 27 23:30:33 2018, MaxMem= 10737418240 cpu:              15.2 elap:               0.5
 (Enter /home1/apps/gaussian/16rA.03/g16/l502.exe)
 Keep R1 and R2 ints in memory in symmetry-blocked form, NReq=734602573.
 FoFCou: FMM=F IPFlag=           8 FMFlag=           0 FMFlg1=           0
         NFxFlg=           0 DoJE=F BraDBF=F KetDBF=F FulRan=T
         wScrn=  0.000000 ICntrl=       600 IOpCl=  0 I1Cent=           0 NGrid=           0
         NMat0=    1 NMatS0=  34191 NMatT0=    0 NMatD0=    1 NMtDS0=    0 NMtDT0=    0
 Petite list used in FoFCou.
 Restricted open shell SCF:
 Using DIIS extrapolation, IDIIS=  1040.
 NGot= 10737418240 LenX= 10437146893 LenY= 10437049108
 Requested convergence on RMS density matrix=1.00D-08 within 400 cycles.
 Requested convergence on MAX density matrix=1.00D-06.
 Requested convergence on             energy=1.00D-06.
 No special actions if energy rises.

 Cycle   1  Pass 1  IDiag  1:
 E= -241.646430426655    
 DIIS: error= 8.83D-09 at cycle   1 NSaved=   1.
 NSaved= 1 IEnMin= 1 EnMin= -241.646430426655     IErMin= 1 ErrMin= 8.83D-09
 ErrMax= 8.83D-09  0.00D+00 EMaxC= 1.00D-01 BMatC= 1.48D-14 BMatP= 1.48D-14
 IDIUse=1 WtCom= 1.00D+00 WtEn= 0.00D+00
 Coeff-Com:  0.100D+01
 Coeff:      0.100D+01
 Gap=     0.337 Goal=   None    Shift=    0.000
 RMSDP=3.42D-10 MaxDP=1.89D-08              OVMax= 4.21D-08

 SCF Done:  E(ROHF) =  -241.646430427     A.U. after    1 cycles
            NFock=  1  Conv=0.34D-09     -V/T= 2.4580
 <Sx>= 0.0000 <Sy>= 0.0000 <Sz>= 0.0000 <S**2>=-0.0000 S=-0.0000
 <L.S>=  0.00000000000    
 KE= 1.657328085120D+02 PE=-6.796359331976D+02 EE= 2.325684034399D+02
 Annihilation of the first spin contaminant:
 S**2 before annihilation    -0.0000,   after    -0.0000
 Leave Link  502 at Tue Mar 27 23:30:44 2018, MaxMem= 10737418240 cpu:             339.9 elap:              10.8
 (Enter /home1/apps/gaussian/16rA.03/g16/l801.exe)
 Windowed orbitals will be sorted by symmetry type.
 GenMOA:  NOpAll=  4 NOp2=4 NOpUse=  4 JSym2X=1
 FoFJK:  IHMeth= 1 ICntrl=       0 DoSepK=F KAlg= 0 I1Cent=           0 FoldK=F
 IRaf=         0 NMat=       1 IRICut=       1 DoRegI=T DoRafI=F ISym2E= 1 IDoP0=0 IntGTp=1.
 FoFCou: FMM=F IPFlag=           8 FMFlag=      100000 FMFlg1=           0
         NFxFlg=           0 DoJE=F BraDBF=F KetDBF=F FulRan=T
         wScrn=  0.000000 ICntrl=         0 IOpCl=  1 I1Cent=           0 NGrid=           0
         NMat0=    1 NMatS0=      1 NMatT0=    0 NMatD0=    1 NMtDS0=    0 NMtDT0=    0
 Petite list used in FoFCou.
 <Sx>= 0.0000 <Sy>= 0.0000 <Sz>= 0.0000 <S**2>= 0.0000 S= 0.0000
 Range of M.O.s used for correlation:     1   261
 NBasis=   261 NAE=    13 NBE=    13 NFC=     0 NFV=     0
 NROrb=    261 NOA=    13 NOB=    13 NVA=   248 NVB=   248

 **** Warning!!: The largest alpha MO coefficient is  0.20366595D+03


 **** Warning!!: The largest beta MO coefficient is  0.20366595D+03

 Singles contribution to E2=   -0.6400368085D-15
 Leave Link  801 at Tue Mar 27 23:30:49 2018, MaxMem= 10737418240 cpu:             134.6 elap:               4.3
 (Enter /home1/apps/gaussian/16rA.03/g16/l804.exe)
 Open-shell transformation, MDV= 10737418240 ITran=4 ISComp=2.
 Unit  1 TFree=       2048399 TCopy=       1664787.
 Semi-Direct transformation.
 ModeAB=           4 MOrb=            13 LenV=   10735329975
 LASXX=     28704759 LTotXX=    28704759 LenRXX=    57882687
 LTotAB=    29177928 MaxLAS=   160977492 LenRXY=           0
 NonZer=    86587446 LenScr=   130658304 LnRSAI=   160977492
 LnScr1=   242413568 LExtra=    16850756 Total=    608782807
 MaxDsk= 67108864000 SrtSym=           T ITran=            4
 DoSDTr:  NPSUse= 32
 JobTyp=1 Pass  1:  I=   1 to  13.
 (rs|ai) integrals will be sorted in core.
 Complete sort for first half transformation.
 First half transformation complete.
 Begin second half transformation for I=  10.
 Complete sort for second half transformation.
 Second half transformation complete.
 ModeAB=           4 MOrb=            13 LenV=   10735329975
 LASXX=     28704759 LTotXX=    28704759 LenRXX=    55043178
 LTotAB=    26338419 MaxLAS=   160977492 LenRXY=           0
 NonZer=    83747937 LenScr=   126383104 LnRSAI=   160977492
 LnScr1=   242413568 LExtra=    74733443 Total=    659550785
 MaxDsk= 67108864000 SrtSym=           T ITran=            4
 DoSDTr:  NPSUse= 32
 JobTyp=2 Pass  1:  I=   1 to  13.
 (rs|ai) integrals will be sorted in core.
 Complete sort for first half transformation.
 First half transformation complete.
 Begin second half transformation for I=  10.
 Complete sort for second half transformation.
 Second half transformation complete.
 Spin components of T(2) and E(2):
     alpha-alpha T2 =       0.3402180864D-01 E2=     -0.2021356887D+00
     alpha-beta  T2 =       0.1615685385D+00 E2=     -0.9340222053D+00
     beta-beta   T2 =       0.3402180864D-01 E2=     -0.2021356887D+00
 ANorm=    0.1108878783D+01
 E2 =    -0.1338293583D+01 EUMP2 =    -0.24298472400943D+03
 (S**2,0)=  0.00000D+00           (S**2,1)=  0.00000D+00
 E(PUHF)=      -0.24164643043D+03        E(PMP2)=      -0.24298472401D+03
 Leave Link  804 at Tue Mar 27 23:33:01 2018, MaxMem= 10737418240 cpu:            4233.3 elap:             132.5
 (Enter /home1/apps/gaussian/16rA.03/g16/l913.exe)
 CIDS:  MDV= 10737418240.
 IFCWin=0 IBDFC=1 NFBD=     0     0 NFCmp=     0     0 NFFFC=     0     0
 Using original routines for 1st iteration.
 Using DD4UQ or CC4UQ for 2nd and later iterations.
 Keep R2 and R3 ints in memory in symmetry-blocked form, NReq=734620701.
 FoFCou: FMM=F IPFlag=           8 FMFlag=           0 FMFlg1=           0
         NFxFlg=           0 DoJE=F BraDBF=F KetDBF=F FulRan=T
         wScrn=  0.000000 ICntrl=       600 IOpCl=  0 I1Cent=           0 NGrid=           0
         NMat0=    1 NMatS0=  34191 NMatT0=    0 NMatD0=    1 NMtDS0=    0 NMtDT0=    0
 Petite list used in FoFCou.
 CIDS: In Core Option IDoMem=           1.
 CCSD(T)
 =======
 Iterations= 150 Convergence= 0.100D-06
 Produce multiple copies of IABC intergrals
 Iteration Nr.   1
 **********************
 DD1Dir will call FoFMem   1 times, MxPair=       494
 NAB=   169 NAA=    78 NBB=    78.
 DD1Dir will call FoFMem   1 times, MxPair=       494
 NAB=   169 NAA=    78 NBB=    78.
 MP4(R+Q)= -0.17137002D+00
 Maximum subspace dimension=  5
 A-vector RMS=  2.6277940D-05 Max=  2.6737224D-02 conv= 1.00D-05.
 RLE energy=       -1.3337323817
 E3=        0.17594682D+00        EROMP3=      -0.24280877718D+03
 E4(SDQ)=  -0.11043718D+00        ROMP4(SDQ)=  -0.24291921436D+03
 VARIATIONAL ENERGIES WITH THE FIRST-ORDER WAVEFUNCTION:
 DE(Corr)=  -1.3337168     E(Corr)=     -242.98014721    
 NORM(A)=   0.11014867D+01
 Iteration Nr.   2
 **********************
 DD1Dir will call FoFMem   1 times, MxPair=       494
 NAB=   169 NAA=    78 NBB=    78.
 A-vector RMS=  4.9644255D-03 Max=  6.8390136D-02 conv= 1.00D-05.
 RLE energy=       -1.2844709060
 DE(Corr)=  -1.1524389     E(CORR)=     -242.79886931     Delta= 1.81D-01
 NORM(A)=   0.10925835D+01
 Iteration Nr.   3
 **********************
 DD1Dir will call FoFMem   1 times, MxPair=       494
 NAB=   169 NAA=    78 NBB=    78.
 A-vector RMS=  2.9620807D-03 Max=  3.8956668D-02 conv= 1.00D-05.
 RLE energy=       -1.2664646255
 DE(Corr)=  -1.1781245     E(CORR)=     -242.82455492     Delta=-2.57D-02
 NORM(A)=   0.10946652D+01
 Iteration Nr.   4
 **********************
 DD1Dir will call FoFMem   1 times, MxPair=       494
 NAB=   169 NAA=    78 NBB=    78.
 A-vector RMS=  2.8630696D-03 Max=  4.4350840D-02 conv= 1.00D-05.
 RLE energy=       -1.1885641988
 DE(Corr)=  -1.1904265     E(CORR)=     -242.83685693     Delta=-1.23D-02
 NORM(A)=   0.11144660D+01
 Iteration Nr.   5
 **********************
 DD1Dir will call FoFMem   1 times, MxPair=       494
 NAB=   169 NAA=    78 NBB=    78.
 A-vector RMS=  2.0007182D-03 Max=  3.2100216D-02 conv= 1.00D-05.
 RLE energy=       -1.2359280600
 DE(Corr)=  -1.2495818     E(CORR)=     -242.89601218     Delta=-5.92D-02
 NORM(A)=   0.11067553D+01
 Iteration Nr.   6
 **********************
 DD1Dir will call FoFMem   1 times, MxPair=       494
 NAB=   169 NAA=    78 NBB=    78.
 A-vector RMS=  8.3805244D-04 Max=  1.5191650D-02 conv= 1.00D-05.
 RLE energy=       -1.2255296058
 DE(Corr)=  -1.2169235     E(CORR)=     -242.86335393     Delta= 3.27D-02
 NORM(A)=   0.11115346D+01
 Iteration Nr.   7
 **********************
 DD1Dir will call FoFMem   1 times, MxPair=       494
 NAB=   169 NAA=    78 NBB=    78.
 A-vector RMS=  9.3571386D-05 Max=  1.5719963D-03 conv= 1.00D-05.
 RLE energy=       -1.2249330385
 DE(Corr)=  -1.2248000     E(CORR)=     -242.87123043     Delta=-7.88D-03
 NORM(A)=   0.11121365D+01
 Iteration Nr.   8
 **********************
 DD1Dir will call FoFMem   1 times, MxPair=       494
 NAB=   169 NAA=    78 NBB=    78.
 A-vector RMS=  4.3779526D-05 Max=  8.8791322D-04 conv= 1.00D-05.
 RLE energy=       -1.2249941031
 DE(Corr)=  -1.2250726     E(CORR)=     -242.87150302     Delta=-2.73D-04
 NORM(A)=   0.11123721D+01
 Iteration Nr.   9
 **********************
 DD1Dir will call FoFMem   1 times, MxPair=       494
 NAB=   169 NAA=    78 NBB=    78.
 A-vector RMS=  3.1976590D-05 Max=  5.8008117D-04 conv= 1.00D-05.
 RLE energy=       -1.2250025797
 DE(Corr)=  -1.2249617     E(CORR)=     -242.87139213     Delta= 1.11D-04
 NORM(A)=   0.11125024D+01
 Iteration Nr.  10
 **********************
 DD1Dir will call FoFMem   1 times, MxPair=       494
 NAB=   169 NAA=    78 NBB=    78.
 A-vector RMS=  1.6286373D-05 Max=  2.3116668D-04 conv= 1.00D-05.
 RLE energy=       -1.2249499915
 DE(Corr)=  -1.2249924     E(CORR)=     -242.87142281     Delta=-3.07D-05
 NORM(A)=   0.11125085D+01
 Iteration Nr.  11
 **********************
 DD1Dir will call FoFMem   1 times, MxPair=       494
 NAB=   169 NAA=    78 NBB=    78.
 A-vector RMS=  8.1674885D-06 Max=  1.6827984D-04 conv= 1.00D-05.
 RLE energy=       -1.2249803012
 DE(Corr)=  -1.2249881     E(CORR)=     -242.87141854     Delta= 4.27D-06
 NORM(A)=   0.11124773D+01
 Iteration Nr.  12
 **********************
 DD1Dir will call FoFMem   1 times, MxPair=       494
 NAB=   169 NAA=    78 NBB=    78.
 A-vector RMS=  2.6447991D-06 Max=  4.1248664D-05 conv= 1.00D-05.
 RLE energy=       -1.2249797241
 DE(Corr)=  -1.2249792     E(CORR)=     -242.87140964     Delta= 8.90D-06
 NORM(A)=   0.11124749D+01
 Iteration Nr.  13
 **********************
 DD1Dir will call FoFMem   1 times, MxPair=       494
 NAB=   169 NAA=    78 NBB=    78.
 A-vector RMS=  1.8131988D-06 Max=  2.5642616D-05 conv= 1.00D-05.
 RLE energy=       -1.2249778094
 DE(Corr)=  -1.2249789     E(CORR)=     -242.87140934     Delta= 2.98D-07
 NORM(A)=   0.11124771D+01
 Iteration Nr.  14
 **********************
 DD1Dir will call FoFMem   1 times, MxPair=       494
 NAB=   169 NAA=    78 NBB=    78.
 A-vector RMS=  9.6890939D-07 Max=  1.2026841D-05 conv= 1.00D-05.
 RLE energy=       -1.2249807884
 DE(Corr)=  -1.2249807     E(CORR)=     -242.87141116     Delta=-1.81D-06
 NORM(A)=   0.11124814D+01
 Iteration Nr.  15
 **********************
 DD1Dir will call FoFMem   1 times, MxPair=       494
 NAB=   169 NAA=    78 NBB=    78.
 A-vector RMS=  5.4434262D-07 Max=  8.7771134D-06 conv= 1.00D-05.
 RLE energy=       -1.2249812245
 DE(Corr)=  -1.2249808     E(CORR)=     -242.87141125     Delta=-9.59D-08
 NORM(A)=   0.11124832D+01
 CI/CC converged in   15 iterations to DelEn=-9.59D-08 Conv= 1.00D-07 ErrA1= 5.44D-07 Conv= 1.00D-05
 Wavefunction amplitudes converged. E(Corr)=     -242.87141125    
 Dominant configurations:
 ***********************
 Spin Case        I    J    A    B          Value
   ABAB          13   13   14   14      -0.111110D+00
 Largest amplitude= 1.11D-01
 Time for triples=    73093.91 seconds.
 T4(CCSD)= -0.58064619D-01
 T5(CCSD)=  0.93909220D-02
 CCSD(T)= -0.24292008495D+03
 Discarding MO integrals.
 Leave Link  913 at Wed Mar 28 00:19:32 2018, MaxMem= 10737418240 cpu:           88417.6 elap:            2790.2
 (Enter /home1/apps/gaussian/16rA.03/g16/l601.exe)
 Copying SCF densities to generalized density rwf, IOpCl= 0 IROHF=1.

 **********************************************************************

            Population analysis using the SCF density.

 **********************************************************************

 Orbital symmetries:
       Occupied  (SG) (SG) (PI) (PI) (SG) (PI) (PI) (DLTA) (DLTA)
                 (SG) (PI) (PI) (SG)
       Virtual   (SG) (SG) (PI) (PI) (SG) (PI) (PI) (SG) (SG) (SG)
                 (PI) (PI) (DLTA) (DLTA) (PI) (PI) (SG) (PI) (PI)
                 (SG) (SG) (SG) (DLTA) (DLTA) (SG) (PI) (PI) (DLTA)
                 (DLTA) (PI) (PI) (SG) (PI) (PI) (PI) (PI) (SG)
                 (SG) (SG) (PHI) (PHI) (DLTA) (DLTA) (PI) (PI)
                 (PHI) (PHI) (SG) (DLTA) (DLTA) (SG) (PI) (PI)
                 (DLTA) (DLTA) (SG) (PI) (PI) (DLTA) (DLTA) (SG)
                 (PI) (PI) (SG) (PI) (PI) (SG) (PI) (PI) (SG) (SG)
                 (PHI) (PHI) (DLTA) (DLTA) (PI) (PI) (SG) (PHI)
                 (PHI) (DLTA) (DLTA) (PI) (PI) (SG) (DLTA) (DLTA)
                 (DLTA) (DLTA) (PI) (PI) (PI) (PI) (SG) (?A) (?A)
                 (PHI) (PHI) (SG) (DLTA) (DLTA) (SG) (PI) (PI)
                 (PI) (PI) (SG) (SG) (PHI) (PHI) (DLTA) (DLTA)
                 (PI) (PI) (SG) (PI) (PI) (SG) (DLTA) (DLTA) (SG)
                 (PI) (PI) (SG) (PI) (PI) (SG) (SG) (?A) (?A) (PHI)
                 (PHI) (DLTA) (DLTA) (PI) (PI) (SG) (DLTA) (DLTA)
                 (PI) (PI) (SG) (SG) (PHI) (PHI) (DLTA) (DLTA)
                 (PI) (PI) (SG) (PI) (PI) (SG) (SG) (PI) (PI) (SG)
                 (DLTA) (DLTA) (PI) (PI) (SG) (?A) (?A) (PHI) (PHI)
                 (DLTA) (DLTA) (PI) (PI) (SG) (DLTA) (DLTA) (PI)
                 (PI) (SG) (SG) (PI) (PI) (SG) (SG) (DLTA) (DLTA)
                 (PI) (PI) (SG) (PI) (PI) (SG) (PI) (PI) (SG) (SG)
                 (SG) (PI) (PI) (SG) (DLTA) (DLTA) (PI) (PI) (SG)
                 (SG) (SG) (PI) (PI) (SG) (PI) (PI) (SG) (SG) (SG)
                 (DLTA) (DLTA) (PI) (PI) (SG) (PI) (PI) (SG) (SG)
                 (SG) (PI) (PI) (SG) (SG) (PI) (PI) (SG) (SG) (SG)
                 (PI) (PI) (SG) (SG) (SG) (PI) (PI) (SG) (SG) (SG)
                 (PI) (PI) (SG) (SG) (SG) (SG) (SG)
 The electronic state is 1-SG.
 Alpha  occ. eigenvalues --   -5.92543  -3.99880  -3.99527  -3.99527  -1.18394
 Alpha  occ. eigenvalues --   -0.83194  -0.83194  -0.82213  -0.82213  -0.79910
 Alpha  occ. eigenvalues --   -0.39661  -0.39661  -0.38396
 Alpha virt. eigenvalues --   -0.04662   0.02691   0.02712   0.02712   0.04683
 Alpha virt. eigenvalues --    0.09128   0.09128   0.13378   0.17702   0.22057
 Alpha virt. eigenvalues --    0.23739   0.23739   0.24732   0.24732   0.30081
 Alpha virt. eigenvalues --    0.30081   0.30620   0.34352   0.34352   0.39268
 Alpha virt. eigenvalues --    0.61357   0.64186   0.76915   0.76915   0.83527
 Alpha virt. eigenvalues --    0.88858   0.88858   0.88994   0.88994   0.98235
 Alpha virt. eigenvalues --    0.98235   1.01885   1.08909   1.08909   1.18065
 Alpha virt. eigenvalues --    1.18065   1.24382   1.37359   1.81143   1.82051
 Alpha virt. eigenvalues --    1.82051   1.82811   1.82811   2.02331   2.02331
 Alpha virt. eigenvalues --    2.20074   2.20074   2.27084   2.31501   2.31501
 Alpha virt. eigenvalues --    2.40082   2.51146   2.51146   2.52499   2.52499
 Alpha virt. eigenvalues --    2.55523   2.65249   2.65249   2.73712   2.73712
 Alpha virt. eigenvalues --    2.92889   3.28069   3.28069   3.42171   3.50407
 Alpha virt. eigenvalues --    3.50407   3.97603   4.05578   4.05578   4.93366
 Alpha virt. eigenvalues --    5.18919   5.34005   5.34005   5.43987   5.43987
 Alpha virt. eigenvalues --    5.59989   5.59989   5.65087   6.62403   6.62403
 Alpha virt. eigenvalues --    6.67212   6.67212   6.72673   6.72673   6.76077
 Alpha virt. eigenvalues --    7.15462   7.15462   7.18622   7.18622   7.24382
 Alpha virt. eigenvalues --    7.24382   7.31142   7.31142   7.40596   7.74091
 Alpha virt. eigenvalues --    7.74091   7.74724   7.74724   7.77444   7.82181
 Alpha virt. eigenvalues --    7.82181   8.10837   8.29049   8.29049   8.82645
 Alpha virt. eigenvalues --    8.82645   9.00215   9.61737  13.76363  13.76363
 Alpha virt. eigenvalues --   13.83368  13.83368  13.97494  13.97494  14.04844
 Alpha virt. eigenvalues --   14.59696  14.59696  15.24795  15.83122  15.83122
 Alpha virt. eigenvalues --   15.90502  15.95929  15.95929  16.20613  18.67093
 Alpha virt. eigenvalues --   18.67093  18.74357  19.33841  20.20855  20.20855
 Alpha virt. eigenvalues --   20.21232  20.21232  20.24726  20.24726  20.40066
 Alpha virt. eigenvalues --   20.40066  20.91213  30.77687  30.77687  30.89158
 Alpha virt. eigenvalues --   30.89158  31.12391  35.01670  36.19284  36.19284
 Alpha virt. eigenvalues --   36.24442  36.24442  36.25744  36.25744  36.33811
 Alpha virt. eigenvalues --   36.36250  36.36250  36.76408  39.87212  44.05572
 Alpha virt. eigenvalues --   44.05572  44.37123  44.38612  44.38612  44.45395
 Alpha virt. eigenvalues --   44.45395  45.02234  47.42587  47.42587  47.43187
 Alpha virt. eigenvalues --   47.43187  47.45604  47.45604  47.55598  47.55598
 Alpha virt. eigenvalues --   47.86258  55.55196  55.55196  55.66218  55.66218
 Alpha virt. eigenvalues --   55.88933  65.13854  67.07220  67.07220  67.44747
 Alpha virt. eigenvalues --   81.54523 100.14398 100.14398 100.24605 100.24605
 Alpha virt. eigenvalues --  100.45092 114.69574 114.69574 115.32668 120.40890
 Alpha virt. eigenvalues --  120.40890 120.63362 120.83750 162.43925 215.23670
 Alpha virt. eigenvalues --  215.23670 215.52507 217.67016 217.67016 217.75309
 Alpha virt. eigenvalues --  217.75309 217.92541 229.53690 251.34733 268.43952
 Alpha virt. eigenvalues --  268.43952 269.01667 384.06583 384.06583 384.32551
 Alpha virt. eigenvalues --  430.03465 494.52213 689.41066 689.41066 689.46371
 Alpha virt. eigenvalues --  689.46371 689.57969 708.89663 708.89663 709.14867
 Alpha virt. eigenvalues --  822.422191384.779991394.686291394.686291394.92631
 Alpha virt. eigenvalues -- 1656.766482995.652832995.652832995.869993569.38839
 Alpha virt. eigenvalues -- 5295.499307234.308767234.308767234.497118256.28418
 Alpha virt. eigenvalues -- **************************************************
 Alpha virt. eigenvalues -- **************************************************
 Alpha virt. eigenvalues -- ******************************
     Molecular Orbital Coefficients:
                           9        10        11        12        13
                           O         O         O         O         O
     Eigenvalues --    -0.82213  -0.79910  -0.39661  -0.39661  -0.38396
   1 1   Zn 1S         -0.00000   0.00000   0.00000   0.00000  -0.00000
   2        2S          0.00000   0.00000   0.00000   0.00000  -0.00000
   3        3S         -0.00000  -0.00000   0.00000   0.00000  -0.00000
   4        4S          0.00000   0.00000   0.00000   0.00000  -0.00000
   5        5S         -0.00000  -0.00000   0.00000   0.00000   0.00000
   6        6S         -0.00000   0.00000   0.00000   0.00000  -0.00001
   7        7S          0.00000  -0.00000   0.00000   0.00000   0.00001
   8        8S         -0.00000   0.00001   0.00000   0.00000  -0.00011
   9        9S         -0.00000  -0.00003   0.00000   0.00000   0.00020
  10       10S          0.00000   0.00011   0.00000   0.00000  -0.00086
  11       11S         -0.00000  -0.00034   0.00000   0.00000   0.00263
  12       12S          0.00000   0.00156   0.00000   0.00000  -0.01223
  13       13S         -0.00000  -0.00136   0.00000   0.00000   0.00901
  14       14S          0.00000  -0.01012   0.00000   0.00000   0.09287
  15       15S          0.00000   0.01224   0.00000   0.00000  -0.06905
  16       16S          0.00000  -0.00663   0.00000   0.00000  -0.04535
  17       17S         -0.00000   0.00918   0.00000   0.00000  -0.13539
  18       18S         -0.00000  -0.06462   0.00000   0.00000   0.31475
  19       19S          0.00000   0.01747   0.00000   0.00000   0.24885
  20       20S         -0.00000  -0.00087   0.00000   0.00000   0.04774
  21       21S         -0.00000  -0.00344   0.00000   0.00000   0.00543
  22       22S         -0.00000   0.03528   0.00000   0.00000  -0.16563
  23       23S          0.00000   0.00098   0.00000   0.00000   0.00027
  24       24PX         0.00000   0.00000   0.00000  -0.00000   0.00000
  25       24PY         0.00000   0.00000  -0.00000   0.00000   0.00000
  26       24PZ         0.00000  -0.00000   0.00000   0.00000   0.00000
  27       25PX         0.00000   0.00000   0.00000   0.00000   0.00000
  28       25PY         0.00000   0.00000   0.00000   0.00000   0.00000
  29       25PZ        -0.00000   0.00000   0.00000   0.00000   0.00000
  30       26PX         0.00000   0.00000   0.00000  -0.00000   0.00000
  31       26PY         0.00000   0.00000  -0.00000   0.00000   0.00000
  32       26PZ         0.00000  -0.00000   0.00000   0.00000   0.00000
  33       27PX         0.00000   0.00000   0.00000   0.00000   0.00000
  34       27PY         0.00000   0.00000   0.00000   0.00000   0.00000
  35       27PZ        -0.00000   0.00000   0.00000   0.00000   0.00000
  36       28PX         0.00000   0.00000   0.00000  -0.00002   0.00000
  37       28PY         0.00000   0.00000  -0.00002   0.00000   0.00000
  38       28PZ         0.00000  -0.00002   0.00000   0.00000   0.00001
  39       29PX         0.00000   0.00000   0.00000   0.00004   0.00000
  40       29PY         0.00000   0.00000   0.00004   0.00000   0.00000
  41       29PZ        -0.00000   0.00004   0.00000   0.00000  -0.00001
  42       30PX         0.00000   0.00000   0.00000  -0.00045   0.00000
  43       30PY         0.00000   0.00000  -0.00045   0.00000   0.00000
  44       30PZ         0.00000  -0.00022   0.00000   0.00000   0.00033
  45       31PX         0.00000   0.00000   0.00000   0.00125   0.00000
  46       31PY         0.00000   0.00000   0.00125   0.00000   0.00000
  47       31PZ        -0.00000   0.00067   0.00000   0.00000  -0.00082
  48       32PX         0.00000   0.00000   0.00000   0.00497   0.00000
  49       32PY         0.00000   0.00000   0.00497   0.00000   0.00000
  50       32PZ         0.00000  -0.00047   0.00000   0.00000  -0.00642
  51       33PX         0.00000   0.00000   0.00000  -0.01105   0.00000
  52       33PY         0.00000   0.00000  -0.01105   0.00000   0.00000
  53       33PZ         0.00000  -0.01728   0.00000   0.00000  -0.00404
  54       34PX         0.00000   0.00000   0.00000  -0.02365   0.00000
  55       34PY         0.00000   0.00000  -0.02365   0.00000   0.00000
  56       34PZ        -0.00000   0.00363   0.00000   0.00000   0.03123
  57       35PX         0.00000   0.00000   0.00000  -0.01814   0.00000
  58       35PY         0.00000   0.00000  -0.01814   0.00000   0.00000
  59       35PZ        -0.00000   0.05696   0.00000   0.00000   0.07461
  60       36PX         0.00000   0.00000   0.00000  -0.02613   0.00000
  61       36PY         0.00000   0.00000  -0.02613   0.00000   0.00000
  62       36PZ        -0.00000  -0.01605   0.00000   0.00000   0.01250
  63       37PX         0.00000   0.00000   0.00000   0.04620   0.00000
  64       37PY         0.00000   0.00000   0.04620   0.00000   0.00000
  65       37PZ         0.00000   0.01880   0.00000   0.00000  -0.03886
  66       38PX         0.00000   0.00000   0.00000   0.08652   0.00000
  67       38PY         0.00000   0.00000   0.08652   0.00000   0.00000
  68       38PZ        -0.00000  -0.01018   0.00000   0.00000   0.01962
  69       39PX         0.00000   0.00000   0.00000   0.02175   0.00000
  70       39PY         0.00000   0.00000   0.02175   0.00000   0.00000
  71       39PZ        -0.00000  -0.00624   0.00000   0.00000   0.02870
  72       40PX         0.00000   0.00000   0.00000   0.00680   0.00000
  73       40PY         0.00000   0.00000   0.00680   0.00000   0.00000
  74       40PZ        -0.00000   0.01457   0.00000   0.00000   0.00632
  75       41PX         0.00000   0.00000   0.00000  -0.01809   0.00000
  76       41PY         0.00000   0.00000  -0.01809   0.00000   0.00000
  77       41PZ         0.00000  -0.06711   0.00000   0.00000  -0.04043
  78       42PX         0.00000   0.00000   0.00000  -0.00463   0.00000
  79       42PY         0.00000   0.00000  -0.00463   0.00000   0.00000
  80       42PZ         0.00000   0.00100   0.00000   0.00000  -0.00491
  81       43D 0        0.00000   0.00137   0.00000   0.00000  -0.00019
  82       43D+1        0.00000   0.00000   0.00000   0.00025   0.00000
  83       43D-1        0.00000   0.00000   0.00025   0.00000   0.00000
  84       43D+2        0.00144  -0.00000   0.00000   0.00000  -0.00000
  85       43D-2        0.00000   0.00000   0.00000   0.00000   0.00000
  86       44D 0        0.00000   0.01677   0.00000   0.00000  -0.00234
  87       44D+1        0.00000   0.00000   0.00000   0.00317   0.00000
  88       44D-1        0.00000   0.00000   0.00317   0.00000   0.00000
  89       44D+2        0.01764  -0.00000   0.00000   0.00000  -0.00000
  90       44D-2        0.00000   0.00000   0.00000   0.00000   0.00000
  91       45D 0        0.00000   0.07612   0.00000   0.00000  -0.01045
  92       45D+1        0.00000   0.00000   0.00000   0.01418   0.00000
  93       45D-1        0.00000   0.00000   0.01418   0.00000   0.00000
  94       45D+2        0.08021  -0.00000   0.00000   0.00000  -0.00000
  95       45D-2        0.00000   0.00000   0.00000   0.00000   0.00000
  96       46D 0        0.00000   0.18339   0.00000   0.00000  -0.02808
  97       46D+1        0.00000   0.00000   0.00000   0.03727   0.00000
  98       46D-1        0.00000   0.00000   0.03727   0.00000   0.00000
  99       46D+2        0.19087  -0.00000   0.00000   0.00000   0.00000
 100       46D-2        0.00000   0.00000   0.00000   0.00000   0.00000
 101       47D 0        0.00000   0.25486   0.00000   0.00000  -0.08327
 102       47D+1        0.00000   0.00000   0.00000   0.09955   0.00000
 103       47D-1        0.00000   0.00000   0.09955   0.00000   0.00000
 104       47D+2        0.23211  -0.00000   0.00000   0.00000   0.00000
 105       47D-2        0.00000   0.00000   0.00000   0.00000   0.00000
 106       48D 0        0.00000   0.34251   0.00000   0.00000  -0.04986
 107       48D+1        0.00000   0.00000   0.00000   0.06736   0.00000
 108       48D-1        0.00000   0.00000   0.06736   0.00000   0.00000
 109       48D+2        0.35710  -0.00000   0.00000   0.00000  -0.00000
 110       48D-2        0.00000   0.00000   0.00000   0.00000   0.00000
 111       49D 0        0.00000   0.26289   0.00000   0.00000  -0.02509
 112       49D+1        0.00000   0.00000   0.00000   0.03720   0.00000
 113       49D-1        0.00000   0.00000   0.03720   0.00000   0.00000
 114       49D+2        0.27443  -0.00000   0.00000   0.00000   0.00000
 115       49D-2        0.00000   0.00000   0.00000   0.00000   0.00000
 116       50D 0        0.00000   0.10161   0.00000   0.00000  -0.01980
 117       50D+1        0.00000   0.00000   0.00000   0.01149   0.00000
 118       50D-1        0.00000   0.00000   0.01149   0.00000   0.00000
 119       50D+2        0.10079  -0.00000   0.00000   0.00000  -0.00000
 120       50D-2        0.00000   0.00000   0.00000   0.00000   0.00000
 121       51D 0       -0.00000   0.01287   0.00000   0.00000   0.00301
 122       51D+1        0.00000   0.00000   0.00000  -0.00265   0.00000
 123       51D-1        0.00000   0.00000  -0.00265   0.00000   0.00000
 124       51D+2        0.01743   0.00000   0.00000   0.00000  -0.00000
 125       51D-2        0.00000   0.00000   0.00000   0.00000   0.00000
 126       52D 0       -0.00000   0.05418   0.00000   0.00000   0.04023
 127       52D+1        0.00000   0.00000   0.00000  -0.04144   0.00000
 128       52D-1        0.00000   0.00000  -0.04144   0.00000   0.00000
 129       52D+2        0.09242   0.00000   0.00000   0.00000  -0.00000
 130       52D-2        0.00000   0.00000   0.00000   0.00000   0.00000
 131       53D 0       -0.00000   0.00887   0.00000   0.00000  -0.02200
 132       53D+1        0.00000   0.00000   0.00000  -0.00189   0.00000
 133       53D-1        0.00000   0.00000  -0.00189   0.00000   0.00000
 134       53D+2        0.00382  -0.00000   0.00000   0.00000   0.00000
 135       53D-2        0.00000   0.00000   0.00000   0.00000   0.00000
 136       54F 0        0.00000   0.00044   0.00000   0.00000  -0.00023
 137       54F+1        0.00000   0.00000   0.00000   0.00023   0.00000
 138       54F-1        0.00000   0.00000   0.00023   0.00000   0.00000
 139       54F+2        0.00038  -0.00000   0.00000   0.00000  -0.00000
 140       54F-2        0.00000   0.00000   0.00000   0.00000   0.00000
 141       54F+3        0.00000   0.00000   0.00000   0.00000   0.00000
 142       54F-3        0.00000   0.00000   0.00000   0.00000   0.00000
 143       55F 0        0.00000   0.00149   0.00000   0.00000  -0.00101
 144       55F+1        0.00000   0.00000   0.00000   0.00085   0.00000
 145       55F-1        0.00000   0.00000   0.00085   0.00000   0.00000
 146       55F+2        0.00116  -0.00000   0.00000   0.00000   0.00000
 147       55F-2        0.00000   0.00000   0.00000   0.00000   0.00000
 148       55F+3        0.00000   0.00000   0.00000  -0.00000   0.00000
 149       55F-3        0.00000   0.00000  -0.00000   0.00000   0.00000
 150       56F 0        0.00000   0.00242   0.00000   0.00000  -0.00292
 151       56F+1        0.00000   0.00000   0.00000   0.00281   0.00000
 152       56F-1        0.00000   0.00000   0.00281   0.00000   0.00000
 153       56F+2        0.00249   0.00000   0.00000   0.00000  -0.00000
 154       56F-2        0.00000   0.00000   0.00000   0.00000   0.00000
 155       56F+3        0.00000   0.00000   0.00000   0.00000   0.00000
 156       56F-3        0.00000   0.00000   0.00000   0.00000   0.00000
 157       57F 0        0.00000   0.00791   0.00000   0.00000  -0.00751
 158       57F+1        0.00000   0.00000   0.00000   0.01147   0.00000
 159       57F-1        0.00000   0.00000   0.01147   0.00000   0.00000
 160       57F+2        0.00674  -0.00000   0.00000   0.00000  -0.00000
 161       57F-2        0.00000   0.00000   0.00000   0.00000   0.00000
 162       57F+3        0.00000   0.00000   0.00000   0.00000   0.00000
 163       57F-3        0.00000   0.00000  -0.00000   0.00000   0.00000
 164       58G 0       -0.00000   0.00000   0.00000   0.00000   0.00003
 165       58G+1        0.00000   0.00000   0.00000  -0.00012   0.00000
 166       58G-1        0.00000   0.00000  -0.00012   0.00000   0.00000
 167       58G+2       -0.00002   0.00000   0.00000   0.00000  -0.00000
 168       58G-2        0.00000   0.00000   0.00000   0.00000   0.00000
 169       58G+3        0.00000   0.00000   0.00000  -0.00000   0.00000
 170       58G-3        0.00000   0.00000  -0.00000   0.00000   0.00000
 171       58G+4        0.00000   0.00000   0.00000   0.00000  -0.00000
 172       58G-4        0.00000   0.00000   0.00000   0.00000   0.00000
 173       59G 0       -0.00000  -0.00022   0.00000   0.00000   0.00003
 174       59G+1        0.00000   0.00000   0.00000   0.00033   0.00000
 175       59G-1        0.00000   0.00000   0.00033   0.00000   0.00000
 176       59G+2       -0.00005  -0.00000   0.00000   0.00000   0.00000
 177       59G-2        0.00000   0.00000   0.00000   0.00000   0.00000
 178       59G+3        0.00000   0.00000   0.00000   0.00000   0.00000
 179       59G-3        0.00000   0.00000   0.00000   0.00000   0.00000
 180       59G+4        0.00000   0.00000   0.00000   0.00000  -0.00000
 181       59G-4        0.00000   0.00000   0.00000   0.00000   0.00000
 182       60G 0        0.00000   0.00073   0.00000   0.00000   0.00034
 183       60G+1        0.00000   0.00000   0.00000  -0.00131   0.00000
 184       60G-1        0.00000   0.00000  -0.00131   0.00000   0.00000
 185       60G+2        0.00021  -0.00000   0.00000   0.00000   0.00000
 186       60G-2        0.00000   0.00000   0.00000   0.00000   0.00000
 187       60G+3        0.00000   0.00000   0.00000  -0.00000   0.00000
 188       60G-3        0.00000   0.00000  -0.00000   0.00000   0.00000
 189       60G+4       -0.00000  -0.00000   0.00000   0.00000   0.00000
 190       60G-4        0.00000   0.00000   0.00000   0.00000   0.00000
 191 2   O  1S          0.00000  -0.00000   0.00000   0.00000  -0.00000
 192        2S         -0.00000  -0.00002   0.00000   0.00000  -0.00001
 193        3S         -0.00000  -0.00007   0.00000   0.00000  -0.00006
 194        4S         -0.00000  -0.00039   0.00000   0.00000  -0.00031
 195        5S          0.00000   0.00016   0.00000   0.00000   0.00015
 196        6S         -0.00000   0.01317   0.00000   0.00000   0.01103
 197        7S          0.00000   0.04485   0.00000   0.00000   0.03648
 198        8S         -0.00000  -0.13670   0.00000   0.00000  -0.11814
 199        9S         -0.00000  -0.04422   0.00000   0.00000  -0.03758
 200       10S         -0.00000  -0.14825   0.00000   0.00000  -0.11638
 201       11S          0.00000  -0.00458   0.00000   0.00000  -0.00488
 202       12S         -0.00000  -0.01284   0.00000   0.00000  -0.01050
 203       13S         -0.00000  -0.03890   0.00000   0.00000  -0.01041
 204       14PX         0.00000   0.00000   0.00000   0.00784   0.00000
 205       14PY         0.00000   0.00000   0.00784   0.00000   0.00000
 206       14PZ         0.00000   0.00131   0.00000   0.00000   0.00590
 207       15PX         0.00000   0.00000   0.00000   0.08364   0.00000
 208       15PY         0.00000   0.00000   0.08364   0.00000   0.00000
 209       15PZ         0.00000   0.01417   0.00000   0.00000   0.06295
 210       16PX         0.00000   0.00000   0.00000   0.26958   0.00000
 211       16PY         0.00000   0.00000   0.26958   0.00000   0.00000
 212       16PZ         0.00000   0.04588   0.00000   0.00000   0.20239
 213       17PX         0.00000   0.00000   0.00000   0.42299   0.00000
 214       17PY         0.00000   0.00000   0.42299   0.00000   0.00000
 215       17PZ         0.00000   0.07238   0.00000   0.00000   0.32400
 216       18PX         0.00000   0.00000   0.00000   0.36536   0.00000
 217       18PY         0.00000   0.00000   0.36536   0.00000   0.00000
 218       18PZ         0.00000   0.02042   0.00000   0.00000   0.27120
 219       19PX         0.00000   0.00000   0.00000   0.00708   0.00000
 220       19PY         0.00000   0.00000   0.00708   0.00000   0.00000
 221       19PZ         0.00000   0.00132   0.00000   0.00000   0.00546
 222       20PX         0.00000   0.00000   0.00000   0.00175   0.00000
 223       20PY         0.00000   0.00000   0.00175   0.00000   0.00000
 224       20PZ         0.00000   0.00032   0.00000   0.00000   0.00134
 225       21PX         0.00000   0.00000   0.00000   0.06737   0.00000
 226       21PY         0.00000   0.00000   0.06737   0.00000   0.00000
 227       21PZ        -0.00000  -0.00505   0.00000   0.00000   0.05196
 228       22D 0        0.00000   0.00383   0.00000   0.00000   0.00449
 229       22D+1        0.00000   0.00000   0.00000   0.00394   0.00000
 230       22D-1        0.00000   0.00000   0.00394   0.00000   0.00000
 231       22D+2        0.00042  -0.00000   0.00000   0.00000   0.00000
 232       22D-2        0.00000   0.00000   0.00000   0.00000   0.00000
 233       23D 0        0.00000   0.01085   0.00000   0.00000   0.01634
 234       23D+1        0.00000   0.00000   0.00000   0.01951   0.00000
 235       23D-1        0.00000   0.00000   0.01951   0.00000   0.00000
 236       23D+2        0.00212   0.00000   0.00000   0.00000  -0.00000
 237       23D-2        0.00000   0.00000   0.00000   0.00000   0.00000
 238       24D 0        0.00000   0.00019   0.00000   0.00000   0.00023
 239       24D+1        0.00000   0.00000   0.00000   0.00022   0.00000
 240       24D-1        0.00000   0.00000   0.00022   0.00000   0.00000
 241       24D+2        0.00002  -0.00000   0.00000   0.00000   0.00000
 242       24D-2        0.00000   0.00000   0.00000   0.00000   0.00000
 243       25D 0       -0.00000   0.00098   0.00000   0.00000   0.01589
 244       25D+1        0.00000   0.00000   0.00000   0.02610   0.00000
 245       25D-1        0.00000   0.00000   0.02610   0.00000   0.00000
 246       25D+2       -0.00142   0.00000   0.00000   0.00000  -0.00000
 247       25D-2        0.00000   0.00000   0.00000   0.00000   0.00000
 248       26F 0        0.00000   0.00235   0.00000   0.00000   0.00285
 249       26F+1        0.00000   0.00000   0.00000   0.00300   0.00000
 250       26F-1        0.00000   0.00000   0.00300   0.00000   0.00000
 251       26F+2        0.00064   0.00000   0.00000   0.00000   0.00000
 252       26F-2        0.00000   0.00000   0.00000   0.00000   0.00000
 253       26F+3        0.00000   0.00000   0.00000   0.00000   0.00000
 254       26F-3        0.00000   0.00000   0.00000   0.00000   0.00000
 255       27F 0        0.00000   0.00192   0.00000   0.00000   0.00404
 256       27F+1        0.00000   0.00000   0.00000   0.00771   0.00000
 257       27F-1        0.00000   0.00000   0.00771   0.00000   0.00000
 258       27F+2        0.00019   0.00000   0.00000   0.00000  -0.00000
 259       27F-2        0.00000   0.00000   0.00000   0.00000   0.00000
 260       27F+3        0.00000   0.00000   0.00000  -0.00000   0.00000
 261       27F-3        0.00000   0.00000  -0.00000   0.00000   0.00000
                          14        15        16        17        18
                           V         V         V         V         V
     Eigenvalues --    -0.04662   0.02691   0.02712   0.02712   0.04683
   1 1   Zn 1S         -0.00000  -0.00000   0.00000   0.00000  -0.00000
   2        2S         -0.00000  -0.00000   0.00000   0.00000  -0.00000
   3        3S         -0.00000  -0.00000   0.00000   0.00000  -0.00000
   4        4S         -0.00000   0.00000   0.00000   0.00000   0.00000
   5        5S          0.00000  -0.00000   0.00000   0.00000  -0.00000
   6        6S         -0.00000   0.00000   0.00000   0.00000   0.00000
   7        7S          0.00000  -0.00001   0.00000   0.00000  -0.00000
   8        8S         -0.00003   0.00001   0.00000   0.00000   0.00000
   9        9S          0.00004  -0.00007   0.00000   0.00000  -0.00001
  10       10S         -0.00022   0.00010   0.00000   0.00000   0.00002
  11       11S          0.00070  -0.00015   0.00000   0.00000  -0.00002
  12       12S         -0.00349  -0.00068   0.00000   0.00000  -0.00013
  13       13S          0.00137  -0.00658   0.00000   0.00000  -0.00118
  14       14S          0.03885   0.07899   0.00000   0.00000   0.01446
  15       15S          0.00352   0.13300   0.00000   0.00000   0.02586
  16       16S         -0.11626  -0.58974   0.00000   0.00000  -0.13033
  17       17S         -0.07223  -0.19258   0.00000   0.00000  -0.06165
  18       18S          0.02333   0.36648   0.00000   0.00000   0.21292
  19       19S          0.32076  -0.64006   0.00000   0.00000   0.92504
  20       20S          0.22558   1.75857   0.00000   0.00000   2.89549
  21       21S         -0.01921  -0.12323   0.00000   0.00000  -0.02301
  22       22S          0.05762   0.56791   0.00000   0.00000   0.13554
  23       23S          0.30613  -1.62621   0.00000   0.00000  -2.01099
  24       24PX         0.00000   0.00000   0.00000   0.00000   0.00000
  25       24PY         0.00000   0.00000   0.00000   0.00000   0.00000
  26       24PZ        -0.00000  -0.00000   0.00000   0.00000  -0.00000
  27       25PX         0.00000   0.00000  -0.00000   0.00000   0.00000
  28       25PY         0.00000   0.00000   0.00000  -0.00000   0.00000
  29       25PZ         0.00000   0.00000   0.00000   0.00000   0.00000
  30       26PX         0.00000   0.00000   0.00000   0.00000   0.00000
  31       26PY         0.00000   0.00000   0.00000   0.00000   0.00000
  32       26PZ        -0.00000  -0.00000   0.00000   0.00000  -0.00000
  33       27PX         0.00000   0.00000  -0.00001   0.00000   0.00000
  34       27PY         0.00000   0.00000   0.00000  -0.00001   0.00000
  35       27PZ         0.00000   0.00000   0.00000   0.00000   0.00000
  36       28PX         0.00000   0.00000   0.00002   0.00000   0.00000
  37       28PY         0.00000   0.00000   0.00000   0.00002   0.00000
  38       28PZ        -0.00004  -0.00003   0.00000   0.00000  -0.00001
  39       29PX         0.00000   0.00000  -0.00007   0.00000   0.00000
  40       29PY         0.00000   0.00000   0.00000  -0.00007   0.00000
  41       29PZ         0.00007   0.00006   0.00000   0.00000   0.00003
  42       30PX         0.00000   0.00000   0.00009   0.00000   0.00000
  43       30PY         0.00000   0.00000   0.00000   0.00009   0.00000
  44       30PZ        -0.00082  -0.00050   0.00000   0.00000  -0.00017
  45       31PX         0.00000   0.00000  -0.00050   0.00000   0.00000
  46       31PY         0.00000   0.00000   0.00000  -0.00050   0.00000
  47       31PZ         0.00225   0.00146   0.00000   0.00000   0.00053
  48       32PX         0.00000   0.00000   0.00775   0.00000   0.00000
  49       32PY         0.00000   0.00000   0.00000   0.00775   0.00000
  50       32PZ         0.00922   0.00277   0.00000   0.00000  -0.00017
  51       33PX         0.00000   0.00000   0.03864   0.00000   0.00000
  52       33PY         0.00000   0.00000   0.00000   0.03864   0.00000
  53       33PZ        -0.01912  -0.02333   0.00000   0.00000  -0.01201
  54       34PX         0.00000   0.00000  -0.03949   0.00000   0.00000
  55       34PY         0.00000   0.00000   0.00000  -0.03949   0.00000
  56       34PZ        -0.04370  -0.01299   0.00000   0.00000   0.00024
  57       35PX         0.00000   0.00000  -0.18731   0.00000   0.00000
  58       35PY         0.00000   0.00000   0.00000  -0.18731   0.00000
  59       35PZ        -0.03358   0.02772   0.00000   0.00000   0.01447
  60       36PX         0.00000   0.00000   0.01772   0.00000   0.00000
  61       36PY         0.00000   0.00000   0.00000   0.01772   0.00000
  62       36PZ        -0.04794  -0.02618   0.00000   0.00000   0.00237
  63       37PX         0.00000   0.00000  -0.01512   0.00000   0.00000
  64       37PY         0.00000   0.00000   0.00000  -0.01512   0.00000
  65       37PZ         0.07775   0.02341   0.00000   0.00000  -0.05365
  66       38PX         0.00000   0.00000   0.16139   0.00000   0.00000
  67       38PY         0.00000   0.00000   0.00000   0.16139   0.00000
  68       38PZ         0.20253   0.09134   0.00000   0.00000  -0.44306
  69       39PX         0.00000   0.00000   0.03650   0.00000   0.00000
  70       39PY         0.00000   0.00000   0.00000   0.03650   0.00000
  71       39PZ         0.29290   0.50166   0.00000   0.00000  -1.13279
  72       40PX         0.00000   0.00000  -0.03537   0.00000   0.00000
  73       40PY         0.00000   0.00000   0.00000  -0.03537   0.00000
  74       40PZ         0.01145   0.01797   0.00000   0.00000   0.01005
  75       41PX         0.00000   0.00000   0.17175   0.00000   0.00000
  76       41PY         0.00000   0.00000   0.00000   0.17175   0.00000
  77       41PZ        -0.03215  -0.06242   0.00000   0.00000  -0.02614
  78       42PX         0.00000   0.00000   1.04025   0.00000   0.00000
  79       42PY         0.00000   0.00000   0.00000   1.04025   0.00000
  80       42PZ         0.12035  -0.93341   0.00000   0.00000   1.17222
  81       43D 0        0.00016   0.00008   0.00000   0.00000  -0.00002
  82       43D+1        0.00000   0.00000  -0.00006   0.00000   0.00000
  83       43D-1        0.00000   0.00000   0.00000  -0.00006   0.00000
  84       43D+2       -0.00000  -0.00000   0.00000   0.00000  -0.00000
  85       43D-2        0.00000   0.00000   0.00000   0.00000   0.00000
  86       44D 0        0.00195   0.00089   0.00000   0.00000  -0.00039
  87       44D+1        0.00000   0.00000  -0.00071   0.00000   0.00000
  88       44D-1        0.00000   0.00000   0.00000  -0.00071   0.00000
  89       44D+2        0.00000   0.00000   0.00000   0.00000   0.00000
  90       44D-2        0.00000   0.00000   0.00000   0.00000   0.00000
  91       45D 0        0.00873   0.00426   0.00000   0.00000  -0.00100
  92       45D+1        0.00000   0.00000  -0.00313   0.00000   0.00000
  93       45D-1        0.00000   0.00000   0.00000  -0.00313   0.00000
  94       45D+2       -0.00000  -0.00000   0.00000   0.00000   0.00000
  95       45D-2        0.00000   0.00000   0.00000   0.00000   0.00000
  96       46D 0        0.02307   0.00705   0.00000   0.00000  -0.01379
  97       46D+1        0.00000   0.00000  -0.00903   0.00000   0.00000
  98       46D-1        0.00000   0.00000   0.00000  -0.00903   0.00000
  99       46D+2        0.00000  -0.00000   0.00000   0.00000  -0.00000
 100       46D-2        0.00000   0.00000   0.00000   0.00000   0.00000
 101       47D 0        0.06346  -0.04013   0.00000   0.00000  -0.19464
 102       47D+1        0.00000   0.00000  -0.03495   0.00000   0.00000
 103       47D-1        0.00000   0.00000   0.00000  -0.03495   0.00000
 104       47D+2        0.00000  -0.00000   0.00000   0.00000  -0.00000
 105       47D-2        0.00000   0.00000   0.00000   0.00000   0.00000
 106       48D 0        0.04153   0.01419   0.00000   0.00000  -0.02080
 107       48D+1        0.00000   0.00000  -0.01573   0.00000   0.00000
 108       48D-1        0.00000   0.00000   0.00000  -0.01573   0.00000
 109       48D+2        0.00000  -0.00000   0.00000   0.00000   0.00000
 110       48D-2        0.00000   0.00000   0.00000   0.00000   0.00000
 111       49D 0        0.02269   0.01781   0.00000   0.00000   0.01705
 112       49D+1        0.00000   0.00000  -0.00755   0.00000   0.00000
 113       49D-1        0.00000   0.00000   0.00000  -0.00755   0.00000
 114       49D+2       -0.00000  -0.00000   0.00000   0.00000  -0.00000
 115       49D-2        0.00000   0.00000   0.00000   0.00000   0.00000
 116       50D 0        0.02118   0.01905   0.00000   0.00000   0.05482
 117       50D+1        0.00000   0.00000  -0.00551   0.00000   0.00000
 118       50D-1        0.00000   0.00000   0.00000  -0.00551   0.00000
 119       50D+2        0.00000   0.00000   0.00000   0.00000   0.00000
 120       50D-2        0.00000   0.00000   0.00000   0.00000   0.00000
 121       51D 0       -0.00187   0.00600   0.00000   0.00000   0.01848
 122       51D+1        0.00000   0.00000   0.00189   0.00000   0.00000
 123       51D-1        0.00000   0.00000   0.00000   0.00189   0.00000
 124       51D+2       -0.00000   0.00000   0.00000   0.00000   0.00000
 125       51D-2        0.00000   0.00000   0.00000   0.00000   0.00000
 126       52D 0       -0.02757   0.05648   0.00000   0.00000   0.18742
 127       52D+1        0.00000   0.00000   0.02186   0.00000   0.00000
 128       52D-1        0.00000   0.00000   0.00000   0.02186   0.00000
 129       52D+2       -0.00000   0.00000   0.00000   0.00000   0.00000
 130       52D-2        0.00000   0.00000   0.00000   0.00000   0.00000
 131       53D 0        0.05495  -0.00675   0.00000   0.00000   0.28973
 132       53D+1        0.00000   0.00000   0.03191   0.00000   0.00000
 133       53D-1        0.00000   0.00000   0.00000   0.03191   0.00000
 134       53D+2       -0.00000  -0.00000   0.00000   0.00000  -0.00000
 135       53D-2        0.00000   0.00000   0.00000   0.00000   0.00000
 136       54F 0        0.00015   0.00006   0.00000   0.00000   0.00007
 137       54F+1        0.00000   0.00000  -0.00007   0.00000   0.00000
 138       54F-1        0.00000   0.00000   0.00000  -0.00007   0.00000
 139       54F+2        0.00000   0.00000   0.00000   0.00000   0.00000
 140       54F-2        0.00000   0.00000   0.00000   0.00000   0.00000
 141       54F+3        0.00000   0.00000   0.00000   0.00000   0.00000
 142       54F-3        0.00000   0.00000   0.00000  -0.00000   0.00000
 143       55F 0        0.00055   0.00027   0.00000   0.00000  -0.00042
 144       55F+1        0.00000   0.00000  -0.00011   0.00000   0.00000
 145       55F-1        0.00000   0.00000   0.00000  -0.00011   0.00000
 146       55F+2       -0.00000   0.00000   0.00000   0.00000   0.00000
 147       55F-2        0.00000   0.00000   0.00000   0.00000   0.00000
 148       55F+3        0.00000   0.00000   0.00000   0.00000   0.00000
 149       55F-3        0.00000   0.00000   0.00000   0.00000   0.00000
 150       56F 0        0.00173   0.00081   0.00000   0.00000   0.00150
 151       56F+1        0.00000   0.00000  -0.00084   0.00000   0.00000
 152       56F-1        0.00000   0.00000   0.00000  -0.00084   0.00000
 153       56F+2        0.00000   0.00000   0.00000   0.00000   0.00000
 154       56F-2        0.00000   0.00000   0.00000   0.00000   0.00000
 155       56F+3        0.00000   0.00000  -0.00000   0.00000   0.00000
 156       56F-3        0.00000   0.00000   0.00000  -0.00000   0.00000
 157       57F 0        0.00582  -0.00020   0.00000   0.00000  -0.01353
 158       57F+1        0.00000   0.00000  -0.00050   0.00000   0.00000
 159       57F-1        0.00000   0.00000   0.00000  -0.00050   0.00000
 160       57F+2       -0.00000  -0.00000   0.00000   0.00000  -0.00000
 161       57F-2        0.00000   0.00000   0.00000   0.00000   0.00000
 162       57F+3        0.00000   0.00000   0.00000   0.00000   0.00000
 163       57F-3        0.00000   0.00000   0.00000   0.00000   0.00000
 164       58G 0       -0.00003   0.00003   0.00000   0.00000   0.00006
 165       58G+1        0.00000   0.00000   0.00001   0.00000   0.00000
 166       58G-1        0.00000   0.00000   0.00000   0.00001   0.00000
 167       58G+2        0.00000   0.00000   0.00000   0.00000   0.00000
 168       58G-2        0.00000   0.00000   0.00000   0.00000   0.00000
 169       58G+3        0.00000   0.00000  -0.00000   0.00000   0.00000
 170       58G-3        0.00000   0.00000   0.00000  -0.00000   0.00000
 171       58G+4        0.00000   0.00000   0.00000   0.00000   0.00000
 172       58G-4        0.00000   0.00000   0.00000   0.00000   0.00000
 173       59G 0        0.00003  -0.00016   0.00000   0.00000  -0.00022
 174       59G+1        0.00000   0.00000  -0.00002   0.00000   0.00000
 175       59G-1        0.00000   0.00000   0.00000  -0.00002   0.00000
 176       59G+2       -0.00000  -0.00000   0.00000   0.00000  -0.00000
 177       59G-2        0.00000   0.00000   0.00000   0.00000   0.00000
 178       59G+3        0.00000   0.00000   0.00000   0.00000   0.00000
 179       59G-3        0.00000   0.00000   0.00000   0.00000   0.00000
 180       59G+4        0.00000   0.00000   0.00000   0.00000   0.00000
 181       59G-4        0.00000   0.00000   0.00000   0.00000   0.00000
 182       60G 0       -0.00039   0.00021   0.00000   0.00000   0.00057
 183       60G+1        0.00000   0.00000   0.00009   0.00000   0.00000
 184       60G-1        0.00000   0.00000   0.00000   0.00009   0.00000
 185       60G+2       -0.00000  -0.00000   0.00000   0.00000  -0.00000
 186       60G-2        0.00000   0.00000   0.00000   0.00000   0.00000
 187       60G+3        0.00000   0.00000  -0.00000   0.00000   0.00000
 188       60G-3        0.00000   0.00000   0.00000  -0.00000   0.00000
 189       60G+4       -0.00000  -0.00000   0.00000   0.00000  -0.00000
 190       60G-4        0.00000   0.00000   0.00000   0.00000   0.00000
 191 2   O  1S         -0.00000  -0.00000   0.00000   0.00000   0.00000
 192        2S         -0.00000  -0.00000   0.00000   0.00000   0.00000
 193        3S         -0.00001  -0.00001   0.00000   0.00000   0.00002
 194        4S         -0.00005  -0.00003   0.00000   0.00000   0.00001
 195        5S          0.00010  -0.00015   0.00000   0.00000   0.00048
 196        6S          0.00322  -0.00198   0.00000   0.00000   0.00882
 197        7S          0.00775  -0.00077   0.00000   0.00000   0.01236
 198        8S         -0.01206  -0.01731   0.00000   0.00000   0.08063
 199        9S         -0.00538  -0.00230   0.00000   0.00000  -0.00618
 200       10S         -0.02895  -0.02695   0.00000   0.00000  -0.15025
 201       11S         -0.00352   0.00606   0.00000   0.00000  -0.02003
 202       12S         -0.00261   0.00082   0.00000   0.00000  -0.00516
 203       13S          0.02963   0.10458   0.00000   0.00000  -2.32033
 204       14PX         0.00000   0.00000  -0.00126   0.00000   0.00000
 205       14PY         0.00000   0.00000   0.00000  -0.00126   0.00000
 206       14PZ        -0.00341  -0.00153   0.00000   0.00000  -0.00009
 207       15PX         0.00000   0.00000  -0.01154   0.00000   0.00000
 208       15PY         0.00000   0.00000   0.00000  -0.01154   0.00000
 209       15PZ        -0.03620  -0.01555   0.00000   0.00000  -0.00182
 210       16PX         0.00000   0.00000  -0.03213   0.00000   0.00000
 211       16PY         0.00000   0.00000   0.00000  -0.03213   0.00000
 212       16PZ        -0.11625  -0.04793   0.00000   0.00000  -0.00837
 213       17PX         0.00000   0.00000  -0.06127   0.00000   0.00000
 214       17PY         0.00000   0.00000   0.00000  -0.06127   0.00000
 215       17PZ        -0.18881  -0.08083   0.00000   0.00000   0.00306
 216       18PX         0.00000   0.00000  -0.02850   0.00000   0.00000
 217       18PY         0.00000   0.00000   0.00000  -0.02850   0.00000
 218       18PZ        -0.16379  -0.10974   0.00000   0.00000  -0.29857
 219       19PX         0.00000   0.00000  -0.00027   0.00000   0.00000
 220       19PY         0.00000   0.00000   0.00000  -0.00027   0.00000
 221       19PZ        -0.00306  -0.00105   0.00000   0.00000  -0.00046
 222       20PX         0.00000   0.00000  -0.00012   0.00000   0.00000
 223       20PY         0.00000   0.00000   0.00000  -0.00012   0.00000
 224       20PZ        -0.00076  -0.00028   0.00000   0.00000  -0.00009
 225       21PX         0.00000   0.00000  -0.25367   0.00000   0.00000
 226       21PY         0.00000   0.00000   0.00000  -0.25367   0.00000
 227       21PZ        -0.11230   0.07026   0.00000   0.00000  -1.01317
 228       22D 0       -0.00167   0.00024   0.00000   0.00000   0.00108
 229       22D+1        0.00000   0.00000  -0.00039   0.00000   0.00000
 230       22D-1        0.00000   0.00000   0.00000  -0.00039   0.00000
 231       22D+2       -0.00000  -0.00000   0.00000   0.00000  -0.00000
 232       22D-2        0.00000   0.00000   0.00000   0.00000   0.00000
 233       23D 0       -0.00486  -0.00754   0.00000   0.00000  -0.00740
 234       23D+1        0.00000   0.00000   0.00337   0.00000   0.00000
 235       23D-1        0.00000   0.00000   0.00000   0.00337   0.00000
 236       23D+2        0.00000   0.00000   0.00000   0.00000   0.00000
 237       23D-2        0.00000   0.00000   0.00000   0.00000   0.00000
 238       24D 0       -0.00006  -0.00004   0.00000   0.00000  -0.00004
 239       24D+1        0.00000   0.00000   0.00002   0.00000   0.00000
 240       24D-1        0.00000   0.00000   0.00000   0.00002   0.00000
 241       24D+2       -0.00000  -0.00000   0.00000   0.00000  -0.00000
 242       24D-2        0.00000   0.00000   0.00000   0.00000   0.00000
 243       25D 0       -0.00253  -0.01772   0.00000   0.00000  -0.11840
 244       25D+1        0.00000   0.00000  -0.02189   0.00000   0.00000
 245       25D-1        0.00000   0.00000   0.00000  -0.02189   0.00000
 246       25D+2        0.00000   0.00000   0.00000   0.00000  -0.00000
 247       25D-2        0.00000   0.00000   0.00000   0.00000   0.00000
 248       26F 0       -0.00166  -0.00014   0.00000   0.00000   0.00081
 249       26F+1        0.00000   0.00000   0.00028   0.00000   0.00000
 250       26F-1        0.00000   0.00000   0.00000   0.00028   0.00000
 251       26F+2        0.00000  -0.00000   0.00000   0.00000   0.00000
 252       26F-2        0.00000   0.00000   0.00000   0.00000   0.00000
 253       26F+3        0.00000   0.00000  -0.00000   0.00000   0.00000
 254       26F-3        0.00000   0.00000   0.00000  -0.00000   0.00000
 255       27F 0       -0.00058  -0.00659   0.00000   0.00000  -0.01717
 256       27F+1        0.00000   0.00000  -0.00264   0.00000   0.00000
 257       27F-1        0.00000   0.00000   0.00000  -0.00264   0.00000
 258       27F+2       -0.00000   0.00000   0.00000   0.00000   0.00000
 259       27F-2        0.00000   0.00000   0.00000   0.00000   0.00000
 260       27F+3        0.00000   0.00000   0.00000   0.00000   0.00000
 261       27F-3        0.00000   0.00000   0.00000   0.00000   0.00000
     Alpha Density Matrix:
                           1         2         3         4         5
   1 1   Zn 1S          0.00000
   2        2S          0.00000   0.00000
   3        3S          0.00000   0.00000   0.00000
   4        4S          0.00000   0.00000   0.00000   0.00000
   5        5S         -0.00000  -0.00000  -0.00000  -0.00000   0.00000
   6        6S          0.00000   0.00000   0.00000   0.00000  -0.00000
   7        7S         -0.00000  -0.00000  -0.00000  -0.00000   0.00000
   8        8S          0.00000   0.00000   0.00000   0.00000  -0.00000
   9        9S         -0.00000  -0.00000  -0.00000  -0.00000   0.00000
  10       10S          0.00000   0.00000   0.00000   0.00000  -0.00000
  11       11S         -0.00000  -0.00000  -0.00000  -0.00000   0.00000
  12       12S          0.00000   0.00000   0.00000   0.00000  -0.00000
  13       13S         -0.00000  -0.00000  -0.00000  -0.00000   0.00000
  14       14S         -0.00000  -0.00000  -0.00000  -0.00000   0.00000
  15       15S          0.00000   0.00000   0.00000   0.00000  -0.00000
  16       16S          0.00000   0.00000   0.00000   0.00000  -0.00000
  17       17S          0.00000   0.00000   0.00000   0.00000  -0.00000
  18       18S         -0.00000  -0.00000   0.00000  -0.00000   0.00000
  19       19S         -0.00000  -0.00000  -0.00000  -0.00000   0.00000
  20       20S         -0.00000  -0.00000  -0.00000  -0.00000   0.00000
  21       21S          0.00000   0.00000   0.00000   0.00000  -0.00000
  22       22S         -0.00000  -0.00000  -0.00000  -0.00000  -0.00000
  23       23S         -0.00000  -0.00000  -0.00000  -0.00000   0.00000
  24       24PX         0.00000   0.00000   0.00000   0.00000   0.00000
  25       24PY         0.00000   0.00000   0.00000   0.00000   0.00000
  26       24PZ        -0.00000  -0.00000   0.00000  -0.00000   0.00000
  27       25PX         0.00000   0.00000   0.00000   0.00000   0.00000
  28       25PY         0.00000   0.00000   0.00000   0.00000   0.00000
  29       25PZ        -0.00000  -0.00000   0.00000  -0.00000   0.00000
  30       26PX         0.00000   0.00000   0.00000   0.00000   0.00000
  31       26PY         0.00000   0.00000   0.00000   0.00000   0.00000
  32       26PZ        -0.00000  -0.00000   0.00000  -0.00000   0.00000
[...]
  41       29PZ        -0.00002  -0.00001  -0.00001   0.00000
  42       30PX         0.00069   0.00034   0.00034   0.00000
  43       30PY         0.00069   0.00034   0.00034   0.00000
  44       30PZ         0.00069   0.00034   0.00034   0.00000
  45       31PX        -0.00491  -0.00246  -0.00246   0.00000
  46       31PY        -0.00491  -0.00246  -0.00246   0.00000
  47       31PZ        -0.00491  -0.00246  -0.00246   0.00000
  48       32PX        -0.05051  -0.02525  -0.02525   0.00000
  49       32PY        -0.05051  -0.02525  -0.02525   0.00000
  50       32PZ        -0.05103  -0.02551  -0.02551   0.00000
  51       33PX         0.12507   0.06253   0.06253   0.00000
  52       33PY         0.12507   0.06253   0.06253   0.00000
  53       33PZ         0.12196   0.06098   0.06098   0.00000
  54       34PX         0.60364   0.30182   0.30182   0.00000
  55       34PY         0.60364   0.30182   0.30182   0.00000
  56       34PZ         0.60868   0.30434   0.30434   0.00000
  57       35PX         0.77974   0.38987   0.38987   0.00000
  58       35PY         0.77974   0.38987   0.38987   0.00000
  59       35PZ         0.79045   0.39522   0.39522   0.00000
  60       36PX         0.44925   0.22462   0.22462   0.00000
  61       36PY         0.44925   0.22462   0.22462   0.00000
  62       36PZ         0.44888   0.22444   0.22444   0.00000
  63       37PX         0.05778   0.02889   0.02889   0.00000
  64       37PY         0.05778   0.02889   0.02889   0.00000
  65       37PZ         0.05429   0.02715   0.02715   0.00000
  66       38PX         0.07082   0.03541   0.03541   0.00000
  67       38PY         0.07082   0.03541   0.03541   0.00000
  68       38PZ        -0.01418  -0.00709  -0.00709   0.00000
  69       39PX         0.01458   0.00729   0.00729   0.00000
  70       39PY         0.01458   0.00729   0.00729   0.00000
  71       39PZ         0.00221   0.00110   0.00110   0.00000
  72       40PX        -0.06294  -0.03147  -0.03147   0.00000
  73       40PY        -0.06294  -0.03147  -0.03147   0.00000
  74       40PZ        -0.06021  -0.03011  -0.03011   0.00000
  75       41PX         0.12696   0.06348   0.06348   0.00000
  76       41PY         0.12696   0.06348   0.06348   0.00000
  77       41PZ         0.11652   0.05826   0.05826   0.00000
  78       42PX        -0.00145  -0.00072  -0.00072   0.00000
  79       42PY        -0.00145  -0.00072  -0.00072   0.00000
  80       42PZ        -0.00073  -0.00037  -0.00037   0.00000
  81       43D 0        0.00011   0.00005   0.00005   0.00000
  82       43D+1        0.00011   0.00006   0.00006   0.00000
  83       43D-1        0.00011   0.00006   0.00006   0.00000
  84       43D+2        0.00011   0.00006   0.00006   0.00000
  85       43D-2        0.00011   0.00006   0.00006   0.00000
  86       44D 0        0.00541   0.00270   0.00270   0.00000
  87       44D+1        0.00567   0.00283   0.00283   0.00000
  88       44D-1        0.00567   0.00283   0.00283   0.00000
  89       44D+2        0.00563   0.00282   0.00282   0.00000
  90       44D-2        0.00563   0.00282   0.00282   0.00000
  91       45D 0        0.05865   0.02932   0.02932   0.00000
  92       45D+1        0.06153   0.03076   0.03076   0.00000
  93       45D-1        0.06153   0.03076   0.03076   0.00000
  94       45D+2        0.06122   0.03061   0.03061   0.00000
  95       45D-2        0.06122   0.03061   0.03061   0.00000
  96       46D 0        0.24135   0.12068   0.12068   0.00000
  97       46D+1        0.25070   0.12535   0.12535   0.00000
  98       46D-1        0.25070   0.12535   0.12535   0.00000
  99       46D+2        0.24815   0.12408   0.12408   0.00000
 100       46D-2        0.24815   0.12408   0.12408   0.00000
 101       47D 0        0.45103   0.22552   0.22552   0.00000
 102       47D+1        0.42483   0.21242   0.21242   0.00000
 103       47D-1        0.42483   0.21242   0.21242   0.00000
 104       47D+2        0.39691   0.19845   0.19845   0.00000
 105       47D-2        0.39691   0.19845   0.19845   0.00000
 106       48D 0        0.62024   0.31012   0.31012   0.00000
 107       48D+1        0.63762   0.31881   0.31881   0.00000
 108       48D-1        0.63762   0.31881   0.31881   0.00000
 109       48D+2        0.63494   0.31747   0.31747   0.00000
 110       48D-2        0.63494   0.31747   0.31747   0.00000
 111       49D 0        0.38711   0.19356   0.19356   0.00000
 112       49D+1        0.38538   0.19269   0.19269   0.00000
 113       49D-1        0.38538   0.19269   0.19269   0.00000
 114       49D+2        0.38876   0.19438   0.19438   0.00000
 115       49D-2        0.38876   0.19438   0.19438   0.00000
 116       50D 0        0.07281   0.03640   0.03640   0.00000
 117       50D+1        0.07889   0.03944   0.03944   0.00000
 118       50D-1        0.07889   0.03944   0.03944   0.00000
 119       50D+2        0.07898   0.03949   0.03949   0.00000
 120       50D-2        0.07898   0.03949   0.03949   0.00000
 121       51D 0        0.01770   0.00885   0.00885   0.00000
 122       51D+1        0.02255   0.01127   0.01127   0.00000
 123       51D-1        0.02255   0.01127   0.01127   0.00000
 124       51D+2        0.02483   0.01242   0.01242   0.00000
 125       51D-2        0.02483   0.01242   0.01242   0.00000
 126       52D 0        0.08484   0.04242   0.04242   0.00000
 127       52D+1        0.13409   0.06704   0.06704   0.00000
 128       52D-1        0.13409   0.06704   0.06704   0.00000
 129       52D+2        0.15922   0.07961   0.07961   0.00000
 130       52D-2        0.15922   0.07961   0.07961   0.00000
 131       53D 0        0.00755   0.00378   0.00378   0.00000
 132       53D+1        0.00311   0.00155   0.00155   0.00000
 133       53D-1        0.00311   0.00155   0.00155   0.00000
 134       53D+2        0.00114   0.00057   0.00057   0.00000
 135       53D-2        0.00114   0.00057   0.00057   0.00000
 136       54F 0        0.00000   0.00000   0.00000   0.00000
 137       54F+1        0.00000   0.00000   0.00000   0.00000
 138       54F-1        0.00000   0.00000   0.00000   0.00000
 139       54F+2        0.00000   0.00000   0.00000   0.00000
 140       54F-2        0.00000   0.00000   0.00000   0.00000
 141       54F+3        0.00000   0.00000   0.00000   0.00000
 142       54F-3       -0.00000  -0.00000  -0.00000   0.00000
 143       55F 0        0.00003   0.00002   0.00002   0.00000
 144       55F+1        0.00002   0.00001   0.00001   0.00000
 145       55F-1        0.00002   0.00001   0.00001   0.00000
 146       55F+2        0.00001   0.00000   0.00000   0.00000
 147       55F-2        0.00001   0.00000   0.00000   0.00000
 148       55F+3       -0.00000  -0.00000  -0.00000   0.00000
 149       55F-3       -0.00000  -0.00000  -0.00000   0.00000
 150       56F 0        0.00045   0.00023   0.00023   0.00000
 151       56F+1        0.00027   0.00013   0.00013   0.00000
 152       56F-1        0.00027   0.00013   0.00013   0.00000
 153       56F+2        0.00004   0.00002   0.00002   0.00000
 154       56F-2        0.00004   0.00002   0.00002   0.00000
 155       56F+3        0.00000   0.00000   0.00000   0.00000
 156       56F-3        0.00000   0.00000   0.00000   0.00000
 157       57F 0        0.00277   0.00139   0.00139   0.00000
 158       57F+1        0.00480   0.00240   0.00240   0.00000
 159       57F-1        0.00480   0.00240   0.00240   0.00000
 160       57F+2        0.00011   0.00006   0.00006   0.00000
 161       57F-2        0.00011   0.00006   0.00006   0.00000
 162       57F+3       -0.00000  -0.00000  -0.00000   0.00000
 163       57F-3        0.00000   0.00000   0.00000   0.00000
 164       58G 0        0.00000   0.00000   0.00000   0.00000
 165       58G+1        0.00000   0.00000   0.00000   0.00000
 166       58G-1        0.00000   0.00000   0.00000   0.00000
 167       58G+2        0.00000   0.00000   0.00000   0.00000
 168       58G-2        0.00000   0.00000   0.00000   0.00000
 169       58G+3       -0.00000  -0.00000  -0.00000   0.00000
 170       58G-3       -0.00000  -0.00000  -0.00000   0.00000
 171       58G+4        0.00000   0.00000   0.00000   0.00000
 172       58G-4       -0.00000  -0.00000  -0.00000   0.00000
 173       59G 0       -0.00000  -0.00000  -0.00000   0.00000
 174       59G+1       -0.00000  -0.00000  -0.00000   0.00000
 175       59G-1       -0.00000  -0.00000  -0.00000   0.00000
 176       59G+2       -0.00000  -0.00000  -0.00000   0.00000
 177       59G-2       -0.00000  -0.00000  -0.00000   0.00000
 178       59G+3       -0.00000  -0.00000  -0.00000   0.00000
 179       59G-3        0.00000   0.00000   0.00000   0.00000
 180       59G+4        0.00000   0.00000   0.00000   0.00000
 181       59G-4        0.00000   0.00000   0.00000   0.00000
 182       60G 0        0.00004   0.00002   0.00002   0.00000
 183       60G+1        0.00005   0.00003   0.00003   0.00000
 184       60G-1        0.00005   0.00003   0.00003   0.00000
 185       60G+2        0.00000   0.00000   0.00000   0.00000
 186       60G-2        0.00000   0.00000   0.00000   0.00000
 187       60G+3       -0.00000  -0.00000  -0.00000   0.00000
 188       60G-3        0.00000   0.00000   0.00000   0.00000
 189       60G+4       -0.00000  -0.00000  -0.00000   0.00000
 190       60G-4       -0.00000  -0.00000  -0.00000   0.00000
 191 2   O  1S          0.00000   0.00000   0.00000   0.00000
 192        2S          0.00000   0.00000   0.00000   0.00000
 193        3S          0.00000   0.00000   0.00000   0.00000
 194        4S          0.00006   0.00003   0.00003   0.00000
 195        5S         -0.00002  -0.00001  -0.00001   0.00000
 196        6S         -0.01042  -0.00521  -0.00521   0.00000
 197        7S         -0.10349  -0.05175  -0.05175   0.00000
 198        8S          1.08084   0.54042   0.54042   0.00000
 199        9S          0.24142   0.12071   0.12071   0.00000
 200       10S          0.75005   0.37502   0.37502   0.00000
 201       11S         -0.00033  -0.00017  -0.00017   0.00000
 202       12S          0.00880   0.00440   0.00440   0.00000
 203       13S          0.08593   0.04297   0.04297   0.00000
 204       14PX         0.00198   0.00099   0.00099   0.00000
 205       14PY         0.00198   0.00099   0.00099   0.00000
 206       14PZ         0.00120   0.00060   0.00060   0.00000
 207       15PX         0.06604   0.03302   0.03302   0.00000
 208       15PY         0.06604   0.03302   0.03302   0.00000
 209       15PZ         0.04026   0.02013   0.02013   0.00000
 210       16PX         0.38602   0.19301   0.19301   0.00000
 211       16PY         0.38602   0.19301   0.19301   0.00000
 212       16PZ         0.24168   0.12084   0.12084   0.00000
 213       17PX         0.76846   0.38423   0.38423   0.00000
 214       17PY         0.76846   0.38423   0.38423   0.00000
 215       17PZ         0.52575   0.26287   0.26287   0.00000
 216       18PX         0.58464   0.29232   0.29232   0.00000
 217       18PY         0.58464   0.29232   0.29232   0.00000
 218       18PZ         0.42445   0.21222   0.21222   0.00000
 219       19PX         0.00352   0.00176   0.00176   0.00000
 220       19PY         0.00352   0.00176   0.00176   0.00000
 221       19PZ         0.00218   0.00109   0.00109   0.00000
 222       20PX         0.00027   0.00014   0.00014   0.00000
 223       20PY         0.00027   0.00014   0.00014   0.00000
 224       20PZ         0.00017   0.00008   0.00008   0.00000
 225       21PX         0.06252   0.03126   0.03126   0.00000
 226       21PY         0.06252   0.03126   0.03126   0.00000
 227       21PZ         0.06441   0.03220   0.03220   0.00000
 228       22D 0        0.00053   0.00027   0.00027   0.00000
 229       22D+1        0.00026   0.00013   0.00013   0.00000
 230       22D-1        0.00026   0.00013   0.00013   0.00000
 231       22D+2        0.00000   0.00000   0.00000   0.00000
 232       22D-2        0.00000   0.00000   0.00000   0.00000
 233       23D 0        0.00593   0.00296   0.00296   0.00000
 234       23D+1        0.00410   0.00205   0.00205   0.00000
 235       23D-1        0.00410   0.00205   0.00205   0.00000
 236       23D+2        0.00013   0.00006   0.00006   0.00000
 237       23D-2        0.00013   0.00006   0.00006   0.00000
 238       24D 0        0.00000   0.00000   0.00000   0.00000
 239       24D+1        0.00000   0.00000   0.00000   0.00000
 240       24D-1        0.00000   0.00000   0.00000   0.00000
 241       24D+2        0.00000   0.00000   0.00000   0.00000
 242       24D-2        0.00000   0.00000   0.00000   0.00000
 243       25D 0        0.00270   0.00135   0.00135   0.00000
 244       25D+1        0.00295   0.00147   0.00147   0.00000
 245       25D-1        0.00295   0.00147   0.00147   0.00000
 246       25D+2       -0.00024  -0.00012  -0.00012   0.00000
 247       25D-2       -0.00024  -0.00012  -0.00012   0.00000
 248       26F 0        0.00037   0.00019   0.00019   0.00000
 249       26F+1        0.00023   0.00011   0.00011   0.00000
 250       26F-1        0.00023   0.00011   0.00011   0.00000
 251       26F+2        0.00002   0.00001   0.00001   0.00000
 252       26F-2        0.00002   0.00001   0.00001   0.00000
 253       26F+3       -0.00000  -0.00000  -0.00000   0.00000
 254       26F-3       -0.00000  -0.00000  -0.00000   0.00000
 255       27F 0        0.00017   0.00009   0.00009   0.00000
 256       27F+1        0.00069   0.00035   0.00035   0.00000
 257       27F-1        0.00069   0.00035   0.00035   0.00000
 258       27F+2        0.00003   0.00002   0.00002   0.00000
 259       27F-2        0.00003   0.00002   0.00002   0.00000
 260       27F+3        0.00000   0.00000   0.00000   0.00000
 261       27F-3        0.00000   0.00000   0.00000   0.00000
          Condensed to atoms (all electrons):
               1          2
     1  Zn  18.635958   0.238129
     2  O    0.238129   6.887784
          Atomic-Atomic Spin Densities.
               1          2
     1  Zn   0.000000   0.000000
     2  O    0.000000   0.000000
 Mulliken charges and spin densities:
               1          2
     1  Zn   1.125913   0.000000
     2  O   -1.125913   0.000000
 Sum of Mulliken charges =   0.00000   0.00000
 Mulliken charges and spin densities with hydrogens summed into heavy atoms:
               1          2
     1  Zn   1.125913   0.000000
     2  O   -1.125913   0.000000
 Electronic spatial extent (au):  <R**2>=             84.7424
 Charge=             -0.0000 electrons
 Dipole moment (field-independent basis, Debye):
    X=              0.0000    Y=              0.0000    Z=              7.1623  Tot=              7.1623
 Quadrupole moment (field-independent basis, Debye-Ang):
   XX=            -17.9508   YY=            -17.9508   ZZ=            -21.1970
   XY=              0.0000   XZ=              0.0000   YZ=              0.0000
 Traceless Quadrupole moment (field-independent basis, Debye-Ang):
   XX=              1.0821   YY=              1.0821   ZZ=             -2.1641
   XY=              0.0000   XZ=              0.0000   YZ=              0.0000
 Octapole moment (field-independent basis, Debye-Ang**2):
  XXX=              0.0000  YYY=              0.0000  ZZZ=             22.1600  XYY=              0.0000
  XXY=              0.0000  XXZ=              5.9163  XZZ=              0.0000  YZZ=              0.0000
  YYZ=              5.9163  XYZ=              0.0000
 Hexadecapole moment (field-independent basis, Debye-Ang**3):
 XXXX=            -19.0206 YYYY=            -19.0206 ZZZZ=            -88.0680 XXXY=              0.0000
 XXXZ=              0.0000 YYYX=              0.0000 YYYZ=              0.0000 ZZZX=              0.0000
 ZZZY=              0.0000 XXYY=             -6.3402 XXZZ=            -17.8617 YYZZ=            -17.8617
 XXYZ=              0.0000 YYXZ=              0.0000 ZZXY=              0.0000
 N-N= 3.968829081900D+01 E-N=-6.796359334270D+02  KE= 1.657328085120D+02
 Symmetry A1   KE= 6.705615162477D+01
 Symmetry A2   KE= 2.247803996643D+01
 Symmetry B1   KE= 3.809930846084D+01
 Symmetry B2   KE= 3.809930846110D+01
 Symmetry A1   SP= 0.000000000000D+00
 Symmetry A2   SP= 0.000000000000D+00
 Symmetry B1   SP= 0.000000000000D+00
 Symmetry B2   SP= 0.000000000000D+00
 Orbital energies and kinetic energies (alpha):
                                 1                 2
   9         O                -0.822132         11.239020
  10         O                -0.799102         10.304973
  11         O                -0.396615          2.391961
  12         O                -0.396615          2.391961
  13         O                -0.383957          1.739844
  14         V                -0.046623          0.746641
  15         V                 0.026912          0.212239
  16         V                 0.027116          0.102069
  17         V                 0.027116          0.102069
  18         V                 0.046830          0.045383
 Total kinetic energy from orbitals= 1.657328085120D+02
                          Isotropic Fermi Contact Couplings
        Atom                 a.u.       MegaHertz       Gauss      10(-4) cm-1
     1  Zn(67)             0.00000       0.00000       0.00000       0.00000
     2  O(17)              0.00000      -0.00000      -0.00000      -0.00000
 --------------------------------------------------------
       Center         ----  Spin Dipole Couplings  ----
                      3XX-RR        3YY-RR        3ZZ-RR
 --------------------------------------------------------
     1   Atom        0.000000      0.000000      0.000000
     2   Atom        0.000000      0.000000      0.000000
 --------------------------------------------------------
                        XY            XZ            YZ
 --------------------------------------------------------
     1   Atom        0.000000      0.000000      0.000000
     2   Atom        0.000000      0.000000      0.000000
 --------------------------------------------------------


 ---------------------------------------------------------------------------------
              Anisotropic Spin Dipole Couplings in Principal Axis System
 ---------------------------------------------------------------------------------

       Atom             a.u.   MegaHertz   Gauss  10(-4) cm-1        Axes

              Baa     0.0000     0.000     0.000     0.000  1.0000  0.0000  0.0000
     1 Zn(67) Bbb     0.0000     0.000     0.000     0.000 -0.0000  1.0000  0.0000
              Bcc     0.0000     0.000     0.000     0.000  0.0000  0.0000  1.0000
 
              Baa     0.0000    -0.000    -0.000    -0.000  1.0000  0.0000  0.0000
     2 O(17)  Bbb     0.0000    -0.000    -0.000    -0.000 -0.0000  1.0000  0.0000
              Bcc     0.0000    -0.000    -0.000    -0.000  0.0000  0.0000  1.0000
 

 ---------------------------------------------------------------------------------

 No NMR shielding tensors so no spin-rotation constants.
 Leave Link  601 at Wed Mar 28 00:19:36 2018, MaxMem= 10737418240 cpu:              92.5 elap:               3.0
 (Enter /home1/apps/gaussian/16rA.03/g16/l9999.exe)

 Test job not archived.
 1\1\GINC-C401-012\SP\ROCCSD(T)-Full\Gen\O1Zn1\GWANG18\28-Mar-2018\0\\#
 P ROCCSD(T)=(MaxCyc=150, Full)/Gen SCF=(maxcycle=400) Pseudo=Read Inte
 gral(NoXCTest) Pop=Regular MaxDisk=500GB Guess=Read IOp(5/15=2)\\ZnO\\
 0,1\Zn,0,0.,0.,0.\O,0,0.,0.,1.6\\Version=ES64L-G16RevA.03\State=1-SG\H
 F=-241.6464304\MP2=-242.984724\MP3=-242.8087772\PUHF=-241.6464304\PMP2
 -0=-242.984724\MP4SDQ=-242.9192144\CCSD=-242.8714113\CCSD(T)=-242.9200
 849\RMSD=3.419e-10\PG=C*V [C*(O1Zn1)]\\@


 A MAN SHOULD NEVER BE ASHAMED TO OWN HE HAS BEEN IN THE WRONG
 WHICH IS BUT SAYING IN OTHER WORDS,
 THAT HE IS WISER TODAY THAN HE WAS YESTERDAY.

                          -- JONATHAN SWIFT
 Job cpu time:       1 days  1 hours 55 minutes 14.0 seconds.
 Elapsed time:       0 days  0 hours 49 minutes  4.1 seconds.
 File lengths (MBytes):  RWF=   5449 Int=      0 D2E=      0 Chk=      9 Scr=      1
 Normal termination of Gaussian 16 at Wed Mar 28 00:19:36 2018.
