 Entering Gaussian System, Link 0=g16
 Initial command:
 /home1/apps/gaussian/16rA.03/g16/l1.exe "/tmp/Gau-213985.inp" -scrdir="/tmp/"
 Entering Link 1 = /home1/apps/gaussian/16rA.03/g16/l1.exe PID=    213986.
  
 Copyright (c) 1988,1990,1992,1993,1995,1998,2003,2009,2016,
            Gaussian, Inc.  All Rights Reserved.
  
 This is part of the Gaussian(R) 16 program.  It is based on
 the Gaussian(R) 09 system (copyright 2009, Gaussian, Inc.),
 the Gaussian(R) 03 system (copyright 2003, Gaussian, Inc.),
 the Gaussian(R) 98 system (copyright 1998, Gaussian, Inc.),
 the Gaussian(R) 94 system (copyright 1995, Gaussian, Inc.),
 the Gaussian 92(TM) system (copyright 1992, Gaussian, Inc.),
 the Gaussian 90(TM) system (copyright 1990, Gaussian, Inc.),
 the Gaussian 88(TM) system (copyright 1988, Gaussian, Inc.),
 the Gaussian 86(TM) system (copyright 1986, Carnegie Mellon
 University), and the Gaussian 82(TM) system (copyright 1983,
 Carnegie Mellon University). Gaussian is a federally registered
 trademark of Gaussian, Inc.
  
 This software contains proprietary and confidential information,
 including trade secrets, belonging to Gaussian, Inc.
  
 This software is provided under written license and may be
 used, copied, transmitted, or stored only in accord with that
 written license.
  
 The following legend is applicable only to US Government
 contracts under FAR:
  
                    RESTRICTED RIGHTS LEGEND
  
 Use, reproduction and disclosure by the US Government is
 subject to restrictions as set forth in subparagraphs (a)
 and (c) of the Commercial Computer Software - Restricted
 Rights clause in FAR 52.227-19.
  
 Gaussian, Inc.
 340 Quinnipiac St., Bldg. 40, Wallingford CT 06492
  
  
 ---------------------------------------------------------------
 Warning -- This program may not be used in any manner that
 competes with the business of Gaussian, Inc. or will provide
 assistance to any competitor of Gaussian, Inc.  The licensee
 of this program is prohibited from giving any competitor of
 Gaussian, Inc. access to this program.  By using this program,
 the user acknowledges that Gaussian, Inc. is engaged in the
 business of creating and licensing software in the field of
 computational chemistry and represents and warrants to the
 licensee that it is not a competitor of Gaussian, Inc. and that
 it will not use this program in any manner prohibited above.
 ---------------------------------------------------------------
  

 Cite this work as:
 Gaussian 16, Revision A.03,
 M. J. Frisch, G. W. Trucks, H. B. Schlegel, G. E. Scuseria, 
 M. A. Robb, J. R. Cheeseman, G. Scalmani, V. Barone, 
 G. A. Petersson, H. Nakatsuji, X. Li, M. Caricato, A. V. Marenich, 
 J. Bloino, B. G. Janesko, R. Gomperts, B. Mennucci, H. P. Hratchian, 
 J. V. Ortiz, A. F. Izmaylov, J. L. Sonnenberg, D. Williams-Young, 
 F. Ding, F. Lipparini, F. Egidi, J. Goings, B. Peng, A. Petrone, 
 T. Henderson, D. Ranasinghe, V. G. Zakrzewski, J. Gao, N. Rega, 
 G. Zheng, W. Liang, M. Hada, M. Ehara, K. Toyota, R. Fukuda, 
 J. Hasegawa, M. Ishida, T. Nakajima, Y. Honda, O. Kitao, H. Nakai, 
 T. Vreven, K. Throssell, J. A. Montgomery, Jr., J. E. Peralta, 
 F. Ogliaro, M. J. Bearpark, J. J. Heyd, E. N. Brothers, K. N. Kudin, 
 V. N. Staroverov, T. A. Keith, R. Kobayashi, J. Normand, 
 K. Raghavachari, A. P. Rendell, J. C. Burant, S. S. Iyengar, 
 J. Tomasi, M. Cossi, J. M. Millam, M. Klene, C. Adamo, R. Cammi, 
 J. W. Ochterski, R. L. Martin, K. Morokuma, O. Farkas, 
 J. B. Foresman, and D. J. Fox, Gaussian, Inc., Wallingford CT, 2016.
 
 ******************************************
 Gaussian 16:  ES64L-G16RevA.03 25-Dec-2016
                10-Mar-2018 
 ******************************************
 %MEM=80GB
 %CPU=0-15
 SetSPE:  set environment variable "MP_BIND" = "yes"
 SetSPE:  set environment variable "MP_BLIST" = "0,1,2,3,4,5,6,7,8,9,10,11,12,13,14,15"
 Will use up to   16 processors via shared memory.
 %RWF=/scratch/04843/aannabe/gaussian/
 %Int=/scratch/04843/aannabe/gaussian/
 %D2E=/scratch/04843/aannabe/gaussian/
 %NoSave
 %CHK=TiO
 ----------------------------------------------------------------------
 #P ROCCSD(T)=(maxcyc=150, Full, SaveAmplitudes, ReadAmplitudes)/Gen 5d
  7f SCF=(maxcycles=300) Integral(NoXCTest) MaxDisk=500GB Pop=Regular P
 seudo=Read Guess=Read
 ----------------------------------------------------------------------
 1/38=1,172=1/1;
 2/12=2,17=6,18=5,40=1/2;
 3/5=7,8=11,11=2,16=1,17=8,25=1,30=1,47=8,116=101/1,2,3;
 4/5=1/1;
 5/5=2,7=300,38=6/2;
 8/5=-1,6=4,9=120000,10=90,24=1/1,4;
 9/5=7,6=150,14=2,77=1/13;
 6//1;
 99/5=1,9=1/99;
 Leave Link    1 at Sat Mar 10 00:27:41 2018, MaxMem= 10737418240 cpu:               3.6 elap:               0.2
 (Enter /home1/apps/gaussian/16rA.03/g16/l101.exe)
 ---
 TiO
 ---
 Symbolic Z-matrix:
 Charge =  0 Multiplicity = 3
 Ti                    0.        0.        0. 
 O                     0.        0.        1.5 
 
 ITRead=  0  0
 MicOpt= -1 -1
 NAtoms=      2 NQM=        2 NQMF=       0 NMMI=      0 NMMIF=      0
                NMic=       0 NMicF=      0.
                    Isotopes and Nuclear Properties:
 (Nuclear quadrupole moments (NQMom) in fm**2, nuclear magnetic moments (NMagM)
  in nuclear magnetons)

  Atom         1           2
 IAtWgt=          48          16
 AtmWgt=  47.9479467  15.9949146
 NucSpn=           0           0
 AtZEff=  -0.0000000  -0.0000000
 NQMom=    0.0000000   0.0000000
 NMagM=    0.0000000   0.0000000
 AtZNuc=  22.0000000   8.0000000
 Leave Link  101 at Sat Mar 10 00:27:41 2018, MaxMem= 10737418240 cpu:               1.5 elap:               0.1
 (Enter /home1/apps/gaussian/16rA.03/g16/l202.exe)
                          Input orientation:                          
 ---------------------------------------------------------------------
 Center     Atomic      Atomic             Coordinates (Angstroms)
 Number     Number       Type             X           Y           Z
 ---------------------------------------------------------------------
      1         22           0        0.000000    0.000000    0.000000
      2          8           0        0.000000    0.000000    1.500000
 ---------------------------------------------------------------------
 Stoichiometry    OTi(3)
 Framework group  C*V[C*(OTi)]
 Deg. of freedom     1
 Full point group                 C*V     NOp   4
 Largest Abelian subgroup         C2V     NOp   4
 Largest concise Abelian subgroup C1      NOp   1
                         Standard orientation:                         
 ---------------------------------------------------------------------
 Center     Atomic      Atomic             Coordinates (Angstroms)
 Number     Number       Type             X           Y           Z
 ---------------------------------------------------------------------
      1         22           0        0.000000    0.000000    0.400000
      2          8           0        0.000000    0.000000   -1.100000
 ---------------------------------------------------------------------
 Rotational constants (GHZ):           0.0000000          18.7272845          18.7272845
 Leave Link  202 at Sat Mar 10 00:27:41 2018, MaxMem= 10737418240 cpu:               0.3 elap:               0.1
 (Enter /home1/apps/gaussian/16rA.03/g16/l301.exe)
 General basis read from cards:  (5D, 7F)
 Centers:       1
 S 1 1.00
     Exponent=  9.3170340000D+06 Coefficients=  1.0000000000D+00
 S 1 1.00
     Exponent=  1.3949710000D+06 Coefficients=  1.0000000000D+00
 S 1 1.00
     Exponent=  3.1745310000D+05 Coefficients=  1.0000000000D+00
 S 1 1.00
     Exponent=  8.9921000000D+04 Coefficients=  1.0000000000D+00
 S 1 1.00
     Exponent=  2.9338160000D+04 Coefficients=  1.0000000000D+00
 S 1 1.00
     Exponent=  1.0592660000D+04 Coefficients=  1.0000000000D+00
 S 1 1.00
     Exponent=  4.1320560000D+03 Coefficients=  1.0000000000D+00
 S 1 1.00
     Exponent=  1.7142350000D+03 Coefficients=  1.0000000000D+00
 S 1 1.00
     Exponent=  7.4791510000D+02 Coefficients=  1.0000000000D+00
 S 1 1.00
     Exponent=  3.4019910000D+02 Coefficients=  1.0000000000D+00
 S 1 1.00
     Exponent=  1.6020600000D+02 Coefficients=  1.0000000000D+00
 S 1 1.00
     Exponent=  7.7588510000D+01 Coefficients=  1.0000000000D+00
 S 1 1.00
     Exponent=  3.8044890000D+01 Coefficients=  1.0000000000D+00
 S 1 1.00
     Exponent=  1.7353620000D+01 Coefficients=  1.0000000000D+00
 S 1 1.00
     Exponent=  8.6420620000D+00 Coefficients=  1.0000000000D+00
 S 1 1.00
     Exponent=  4.3044040000D+00 Coefficients=  1.0000000000D+00
 S 1 1.00
     Exponent=  1.9377180000D+00 Coefficients=  1.0000000000D+00
 S 1 1.00
     Exponent=  9.3659400000D-01 Coefficients=  1.0000000000D+00
 S 1 1.00
     Exponent=  4.3262400000D-01 Coefficients=  1.0000000000D+00
 S 1 1.00
     Exponent=  1.0735200000D-01 Coefficients=  1.0000000000D+00
 S 1 1.00
     Exponent=  5.2034000000D-02 Coefficients=  1.0000000000D+00
 S 1 1.00
     Exponent=  2.4038000000D-02 Coefficients=  1.0000000000D+00
 S 1 1.00
     Exponent=  4.0519000000D+00 Coefficients=  1.0000000000D+00
 S 1 1.00
     Exponent=  1.0592000000D+00 Coefficients=  1.0000000000D+00
 S 1 1.00
     Exponent=  1.1100000000D-02 Coefficients=  1.0000000000D+00
 P 1 1.00
     Exponent=  2.5537330000D+04 Coefficients=  1.0000000000D+00
 P 1 1.00
     Exponent=  6.0422430000D+03 Coefficients=  1.0000000000D+00
 P 1 1.00
     Exponent=  1.9626530000D+03 Coefficients=  1.0000000000D+00
 P 1 1.00
     Exponent=  7.5173380000D+02 Coefficients=  1.0000000000D+00
 P 1 1.00
     Exponent=  3.1988330000D+02 Coefficients=  1.0000000000D+00
 P 1 1.00
     Exponent=  1.4643000000D+02 Coefficients=  1.0000000000D+00
 P 1 1.00
     Exponent=  7.0748610000D+01 Coefficients=  1.0000000000D+00
 P 1 1.00
     Exponent=  3.5590880000D+01 Coefficients=  1.0000000000D+00
 P 1 1.00
     Exponent=  1.8368930000D+01 Coefficients=  1.0000000000D+00
 P 1 1.00
     Exponent=  9.6586550000D+00 Coefficients=  1.0000000000D+00
 P 1 1.00
     Exponent=  5.1367300000D+00 Coefficients=  1.0000000000D+00
 P 1 1.00
     Exponent=  2.6988720000D+00 Coefficients=  1.0000000000D+00
 P 1 1.00
     Exponent=  1.3897030000D+00 Coefficients=  1.0000000000D+00
 P 1 1.00
     Exponent=  7.0316300000D-01 Coefficients=  1.0000000000D+00
 P 1 1.00
     Exponent=  3.4412300000D-01 Coefficients=  1.0000000000D+00
 P 1 1.00
     Exponent=  1.4137500000D-01 Coefficients=  1.0000000000D+00
 P 1 1.00
     Exponent=  6.0791000000D-02 Coefficients=  1.0000000000D+00
 P 1 1.00
     Exponent=  2.5831000000D-02 Coefficients=  1.0000000000D+00
 P 1 1.00
     Exponent=  4.8241000000D+00 Coefficients=  1.0000000000D+00
 P 1 1.00
     Exponent=  1.2211000000D+00 Coefficients=  1.0000000000D+00
 P 1 1.00
     Exponent=  1.0980000000D-02 Coefficients=  1.0000000000D+00
 D 1 1.00
     Exponent=  1.9997200000D+02 Coefficients=  1.0000000000D+00
 D 1 1.00
     Exponent=  5.9186900000D+01 Coefficients=  1.0000000000D+00
 D 1 1.00
     Exponent=  2.2601300000D+01 Coefficients=  1.0000000000D+00
 D 1 1.00
     Exponent=  9.5739100000D+00 Coefficients=  1.0000000000D+00
 D 1 1.00
     Exponent=  4.3177100000D+00 Coefficients=  1.0000000000D+00
 D 1 1.00
     Exponent=  2.0237300000D+00 Coefficients=  1.0000000000D+00
 D 1 1.00
     Exponent=  9.4716900000D-01 Coefficients=  1.0000000000D+00
 D 1 1.00
     Exponent=  4.3387700000D-01 Coefficients=  1.0000000000D+00
 D 1 1.00
     Exponent=  1.9212600000D-01 Coefficients=  1.0000000000D+00
 D 1 1.00
     Exponent=  8.1404000000D-02 Coefficients=  1.0000000000D+00
 D 1 1.00
     Exponent=  3.2233000000D-02 Coefficients=  1.0000000000D+00
 D 1 1.00
     Exponent=  2.7829000000D+00 Coefficients=  1.0000000000D+00
 D 1 1.00
     Exponent=  1.3657000000D+00 Coefficients=  1.0000000000D+00
 D 1 1.00
     Exponent=  1.2760000000D-02 Coefficients=  1.0000000000D+00
 F 1 1.00
     Exponent=  3.7192000000D+00 Coefficients=  1.0000000000D+00
 F 1 1.00
     Exponent=  1.4838000000D+00 Coefficients=  1.0000000000D+00
 F 1 1.00
     Exponent=  5.9200000000D-01 Coefficients=  1.0000000000D+00
 F 1 1.00
     Exponent=  1.7960000000D-01 Coefficients=  1.0000000000D+00
 F 1 1.00
     Exponent=  5.4490000000D-02 Coefficients=  1.0000000000D+00
 G 1 1.00
     Exponent=  3.2099000000D+00 Coefficients=  1.0000000000D+00
 G 1 1.00
     Exponent=  1.2652000000D+00 Coefficients=  1.0000000000D+00
 G 1 1.00
     Exponent=  3.9470000000D-01 Coefficients=  1.0000000000D+00
 G 1 1.00
     Exponent=  1.2313000000D-01 Coefficients=  1.0000000000D+00
 H 1 1.00
     Exponent=  2.7676000000D+00 Coefficients=  1.0000000000D+00
 H 1 1.00
     Exponent=  8.5240000000D-01 Coefficients=  1.0000000000D+00
 H 1 1.00
     Exponent=  2.6253000000D-01 Coefficients=  1.0000000000D+00
 ****
 Centers:       2
 S 1 1.00
     Exponent=  6.1420000000D+04 Coefficients=  1.0000000000D+00
 S 1 1.00
     Exponent=  9.1990000000D+03 Coefficients=  1.0000000000D+00
 S 1 1.00
     Exponent=  2.0910000000D+03 Coefficients=  1.0000000000D+00
 S 1 1.00
     Exponent=  5.9090000000D+02 Coefficients=  1.0000000000D+00
 S 1 1.00
     Exponent=  1.9230000000D+02 Coefficients=  1.0000000000D+00
 S 1 1.00
     Exponent=  6.9320000000D+01 Coefficients=  1.0000000000D+00
 S 1 1.00
     Exponent=  2.6970000000D+01 Coefficients=  1.0000000000D+00
 S 1 1.00
     Exponent=  1.1100000000D+01 Coefficients=  1.0000000000D+00
 S 1 1.00
     Exponent=  4.6820000000D+00 Coefficients=  1.0000000000D+00
 S 1 1.00
     Exponent=  1.4280000000D+00 Coefficients=  1.0000000000D+00
 S 1 1.00
     Exponent=  5.5470000000D-01 Coefficients=  1.0000000000D+00
 S 1 1.00
     Exponent=  2.0670000000D-01 Coefficients=  1.0000000000D+00
 S 1 1.00
     Exponent=  1.2974000000D+01 Coefficients=  1.0000000000D+00
 S 1 1.00
     Exponent=  3.4900000000D+01 Coefficients=  1.0000000000D+00
 S 1 1.00
     Exponent=  9.3881000000D+01 Coefficients=  1.0000000000D+00
 S 1 1.00
     Exponent=  6.9590000000D-02 Coefficients=  1.0000000000D+00
 P 1 1.00
     Exponent=  6.3420000000D+01 Coefficients=  1.0000000000D+00
 P 1 1.00
     Exponent=  1.4660000000D+01 Coefficients=  1.0000000000D+00
 P 1 1.00
     Exponent=  4.4590000000D+00 Coefficients=  1.0000000000D+00
 P 1 1.00
     Exponent=  1.5310000000D+00 Coefficients=  1.0000000000D+00
 P 1 1.00
     Exponent=  5.3020000000D-01 Coefficients=  1.0000000000D+00
 P 1 1.00
     Exponent=  1.7500000000D-01 Coefficients=  1.0000000000D+00
 P 1 1.00
     Exponent=  1.4475000000D+01 Coefficients=  1.0000000000D+00
 P 1 1.00
     Exponent=  4.2730000000D+01 Coefficients=  1.0000000000D+00
 P 1 1.00
     Exponent=  1.2614000000D+02 Coefficients=  1.0000000000D+00
 P 1 1.00
     Exponent=  5.3480000000D-02 Coefficients=  1.0000000000D+00
 D 1 1.00
     Exponent=  3.7750000000D+00 Coefficients=  1.0000000000D+00
 D 1 1.00
     Exponent=  1.3000000000D+00 Coefficients=  1.0000000000D+00
 D 1 1.00
     Exponent=  4.4400000000D-01 Coefficients=  1.0000000000D+00
 D 1 1.00
     Exponent=  1.4927000000D+01 Coefficients=  1.0000000000D+00
 D 1 1.00
     Exponent=  5.7544000000D+01 Coefficients=  1.0000000000D+00
 D 1 1.00
     Exponent=  1.5400000000D-01 Coefficients=  1.0000000000D+00
 F 1 1.00
     Exponent=  2.6660000000D+00 Coefficients=  1.0000000000D+00
 F 1 1.00
     Exponent=  8.5900000000D-01 Coefficients=  1.0000000000D+00
 F 1 1.00
     Exponent=  2.6483000000D+01 Coefficients=  1.0000000000D+00
 F 1 1.00
     Exponent=  3.2400000000D-01 Coefficients=  1.0000000000D+00
 G 1 1.00
     Exponent=  1.8460000000D+00 Coefficients=  1.0000000000D+00
 G 1 1.00
     Exponent=  7.1400000000D-01 Coefficients=  1.0000000000D+00
 ****
 ======================================================================================================
                                       Pseudopotential Parameters
 ======================================================================================================
  Center     Atomic      Valence      Angular      Power
  Number     Number     Electrons     Momentum     of R      Exponent        Coefficient   SO-Coeffient
 ======================================================================================================
    1         22           12
                                      D and up 
                                                     1       18.4140127       12.00000000    0.00000000
                                                     3       15.9392853      220.96815244    0.00000000
                                                     2       13.6422831      -94.28528364    0.00000000
                                                     2        5.0842405        0.12116718    0.00000000
                                      S - D
                                                     2       12.7326834      173.94295024    0.00000000
                                                     2        6.1188383       18.85373236    0.00000000
                                      P - D
                                                     2       12.6537466      111.45273004    0.00000000
                                                     2        5.3445466       11.17623928    0.00000000
    2          8            6
                                      P and up 
                                                     1       12.3099700        6.00000000    0.00000000
                                                     3       14.7696200       73.85984000    0.00000000
                                                     2       13.7141900      -47.87600000    0.00000000
                                      S - P
                                                     2       13.6551200       85.86406000    0.00000000
 ======================================================================================================
 Ernie: Thresh=  0.10000D-02 Tol=  0.10000D-05 Strict=F.
 There are   213 symmetry adapted cartesian basis functions of A1  symmetry.
 There are    56 symmetry adapted cartesian basis functions of A2  symmetry.
 There are   114 symmetry adapted cartesian basis functions of B1  symmetry.
 There are   114 symmetry adapted cartesian basis functions of B2  symmetry.
 There are   157 symmetry adapted basis functions of A1  symmetry.
 There are    47 symmetry adapted basis functions of A2  symmetry.
 There are    90 symmetry adapted basis functions of B1  symmetry.
 There are    90 symmetry adapted basis functions of B2  symmetry.
   384 basis functions,   497 primitive gaussians,   497 cartesian basis functions
    10 alpha electrons        8 beta electrons
       nuclear repulsion energy        25.4005061242 Hartrees.
 IExCor=    0 DFT=F Ex=HF Corr=None ExCW=0 ScaHFX=  1.000000
 ScaDFX=  1.000000  1.000000  1.000000  1.000000 ScalE2=  1.000000  1.000000
 IRadAn=      5 IRanWt=     -1 IRanGd=            0 ICorTp=0 IEmpDi=  4
 NAtoms=    2 NActive=    2 NUniq=    2 SFac= 1.00D+00 NAtFMM=   60 NAOKFM=F Big=F
 Integral buffers will be    131072 words long.
 Raffenetti 2 integral format.
 Two-electron integral symmetry is turned on.
 Leave Link  301 at Sat Mar 10 00:27:42 2018, MaxMem= 10737418240 cpu:               4.5 elap:               0.3
 (Enter /home1/apps/gaussian/16rA.03/g16/l302.exe)
 NPDir=0 NMtPBC=     1 NCelOv=     1 NCel=       1 NClECP=     1 NCelD=      1
         NCelK=      1 NCelE2=     1 NClLst=     1 CellRange=     0.0.
 One-electron integrals computed using PRISM.
 One-electron integral symmetry used in STVInt
   4 Symmetry operations used in ECPInt.
 ECPInt:  NShTT=    6105 NPrTT=    6105 LenC2=    5618 LenP2D=    5617.
 LDataN:  DoStor=T MaxTD1=10 Len=  848
 NBasis=   384 RedAO= T EigKep=  2.13D-06  NBF=   157    47    90    90
 NBsUse=   380 1.00D-06 EigRej=  4.74D-07 NBFU=   155    47    89    89
 Leave Link  302 at Sat Mar 10 00:27:44 2018, MaxMem= 10737418240 cpu:              40.2 elap:               2.6
 (Enter /home1/apps/gaussian/16rA.03/g16/l303.exe)
 DipDrv:  MaxL=1.
 Leave Link  303 at Sat Mar 10 00:27:44 2018, MaxMem= 10737418240 cpu:               1.9 elap:               0.2
 (Enter /home1/apps/gaussian/16rA.03/g16/l401.exe)
 Initial guess from the checkpoint file:  "TiO.chk"
 B after Tr=     0.000000    0.000000    0.000000
         Rot=    1.000000    0.000000    0.000000    0.000000 Ang=   0.00 deg.
 Guess basis will be translated and rotated to current coordinates.
 JPrj=2 DoOrth=T DoCkMO=T.
 Initial guess orbital symmetries:
       Occupied  (SG) (SG) (PI) (PI) (SG) (PI) (PI) (SG) (SG) (?A)
       Virtual   (PI) (PI) (SG) (SG) (PI) (PI) (?A) (SG) (?A) (PI)
                 (PI) (SG) (SG) (?A) (SG) (PI) (PI) (?A) (PI) (PI)
                 (SG) (SG) (?A) (PI) (PI) (PI) (PI) (PHI) (PHI)
                 (DLTA) (DLTA) (SG) (SG) (PI) (PI) (SG) (SG) (?A)
                 (PI) (PI) (PI) (PI) (?A) (SG) (SG) (DLTA) (DLTA)
                 (PI) (PI) (SG) (?B) (?B) (PHI) (PHI) (DLTA) (DLTA)
                 (?C) (?C) (?C) (?C) (SG) (SG) (DLTA) (DLTA) (PI)
                 (PI) (SG) (PI) (PI) (SG) (PI) (PI) (?A) (?A) (SG)
                 (PI) (PI) (SG) (PHI) (PHI) (DLTA) (DLTA) (SG)
                 (PI) (PI) (SG) (DLTA) (DLTA) (PI) (PI) (SG) (PHI)
                 (PHI) (DLTA) (DLTA) (?B) (?B) (PHI) (PHI) (PI)
                 (PI) (DLTA) (DLTA) (SG) (PI) (PI) (SG) (SG) (PI)
                 (PI) (PI) (PI) (SG) (DLTA) (DLTA) (SG) (PI) (PI)
                 (SG) (SG) (PHI) (PHI) (DLTA) (DLTA) (PI) (PI)
                 (DLTA) (DLTA) (PI) (PI) (SG) (SG) (SG) (?C) (?C)
                 (DLTA) (DLTA) (?C) (?C) (PI) (PI) (SG) (SG) (PHI)
                 (PHI) (?B) (?B) (DLTA) (DLTA) (PI) (PI) (SG) (DLTA)
                 (DLTA) (PI) (PI) (SG) (PI) (PI) (SG) (SG) (SG)
                 (PI) (PI) (SG) (DLTA) (DLTA) (PI) (PI) (SG) (SG)
                 (SG) (PI) (PI) (SG) (DLTA) (DLTA) (PI) (PI) (SG)
                 (PI) (PI) (SG) (DLTA) (DLTA) (PI) (PI) (SG) (SG)
                 (SG) (PI) (PI) (SG) (PI) (PI) (SG) (SG) (SG) (PI)
                 (PI) (SG) (DLTA) (DLTA) (PI) (PI) (SG) (SG) (SG)
                 (PI) (PI) (SG) (PI) (PI) (SG) (SG) (SG) (PI) (PI)
                 (SG) (SG) (SG) (PI) (PI) (SG) (SG) (PI) (PI) (SG)
                 (SG) (SG) (PI) (PI) (SG) (SG) (SG) (SG) (PI) (PI)
                 (SG) (SG) (SG) (SG) (SG) (DLTA) (SG) (SG) (DLTA)
                 (SG) (SG) (SG) (SG) (SG) (DLTA) (DLTA) (SG) (SG)
                 (DLTA) (SG) (SG) (SG) (DLTA) (SG) (?B) (SG) (DLTA)
                 (SG) (DLTA) (SG) (?B) (DLTA) (SG) (DLTA) (SG)
                 (DLTA) (SG) (?B) (SG) (DLTA) (?B) (SG) (DLTA)
                 (DLTA) (SG) (DLTA) (?B) (?B) (SG) (DLTA) (DLTA)
                 (DLTA) (DLTA) (DLTA) (DLTA) (?B) (DLTA) (DLTA)
                 (?B) (DLTA) (DLTA) (DLTA) (?B) (DLTA) (?B) (DLTA)
                 (DLTA) (DLTA) (?B) (?B) (PI) (PI) (PI) (PI) (PI)
                 (PI) (PHI) (PI) (PI) (PI) (PI) (PHI) (PI) (PI)
                 (PHI) (PI) (PI) (PI) (PHI) (?D) (PHI) (PI) (PHI)
                 (PI) (PHI) (PI) (PI) (PHI) (?D) (PHI) (?D) (PI)
                 (PI) (PI) (PI) (PI) (PI) (PHI) (PI) (PI) (PI)
                 (PI) (PHI) (PI) (PI) (PHI) (PI) (PI) (PI) (PHI)
                 (?D) (PHI) (PI) (PHI) (PI) (PHI) (PI) (PI) (PHI)
                 (?D) (PHI) (?D)
 Leave Link  401 at Sat Mar 10 00:27:45 2018, MaxMem= 10737418240 cpu:              13.4 elap:               0.9
 (Enter /home1/apps/gaussian/16rA.03/g16/l502.exe)
 Keep R1 and R2 ints in memory in symmetry-blocked form, NReq=3425113631.
 FoFCou: FMM=F IPFlag=           8 FMFlag=           0 FMFlg1=           0
         NFxFlg=           0 DoJE=F BraDBF=F KetDBF=F FulRan=T
         wScrn=  0.000000 ICntrl=       600 IOpCl=  0 I1Cent=           0 NGrid=           0
         NMat0=    1 NMatS0=  73920 NMatT0=    0 NMatD0=    1 NMtDS0=    0 NMtDT0=    0
 Petite list used in FoFCou.
 Restricted open shell SCF:
 Using DIIS extrapolation, IDIIS=  1040.
 NGot= 10737418240 LenX=  9351093905 LenY=  9350846399
 Requested convergence on RMS density matrix=1.00D-08 within 300 cycles.
 Requested convergence on MAX density matrix=1.00D-06.
 Requested convergence on             energy=1.00D-06.
 No special actions if energy rises.

 Cycle   1  Pass 1  IDiag  1:
 E= -73.4074670951867    
 DIIS: error= 6.62D-01 at cycle   1 NSaved=   1.
 NSaved= 1 IEnMin= 1 EnMin= -73.4074670951867     IErMin= 1 ErrMin= 6.62D-01
 ErrMax= 6.62D-01  0.00D+00 EMaxC= 1.00D-01 BMatC= 2.10D+02 BMatP= 2.10D+02
 IDIUse=3 WtCom= 0.00D+00 WtEn= 1.00D+00
 Coeff-Com:  0.100D+01
 Coeff-En:   0.100D+01
 Coeff:      0.100D+01
 Gap=     0.075 Goal=   None    Shift=    0.000
 GapD=    0.075 DampG=0.500 DampE=0.125 DampFc=0.1250 IDamp=-1.
 Damping current iteration by 1.25D-01
 RMSDP=2.62D-03 MaxDP=2.19D-01              OVMax= 4.40D-03

 Cycle   2  Pass 1  IDiag  1:
 E= -73.4076355311327     Delta-E=       -0.000168435946 Rises=F Damp=T
 DIIS: error= 5.80D-01 at cycle   2 NSaved=   2.
 NSaved= 2 IEnMin= 2 EnMin= -73.4076355311327     IErMin= 2 ErrMin= 5.80D-01
 ErrMax= 5.80D-01  0.00D+00 EMaxC= 1.00D-01 BMatC= 1.60D+02 BMatP= 2.10D+02
 IDIUse=3 WtCom= 0.00D+00 WtEn= 1.00D+00
 Coeff-Com: -0.700D+01 0.800D+01
 Coeff-En:   0.000D+00 0.100D+01
 Coeff:      0.000D+00 0.100D+01
 Gap=     0.073 Goal=   None    Shift=    0.000
 RMSDP=2.30D-03 MaxDP=1.92D-01 DE=-1.68D-04 OVMax= 3.37D-03

 Cycle   3  Pass 1  IDiag  1:
 E= -73.4088466832784     Delta-E=       -0.001211152146 Rises=F Damp=F
 DIIS: error= 2.47D-04 at cycle   3 NSaved=   3.
 NSaved= 3 IEnMin= 3 EnMin= -73.4088466832784     IErMin= 3 ErrMin= 2.47D-04
 ErrMax= 2.47D-04  0.00D+00 EMaxC= 1.00D-01 BMatC= 8.04D-06 BMatP= 1.60D+02
 IDIUse=3 WtCom= 9.98D-01 WtEn= 2.47D-03
 Coeff-Com: -0.994D+00 0.114D+01 0.858D+00
 Coeff-En:   0.000D+00 0.000D+00 0.100D+01
 Coeff:     -0.992D+00 0.113D+01 0.858D+00
 Gap=     0.073 Goal=   None    Shift=    0.000
 RMSDP=1.23D-04 MaxDP=8.76D-03 DE=-1.21D-03 OVMax= 4.61D-03

 Cycle   4  Pass 1  IDiag  1:
 E= -73.4088491189008     Delta-E=       -0.000002435622 Rises=F Damp=F
 DIIS: error= 2.21D-04 at cycle   4 NSaved=   4.
 NSaved= 4 IEnMin= 4 EnMin= -73.4088491189008     IErMin= 4 ErrMin= 2.21D-04
 ErrMax= 2.21D-04  0.00D+00 EMaxC= 1.00D-01 BMatC= 1.99D-06 BMatP= 8.04D-06
 IDIUse=3 WtCom= 9.98D-01 WtEn= 2.21D-03
 Coeff-Com: -0.491D+00 0.561D+00 0.169D+00 0.761D+00
 Coeff-En:   0.000D+00 0.000D+00 0.402D+00 0.598D+00
 Coeff:     -0.490D+00 0.560D+00 0.169D+00 0.761D+00
 Gap=     0.073 Goal=   None    Shift=    0.000
 RMSDP=5.21D-05 MaxDP=1.54D-02 DE=-2.44D-06 OVMax= 8.10D-03

 Cycle   5  Pass 1  IDiag  1:
 E= -73.4088401723808     Delta-E=        0.000008946520 Rises=F Damp=F
 DIIS: error= 4.11D-04 at cycle   5 NSaved=   5.
 NSaved= 5 IEnMin= 4 EnMin= -73.4088491189008     IErMin= 4 ErrMin= 2.21D-04
 ErrMax= 4.11D-04  0.00D+00 EMaxC= 1.00D-01 BMatC= 4.89D-06 BMatP= 1.99D-06
 IDIUse=3 WtCom= 3.30D-01 WtEn= 6.70D-01
 Coeff-Com: -0.656D+00 0.750D+00-0.122D+00 0.593D+00 0.435D+00
 Coeff-En:   0.000D+00 0.000D+00 0.000D+00 0.620D+00 0.380D+00
 Coeff:     -0.217D+00 0.248D+00-0.403D-01 0.611D+00 0.398D+00
 Gap=     0.073 Goal=   None    Shift=    0.000
 RMSDP=2.42D-05 MaxDP=5.96D-03 DE= 8.95D-06 OVMax= 6.99D-03

 Cycle   6  Pass 1  IDiag  1:
 E= -73.4088516973047     Delta-E=       -0.000011524924 Rises=F Damp=F
 DIIS: error= 8.93D-05 at cycle   6 NSaved=   6.
 NSaved= 6 IEnMin= 6 EnMin= -73.4088516973047     IErMin= 6 ErrMin= 8.93D-05
 ErrMax= 8.93D-05  0.00D+00 EMaxC= 1.00D-01 BMatC= 3.66D-07 BMatP= 1.99D-06
 IDIUse=1 WtCom= 1.00D+00 WtEn= 0.00D+00
 Coeff-Com: -0.351D+00 0.402D+00-0.865D-01 0.321D+00 0.317D+00 0.399D+00
 Coeff:     -0.351D+00 0.402D+00-0.865D-01 0.321D+00 0.317D+00 0.399D+00
 Gap=     0.073 Goal=   None    Shift=    0.000
 RMSDP=2.05D-05 MaxDP=6.42D-03 DE=-1.15D-05 OVMax= 1.70D-03

 Cycle   7  Pass 1  IDiag  1:
 E= -73.4088522582406     Delta-E=       -0.000000560936 Rises=F Damp=F
 DIIS: error= 6.25D-05 at cycle   7 NSaved=   7.
 NSaved= 7 IEnMin= 7 EnMin= -73.4088522582406     IErMin= 7 ErrMin= 6.25D-05
 ErrMax= 6.25D-05  0.00D+00 EMaxC= 1.00D-01 BMatC= 1.22D-07 BMatP= 3.66D-07
 IDIUse=1 WtCom= 1.00D+00 WtEn= 0.00D+00
 Coeff-Com: -0.343D+00 0.392D+00-0.662D-01 0.825D-01 0.102D+00 0.101D+00
 Coeff-Com:  0.732D+00
 Coeff:     -0.343D+00 0.392D+00-0.662D-01 0.825D-01 0.102D+00 0.101D+00
 Coeff:      0.732D+00
 Gap=     0.073 Goal=   None    Shift=    0.000
 RMSDP=1.62D-06 MaxDP=3.50D-04 DE=-5.61D-07 OVMax= 2.41D-04

 Cycle   8  Pass 1  IDiag  1:
 E= -73.4088523415439     Delta-E=       -0.000000083303 Rises=F Damp=F
 DIIS: error= 4.26D-05 at cycle   8 NSaved=   8.
 NSaved= 8 IEnMin= 8 EnMin= -73.4088523415439     IErMin= 8 ErrMin= 4.26D-05
 ErrMax= 4.26D-05  0.00D+00 EMaxC= 1.00D-01 BMatC= 8.51D-08 BMatP= 1.22D-07
 IDIUse=1 WtCom= 1.00D+00 WtEn= 0.00D+00
 Coeff-Com: -0.303D+00 0.346D+00-0.496D-01-0.997D-02 0.578D-02-0.252D-01
 Coeff-Com:  0.327D+00 0.709D+00
 Coeff:     -0.303D+00 0.346D+00-0.496D-01-0.997D-02 0.578D-02-0.252D-01
 Coeff:      0.327D+00 0.709D+00
 Gap=     0.073 Goal=   None    Shift=    0.000
 RMSDP=2.97D-06 MaxDP=9.50D-04 DE=-8.33D-08 OVMax= 8.33D-05

 Cycle   9  Pass 1  IDiag  1:
 E= -73.4088523670158     Delta-E=       -0.000000025472 Rises=F Damp=F
 DIIS: error= 4.10D-05 at cycle   9 NSaved=   9.
 NSaved= 9 IEnMin= 9 EnMin= -73.4088523670158     IErMin= 9 ErrMin= 4.10D-05
 ErrMax= 4.10D-05  0.00D+00 EMaxC= 1.00D-01 BMatC= 6.60D-08 BMatP= 8.51D-08
 IDIUse=1 WtCom= 1.00D+00 WtEn= 0.00D+00
 Coeff-Com: -0.259D+00 0.297D+00-0.393D-01-0.280D-01-0.191D-01-0.641D-01
 Coeff-Com:  0.434D-01 0.177D+00 0.893D+00
 Coeff:     -0.259D+00 0.297D+00-0.393D-01-0.280D-01-0.191D-01-0.641D-01
 Coeff:      0.434D-01 0.177D+00 0.893D+00
 Gap=     0.073 Goal=   None    Shift=    0.000
 RMSDP=2.76D-06 MaxDP=8.88D-04 DE=-2.55D-08 OVMax= 6.04D-05

 Cycle  10  Pass 1  IDiag  1:
 E= -73.4088523907028     Delta-E=       -0.000000023687 Rises=F Damp=F
 DIIS: error= 3.41D-05 at cycle  10 NSaved=  10.
 NSaved=10 IEnMin=10 EnMin= -73.4088523907028     IErMin=10 ErrMin= 3.41D-05
 ErrMax= 3.41D-05  0.00D+00 EMaxC= 1.00D-01 BMatC= 4.86D-08 BMatP= 6.60D-08
 IDIUse=1 WtCom= 1.00D+00 WtEn= 0.00D+00
 Coeff-Com: -0.216D+00 0.246D+00-0.341D-01-0.764D-02-0.695D-03-0.338D-01
 Coeff-Com:  0.463D-01-0.155D+00 0.610D-01 0.109D+01
 Coeff:     -0.216D+00 0.246D+00-0.341D-01-0.764D-02-0.695D-03-0.338D-01
 Coeff:      0.463D-01-0.155D+00 0.610D-01 0.109D+01
 Gap=     0.073 Goal=   None    Shift=    0.000
 RMSDP=2.84D-06 MaxDP=9.17D-04 DE=-2.37D-08 OVMax= 5.48D-05

 Cycle  11  Pass 1  IDiag  1:
 E= -73.4088524112672     Delta-E=       -0.000000020564 Rises=F Damp=F
 DIIS: error= 2.84D-05 at cycle  11 NSaved=  11.
 NSaved=11 IEnMin=11 EnMin= -73.4088524112672     IErMin=11 ErrMin= 2.84D-05
 ErrMax= 2.84D-05  0.00D+00 EMaxC= 1.00D-01 BMatC= 3.38D-08 BMatP= 4.86D-08
 IDIUse=1 WtCom= 1.00D+00 WtEn= 0.00D+00
 Coeff-Com: -0.158D+00 0.181D+00-0.260D-01 0.378D-02 0.867D-02-0.142D-01
 Coeff-Com:  0.890D-01-0.709D-01-0.244D+00-0.468D+00 0.170D+01
 Coeff:     -0.158D+00 0.181D+00-0.260D-01 0.378D-02 0.867D-02-0.142D-01
 Coeff:      0.890D-01-0.709D-01-0.244D+00-0.468D+00 0.170D+01
 Gap=     0.073 Goal=   None    Shift=    0.000
 RMSDP=3.55D-06 MaxDP=1.14D-03 DE=-2.06D-08 OVMax= 7.72D-05

 Cycle  12  Pass 1  IDiag  1:
 E= -73.4088524327458     Delta-E=       -0.000000021479 Rises=F Damp=F
 DIIS: error= 2.09D-05 at cycle  12 NSaved=  12.
 NSaved=12 IEnMin=12 EnMin= -73.4088524327458     IErMin=12 ErrMin= 2.09D-05
 ErrMax= 2.09D-05  0.00D+00 EMaxC= 1.00D-01 BMatC= 1.81D-08 BMatP= 3.38D-08
 IDIUse=1 WtCom= 1.00D+00 WtEn= 0.00D+00
 Coeff-Com: -0.137D+00 0.156D+00-0.222D-01-0.155D-03 0.434D-02-0.157D-01
 Coeff-Com:  0.783D-01 0.156D-01-0.749D-01-0.822D+00 0.129D+01 0.526D+00
 Coeff:     -0.137D+00 0.156D+00-0.222D-01-0.155D-03 0.434D-02-0.157D-01
 Coeff:      0.783D-01 0.156D-01-0.749D-01-0.822D+00 0.129D+01 0.526D+00
 Gap=     0.073 Goal=   None    Shift=    0.000
 RMSDP=1.46D-06 MaxDP=4.70D-04 DE=-2.15D-08 OVMax= 3.09D-05

 Cycle  13  Pass 1  IDiag  1:
 E= -73.4088524391424     Delta-E=       -0.000000006397 Rises=F Damp=F
 DIIS: error= 1.80D-05 at cycle  13 NSaved=  13.
 NSaved=13 IEnMin=13 EnMin= -73.4088524391424     IErMin=13 ErrMin= 1.80D-05
 ErrMax= 1.80D-05  0.00D+00 EMaxC= 1.00D-01 BMatC= 1.35D-08 BMatP= 1.81D-08
 IDIUse=1 WtCom= 1.00D+00 WtEn= 0.00D+00
 Coeff-Com: -0.118D+00 0.135D+00-0.190D-01-0.334D-02 0.761D-03-0.168D-01
 Coeff-Com:  0.651D-01 0.675D-01 0.567D-01-0.937D+00 0.869D+00 0.533D+00
 Coeff-Com:  0.368D+00
 Coeff:     -0.118D+00 0.135D+00-0.190D-01-0.334D-02 0.761D-03-0.168D-01
 Coeff:      0.651D-01 0.675D-01 0.567D-01-0.937D+00 0.869D+00 0.533D+00
 Coeff:      0.368D+00
 Gap=     0.073 Goal=   None    Shift=    0.000
 RMSDP=1.23D-06 MaxDP=3.98D-04 DE=-6.40D-09 OVMax= 2.46D-05

 Cycle  14  Pass 1  IDiag  1:
 E= -73.4088524438425     Delta-E=       -0.000000004700 Rises=F Damp=F
 DIIS: error= 1.56D-05 at cycle  14 NSaved=  14.
 NSaved=14 IEnMin=14 EnMin= -73.4088524438425     IErMin=14 ErrMin= 1.56D-05
 ErrMax= 1.56D-05  0.00D+00 EMaxC= 1.00D-01 BMatC= 1.01D-08 BMatP= 1.35D-08
 IDIUse=1 WtCom= 1.00D+00 WtEn= 0.00D+00
 Coeff-Com: -0.105D+00 0.120D+00-0.167D-01-0.348D-02 0.138D-03-0.156D-01
 Coeff-Com:  0.545D-01 0.549D-01 0.678D-01-0.738D+00 0.665D+00 0.184D+00
 Coeff-Com:  0.437D-01 0.690D+00
 Coeff:     -0.105D+00 0.120D+00-0.167D-01-0.348D-02 0.138D-03-0.156D-01
 Coeff:      0.545D-01 0.549D-01 0.678D-01-0.738D+00 0.665D+00 0.184D+00
 Coeff:      0.437D-01 0.690D+00
 Gap=     0.073 Goal=   None    Shift=    0.000
 RMSDP=8.51D-07 MaxDP=2.74D-04 DE=-4.70D-09 OVMax= 1.74D-05

 Cycle  15  Pass 1  IDiag  1:
 E= -73.4088524467850     Delta-E=       -0.000000002943 Rises=F Damp=F
 DIIS: error= 1.38D-05 at cycle  15 NSaved=  15.
 NSaved=15 IEnMin=15 EnMin= -73.4088524467850     IErMin=15 ErrMin= 1.38D-05
 ErrMax= 1.38D-05  0.00D+00 EMaxC= 1.00D-01 BMatC= 7.92D-09 BMatP= 1.01D-08
 IDIUse=1 WtCom= 1.00D+00 WtEn= 0.00D+00
 Coeff-Com: -0.755D-01 0.863D-01-0.121D-01-0.181D-02 0.669D-03-0.108D-01
 Coeff-Com:  0.368D-01 0.139D-01 0.249D-01-0.323D+00 0.447D+00-0.221D+00
 Coeff-Com: -0.406D+00-0.583D+00 0.202D+01
 Coeff:     -0.755D-01 0.863D-01-0.121D-01-0.181D-02 0.669D-03-0.108D-01
 Coeff:      0.368D-01 0.139D-01 0.249D-01-0.323D+00 0.447D+00-0.221D+00
 Coeff:     -0.406D+00-0.583D+00 0.202D+01
 Gap=     0.073 Goal=   None    Shift=    0.000
 RMSDP=1.89D-06 MaxDP=6.10D-04 DE=-2.94D-09 OVMax= 3.83D-05

 Cycle  16  Pass 1  IDiag  1:
 E= -73.4088524520157     Delta-E=       -0.000000005231 Rises=F Damp=F
 DIIS: error= 9.95D-06 at cycle  16 NSaved=  16.
 NSaved=16 IEnMin=16 EnMin= -73.4088524520157     IErMin=16 ErrMin= 9.95D-06
 ErrMax= 9.95D-06  0.00D+00 EMaxC= 1.00D-01 BMatC= 4.11D-09 BMatP= 7.92D-09
 IDIUse=1 WtCom= 1.00D+00 WtEn= 0.00D+00
 Coeff-Com: -0.349D-01 0.399D-01-0.575D-02 0.131D-02 0.227D-02-0.297D-02
 Coeff-Com:  0.180D-01-0.311D-01-0.631D-01 0.721D-01 0.329D+00-0.236D+00
 Coeff-Com: -0.487D+00-0.351D+01 0.412D+01 0.790D+00
 Coeff:     -0.349D-01 0.399D-01-0.575D-02 0.131D-02 0.227D-02-0.297D-02
 Coeff:      0.180D-01-0.311D-01-0.631D-01 0.721D-01 0.329D+00-0.236D+00
 Coeff:     -0.487D+00-0.351D+01 0.412D+01 0.790D+00
 Gap=     0.073 Goal=   None    Shift=    0.000
 RMSDP=2.65D-06 MaxDP=8.58D-04 DE=-5.23D-09 OVMax= 5.28D-05

 Cycle  17  Pass 1  IDiag  1:
 E= -73.4088524564818     Delta-E=       -0.000000004466 Rises=F Damp=F
 DIIS: error= 4.61D-06 at cycle  17 NSaved=  17.
 NSaved=17 IEnMin=17 EnMin= -73.4088524564818     IErMin=17 ErrMin= 4.61D-06
 ErrMax= 4.61D-06  0.00D+00 EMaxC= 1.00D-01 BMatC= 8.76D-10 BMatP= 4.11D-09
 IDIUse=1 WtCom= 1.00D+00 WtEn= 0.00D+00
 Coeff-Com: -0.588D-02 0.672D-02-0.102D-02 0.777D-03 0.922D-03 0.124D-03
 Coeff-Com:  0.397D-02-0.116D-01-0.350D-01 0.363D-01 0.106D+00 0.186D-01
 Coeff-Com: -0.787D-01-0.202D+01 0.161D+01 0.400D+00 0.964D+00
 Coeff:     -0.588D-02 0.672D-02-0.102D-02 0.777D-03 0.922D-03 0.124D-03
 Coeff:      0.397D-02-0.116D-01-0.350D-01 0.363D-01 0.106D+00 0.186D-01
 Coeff:     -0.787D-01-0.202D+01 0.161D+01 0.400D+00 0.964D+00
 Gap=     0.073 Goal=   None    Shift=    0.000
 RMSDP=1.88D-06 MaxDP=6.06D-04 DE=-4.47D-09 OVMax= 3.75D-05

 Cycle  18  Pass 1  IDiag  1:
 E= -73.4088524576447     Delta-E=       -0.000000001163 Rises=F Damp=F
 DIIS: error= 7.75D-07 at cycle  18 NSaved=  18.
 NSaved=18 IEnMin=18 EnMin= -73.4088524576447     IErMin=18 ErrMin= 7.75D-07
 ErrMax= 7.75D-07  0.00D+00 EMaxC= 1.00D-01 BMatC= 2.49D-11 BMatP= 8.76D-10
 IDIUse=1 WtCom= 1.00D+00 WtEn= 0.00D+00
 Large coefficients: NSaved= 18 BigCof=    0.00 CofMax=   10.00 Det=-8.34D-15
 Inversion failed.  Reducing to 17 matrices.
 Large coefficients: NSaved= 17 BigCof=    0.00 CofMax=   10.00 Det=-9.36D-15
 Inversion failed.  Reducing to 16 matrices.
 Large coefficients: NSaved= 16 BigCof=    0.00 CofMax=   10.00 Det=-9.36D-15
 Inversion failed.  Reducing to 15 matrices.
 Coeff-Com: -0.292D-05-0.154D-04 0.212D-04 0.407D-03 0.229D-02 0.427D-04
 Coeff-Com: -0.260D-01 0.128D-01 0.512D-01 0.530D-01-0.124D-01-0.173D+00
 Coeff-Com: -0.193D-01 0.777D-01 0.103D+01
 Coeff:     -0.292D-05-0.154D-04 0.212D-04 0.407D-03 0.229D-02 0.427D-04
 Coeff:     -0.260D-01 0.128D-01 0.512D-01 0.530D-01-0.124D-01-0.173D+00
 Coeff:     -0.193D-01 0.777D-01 0.103D+01
 Gap=     0.073 Goal=   None    Shift=    0.000
 RMSDP=3.77D-07 MaxDP=1.22D-04 DE=-1.16D-09 OVMax= 7.60D-06

 Cycle  19  Pass 1  IDiag  1:
 E= -73.4088524576788     Delta-E=       -0.000000000034 Rises=F Damp=F
 DIIS: error= 5.61D-09 at cycle  19 NSaved=  16.
 NSaved=16 IEnMin=16 EnMin= -73.4088524576788     IErMin=16 ErrMin= 5.61D-09
 ErrMax= 5.61D-09  0.00D+00 EMaxC= 1.00D-01 BMatC= 3.59D-15 BMatP= 2.49D-11
 IDIUse=1 WtCom= 1.00D+00 WtEn= 0.00D+00
 Large coefficients: NSaved= 16 BigCof=    0.00 CofMax=   10.00 Det=-9.43D-15
 Inversion failed.  Reducing to 15 matrices.
 Coeff-Com: -0.504D-05 0.709D-05 0.203D-03 0.117D-02 0.375D-03-0.129D-01
 Coeff-Com:  0.408D-02 0.226D-01 0.275D-01 0.952D-01-0.158D+00-0.298D-01
 Coeff-Com: -0.180D-01 0.469D+00 0.599D+00
 Coeff:     -0.504D-05 0.709D-05 0.203D-03 0.117D-02 0.375D-03-0.129D-01
 Coeff:      0.408D-02 0.226D-01 0.275D-01 0.952D-01-0.158D+00-0.298D-01
 Coeff:     -0.180D-01 0.469D+00 0.599D+00
 Gap=     0.073 Goal=   None    Shift=    0.000
 RMSDP=4.05D-09 MaxDP=5.79D-07 DE=-3.41D-11 OVMax= 2.29D-07

 SCF Done:  E(ROHF) =  -73.4088524577     A.U. after   19 cycles
            NFock= 19  Conv=0.40D-08     -V/T= 2.9354
 <Sx>= 0.0000 <Sy>= 0.0000 <Sz>= 1.0000 <S**2>= 2.0000 S= 1.0000
 <L.S>=  0.00000000000    
 KE= 3.792964896027D+01 PE=-2.126786681213D+02 EE= 7.593966057916D+01
 Annihilation of the first spin contaminant:
 S**2 before annihilation     2.0000,   after     2.0000
 Leave Link  502 at Sat Mar 10 00:30:03 2018, MaxMem= 10737418240 cpu:            1938.8 elap:             137.9
 (Enter /home1/apps/gaussian/16rA.03/g16/l801.exe)
 Windowed orbitals will be sorted by symmetry type.
 GenMOA:  NOpAll=  4 NOp2=4 NOpUse=  4 JSym2X=1
 FoFJK:  IHMeth= 1 ICntrl=       0 DoSepK=F KAlg= 0 I1Cent=           0 FoldK=F
 IRaf=         0 NMat=       1 IRICut=       1 DoRegI=T DoRafI=F ISym2E= 1 IDoP0=0 IntGTp=1.
 FoFCou: FMM=F IPFlag=           8 FMFlag=      100000 FMFlg1=           0
         NFxFlg=           0 DoJE=F BraDBF=F KetDBF=F FulRan=T
         wScrn=  0.000000 ICntrl=         0 IOpCl=  1 I1Cent=           0 NGrid=           0
         NMat0=    1 NMatS0=      1 NMatT0=    0 NMatD0=    1 NMtDS0=    0 NMtDT0=    0
 Petite list used in FoFCou.
 <Sx>= 0.0000 <Sy>= 0.0000 <Sz>= 1.0000 <S**2>= 2.0000 S= 1.0000
 Range of M.O.s used for correlation:     1   380
 NBasis=   384 NAE=    10 NBE=     8 NFC=     0 NFV=     0
 NROrb=    380 NOA=    10 NOB=     8 NVA=   370 NVB=   372

 **** Warning!!: The largest alpha MO coefficient is  0.28249967D+03


 **** Warning!!: The largest beta MO coefficient is  0.28249978D+03

 Singles contribution to E2=   -0.2855641778D-02
 Leave Link  801 at Sat Mar 10 00:30:39 2018, MaxMem= 10737418240 cpu:             557.4 elap:              34.9
 (Enter /home1/apps/gaussian/16rA.03/g16/l804.exe)
 Open-shell transformation, MDV= 10737418240 ITran=4 ISComp=2.
 Unit  1 TFree=       4464539 TCopy=       3212973.
 Semi-Direct transformation.
 ModeAB=           4 MOrb=            10 LenV=   10733100398
 LASXX=     69137648 LTotXX=    69137648 LenRXX=   139011840
 LTotAB=    69874192 MaxLAS=   466066200 LenRXY=           0
 NonZer=   208149488 LenScr=   313449472 LnRSAI=   466066200
 LnScr1=   701841408 LExtra=    19344831 Total=   1639713751
 MaxDsk= 67108864000 SrtSym=           T ITran=            4
 DoSDTr:  NPSUse= 16
 JobTyp=1 Pass  1:  I=   1 to  10.
 (rs|ai) integrals will be sorted in core.
 Complete sort for first half transformation.
 First half transformation complete.
 Begin second half transformation for I=  10.
 Complete sort for second half transformation.
 Second half transformation complete.
 ModeAB=           4 MOrb=             8 LenV=   10733100398
 LASXX=     55242478 LTotXX=    55242478 LenRXX=   108077878
 LTotAB=    52835400 MaxLAS=   372852960 LenRXY=           0
 NonZer=   163320356 LenScr=   245941248 LnRSAI=   372852960
 LnScr1=   561473536 LExtra=   158356671 Total=   1446702293
 MaxDsk= 67108864000 SrtSym=           T ITran=            4
 DoSDTr:  NPSUse= 16
 JobTyp=2 Pass  1:  I=   1 to   8.
 (rs|ai) integrals will be sorted in core.
 Complete sort for first half transformation.
 First half transformation complete.
 Complete sort for second half transformation.
 Second half transformation complete.
 Spin components of T(2) and E(2):
     alpha-alpha T2 =       0.3320089107D-01 E2=     -0.1176066513D+00
     alpha-beta  T2 =       0.1264771278D+00 E2=     -0.5603774225D+00
     beta-beta   T2 =       0.2482710276D-01 E2=     -0.9264706879D-01
 ANorm=    0.1088861168D+01
 E2 =    -0.7734867843D+00 EUMP2 =    -0.74182339241985D+02
 (S**2,0)=  0.20000D+01           (S**2,1)=  0.20000D+01
 E(PUHF)=      -0.73408852458D+02        E(PMP2)=      -0.74182339242D+02
 Recovering and transforming amplitudes from chk file.
 B after Tr=     0.000000    0.000000    0.000000
         Rot=    1.000000    0.000000    0.000000    0.000000 Ang=   0.00 deg.
 Alpha occ  Sing. vals= 9.999992D-01 9.999992D-01 9.999992D-01 9.999987D-01 9.999973D-01 9.999969D-01 9.999914D-01 9.999715D-01 9.999682D-01 9.999682D-01
 Alpha occ  NOrbO=    10 NOrbN=    10 NSVal=    10 ThrEig=  0.900000.
 TrMax= 1.000000D+00 PrMax= 1.000000D+00 Trace(Pr)= 1.000000D+01
 B after Tr=     0.000000    0.000000    0.000000
         Rot=    1.000000    0.000000    0.000000    0.000000 Ang=   0.00 deg.
 Alpha virt Sing. vals= 1.000000D+00 1.000000D+00 1.000000D+00 1.000000D+00 1.000000D+00 1.000000D+00 1.000000D+00 1.000000D+00 1.000000D+00 1.000000D+00
 Alpha virt Sing. vals= 1.000000D+00 1.000000D+00 1.000000D+00 1.000000D+00 1.000000D+00 1.000000D+00 1.000000D+00 1.000000D+00 1.000000D+00 1.000000D+00
 Alpha virt Sing. vals= 1.000000D+00 1.000000D+00 1.000000D+00 1.000000D+00 1.000000D+00 9.999999D-01 9.999999D-01 9.999999D-01 9.999999D-01 9.999999D-01
 Alpha virt Sing. vals= 9.999999D-01 9.999999D-01 9.999999D-01 9.999999D-01 9.999999D-01 9.999999D-01 9.999999D-01 9.999999D-01 9.999998D-01 9.999998D-01
 Alpha virt Sing. vals= 9.999998D-01 9.999997D-01 9.999997D-01 9.999996D-01 9.999995D-01 9.999995D-01 9.999995D-01 9.999995D-01 9.999994D-01 9.999993D-01
 Alpha virt Sing. vals= 9.999993D-01 9.999992D-01 9.999991D-01 9.999988D-01 9.999979D-01 9.999960D-01 9.999960D-01 9.999958D-01 9.999955D-01 9.999954D-01
 Alpha virt Sing. vals= 9.999954D-01 9.999951D-01 9.999947D-01 9.999947D-01 9.999892D-01 9.999860D-01 9.999850D-01 9.999841D-01 9.999841D-01 9.999805D-01
 Alpha virt Sing. vals= 9.999780D-01 9.999780D-01 9.999700D-01 9.999679D-01 9.999656D-01 9.999651D-01 9.999648D-01 9.999648D-01 9.999602D-01 9.999602D-01
 Alpha virt Sing. vals= 9.999551D-01 9.999360D-01 9.999251D-01 9.999221D-01 9.999211D-01 9.999177D-01 9.999174D-01 9.999071D-01 9.999046D-01 9.999046D-01
 Alpha virt Sing. vals= 9.998702D-01 9.998702D-01 9.998227D-01 9.998227D-01 9.998036D-01 9.997893D-01 9.997893D-01 9.997670D-01 9.997574D-01 9.997537D-01
 Alpha virt Sing. vals= 9.997537D-01 9.997488D-01 9.997061D-01 9.997044D-01 9.997044D-01 9.997040D-01 9.997040D-01 9.996826D-01 9.996826D-01 9.996743D-01
 Alpha virt Sing. vals= 9.996683D-01 9.996683D-01 9.995822D-01 9.995775D-01 9.995775D-01 9.995767D-01 9.995685D-01 9.995685D-01 9.995276D-01 9.995276D-01
 Alpha virt Sing. vals= 9.994964D-01 9.994963D-01 9.994572D-01 9.993405D-01 9.993405D-01 9.993057D-01 9.991096D-01 9.990015D-01 9.990015D-01 9.988655D-01
 Alpha virt Sing. vals= 9.987876D-01 9.987871D-01 9.987347D-01 9.987008D-01 9.986986D-01 9.985092D-01 9.985092D-01 9.983344D-01 9.982141D-01 9.982141D-01
 Alpha virt Sing. vals= 9.979417D-01 9.979417D-01 9.978127D-01 9.978122D-01 9.976833D-01 9.972520D-01 9.972520D-01 9.971225D-01 9.971225D-01 9.968060D-01
 Alpha virt Sing. vals= 9.968060D-01 9.966483D-01 9.965666D-01 9.965666D-01 9.964288D-01 9.964287D-01 9.964075D-01 9.962303D-01 9.962303D-01 9.961374D-01
 Alpha virt Sing. vals= 9.959727D-01 9.959727D-01 9.959177D-01 9.959177D-01 9.959134D-01 9.958704D-01 9.958704D-01 9.953899D-01 9.948753D-01 9.948753D-01
 Alpha virt Sing. vals= 9.948713D-01 9.937114D-01 9.919498D-01 9.916525D-01 9.915546D-01 9.915544D-01 9.902430D-01 9.902430D-01 9.889476D-01 9.889476D-01
 Alpha virt Sing. vals= 9.875949D-01 9.875949D-01 9.875915D-01 9.875915D-01 9.875822D-01 9.837623D-01 9.809171D-01 9.809171D-01 9.807345D-01 9.807344D-01
 Alpha virt Sing. vals= 9.804115D-01 9.800201D-01 9.785289D-01 9.785289D-01 9.776771D-01 9.776771D-01 9.757610D-01 9.757610D-01 9.718425D-01 9.718407D-01
 Alpha virt Sing. vals= 9.713373D-01 9.713368D-01 9.670614D-01 9.577151D-01 9.577151D-01 9.552268D-01 9.552268D-01 9.540744D-01 9.492435D-01 9.461094D-01
 Alpha virt Sing. vals= 9.461094D-01 9.450197D-01 9.424484D-01 9.380684D-01 9.357585D-01 9.357585D-01 9.357547D-01 9.297148D-01 9.297148D-01 9.257338D-01
 Alpha virt Sing. vals= 9.257338D-01 9.193583D-01 9.193583D-01 9.189858D-01 9.189858D-01 8.948997D-01 8.860855D-01 8.860851D-01 8.722293D-01 8.722293D-01
 Alpha virt Sing. vals= 8.661376D-01 8.661376D-01 8.622068D-01 8.622067D-01 8.555477D-01 8.547469D-01 8.547469D-01 8.507682D-01 8.507682D-01 8.384649D-01
 Alpha virt Sing. vals= 7.965191D-01 7.965191D-01 5.020209D-01
 Alpha virt NOrbO=   243 NOrbN=   370 NSVal=   225 ThrEig=  0.900000.
 TrMax= 9.986195D-01 PrMax= 9.995387D-01 Trace(Pr)= 2.250000D+02
 B after Tr=     0.000000    0.000000    0.000000
         Rot=    1.000000    0.000000    0.000000    0.000000 Ang=   0.00 deg.
 Beta  occ  Sing. vals= 9.999992D-01 9.999992D-01 9.999992D-01 9.999986D-01 9.999972D-01 9.999715D-01 9.999682D-01 9.999682D-01
 Beta  occ  NOrbO=     8 NOrbN=     8 NSVal=     8 ThrEig=  0.900000.
 TrMax= 1.000000D+00 PrMax= 1.000000D+00 Trace(Pr)= 8.000000D+00
 B after Tr=     0.000000    0.000000    0.000000
         Rot=    1.000000    0.000000    0.000000    0.000000 Ang=   0.00 deg.
 Beta  virt Sing. vals= 1.000000D+00 1.000000D+00 1.000000D+00 1.000000D+00 1.000000D+00 1.000000D+00 1.000000D+00 1.000000D+00 1.000000D+00 1.000000D+00
 Beta  virt Sing. vals= 1.000000D+00 1.000000D+00 1.000000D+00 1.000000D+00 1.000000D+00 1.000000D+00 1.000000D+00 1.000000D+00 1.000000D+00 1.000000D+00
 Beta  virt Sing. vals= 1.000000D+00 1.000000D+00 1.000000D+00 1.000000D+00 1.000000D+00 1.000000D+00 1.000000D+00 1.000000D+00 9.999999D-01 9.999999D-01
 Beta  virt Sing. vals= 9.999999D-01 9.999999D-01 9.999999D-01 9.999999D-01 9.999999D-01 9.999999D-01 9.999999D-01 9.999999D-01 9.999999D-01 9.999998D-01
 Beta  virt Sing. vals= 9.999998D-01 9.999998D-01 9.999998D-01 9.999997D-01 9.999997D-01 9.999996D-01 9.999995D-01 9.999995D-01 9.999995D-01 9.999994D-01
 Beta  virt Sing. vals= 9.999994D-01 9.999993D-01 9.999993D-01 9.999992D-01 9.999991D-01 9.999987D-01 9.999979D-01 9.999960D-01 9.999960D-01 9.999957D-01
 Beta  virt Sing. vals= 9.999955D-01 9.999954D-01 9.999954D-01 9.999951D-01 9.999947D-01 9.999947D-01 9.999892D-01 9.999860D-01 9.999850D-01 9.999841D-01
 Beta  virt Sing. vals= 9.999841D-01 9.999805D-01 9.999780D-01 9.999780D-01 9.999700D-01 9.999679D-01 9.999651D-01 9.999651D-01 9.999648D-01 9.999648D-01
 Beta  virt Sing. vals= 9.999602D-01 9.999602D-01 9.999551D-01 9.999360D-01 9.999251D-01 9.999221D-01 9.999211D-01 9.999174D-01 9.999174D-01 9.999071D-01
 Beta  virt Sing. vals= 9.999046D-01 9.999046D-01 9.998702D-01 9.998702D-01 9.998227D-01 9.998227D-01 9.998036D-01 9.997893D-01 9.997893D-01 9.997670D-01
 Beta  virt Sing. vals= 9.997574D-01 9.997537D-01 9.997537D-01 9.997488D-01 9.997061D-01 9.997044D-01 9.997044D-01 9.997040D-01 9.997040D-01 9.996826D-01
 Beta  virt Sing. vals= 9.996826D-01 9.996743D-01 9.996683D-01 9.996683D-01 9.995822D-01 9.995775D-01 9.995775D-01 9.995767D-01 9.995685D-01 9.995685D-01
 Beta  virt Sing. vals= 9.995276D-01 9.995276D-01 9.994963D-01 9.994963D-01 9.994572D-01 9.993405D-01 9.993405D-01 9.993056D-01 9.991095D-01 9.990015D-01
 Beta  virt Sing. vals= 9.990015D-01 9.988655D-01 9.987871D-01 9.987871D-01 9.987347D-01 9.986986D-01 9.986986D-01 9.985092D-01 9.985092D-01 9.983344D-01
 Beta  virt Sing. vals= 9.982141D-01 9.982141D-01 9.979417D-01 9.979417D-01 9.978122D-01 9.978122D-01 9.976833D-01 9.972520D-01 9.972520D-01 9.971225D-01
 Beta  virt Sing. vals= 9.971225D-01 9.968060D-01 9.968060D-01 9.966482D-01 9.965666D-01 9.965666D-01 9.964287D-01 9.964287D-01 9.964075D-01 9.962303D-01
 Beta  virt Sing. vals= 9.962303D-01 9.961374D-01 9.959727D-01 9.959727D-01 9.959177D-01 9.959177D-01 9.959134D-01 9.958704D-01 9.958704D-01 9.953899D-01
 Beta  virt Sing. vals= 9.948753D-01 9.948753D-01 9.948713D-01 9.937113D-01 9.919498D-01 9.916525D-01 9.915544D-01 9.915544D-01 9.902430D-01 9.902430D-01
 Beta  virt Sing. vals= 9.889476D-01 9.889476D-01 9.875949D-01 9.875949D-01 9.875915D-01 9.875915D-01 9.875816D-01 9.837622D-01 9.809171D-01 9.809171D-01
 Beta  virt Sing. vals= 9.807344D-01 9.807344D-01 9.804115D-01 9.800201D-01 9.785289D-01 9.785289D-01 9.776771D-01 9.776771D-01 9.757610D-01 9.757610D-01
 Beta  virt Sing. vals= 9.718407D-01 9.718407D-01 9.713368D-01 9.713368D-01 9.670614D-01 9.577151D-01 9.577151D-01 9.552268D-01 9.552268D-01 9.540743D-01
 Beta  virt Sing. vals= 9.492435D-01 9.461094D-01 9.461094D-01 9.450197D-01 9.424484D-01 9.380684D-01 9.357585D-01 9.357585D-01 9.357547D-01 9.297148D-01
 Beta  virt Sing. vals= 9.297148D-01 9.257338D-01 9.257338D-01 9.193583D-01 9.193583D-01 9.189858D-01 9.189858D-01 8.948997D-01 8.860851D-01 8.860851D-01
 Beta  virt Sing. vals= 8.722293D-01 8.722293D-01 8.661376D-01 8.661376D-01 8.622068D-01 8.622068D-01 8.555477D-01 8.547469D-01 8.547469D-01 8.507682D-01
 Beta  virt Sing. vals= 8.507682D-01 8.384647D-01 7.965191D-01 7.965191D-01 5.020209D-01
 Beta  virt NOrbO=   245 NOrbN=   372 NSVal=   227 ThrEig=  0.900000.
 TrMax= 9.997516D-01 PrMax= 9.999159D-01 Trace(Pr)= 2.270000D+02
 Leave Link  804 at Sat Mar 10 00:43:38 2018, MaxMem= 10737418240 cpu:           12450.3 elap:             779.0
 (Enter /home1/apps/gaussian/16rA.03/g16/l913.exe)
 CIDS:  MDV= 10737418240.
 IFCWin=0 IBDFC=1 NFBD=     0     0 NFCmp=     0     0 NFFFC=     0     0
 Amplitudes recovered.
 Using DD4UQ or CC4UQ for all iterations.
 Keep R2 and R3 ints in memory in symmetry-blocked form, NReq=3425132707.
 FoFCou: FMM=F IPFlag=           8 FMFlag=           0 FMFlg1=           0
         NFxFlg=           0 DoJE=F BraDBF=F KetDBF=F FulRan=T
         wScrn=  0.000000 ICntrl=       600 IOpCl=  0 I1Cent=           0 NGrid=           0
         NMat0=    1 NMatS0=  73920 NMatT0=    0 NMatD0=    1 NMtDS0=    0 NMtDT0=    0
 Petite list used in FoFCou.
 CIDS: In Core Option IDoMem=           1.
 CCSD(T)
 =======
 Iterations= 150 Convergence= 0.100D-06
 Produce multiple copies of IABC intergrals
 Iteration Nr.   1
 **********************
 DD1Dir will call FoFMem   1 times, MxPair=       234
 NAB=    80 NAA=    45 NBB=    28.
 Maximum subspace dimension=  5
 A-vector RMS=  1.4434449D-04 Max=  1.5153095D-03 conv= 1.00D-05.
 RLE energy=       -0.7550423669
 DE(Corr)= -0.75488308     E(Corr)=     -74.163735536    
 NORM(A)=   0.11025670D+01
 Iteration Nr.   2
 **********************
 DD1Dir will call FoFMem   1 times, MxPair=       234
 NAB=    80 NAA=    45 NBB=    28.
 A-vector RMS=  5.2393402D-05 Max=  5.6229860D-04 conv= 1.00D-05.
 RLE energy=       -0.7551573344
 DE(Corr)= -0.75516663     E(CORR)=     -74.164019087     Delta=-2.84D-04
 NORM(A)=   0.11028575D+01
 Iteration Nr.   3
 **********************
 DD1Dir will call FoFMem   1 times, MxPair=       234
 NAB=    80 NAA=    45 NBB=    28.
 A-vector RMS=  2.8773308D-05 Max=  3.4869257D-04 conv= 1.00D-05.
 RLE energy=       -0.7554939721
 DE(Corr)= -0.75551627     E(CORR)=     -74.164368727     Delta=-3.50D-04
 NORM(A)=   0.11029218D+01
 Iteration Nr.   4
 **********************
 DD1Dir will call FoFMem   1 times, MxPair=       234
 NAB=    80 NAA=    45 NBB=    28.
 A-vector RMS=  2.3655343D-05 Max=  2.5361775D-04 conv= 1.00D-05.
 RLE energy=       -0.7553634418
 DE(Corr)= -0.75528754     E(CORR)=     -74.164139995     Delta= 2.29D-04
 NORM(A)=   0.11029967D+01
 Iteration Nr.   5
 **********************
 DD1Dir will call FoFMem   1 times, MxPair=       234
 NAB=    80 NAA=    45 NBB=    28.
 A-vector RMS=  7.7785401D-06 Max=  1.8587715D-04 conv= 1.00D-05.
 RLE energy=       -0.7553961841
 DE(Corr)= -0.75541496     E(CORR)=     -74.164267414     Delta=-1.27D-04
 NORM(A)=   0.11030556D+01
 Iteration Nr.   6
 **********************
 DD1Dir will call FoFMem   1 times, MxPair=       234
 NAB=    80 NAA=    45 NBB=    28.
 A-vector RMS=  4.1637856D-06 Max=  9.7403977D-05 conv= 1.00D-05.
 RLE energy=       -0.7553947164
 DE(Corr)= -0.75538881     E(CORR)=     -74.164241272     Delta= 2.61D-05
 NORM(A)=   0.11031027D+01
 Iteration Nr.   7
 **********************
 DD1Dir will call FoFMem   1 times, MxPair=       234
 NAB=    80 NAA=    45 NBB=    28.
 A-vector RMS=  1.8577844D-06 Max=  4.6351693D-05 conv= 1.00D-05.
 RLE energy=       -0.7554005398
 DE(Corr)= -0.75539992     E(CORR)=     -74.164252380     Delta=-1.11D-05
 NORM(A)=   0.11031234D+01
 Iteration Nr.   8
 **********************
 DD1Dir will call FoFMem   1 times, MxPair=       234
 NAB=    80 NAA=    45 NBB=    28.
 A-vector RMS=  7.5841333D-07 Max=  1.9770220D-05 conv= 1.00D-05.
 RLE energy=       -0.7554008103
 DE(Corr)= -0.75540027     E(CORR)=     -74.164252733     Delta=-3.53D-07
 NORM(A)=   0.11031325D+01
 Iteration Nr.   9
 **********************
 DD1Dir will call FoFMem   1 times, MxPair=       234
 NAB=    80 NAA=    45 NBB=    28.
 A-vector RMS=  4.7542602D-07 Max=  5.5118304D-06 conv= 1.00D-05.
 RLE energy=       -0.7554022797
 DE(Corr)= -0.75540198     E(CORR)=     -74.164254442     Delta=-1.71D-06
 NORM(A)=   0.11031351D+01
 Iteration Nr.  10
 **********************
 DD1Dir will call FoFMem   1 times, MxPair=       234
 NAB=    80 NAA=    45 NBB=    28.
 A-vector RMS=  1.4833569D-07 Max=  2.2233550D-06 conv= 1.00D-05.
 RLE energy=       -0.7554018222
 DE(Corr)= -0.75540172     E(CORR)=     -74.164254178     Delta= 2.64D-07
 NORM(A)=   0.11031357D+01
 Iteration Nr.  11
 **********************
 DD1Dir will call FoFMem   1 times, MxPair=       234
 NAB=    80 NAA=    45 NBB=    28.
 A-vector RMS=  1.0817640D-07 Max=  1.9547471D-06 conv= 1.00D-05.
 RLE energy=       -0.7554021896
 DE(Corr)= -0.75540218     E(CORR)=     -74.164254643     Delta=-4.65D-07
 NORM(A)=   0.11031358D+01
 Iteration Nr.  12
 **********************
 DD1Dir will call FoFMem   1 times, MxPair=       234
 NAB=    80 NAA=    45 NBB=    28.
 A-vector RMS=  4.6312052D-08 Max=  5.4860922D-07 conv= 1.00D-05.
 RLE energy=       -0.7554019039
 DE(Corr)= -0.75540187     E(CORR)=     -74.164254329     Delta= 3.14D-07
 NORM(A)=   0.11031358D+01
 Iteration Nr.  13
 **********************
 DD1Dir will call FoFMem   1 times, MxPair=       234
 NAB=    80 NAA=    45 NBB=    28.
 A-vector RMS=  2.9820510D-08 Max=  3.8925101D-07 conv= 1.00D-05.
 RLE energy=       -0.7554020824
 DE(Corr)= -0.75540212     E(CORR)=     -74.164254580     Delta=-2.51D-07
 NORM(A)=   0.11031358D+01
 Iteration Nr.  14
 **********************
 DD1Dir will call FoFMem   1 times, MxPair=       234
 NAB=    80 NAA=    45 NBB=    28.
 A-vector RMS=  1.8505881D-08 Max=  2.3220559D-07 conv= 1.00D-05.
 RLE energy=       -0.7554019921
 DE(Corr)= -0.75540196     E(CORR)=     -74.164254422     Delta= 1.58D-07
 NORM(A)=   0.11031359D+01
 Iteration Nr.  15
 **********************
 DD1Dir will call FoFMem   1 times, MxPair=       234
 NAB=    80 NAA=    45 NBB=    28.
 A-vector RMS=  8.7741668D-09 Max=  1.9832344D-07 conv= 1.00D-05.
 RLE energy=       -0.7554020370
 DE(Corr)= -0.75540204     E(CORR)=     -74.164254501     Delta=-7.90D-08
 NORM(A)=   0.11031359D+01
 CI/CC converged in   15 iterations to DelEn=-7.90D-08 Conv= 1.00D-07 ErrA1= 8.77D-09 Conv= 1.00D-05
 Wavefunction amplitudes converged. E(Corr)=     -74.164254501    
 Largest amplitude= 8.20D-02
 Time for triples=    45909.99 seconds.
 T4(CCSD)= -0.50915030D-01
 T5(CCSD)=  0.82206988D-02
 CCSD(T)= -0.74206948833D+02
 Discarding MO integrals.
 Leave Link  913 at Sat Mar 10 01:44:44 2018, MaxMem= 10737418240 cpu:           58608.3 elap:            3665.8
 (Enter /home1/apps/gaussian/16rA.03/g16/l601.exe)
 Copying SCF densities to generalized density rwf, IOpCl= 0 IROHF=1.

 **********************************************************************

            Population analysis using the SCF density.

 **********************************************************************

 Orbital symmetries:
       Occupied  (SG) (SG) (PI) (PI) (SG) (PI) (PI) (SG) (SG) (?A)
       Virtual   (PI) (PI) (SG) (SG) (?A) (?A) (PI) (PI) (SG) (PI)
                 (PI) (SG) (?A) (SG) (PI) (PI) (SG) (?A) (PI) (PI)
                 (SG) (?A) (SG) (PI) (PI) (DLTA) (DLTA) (PHI) (PHI)
                 (PI) (PI) (SG) (PI) (PI) (SG) (?A) (?A) (SG) (PI)
                 (PI) (SG) (SG) (PI) (PI) (?B) (?B) (?C) (?C) (?C)
                 (?D) (?D) (?D) (?D) (?B) (?B) (PI) (PI) (SG) (PHI)
                 (PHI) (SG) (?A) (?A) (PI) (PI) (SG) (?A) (?A)
                 (SG) (PI) (PI) (SG) (PI) (PI) (PI) (PI) (SG) (PHI)
                 (PHI) (SG) (?E) (?E) (?F) (?F) (DLTA) (DLTA) (PI)
                 (PI) (SG) (DLTA) (DLTA) (PHI) (PHI) (SG) (PI)
                 (PI) (DLTA) (DLTA) (SG) (?D) (?D) (?F) (?F) (?A)
                 (?A) (SG) (?D) (?D) (?A) (?A) (?D) (?D) (?D) (?D)
                 (SG) (PI) (PI) (SG) (PI) (PI) (DLTA) (DLTA) (SG)
                 (PI) (PI) (SG) (PI) (PI) (?G) (?G) (?G) (PHI)
                 (PHI) (SG) (?B) (?B) (PI) (PI) (?B) (?B) (PHI)
                 (PHI) (PI) (PI) (SG) (DLTA) (DLTA) (SG) (PI) (PI)
                 (DLTA) (DLTA) (?H) (?I) (?I) (?H) (?H) (?I) (?I)
                 (SG) (PHI) (PHI) (DLTA) (DLTA) (PHI) (PHI) (SG)
                 (PI) (PI) (?J) (?J) (PHI) (PHI) (?J) (DLTA) (DLTA)
                 (PI) (PI) (DLTA) (DLTA) (SG) (PI) (PI) (SG) (PI)
                 (PI) (SG) (DLTA) (DLTA) (PI) (PI) (SG) (PI) (PI)
                 (SG) (?F) (?F) (PHI) (PHI) (DLTA) (DLTA) (SG)
                 (PI) (PI) (SG) (PHI) (PHI) (DLTA) (DLTA) (SG)
                 (PI) (PI) (DLTA) (DLTA) (PI) (PI) (PHI) (PHI)
                 (SG) (DLTA) (DLTA) (PI) (PI) (SG) (PI) (PI) (DLTA)
                 (DLTA) (PI) (PI) (SG) (SG) (?K) (?K) (?K) (PHI)
                 (PHI) (DLTA) (DLTA) (?F) (?F) (?E) (?E) (?D) (?D)
                 (DLTA) (DLTA) (?D) (?D) (PI) (PI) (SG) (SG) (DLTA)
                 (DLTA) (PI) (PI) (SG) (SG) (PI) (PI) (PI) (PI)
                 (SG) (SG) (SG) (DLTA) (DLTA) (PI) (PI) (SG) (DLTA)
                 (DLTA) (PI) (PI) (SG) (PI) (PI) (SG) (SG) (SG)
                 (PI) (PI) (SG) (DLTA) (DLTA) (PI) (PI) (SG) (PHI)
                 (PHI) (DLTA) (DLTA) (PI) (PI) (SG) (PI) (PI) (SG)
                 (SG) (SG) (PI) (PI) (SG) (PI) (PI) (SG) (SG) (DLTA)
                 (DLTA) (PI) (PI) (SG) (SG) (DLTA) (DLTA) (PI)
                 (PI) (SG) (PI) (PI) (SG) (SG) (SG) (PI) (PI) (SG)
                 (SG) (PI) (PI) (SG) (SG) (PI) (PI) (SG) (DLTA)
                 (DLTA) (PI) (PI) (SG) (SG) (SG) (PI) (PI) (SG)
                 (SG) (SG) (PI) (PI) (SG) (SG) (SG) (PI) (PI) (SG)
                 (SG) (SG) (PI) (PI) (SG) (SG) (PI) (PI) (SG) (SG)
                 (SG) (SG) (SG) (SG) (SG)
 Unable to determine electronic state:  an orbital has unidentified symmetry.
 Alpha  occ. eigenvalues --   -2.98814  -1.90163  -1.88047  -1.88047  -1.17026
 Alpha  occ. eigenvalues --   -0.48959  -0.48959  -0.48528  -0.42426  -0.24836
 Alpha virt. eigenvalues --    0.00694   0.00694   0.01750   0.02355   0.03740
 Alpha virt. eigenvalues --    0.03801   0.03856   0.03856   0.04080   0.04188
 Alpha virt. eigenvalues --    0.04188   0.06067   0.09778   0.10462   0.11519
 Alpha virt. eigenvalues --    0.11519   0.11916   0.11919   0.14777   0.14777
 Alpha virt. eigenvalues --    0.16224   0.16989   0.17800   0.20708   0.20708
 Alpha virt. eigenvalues --    0.21684   0.21686   0.21686   0.21692   0.23999
 Alpha virt. eigenvalues --    0.23999   0.24614   0.28003   0.28003   0.30648
 Alpha virt. eigenvalues --    0.31972   0.37134   0.38984   0.39634   0.39634
 Alpha virt. eigenvalues --    0.41932   0.43597   0.49535   0.49535   0.58706
 Alpha virt. eigenvalues --    0.58859   0.59074   0.60958   0.60959   0.61140
 Alpha virt. eigenvalues --    0.61140   0.61494   0.61494   0.62276   0.62409
 Alpha virt. eigenvalues --    0.66127   0.66127   0.66322   0.71287   0.71287
 Alpha virt. eigenvalues --    0.79551   0.81187   0.85044   0.86034   0.86034
 Alpha virt. eigenvalues --    0.89096   0.90526   0.92536   0.92784   1.01946
 Alpha virt. eigenvalues --    1.01946   1.21245   1.22127   1.22127   1.35779
 Alpha virt. eigenvalues --    1.35779   1.43443   1.50658   1.50658   1.50715
 Alpha virt. eigenvalues --    1.55532   1.55532   1.56559   1.56559   1.57017
 Alpha virt. eigenvalues --    1.57059   1.60681   1.60681   1.65267   1.68376
 Alpha virt. eigenvalues --    1.68526   1.72339   1.72339   1.79503   1.80007
 Alpha virt. eigenvalues --    1.80007   1.84870   1.85228   1.90645   1.92367
 Alpha virt. eigenvalues --    1.92367   1.98026   1.98036   1.98916   2.03386
 Alpha virt. eigenvalues --    2.04347   2.07036   2.07036   2.11876   2.13479
 Alpha virt. eigenvalues --    2.13770   2.13770   2.13993   2.13993   2.45004
 Alpha virt. eigenvalues --    2.60820   2.60820   2.64856   2.79095   2.79095
 Alpha virt. eigenvalues --    2.80049   2.80543   3.11208   3.34688   3.34688
 Alpha virt. eigenvalues --    3.49773   3.57709   3.57709   3.81917   3.82189
 Alpha virt. eigenvalues --    3.82189   4.03397   4.03397   4.19030   4.19801
 Alpha virt. eigenvalues --    4.20020   4.25097   4.25097   4.26089   4.28686
 Alpha virt. eigenvalues --    4.34787   4.34787   4.36768   4.36768   4.37980
 Alpha virt. eigenvalues --    4.39492   4.39519   4.48347   4.70323   4.70323
 Alpha virt. eigenvalues --    4.86652   4.87377   5.01333   5.09834   5.09834
 Alpha virt. eigenvalues --    5.11162   5.11164   5.12974   5.12974   5.14185
 Alpha virt. eigenvalues --    5.32570   5.32570   5.37919   5.38435   5.48072
 Alpha virt. eigenvalues --    5.48072   5.63107   5.69653   5.69653   5.93164
 Alpha virt. eigenvalues --    5.93172   5.96697   5.96697   5.97491   6.07556
 Alpha virt. eigenvalues --    6.08327   6.54401   6.54401   6.61195   6.61537
 Alpha virt. eigenvalues --    7.11419   7.27676   7.27676   7.49707   7.54202
 Alpha virt. eigenvalues --    7.54202   8.02482   8.16356   8.17358   8.43307
 Alpha virt. eigenvalues --    8.43307   8.65518   9.82843   9.82843  10.50111
 Alpha virt. eigenvalues --   10.74935  10.74935  10.92240  10.92240  11.00843
 Alpha virt. eigenvalues --   11.00862  11.15360  11.19821  11.19821  11.59808
 Alpha virt. eigenvalues --   12.01994  12.01994  12.23522  12.23533  12.64479
 Alpha virt. eigenvalues --   12.75086  12.75086  12.86841  12.86874  13.35646
 Alpha virt. eigenvalues --   13.35646  13.52608  13.52608  13.60727  13.78007
 Alpha virt. eigenvalues --   13.78922  14.12658  14.12658  14.38513  14.49557
 Alpha virt. eigenvalues --   14.49557  14.57329  14.57637  14.72702  14.72702
 Alpha virt. eigenvalues --   14.78090  15.00849  15.56486  15.56486  15.57762
 Alpha virt. eigenvalues --   15.57762  15.58159  15.74078  15.74126  15.90871
 Alpha virt. eigenvalues --   15.90875  15.91372  15.91372  15.96677  15.96677
 Alpha virt. eigenvalues --   16.13142  16.13629  16.16765  16.16765  16.61766
 Alpha virt. eigenvalues --   16.61766  16.78362  17.45720  25.05322  25.06428
 Alpha virt. eigenvalues --   25.18166  25.18166  25.36902  25.63306  27.92455
 Alpha virt. eigenvalues --   27.92455  28.27670  28.27670  28.30622  29.32978
 Alpha virt. eigenvalues --   34.93954  44.32135  44.33385  44.43460  44.43460
 Alpha virt. eigenvalues --   44.64123  46.84298  46.84300  47.12193  47.12193
 Alpha virt. eigenvalues --   47.94966  54.35992  54.35992  54.76255  58.83915
 Alpha virt. eigenvalues --   68.18055  69.68753  69.68753  70.66717  91.94774
 Alpha virt. eigenvalues --   91.95606  92.04278  92.04278  92.21516 102.97666
 Alpha virt. eigenvalues --  102.97666 103.00170 103.00171 103.05589 103.05589
 Alpha virt. eigenvalues --  103.07385 104.08705 104.08705 104.46523 115.31909
 Alpha virt. eigenvalues --  121.61123 154.45903 154.45903 155.22579 196.07337
 Alpha virt. eigenvalues --  196.07337 196.43522 203.34701 206.78668 206.78669
 Alpha virt. eigenvalues --  206.93627 206.93627 207.32696 210.09639 241.57204
 Alpha virt. eigenvalues --  241.57540 241.64559 241.64559 241.77381 324.68811
 Alpha virt. eigenvalues --  324.68811 325.36938 358.04457 371.46338 372.95078
 Alpha virt. eigenvalues --  372.95078 373.32783 612.20454 690.94319 690.94319
 Alpha virt. eigenvalues --  691.55951 706.92525 731.15747 731.15747 731.50921
 Alpha virt. eigenvalues --  815.03409 815.03484 815.08308 815.08308 815.16503
 Alpha virt. eigenvalues -- 1090.096441401.952921506.188121506.188121506.51396
 Alpha virt. eigenvalues -- 2262.430262908.358053323.988413323.988413324.28272
 Alpha virt. eigenvalues -- 6141.098216328.355198069.650738069.650738069.90716
 Alpha virt. eigenvalues -- **************************************************
 Alpha virt. eigenvalues -- **************************************************
 Alpha virt. eigenvalues -- **************************************************
     Molecular Orbital Coefficients:
                           4         5         6         7         8
                           O         O         O         O         O
     Eigenvalues --    -1.88047  -1.17026  -0.48959  -0.48959  -0.48528
   1 1   Ti 1S          0.00000   0.00000   0.00000   0.00000   0.00000
   2        2S          0.00000  -0.00000   0.00000   0.00000  -0.00000
   3        3S          0.00000   0.00000   0.00000   0.00000   0.00000
   4        4S          0.00000  -0.00000   0.00000   0.00000  -0.00000
   5        5S          0.00000   0.00000   0.00000   0.00000   0.00000
   6        6S          0.00000  -0.00000   0.00000   0.00000  -0.00000
   7        7S          0.00000   0.00000   0.00000   0.00000   0.00000
   8        8S          0.00000  -0.00002   0.00000   0.00000  -0.00002
   9        9S          0.00000   0.00005   0.00000   0.00000   0.00005
  10       10S          0.00000  -0.00014   0.00000   0.00000  -0.00014
  11       11S          0.00000   0.00038   0.00000   0.00000   0.00038
  12       12S          0.00000  -0.00103   0.00000   0.00000  -0.00103
  13       13S          0.00000   0.00311   0.00000   0.00000   0.00308
  14       14S          0.00000  -0.01397   0.00000   0.00000  -0.01379
  15       15S          0.00000   0.01955   0.00000   0.00000   0.02038
  16       16S          0.00000   0.06728   0.00000   0.00000   0.04754
  17       17S          0.00000  -0.05010   0.00000   0.00000  -0.04529
  18       18S          0.00000  -0.16180   0.00000   0.00000  -0.09538
  19       19S          0.00000  -0.06320   0.00000   0.00000  -0.11013
  20       20S          0.00000  -0.00221   0.00000   0.00000   0.08093
  21       21S          0.00000   0.01364   0.00000   0.00000   0.07086
  22       22S          0.00000  -0.00275   0.00000   0.00000   0.00280
  23       23S          0.00000  -0.00838   0.00000   0.00000   0.00931
  24       24S          0.00000   0.04176   0.00000   0.00000  -0.02534
  25       25S          0.00000   0.00089   0.00000   0.00000   0.00100
  26       26PX         0.00000   0.00000  -0.00000   0.00000   0.00000
  27       26PY        -0.00000   0.00000   0.00000  -0.00000   0.00000
  28       26PZ         0.00000  -0.00000   0.00000   0.00000   0.00000
  29       27PX         0.00000   0.00000   0.00000   0.00000   0.00000
  30       27PY         0.00000   0.00000   0.00000   0.00000   0.00000
  31       27PZ         0.00000   0.00000   0.00000   0.00000  -0.00000
  32       28PX         0.00000   0.00000  -0.00000   0.00000   0.00000
  33       28PY        -0.00000   0.00000   0.00000  -0.00000   0.00000
  34       28PZ         0.00000  -0.00000   0.00000   0.00000   0.00000
  35       29PX         0.00000   0.00000   0.00000   0.00000   0.00000
  36       29PY         0.00000   0.00000   0.00000   0.00000   0.00000
  37       29PZ         0.00000   0.00000   0.00000   0.00000  -0.00000
  38       30PX         0.00000   0.00000   0.00000   0.00000   0.00000
  39       30PY        -0.00001   0.00000   0.00000   0.00000   0.00000
  40       30PZ         0.00000  -0.00000   0.00000   0.00000   0.00000
  41       31PX         0.00000   0.00000  -0.00000   0.00000   0.00000
  42       31PY         0.00002   0.00000   0.00000  -0.00000   0.00000
  43       31PZ         0.00000   0.00001   0.00000   0.00000  -0.00001
  44       32PX         0.00000   0.00000  -0.00000   0.00000   0.00000
  45       32PY        -0.00005   0.00000   0.00000  -0.00000   0.00000
  46       32PZ         0.00000  -0.00001   0.00000   0.00000   0.00003
  47       33PX         0.00000   0.00000   0.00004   0.00000   0.00000
  48       33PY        -0.00022   0.00000   0.00000   0.00004   0.00000
  49       33PZ         0.00000  -0.00009   0.00000   0.00000  -0.00014
  50       34PX         0.00000   0.00000  -0.00147   0.00000   0.00000
  51       34PY         0.01132   0.00000   0.00000  -0.00147   0.00000
  52       34PZ         0.00000   0.00421   0.00000   0.00000   0.00251
  53       35PX         0.00000   0.00000   0.00951   0.00000   0.00000
  54       35PY        -0.07226   0.00000   0.00000   0.00951   0.00000
  55       35PZ         0.00000  -0.02718   0.00000   0.00000  -0.01565
  56       36PX         0.00000   0.00000  -0.00493   0.00000   0.00000
  57       36PY         0.02679   0.00000   0.00000  -0.00493   0.00000
  58       36PZ         0.00000   0.01417   0.00000   0.00000   0.01909
  59       37PX         0.00000   0.00000  -0.02589   0.00000   0.00000
  60       37PY         0.19419   0.00000   0.00000  -0.02589   0.00000
  61       37PZ         0.00000   0.07485   0.00000   0.00000   0.04010
  62       38PX         0.00000   0.00000  -0.05416   0.00000   0.00000
  63       38PY         0.37733   0.00000   0.00000  -0.05416   0.00000
  64       38PZ         0.00000   0.15195   0.00000   0.00000   0.12147
  65       39PX         0.00000   0.00000  -0.05605   0.00000   0.00000
  66       39PY         0.38879   0.00000   0.00000  -0.05605   0.00000
  67       39PZ         0.00000   0.14977   0.00000   0.00000   0.09315
  68       40PX         0.00000   0.00000  -0.02256   0.00000   0.00000
  69       40PY         0.15956   0.00000   0.00000  -0.02256   0.00000
  70       40PZ         0.00000   0.06311   0.00000   0.00000   0.03778
  71       41PX         0.00000   0.00000   0.00787   0.00000   0.00000
  72       41PY         0.00966   0.00000   0.00000   0.00787   0.00000
  73       41PZ         0.00000   0.00296   0.00000   0.00000  -0.04723
  74       42PX         0.00000   0.00000   0.00053   0.00000   0.00000
  75       42PY        -0.00222   0.00000   0.00000   0.00053   0.00000
  76       42PZ         0.00000  -0.01102   0.00000   0.00000  -0.04419
  77       43PX         0.00000   0.00000  -0.00935   0.00000   0.00000
  78       43PY        -0.00011   0.00000   0.00000  -0.00935   0.00000
  79       43PZ         0.00000   0.00079   0.00000   0.00000  -0.00481
  80       44PX         0.00000   0.00000   0.01030   0.00000   0.00000
  81       44PY        -0.07300   0.00000   0.00000   0.01030   0.00000
  82       44PZ         0.00000  -0.03109   0.00000   0.00000  -0.02760
  83       45PX         0.00000   0.00000  -0.00189   0.00000   0.00000
  84       45PY         0.02464   0.00000   0.00000  -0.00189   0.00000
  85       45PZ         0.00000   0.00298   0.00000   0.00000  -0.03662
  86       46PX         0.00000   0.00000   0.00158   0.00000   0.00000
  87       46PY        -0.00001   0.00000   0.00000   0.00158   0.00000
  88       46PZ         0.00000  -0.00036   0.00000   0.00000   0.00043
  89       47D 0        0.00000   0.00000   0.00000   0.00000   0.00001
  90       47D+1        0.00000   0.00000  -0.00000   0.00000   0.00000
  91       47D-1        0.00000   0.00000   0.00000  -0.00000   0.00000
  92       47D+2        0.00000  -0.00000   0.00000   0.00000  -0.00000
  93       47D-2        0.00000   0.00000   0.00000   0.00000   0.00000
  94       48D 0        0.00000   0.00000   0.00000   0.00000   0.00001
  95       48D+1        0.00000   0.00000  -0.00001   0.00000   0.00000
  96       48D-1       -0.00000   0.00000   0.00000  -0.00001   0.00000
  97       48D+2        0.00000   0.00000   0.00000   0.00000   0.00000
  98       48D-2        0.00000   0.00000   0.00000   0.00000   0.00000
  99       49D 0        0.00000   0.00150   0.00000   0.00000   0.00465
 100       49D+1        0.00000   0.00000  -0.00266   0.00000   0.00000
 101       49D-1       -0.00009   0.00000   0.00000  -0.00266   0.00000
 102       49D+2        0.00000  -0.00000   0.00000   0.00000  -0.00000
 103       49D-2        0.00000   0.00000   0.00000   0.00000   0.00000
 104       50D 0        0.00000   0.00840   0.00000   0.00000   0.02584
 105       50D+1        0.00000   0.00000  -0.01484   0.00000   0.00000
 106       50D-1       -0.00050   0.00000   0.00000  -0.01484   0.00000
 107       50D+2        0.00000  -0.00000   0.00000   0.00000  -0.00000
 108       50D-2        0.00000   0.00000   0.00000   0.00000   0.00000
 109       51D 0        0.00000   0.01845   0.00000   0.00000   0.05753
 110       51D+1        0.00000   0.00000  -0.03271   0.00000   0.00000
 111       51D-1       -0.00079   0.00000   0.00000  -0.03271   0.00000
 112       51D+2        0.00000  -0.00000   0.00000   0.00000  -0.00000
 113       51D-2        0.00000   0.00000   0.00000   0.00000   0.00000
 114       52D 0        0.00000   0.02989   0.00000   0.00000   0.09312
 115       52D+1        0.00000   0.00000  -0.05576   0.00000   0.00000
 116       52D-1        0.00018   0.00000   0.00000  -0.05576   0.00000
 117       52D+2        0.00000  -0.00000   0.00000   0.00000  -0.00000
 118       52D-2        0.00000   0.00000   0.00000   0.00000   0.00000
 119       53D 0        0.00000   0.04891   0.00000   0.00000   0.14522
 120       53D+1        0.00000   0.00000  -0.08523   0.00000   0.00000
 121       53D-1        0.00098   0.00000   0.00000  -0.08523   0.00000
 122       53D+2        0.00000  -0.00000   0.00000   0.00000  -0.00000
 123       53D-2        0.00000   0.00000   0.00000   0.00000   0.00000
 124       54D 0        0.00000   0.04670   0.00000   0.00000   0.14469
 125       54D+1        0.00000   0.00000  -0.09198   0.00000   0.00000
 126       54D-1        0.00417   0.00000   0.00000  -0.09198   0.00000
 127       54D+2        0.00000   0.00000   0.00000   0.00000  -0.00000
 128       54D-2        0.00000   0.00000   0.00000   0.00000   0.00000
 129       55D 0        0.00000   0.01937   0.00000   0.00000   0.11720
 130       55D+1        0.00000   0.00000  -0.05681   0.00000   0.00000
 131       55D-1        0.00386   0.00000   0.00000  -0.05681   0.00000
 132       55D+2        0.00000  -0.00000   0.00000   0.00000  -0.00000
 133       55D-2        0.00000   0.00000   0.00000   0.00000   0.00000
 134       56D 0        0.00000   0.00648   0.00000   0.00000   0.04183
 135       56D+1        0.00000   0.00000  -0.00718   0.00000   0.00000
 136       56D-1        0.00220   0.00000   0.00000  -0.00718   0.00000
 137       56D+2        0.00000   0.00000   0.00000   0.00000   0.00000
 138       56D-2        0.00000   0.00000   0.00000   0.00000   0.00000
 139       57D 0        0.00000   0.00138   0.00000   0.00000   0.00733
 140       57D+1        0.00000   0.00000   0.00539   0.00000   0.00000
 141       57D-1        0.00034   0.00000   0.00000   0.00539   0.00000
 142       57D+2        0.00000  -0.00000   0.00000   0.00000  -0.00000
 143       57D-2        0.00000   0.00000   0.00000   0.00000   0.00000
 144       58D 0        0.00000   0.00262   0.00000   0.00000   0.00835
 145       58D+1        0.00000   0.00000  -0.00438   0.00000   0.00000
 146       58D-1       -0.00231   0.00000   0.00000  -0.00438   0.00000
 147       58D+2        0.00000   0.00000   0.00000   0.00000   0.00000
 148       58D-2        0.00000   0.00000   0.00000   0.00000   0.00000
 149       59D 0        0.00000   0.00244   0.00000   0.00000   0.00788
 150       59D+1        0.00000   0.00000  -0.00145   0.00000   0.00000
 151       59D-1       -0.00353   0.00000   0.00000  -0.00145   0.00000
 152       59D+2        0.00000   0.00000   0.00000   0.00000   0.00000
 153       59D-2        0.00000   0.00000   0.00000   0.00000   0.00000
 154       60D 0        0.00000  -0.00020   0.00000   0.00000  -0.00051
 155       60D+1        0.00000   0.00000   0.00003   0.00000   0.00000
 156       60D-1        0.00000   0.00000   0.00000   0.00003   0.00000
 157       60D+2        0.00000   0.00000   0.00000   0.00000   0.00000
 158       60D-2        0.00000   0.00000   0.00000   0.00000   0.00000
 159       61F 0        0.00000  -0.00071   0.00000   0.00000  -0.00174
 160       61F+1        0.00000   0.00000   0.00159   0.00000   0.00000
 161       61F-1       -0.00015   0.00000   0.00000   0.00159   0.00000
 162       61F+2        0.00000  -0.00000   0.00000   0.00000   0.00000
 163       61F-2        0.00000   0.00000   0.00000   0.00000   0.00000
 164       61F+3        0.00000   0.00000  -0.00012   0.00000   0.00000
 165       61F-3       -0.00146   0.00000   0.00000   0.00012   0.00000
 166       62F 0        0.00000  -0.00396   0.00000   0.00000  -0.00820
 167       62F+1        0.00000   0.00000   0.00565   0.00000   0.00000
 168       62F-1       -0.00029   0.00000   0.00000   0.00565   0.00000
 169       62F+2        0.00000  -0.00000   0.00000   0.00000   0.00000
 170       62F-2        0.00000   0.00000   0.00000   0.00000   0.00000
 171       62F+3        0.00000   0.00000  -0.00015   0.00000   0.00000
 172       62F-3       -0.00277   0.00000   0.00000   0.00015   0.00000
 173       63F 0        0.00000  -0.00868   0.00000   0.00000  -0.01805
 174       63F+1        0.00000   0.00000   0.01682   0.00000   0.00000
 175       63F-1       -0.00289   0.00000   0.00000   0.01682   0.00000
 176       63F+2        0.00000   0.00000   0.00000   0.00000   0.00000
 177       63F-2        0.00000   0.00000   0.00000   0.00000   0.00000
 178       63F+3        0.00000   0.00000  -0.00019   0.00000   0.00000
 179       63F-3       -0.00444   0.00000   0.00000   0.00019   0.00000
 180       64F 0        0.00000  -0.00669   0.00000   0.00000  -0.02778
 181       64F+1        0.00000   0.00000   0.01126   0.00000   0.00000
 182       64F-1       -0.00240   0.00000   0.00000   0.01126   0.00000
 183       64F+2        0.00000  -0.00000   0.00000   0.00000  -0.00000
 184       64F-2        0.00000   0.00000   0.00000   0.00000   0.00000
 185       64F+3        0.00000   0.00000   0.00004   0.00000   0.00000
 186       64F-3       -0.00146   0.00000   0.00000  -0.00004   0.00000
[...]
 164       61F+3        0.00001   0.00001   0.00001   0.00000
 165       61F-3        0.00001   0.00001   0.00001   0.00000
 166       62F 0        0.00185   0.00093   0.00092   0.00000
 167       62F+1        0.00072   0.00036   0.00036   0.00000
 168       62F-1        0.00072   0.00036   0.00036   0.00000
 169       62F+2       -0.00000  -0.00000   0.00000  -0.00000
 170       62F-2       -0.00000  -0.00000  -0.00000  -0.00000
 171       62F+3        0.00004   0.00002   0.00002   0.00000
 172       62F-3        0.00004   0.00002   0.00002   0.00000
 173       63F 0        0.00950   0.00474   0.00476  -0.00002
 174       63F+1        0.00795   0.00397   0.00397   0.00000
 175       63F-1        0.00795   0.00397   0.00397   0.00000
 176       63F+2        0.00004   0.00004   0.00000   0.00004
 177       63F-2        0.00000   0.00000  -0.00000   0.00000
 178       63F+3        0.00006   0.00003   0.00003   0.00000
 179       63F-3        0.00006   0.00003   0.00003   0.00000
 180       64F 0       -0.00469  -0.00236  -0.00234  -0.00002
 181       64F+1        0.00890   0.00445   0.00445   0.00000
 182       64F-1        0.00890   0.00445   0.00445   0.00000
 183       64F+2        0.00014   0.00014   0.00000   0.00014
 184       64F-2        0.00000   0.00000   0.00000   0.00000
 185       64F+3        0.00001   0.00001   0.00001   0.00000
 186       64F-3        0.00001   0.00001   0.00001   0.00000
 187       65F 0       -0.00180  -0.00090  -0.00090  -0.00001
 188       65F+1       -0.00139  -0.00069  -0.00069   0.00000
 189       65F-1       -0.00139  -0.00069  -0.00069   0.00000
 190       65F+2        0.00001   0.00001  -0.00000   0.00001
 191       65F-2        0.00000   0.00000  -0.00000   0.00000
 192       65F+3       -0.00000  -0.00000  -0.00000   0.00000
 193       65F-3       -0.00000  -0.00000  -0.00000   0.00000
 194       66G 0        0.00001   0.00000   0.00000   0.00000
 195       66G+1        0.00000   0.00000   0.00000   0.00000
 196       66G-1        0.00000   0.00000   0.00000   0.00000
 197       66G+2        0.00000   0.00000   0.00000   0.00000
 198       66G-2        0.00000   0.00000   0.00000   0.00000
 199       66G+3        0.00000   0.00000   0.00000   0.00000
 200       66G-3        0.00000   0.00000   0.00000   0.00000
 201       66G+4        0.00000   0.00000   0.00000  -0.00000
 202       66G-4        0.00000   0.00000   0.00000  -0.00000
 203       67G 0        0.00079   0.00040   0.00040  -0.00000
 204       67G+1        0.00041   0.00020   0.00020   0.00000
 205       67G-1        0.00041   0.00020   0.00020   0.00000
 206       67G+2        0.00000   0.00000   0.00000   0.00000
 207       67G-2        0.00000   0.00000   0.00000   0.00000
 208       67G+3        0.00000   0.00000   0.00000   0.00000
 209       67G-3        0.00000   0.00000   0.00000   0.00000
 210       67G+4        0.00000   0.00000   0.00000   0.00000
 211       67G-4        0.00000   0.00000   0.00000   0.00000
 212       68G 0        0.00057   0.00028   0.00029  -0.00000
 213       68G+1        0.00208   0.00104   0.00104   0.00000
 214       68G-1        0.00208   0.00104   0.00104   0.00000
 215       68G+2        0.00001   0.00001  -0.00000   0.00001
 216       68G-2        0.00000   0.00000  -0.00000   0.00000
 217       68G+3        0.00000   0.00000   0.00000   0.00000
 218       68G-3        0.00000   0.00000   0.00000   0.00000
 219       68G+4        0.00001   0.00001   0.00000   0.00001
 220       68G-4        0.00000   0.00000   0.00000   0.00000
 221       69G 0       -0.00166  -0.00082  -0.00084   0.00002
 222       69G+1        0.00082   0.00041   0.00041   0.00000
 223       69G-1        0.00082   0.00041   0.00041   0.00000
 224       69G+2        0.00000   0.00000   0.00000   0.00000
 225       69G-2        0.00000   0.00000   0.00000   0.00000
 226       69G+3        0.00000   0.00000   0.00000   0.00000
 227       69G-3        0.00000   0.00000   0.00000   0.00000
 228       69G+4        0.00000   0.00000   0.00000   0.00000
 229       69G-4        0.00000   0.00000   0.00000   0.00000
 230       70H 0        0.00001   0.00001   0.00001   0.00000
 231       70H+1        0.00000   0.00000   0.00000   0.00000
 232       70H-1        0.00000   0.00000   0.00000   0.00000
 233       70H+2        0.00000   0.00000  -0.00000   0.00000
 234       70H-2        0.00000   0.00000  -0.00000   0.00000
 235       70H+3        0.00000   0.00000   0.00000   0.00000
 236       70H-3        0.00000   0.00000   0.00000   0.00000
 237       70H+4        0.00000   0.00000   0.00000  -0.00000
 238       70H-4        0.00000   0.00000   0.00000  -0.00000
 239       70H+5        0.00000   0.00000   0.00000   0.00000
 240       70H-5        0.00000   0.00000   0.00000   0.00000
 241       71H 0        0.00044   0.00022   0.00022   0.00000
 242       71H+1        0.00035   0.00018   0.00018   0.00000
 243       71H-1        0.00035   0.00018   0.00018   0.00000
 244       71H+2        0.00000   0.00000   0.00000   0.00000
 245       71H-2        0.00000   0.00000  -0.00000   0.00000
 246       71H+3        0.00000   0.00000   0.00000   0.00000
 247       71H-3        0.00000   0.00000   0.00000   0.00000
 248       71H+4        0.00000   0.00000   0.00000   0.00000
 249       71H-4        0.00000   0.00000   0.00000   0.00000
 250       71H+5        0.00000   0.00000   0.00000   0.00000
 251       71H-5        0.00000   0.00000   0.00000   0.00000
 252       72H 0       -0.00028  -0.00014  -0.00014   0.00000
 253       72H+1        0.00025   0.00012   0.00012   0.00000
 254       72H-1        0.00025   0.00012   0.00012   0.00000
 255       72H+2        0.00000   0.00000  -0.00000   0.00000
 256       72H-2        0.00000   0.00000  -0.00000   0.00000
 257       72H+3        0.00000   0.00000   0.00000   0.00000
 258       72H-3        0.00000   0.00000   0.00000   0.00000
 259       72H+4        0.00000   0.00000   0.00000   0.00000
 260       72H-4        0.00000   0.00000   0.00000   0.00000
 261       72H+5        0.00000   0.00000   0.00000   0.00000
 262       72H-5        0.00000   0.00000   0.00000   0.00000
 263 2   O  1S         -0.00000  -0.00000  -0.00000  -0.00000
 264        2S          0.00000   0.00000   0.00000   0.00000
 265        3S         -0.00000  -0.00000  -0.00000  -0.00000
 266        4S          0.00000   0.00000   0.00000   0.00000
 267        5S         -0.00000  -0.00000  -0.00000  -0.00000
 268        6S         -0.00009  -0.00005  -0.00005  -0.00000
 269        7S         -0.00086  -0.00043  -0.00043  -0.00000
 270        8S         -0.09381  -0.04700  -0.04682  -0.00018
 271        9S         -0.07611  -0.03813  -0.03798  -0.00015
 272       10S          0.42812   0.21445   0.21368   0.00077
 273       11S          1.07331   0.53711   0.53620   0.00090
 274       12S          0.56912   0.28410   0.28502  -0.00092
 275       13S          0.05709   0.02860   0.02849   0.00011
 276       14S          0.00051   0.00025   0.00025   0.00000
 277       15S          0.00004   0.00002   0.00002   0.00000
 278       16S          0.09144   0.05644   0.03499   0.02145
 279       17PX        -0.00015  -0.00007  -0.00007   0.00000
 280       17PY        -0.00015  -0.00007  -0.00007   0.00000
 281       17PZ        -0.00019  -0.00009  -0.00009  -0.00000
 282       18PX        -0.10925  -0.05463  -0.05463   0.00000
 283       18PY        -0.10925  -0.05463  -0.05463   0.00000
 284       18PZ        -0.13193  -0.06597  -0.06596  -0.00001
 285       19PX         0.12972   0.06486   0.06486   0.00000
 286       19PY         0.12972   0.06486   0.06486   0.00000
 287       19PZ         0.13709   0.06855   0.06854   0.00001
 288       20PX         0.44300   0.22150   0.22150   0.00000
 289       20PY         0.44300   0.22150   0.22150   0.00000
 290       20PZ         0.47449   0.23727   0.23722   0.00004
 291       21PX         0.68412   0.34206   0.34206   0.00000
 292       21PY         0.68412   0.34206   0.34206   0.00000
 293       21PZ         0.61724   0.30869   0.30855   0.00013
 294       22PX         0.39415   0.19708   0.19708   0.00000
 295       22PY         0.39415   0.19708   0.19708   0.00000
 296       22PZ         0.21318   0.10713   0.10605   0.00109
 297       23PX         0.12583   0.06292   0.06292   0.00000
 298       23PY         0.12583   0.06292   0.06292   0.00000
 299       23PZ         0.14992   0.07497   0.07495   0.00002
 300       24PX         0.00058   0.00029   0.00029   0.00000
 301       24PY         0.00058   0.00029   0.00029   0.00000
 302       24PZ         0.00069   0.00034   0.00034   0.00000
 303       25PX         0.00001   0.00000   0.00000   0.00000
 304       25PY         0.00001   0.00000   0.00000   0.00000
 305       25PZ         0.00001   0.00000   0.00000   0.00000
 306       26PX         0.03504   0.01752   0.01752   0.00000
 307       26PY         0.03504   0.01752   0.01752   0.00000
 308       26PZ         0.02166   0.01370   0.00795   0.00575
 309       27D 0        0.00017   0.00009   0.00008   0.00000
 310       27D+1        0.00009   0.00004   0.00004   0.00000
 311       27D-1        0.00009   0.00004   0.00004   0.00000
 312       27D+2        0.00000   0.00000   0.00000   0.00000
 313       27D-2        0.00000   0.00000   0.00000   0.00000
 314       28D 0        0.00366   0.00187   0.00180   0.00007
 315       28D+1        0.00199   0.00099   0.00099   0.00000
 316       28D-1        0.00199   0.00099   0.00099   0.00000
 317       28D+2        0.00014   0.00014   0.00000   0.00014
 318       28D-2        0.00000   0.00000   0.00000   0.00000
 319       29D 0        0.00871   0.00461   0.00410   0.00051
 320       29D+1        0.01050   0.00525   0.00525   0.00000
 321       29D-1        0.01050   0.00525   0.00525   0.00000
 322       29D+2        0.00087   0.00087  -0.00000   0.00087
 323       29D-2        0.00000   0.00000   0.00000   0.00000
 324       30D 0        0.00000   0.00000   0.00000   0.00000
 325       30D+1        0.00000   0.00000   0.00000   0.00000
 326       30D-1        0.00000   0.00000   0.00000   0.00000
 327       30D+2        0.00000   0.00000   0.00000   0.00000
 328       30D-2        0.00000   0.00000   0.00000   0.00000
 329       31D 0       -0.00000  -0.00000  -0.00000  -0.00000
 330       31D+1       -0.00000  -0.00000  -0.00000   0.00000
 331       31D-1       -0.00000  -0.00000  -0.00000   0.00000
 332       31D+2       -0.00000  -0.00000   0.00000  -0.00000
 333       31D-2       -0.00000  -0.00000   0.00000  -0.00000
 334       32D 0        0.00034  -0.00005   0.00039  -0.00044
 335       32D+1        0.00400   0.00200   0.00200   0.00000
 336       32D-1        0.00400   0.00200   0.00200   0.00000
 337       32D+2        0.00057   0.00057  -0.00000   0.00057
 338       32D-2        0.00000   0.00000  -0.00000   0.00000
 339       33F 0        0.00008   0.00004   0.00004   0.00000
 340       33F+1        0.00003   0.00001   0.00001   0.00000
 341       33F-1        0.00003   0.00001   0.00001   0.00000
 342       33F+2        0.00000   0.00000   0.00000   0.00000
 343       33F-2        0.00000   0.00000  -0.00000   0.00000
 344       33F+3        0.00000   0.00000   0.00000   0.00000
 345       33F-3        0.00000   0.00000   0.00000   0.00000
 346       34F 0        0.00195   0.00102   0.00092   0.00010
 347       34F+1        0.00114   0.00057   0.00057   0.00000
 348       34F-1        0.00114   0.00057   0.00057   0.00000
 349       34F+2        0.00021   0.00021   0.00000   0.00021
 350       34F-2        0.00000   0.00000   0.00000   0.00000
 351       34F+3        0.00000   0.00000   0.00000   0.00000
 352       34F-3        0.00000   0.00000   0.00000   0.00000
 353       35F 0        0.00000   0.00000   0.00000   0.00000
 354       35F+1        0.00000   0.00000   0.00000   0.00000
 355       35F-1        0.00000   0.00000   0.00000   0.00000
 356       35F+2        0.00000   0.00000  -0.00000   0.00000
 357       35F-2        0.00000   0.00000  -0.00000   0.00000
 358       35F+3        0.00000   0.00000   0.00000   0.00000
 359       35F-3        0.00000   0.00000   0.00000   0.00000
 360       36F 0        0.00140   0.00090   0.00050   0.00040
 361       36F+1        0.00072   0.00036   0.00036   0.00000
 362       36F-1        0.00072   0.00036   0.00036   0.00000
 363       36F+2        0.00004   0.00004  -0.00000   0.00004
 364       36F-2        0.00000   0.00000  -0.00000   0.00000
 365       36F+3        0.00000   0.00000   0.00000   0.00000
 366       36F-3        0.00000   0.00000   0.00000   0.00000
 367       37G 0        0.00008   0.00004   0.00004   0.00000
 368       37G+1        0.00004   0.00002   0.00002   0.00000
 369       37G-1        0.00004   0.00002   0.00002   0.00000
 370       37G+2        0.00001   0.00001  -0.00000   0.00001
 371       37G-2        0.00000   0.00000  -0.00000   0.00000
 372       37G+3       -0.00000  -0.00000  -0.00000   0.00000
 373       37G-3       -0.00000  -0.00000  -0.00000   0.00000
 374       37G+4       -0.00000  -0.00000  -0.00000   0.00000
 375       37G-4       -0.00000  -0.00000  -0.00000   0.00000
 376       38G 0        0.00041   0.00022   0.00018   0.00004
 377       38G+1        0.00032   0.00016   0.00016   0.00000
 378       38G-1        0.00032   0.00016   0.00016   0.00000
 379       38G+2        0.00003   0.00003   0.00000   0.00003
 380       38G-2        0.00000   0.00000   0.00000   0.00000
 381       38G+3        0.00000   0.00000   0.00000   0.00000
 382       38G-3        0.00000   0.00000   0.00000   0.00000
 383       38G+4        0.00000   0.00000   0.00000   0.00000
 384       38G-4        0.00000   0.00000   0.00000   0.00000
          Condensed to atoms (all electrons):
               1          2
     1  Ti  10.854501   0.152190
     2  O    0.152190   6.841120
          Atomic-Atomic Spin Densities.
               1          2
     1  Ti   1.940592   0.027834
     2  O    0.027834   0.003740
 Mulliken charges and spin densities:
               1          2
     1  Ti   0.993309   1.968426
     2  O   -0.993309   0.031574
 Sum of Mulliken charges =  -0.00000   2.00000
 Mulliken charges and spin densities with hydrogens summed into heavy atoms:
               1          2
     1  Ti   0.993309   1.968426
     2  O   -0.993309   0.031574
 Electronic spatial extent (au):  <R**2>=             85.9265
 Charge=             -0.0000 electrons
 Dipole moment (field-independent basis, Debye):
    X=              0.0000    Y=              0.0000    Z=              3.0779  Tot=              3.0779
 Quadrupole moment (field-independent basis, Debye-Ang):
   XX=            -21.5298   YY=            -21.5298   ZZ=            -28.4210
   XY=              0.0000   XZ=              0.0000   YZ=              0.0000
 Traceless Quadrupole moment (field-independent basis, Debye-Ang):
   XX=              2.2970   YY=              2.2970   ZZ=             -4.5941
   XY=              0.0000   XZ=              0.0000   YZ=              0.0000
 Octapole moment (field-independent basis, Debye-Ang**2):
  XXX=              0.0000  YYY=              0.0000  ZZZ=             -7.8959  XYY=              0.0000
  XXY=              0.0000  XXZ=             -2.9821  XZZ=              0.0000  YZZ=              0.0000
  YYZ=             -2.9821  XYZ=              0.0000
 Hexadecapole moment (field-independent basis, Debye-Ang**3):
 XXXX=            -42.3816 YYYY=            -42.3816 ZZZZ=           -136.9554 XXXY=              0.0000
 XXXZ=              0.0000 YYYX=              0.0000 YYYZ=              0.0000 ZZZX=              0.0000
 ZZZY=              0.0000 XXYY=            -13.5866 XXZZ=            -29.3982 YYZZ=            -29.3982
 XXYZ=              0.0000 YYXZ=              0.0000 ZZXY=              0.0000
 N-N= 2.540050612416D+01 E-N=-2.126786681365D+02  KE= 3.792964896027D+01
 Symmetry A1   KE= 1.969518178053D+01
 Symmetry A2   KE= 1.140505211267D-31
 Symmetry B1   KE= 9.117233589572D+00
 Symmetry B2   KE= 9.117233589596D+00
 Symmetry A1   SP= 2.000000000000D+00
 Symmetry A2   SP= 2.999656562364D-32
 Symmetry B1   SP= 0.000000000000D+00
 Symmetry B2   SP= 0.000000000000D+00
 Orbital energies and kinetic energies (alpha):
                                 1                 2
   4         O                -1.880468          2.430147
   5         O                -1.170264          1.300116
   6         O                -0.489585          2.128469
   7         O                -0.489585          2.128469
   8         O                -0.485275          2.789062
   9         O                -0.424255          0.374795
  10         O                -0.248361          3.802110
  11         V                 0.006939          0.076122
  12         V                 0.006939          0.076122
  13         V                 0.017497          0.049980
  14         V                 0.023552          0.034556
  15         V                 0.037395          0.045525
 Total kinetic energy from orbitals= 4.210655370412D+01
                          Isotropic Fermi Contact Couplings
        Atom                 a.u.       MegaHertz       Gauss      10(-4) cm-1
     1  Ti(47)             0.00003      -0.00372      -0.00133      -0.00124
     2  O(17)              0.00005      -0.01490      -0.00532      -0.00497
 --------------------------------------------------------
       Center         ----  Spin Dipole Couplings  ----
                      3XX-RR        3YY-RR        3ZZ-RR
 --------------------------------------------------------
     1   Atom        0.465081      0.465081     -0.930163
     2   Atom       -0.031011     -0.031011      0.062022
 --------------------------------------------------------
                        XY            XZ            YZ
 --------------------------------------------------------
     1   Atom        0.000000      0.000000      0.000000
     2   Atom        0.000000      0.000000      0.000000
 --------------------------------------------------------


 ---------------------------------------------------------------------------------
              Anisotropic Spin Dipole Couplings in Principal Axis System
 ---------------------------------------------------------------------------------

       Atom             a.u.   MegaHertz   Gauss  10(-4) cm-1        Axes

              Baa    -0.9302    28.023     9.999     9.347  0.0000  0.0000  1.0000
     1 Ti(47) Bbb     0.4651   -14.011    -5.000    -4.674  1.0000  0.0000  0.0000
              Bcc     0.4651   -14.011    -5.000    -4.674 -0.0000  1.0000  0.0000
 
              Baa    -0.0310     2.244     0.801     0.748 -0.0000  1.0000  0.0000
     2 O(17)  Bbb    -0.0310     2.244     0.801     0.748  1.0000  0.0000  0.0000
              Bcc     0.0620    -4.488    -1.601    -1.497  0.0000  0.0000  1.0000
 

 ---------------------------------------------------------------------------------

 No NMR shielding tensors so no spin-rotation constants.
 Leave Link  601 at Sat Mar 10 01:44:52 2018, MaxMem= 10737418240 cpu:             113.5 elap:               7.4
 (Enter /home1/apps/gaussian/16rA.03/g16/l9999.exe)
 1\1\GINC-C412-094\SP\ROCCSD(T)-Full\Gen\O1Ti1(3)\AANNABE\10-Mar-2018\0
 \\#P ROCCSD(T)=(maxcyc=150, Full, SaveAmplitudes, ReadAmplitudes)/Gen 
 5d 7f SCF=(maxcycles=300) Integral(NoXCTest) MaxDisk=500GB Pop=Regular
  Pseudo=Read Guess=Read\\TiO\\0,3\Ti,0,0.,0.,0.\O,0,0.,0.,1.5\\Version
 =ES64L-G16RevA.03\HF=-73.4088525\MP2=-74.1823392\PUHF=-73.4088525\PMP2
 -0=-74.1823392\CCSD=-74.1642545\CCSD(T)=-74.2069488\RMSD=4.050e-09\PG=
 C*V [C*(O1Ti1)]\\@


 FAULTILY FAULTLESS, ICILY REGULAR, SPLENDIDLY NULL...
           MAUDE BY TENNYSON
 Job cpu time:       0 days 20 hours 28 minutes 59.0 seconds.
 Elapsed time:       0 days  1 hours 17 minutes  9.8 seconds.
 File lengths (MBytes):  RWF=  12515 Int=      0 D2E=      0 Chk=     65 Scr=      1
 Normal termination of Gaussian 16 at Sat Mar 10 01:44:53 2018.
