 Entering Gaussian System, Link 0=g16
 Initial command:
 /home1/apps/gaussian/16rA.03/g16/l1.exe "/tmp/Gau-276464.inp" -scrdir="/tmp/"
 Entering Link 1 = /home1/apps/gaussian/16rA.03/g16/l1.exe PID=    276465.
  
 Copyright (c) 1988,1990,1992,1993,1995,1998,2003,2009,2016,
            Gaussian, Inc.  All Rights Reserved.
  
 This is part of the Gaussian(R) 16 program.  It is based on
 the Gaussian(R) 09 system (copyright 2009, Gaussian, Inc.),
 the Gaussian(R) 03 system (copyright 2003, Gaussian, Inc.),
 the Gaussian(R) 98 system (copyright 1998, Gaussian, Inc.),
 the Gaussian(R) 94 system (copyright 1995, Gaussian, Inc.),
 the Gaussian 92(TM) system (copyright 1992, Gaussian, Inc.),
 the Gaussian 90(TM) system (copyright 1990, Gaussian, Inc.),
 the Gaussian 88(TM) system (copyright 1988, Gaussian, Inc.),
 the Gaussian 86(TM) system (copyright 1986, Carnegie Mellon
 University), and the Gaussian 82(TM) system (copyright 1983,
 Carnegie Mellon University). Gaussian is a federally registered
 trademark of Gaussian, Inc.
  
 This software contains proprietary and confidential information,
 including trade secrets, belonging to Gaussian, Inc.
  
 This software is provided under written license and may be
 used, copied, transmitted, or stored only in accord with that
 written license.
  
 The following legend is applicable only to US Government
 contracts under FAR:
  
                    RESTRICTED RIGHTS LEGEND
  
 Use, reproduction and disclosure by the US Government is
 subject to restrictions as set forth in subparagraphs (a)
 and (c) of the Commercial Computer Software - Restricted
 Rights clause in FAR 52.227-19.
  
 Gaussian, Inc.
 340 Quinnipiac St., Bldg. 40, Wallingford CT 06492
  
  
 ---------------------------------------------------------------
 Warning -- This program may not be used in any manner that
 competes with the business of Gaussian, Inc. or will provide
 assistance to any competitor of Gaussian, Inc.  The licensee
 of this program is prohibited from giving any competitor of
 Gaussian, Inc. access to this program.  By using this program,
 the user acknowledges that Gaussian, Inc. is engaged in the
 business of creating and licensing software in the field of
 computational chemistry and represents and warrants to the
 licensee that it is not a competitor of Gaussian, Inc. and that
 it will not use this program in any manner prohibited above.
 ---------------------------------------------------------------
  

 Cite this work as:
 Gaussian 16, Revision A.03,
 M. J. Frisch, G. W. Trucks, H. B. Schlegel, G. E. Scuseria, 
 M. A. Robb, J. R. Cheeseman, G. Scalmani, V. Barone, 
 G. A. Petersson, H. Nakatsuji, X. Li, M. Caricato, A. V. Marenich, 
 J. Bloino, B. G. Janesko, R. Gomperts, B. Mennucci, H. P. Hratchian, 
 J. V. Ortiz, A. F. Izmaylov, J. L. Sonnenberg, D. Williams-Young, 
 F. Ding, F. Lipparini, F. Egidi, J. Goings, B. Peng, A. Petrone, 
 T. Henderson, D. Ranasinghe, V. G. Zakrzewski, J. Gao, N. Rega, 
 G. Zheng, W. Liang, M. Hada, M. Ehara, K. Toyota, R. Fukuda, 
 J. Hasegawa, M. Ishida, T. Nakajima, Y. Honda, O. Kitao, H. Nakai, 
 T. Vreven, K. Throssell, J. A. Montgomery, Jr., J. E. Peralta, 
 F. Ogliaro, M. J. Bearpark, J. J. Heyd, E. N. Brothers, K. N. Kudin, 
 V. N. Staroverov, T. A. Keith, R. Kobayashi, J. Normand, 
 K. Raghavachari, A. P. Rendell, J. C. Burant, S. S. Iyengar, 
 J. Tomasi, M. Cossi, J. M. Millam, M. Klene, C. Adamo, R. Cammi, 
 J. W. Ochterski, R. L. Martin, K. Morokuma, O. Farkas, 
 J. B. Foresman, and D. J. Fox, Gaussian, Inc., Wallingford CT, 2016.
 
 ******************************************
 Gaussian 16:  ES64L-G16RevA.03 25-Dec-2016
                 1-Mar-2018 
 ******************************************
 %mem=80GB
 %chk=5z.chk
 %cpu=0-31
 SetSPE:  set environment variable "MP_BIND" = "yes"
 SetSPE:  set environment variable "MP_BLIST" = "0,1,2,3,4,5,6,7,8,9,10,11,12,13,14,15,16,17,18,19,20,21,22,23,24,25,26,27,28,29,30,31"
 Will use up to   32 processors via shared memory.
 ----------------------------------------------------------------------
 #P ROCCSD(T)=(MaxCyc=150, Full)/Gen SCF=(maxcycle=400) Integral(DKHSO,
  NoXCTest) Pop=Regular MaxDisk=500GB Guess=Permute IOp(5/15=2)
 ----------------------------------------------------------------------
 1/38=1,172=1/1;
 2/12=2,17=6,18=5,40=1/2;
 3/5=7,11=2,25=1,30=1,47=8,91=5,116=101/1,2,3;
 4/8=2/1;
 5/5=2,7=400,15=2,38=5/2;
 8/5=-1,6=4,9=120000,10=90/1,4;
 9/5=7,6=150,14=2/13;
 6//1;
 99/5=1,9=1/99;
 Leave Link    1 at Thu Mar  1 16:07:55 2018, MaxMem= 10737418240 cpu:               6.9 elap:               0.2
 (Enter /home1/apps/gaussian/16rA.03/g16/l101.exe)
 --
 Fe
 --
 Symbolic Z-matrix:
 Charge =  0 Multiplicity = 5
 Fe                    0.        0.        0. 
 
 ITRead=  0
 MicOpt= -1
 NAtoms=      1 NQM=        1 NQMF=       0 NMMI=      0 NMMIF=      0
                NMic=       0 NMicF=      0.
                    Isotopes and Nuclear Properties:
 (Nuclear quadrupole moments (NQMom) in fm**2, nuclear magnetic moments (NMagM)
  in nuclear magnetons)

  Atom         1
 IAtWgt=          56
 AtmWgt=  55.9349393
 NucSpn=           0
 AtZEff=  -0.0000000
 NQMom=    0.0000000
 NMagM=    0.0000000
 AtZNuc=  26.0000000
 Leave Link  101 at Thu Mar  1 16:07:56 2018, MaxMem= 10737418240 cpu:               2.8 elap:               0.1
 (Enter /home1/apps/gaussian/16rA.03/g16/l202.exe)
                          Input orientation:                          
 ---------------------------------------------------------------------
 Center     Atomic      Atomic             Coordinates (Angstroms)
 Number     Number       Type             X           Y           Z
 ---------------------------------------------------------------------
      1         26           0        0.000000    0.000000    0.000000
 ---------------------------------------------------------------------
 Stoichiometry    Fe(5)
 Framework group  OH[O(Fe)]
 Deg. of freedom     0
 Full point group                 OH      NOp  48
 Largest Abelian subgroup         D2H     NOp   8
 Largest concise Abelian subgroup C1      NOp   1
                         Standard orientation:                         
 ---------------------------------------------------------------------
 Center     Atomic      Atomic             Coordinates (Angstroms)
 Number     Number       Type             X           Y           Z
 ---------------------------------------------------------------------
      1         26           0        0.000000    0.000000    0.000000
 ---------------------------------------------------------------------
 Leave Link  202 at Thu Mar  1 16:07:56 2018, MaxMem= 10737418240 cpu:               1.1 elap:               0.1
 (Enter /home1/apps/gaussian/16rA.03/g16/l301.exe)
 General basis read from cards:  (5D, 7F)
 Centers:       1
 S 1 1.00
     Exponent=  1.4976900000D+08 Coefficients=  1.0000000000D+00
 S 1 1.00
     Exponent=  2.6722500000D+07 Coefficients=  1.0000000000D+00
 S 1 1.00
     Exponent=  5.9590000000D+06 Coefficients=  1.0000000000D+00
 S 1 1.00
     Exponent=  1.5936100000D+06 Coefficients=  1.0000000000D+00
 S 1 1.00
     Exponent=  4.9346400000D+05 Coefficients=  1.0000000000D+00
 S 1 1.00
     Exponent=  1.7179000000D+05 Coefficients=  1.0000000000D+00
 S 1 1.00
     Exponent=  6.5620900000D+04 Coefficients=  1.0000000000D+00
 S 1 1.00
     Exponent=  2.6965600000D+04 Coefficients=  1.0000000000D+00
 S 1 1.00
     Exponent=  1.1735300000D+04 Coefficients=  1.0000000000D+00
 S 1 1.00
     Exponent=  5.3434300000D+03 Coefficients=  1.0000000000D+00
 S 1 1.00
     Exponent=  2.5225000000D+03 Coefficients=  1.0000000000D+00
 S 1 1.00
     Exponent=  1.2264300000D+03 Coefficients=  1.0000000000D+00
 S 1 1.00
     Exponent=  6.1126900000D+02 Coefficients=  1.0000000000D+00
 S 1 1.00
     Exponent=  3.1130800000D+02 Coefficients=  1.0000000000D+00
 S 1 1.00
     Exponent=  1.6162400000D+02 Coefficients=  1.0000000000D+00
 S 1 1.00
     Exponent=  8.5376700000D+01 Coefficients=  1.0000000000D+00
 S 1 1.00
     Exponent=  4.5791100000D+01 Coefficients=  1.0000000000D+00
 S 1 1.00
     Exponent=  2.4867700000D+01 Coefficients=  1.0000000000D+00
 S 1 1.00
     Exponent=  1.3620200000D+01 Coefficients=  1.0000000000D+00
 S 1 1.00
     Exponent=  7.4810600000D+00 Coefficients=  1.0000000000D+00
 S 1 1.00
     Exponent=  4.0881700000D+00 Coefficients=  1.0000000000D+00
 S 1 1.00
     Exponent=  2.1990500000D+00 Coefficients=  1.0000000000D+00
 S 1 1.00
     Exponent=  1.1481500000D+00 Coefficients=  1.0000000000D+00
 S 1 1.00
     Exponent=  5.7726500000D-01 Coefficients=  1.0000000000D+00
 S 1 1.00
     Exponent=  1.9763500000D-01 Coefficients=  1.0000000000D+00
 S 1 1.00
     Exponent=  1.0898600000D-01 Coefficients=  1.0000000000D+00
 S 1 1.00
     Exponent=  5.3216000000D-02 Coefficients=  1.0000000000D+00
 S 1 1.00
     Exponent=  2.5571000000D-02 Coefficients=  1.0000000000D+00
 S 1 1.00
     Exponent=  6.6224000000D+00 Coefficients=  1.0000000000D+00
 S 1 1.00
     Exponent=  2.2140000000D+00 Coefficients=  1.0000000000D+00
 S 1 1.00
     Exponent=  1.2290000000D-02 Coefficients=  1.0000000000D+00
 P 1 1.00
     Exponent=  8.6947300000D+04 Coefficients=  1.0000000000D+00
 P 1 1.00
     Exponent=  2.1254000000D+04 Coefficients=  1.0000000000D+00
 P 1 1.00
     Exponent=  6.7411400000D+03 Coefficients=  1.0000000000D+00
 P 1 1.00
     Exponent=  2.5571600000D+03 Coefficients=  1.0000000000D+00
 P 1 1.00
     Exponent=  1.0935100000D+03 Coefficients=  1.0000000000D+00
 P 1 1.00
     Exponent=  5.0616100000D+02 Coefficients=  1.0000000000D+00
 P 1 1.00
     Exponent=  2.4713900000D+02 Coefficients=  1.0000000000D+00
 P 1 1.00
     Exponent=  1.2541500000D+02 Coefficients=  1.0000000000D+00
 P 1 1.00
     Exponent=  6.5651200000D+01 Coefficients=  1.0000000000D+00
 P 1 1.00
     Exponent=  3.5307900000D+01 Coefficients=  1.0000000000D+00
 P 1 1.00
     Exponent=  1.9426000000D+01 Coefficients=  1.0000000000D+00
 P 1 1.00
     Exponent=  1.0843800000D+01 Coefficients=  1.0000000000D+00
 P 1 1.00
     Exponent=  6.0435900000D+00 Coefficients=  1.0000000000D+00
 P 1 1.00
     Exponent=  3.3024500000D+00 Coefficients=  1.0000000000D+00
 P 1 1.00
     Exponent=  1.7638900000D+00 Coefficients=  1.0000000000D+00
 P 1 1.00
     Exponent=  9.2138600000D-01 Coefficients=  1.0000000000D+00
 P 1 1.00
     Exponent=  4.6037300000D-01 Coefficients=  1.0000000000D+00
 P 1 1.00
     Exponent=  1.8377200000D-01 Coefficients=  1.0000000000D+00
 P 1 1.00
     Exponent=  7.5833000000D-02 Coefficients=  1.0000000000D+00
 P 1 1.00
     Exponent=  3.1099000000D-02 Coefficients=  1.0000000000D+00
 P 1 1.00
     Exponent=  1.0012800000D+01 Coefficients=  1.0000000000D+00
 P 1 1.00
     Exponent=  3.1869000000D+00 Coefficients=  1.0000000000D+00
 P 1 1.00
     Exponent=  1.2750000000D-02 Coefficients=  1.0000000000D+00
 D 1 1.00
     Exponent=  5.1841600000D+02 Coefficients=  1.0000000000D+00
 D 1 1.00
     Exponent=  1.5281900000D+02 Coefficients=  1.0000000000D+00
 D 1 1.00
     Exponent=  5.8586900000D+01 Coefficients=  1.0000000000D+00
 D 1 1.00
     Exponent=  2.5456400000D+01 Coefficients=  1.0000000000D+00
 D 1 1.00
     Exponent=  1.1786800000D+01 Coefficients=  1.0000000000D+00
 D 1 1.00
     Exponent=  5.7186100000D+00 Coefficients=  1.0000000000D+00
 D 1 1.00
     Exponent=  2.8241700000D+00 Coefficients=  1.0000000000D+00
 D 1 1.00
     Exponent=  1.3798500000D+00 Coefficients=  1.0000000000D+00
 D 1 1.00
     Exponent=  6.5616000000D-01 Coefficients=  1.0000000000D+00
 D 1 1.00
     Exponent=  2.9960900000D-01 Coefficients=  1.0000000000D+00
 D 1 1.00
     Exponent=  1.2936100000D-01 Coefficients=  1.0000000000D+00
 D 1 1.00
     Exponent=  5.1155000000D-02 Coefficients=  1.0000000000D+00
 D 1 1.00
     Exponent=  7.0982000000D+00 Coefficients=  1.0000000000D+00
 D 1 1.00
     Exponent=  4.2772000000D+00 Coefficients=  1.0000000000D+00
 D 1 1.00
     Exponent=  2.0230000000D-02 Coefficients=  1.0000000000D+00
 F 1 1.00
     Exponent=  1.1047100000D+01 Coefficients=  1.0000000000D+00
 F 1 1.00
     Exponent=  4.8541000000D+00 Coefficients=  1.0000000000D+00
 F 1 1.00
     Exponent=  2.1329000000D+00 Coefficients=  1.0000000000D+00
 F 1 1.00
     Exponent=  9.3720000000D-01 Coefficients=  1.0000000000D+00
 F 1 1.00
     Exponent=  3.1410000000D-01 Coefficients=  1.0000000000D+00
 F 1 1.00
     Exponent=  1.0527000000D-01 Coefficients=  1.0000000000D+00
 G 1 1.00
     Exponent=  7.5475000000D+00 Coefficients=  1.0000000000D+00
 G 1 1.00
     Exponent=  3.6737000000D+00 Coefficients=  1.0000000000D+00
 G 1 1.00
     Exponent=  1.7881000000D+00 Coefficients=  1.0000000000D+00
 G 1 1.00
     Exponent=  6.5640000000D-01 Coefficients=  1.0000000000D+00
 G 1 1.00
     Exponent=  2.4096000000D-01 Coefficients=  1.0000000000D+00
 H 1 1.00
     Exponent=  6.9263000000D+00 Coefficients=  1.0000000000D+00
 H 1 1.00
     Exponent=  3.2527000000D+00 Coefficients=  1.0000000000D+00
 H 1 1.00
     Exponent=  1.2964000000D+00 Coefficients=  1.0000000000D+00
 H 1 1.00
     Exponent=  5.1669000000D-01 Coefficients=  1.0000000000D+00
 I 1 1.00
     Exponent=  7.0569000000D+00 Coefficients=  1.0000000000D+00
 I 1 1.00
     Exponent=  1.3776500000D+00 Coefficients=  1.0000000000D+00
 ****
 Ernie: Thresh=  0.10000D-02 Tol=  0.10000D-05 Strict=F.
 There are   126 symmetry adapted cartesian basis functions of AG  symmetry.
 There are    42 symmetry adapted cartesian basis functions of B1G symmetry.
 There are    42 symmetry adapted cartesian basis functions of B2G symmetry.
 There are    42 symmetry adapted cartesian basis functions of B3G symmetry.
 There are    18 symmetry adapted cartesian basis functions of AU  symmetry.
 There are    65 symmetry adapted cartesian basis functions of B1U symmetry.
 There are    65 symmetry adapted cartesian basis functions of B2U symmetry.
 There are    65 symmetry adapted cartesian basis functions of B3U symmetry.
 There are    84 symmetry adapted basis functions of AG  symmetry.
 There are    31 symmetry adapted basis functions of B1G symmetry.
 There are    31 symmetry adapted basis functions of B2G symmetry.
 There are    31 symmetry adapted basis functions of B3G symmetry.
 There are    14 symmetry adapted basis functions of AU  symmetry.
 There are    47 symmetry adapted basis functions of B1U symmetry.
 There are    47 symmetry adapted basis functions of B2U symmetry.
 There are    47 symmetry adapted basis functions of B3U symmetry.
   332 basis functions,   465 primitive gaussians,   465 cartesian basis functions
    15 alpha electrons       11 beta electrons
       nuclear repulsion energy         0.0000000000 Hartrees.
 IExCor=    0 DFT=F Ex=HF Corr=None ExCW=0 ScaHFX=  1.000000
 ScaDFX=  1.000000  1.000000  1.000000  1.000000 ScalE2=  1.000000  1.000000
 IRadAn=      5 IRanWt=     -1 IRanGd=            0 ICorTp=0 IEmpDi=  4
 NAtoms=    1 NActive=    1 NUniq=    1 SFac= 1.00D+00 NAtFMM=   60 NAOKFM=F Big=F
 Integral buffers will be    131072 words long.
 Raffenetti 2 integral format.
 Two-electron integral symmetry is turned on.
 FoFCou: FMM=F IPFlag=           8 FMFlag=           0 FMFlg1=           0
         NFxFlg=           0 DoJE=F BraDBF=T KetDBF=T FulRan=T
         wScrn=  0.000000 ICntrl=       600 IOpCl=  3 I1Cent=           6 NGrid=           0
         NMat0=    1 NMatS0=      1 NMatT0=    0 NMatD0=    1 NMtDS0=    0 NMtDT0=    0
 Symmetry not used in FoFCou.
 Finite nuclear repulsion energy         0.0000000000.
 Leave Link  301 at Thu Mar  1 16:07:57 2018, MaxMem= 10737418240 cpu:              16.6 elap:               0.6
 (Enter /home1/apps/gaussian/16rA.03/g16/l302.exe)
 Using DK4 one-electron Hamiltonian with SO, DoBoet=T.
 NPDir=0 NMtPBC=     1 NCelOv=     1 NCel=       1 NClECP=     1 NCelD=      1
         NCelK=      1 NCelE2=     1 NClLst=     1 CellRange=     0.0.
 One-electron integrals computed using PRISM.
 One-electron integral symmetry used in STVInt
 FoFCou: FMM=F IPFlag=           8 FMFlag=      100000 FMFlg1=           0
         NFxFlg=           0 DoJE=T BraDBF=F KetDBF=T FulRan=T
         wScrn=  0.000000 ICntrl=       500 IOpCl=  0 I1Cent=           4 NGrid=           0
         NMat0=    1 NMatS0=      1 NMatT0=    0 NMatD0=    1 NMtDS0=    0 NMtDT0=    0
 Symmetry not used in FoFCou.
 UnConB:  Uncontracting AO basis from    332 functions to    332 functions (excluding duplicates).
 RelInt: Using uncontracted basis, NUnBas=   332 NBsUse=   332 0.100E-13 EigKep=  5.64D-10 EigRej= -1.00D+00
 NBasis=   332 RedAO= T EigKep=  6.42D-06  NBF=    84    31    31    31    14    47    47    47
 NBsUse=   324 1.00D-06 EigRej=  9.29D-07 NBFU=    82    31    31    31    14    45    45    45
 Leave Link  302 at Thu Mar  1 16:08:27 2018, MaxMem= 10737418240 cpu:             806.4 elap:              29.6
 (Enter /home1/apps/gaussian/16rA.03/g16/l303.exe)
 DipDrv:  MaxL=1.
 Leave Link  303 at Thu Mar  1 16:08:28 2018, MaxMem= 10737418240 cpu:               3.8 elap:               0.2
 (Enter /home1/apps/gaussian/16rA.03/g16/l401.exe)
 ExpMin= 1.23D-02 ExpMax= 1.50D+08 ExpMxC= 1.50D+08 IAcc=4 IRadAn=    399590 AccDes= 0.00D+00
 Harris functional with IExCor=  205 and IRadAn=  399590 diagonalized for initial guess.
 HarFok:  IExCor=  205 AccDes= 0.00D+00 IRadAn=    399590 IDoV= 1 UseB2=F ITyADJ=14
 ICtDFT=  3500011 ScaDFX=  1.000000  1.000000  1.000000  1.000000
 FoFCou: FMM=F IPFlag=           8 FMFlag=      100000 FMFlg1=           0
         NFxFlg=           0 DoJE=T BraDBF=F KetDBF=T FulRan=T
         wScrn=  0.000000 ICntrl=       500 IOpCl=  0 I1Cent=   200000004 NGrid=           0
         NMat0=    1 NMatS0=      1 NMatT0=    0 NMatD0=    1 NMtDS0=    0 NMtDT0=    0
 Petite list used in FoFCou.
 DSYEVD-2 returned Info=          91 IAlg= 4 N=    45 NDim=   324 NE2=    33138795 trying  DSYEV.
 Harris En= -1270.54888095383    
 JPrj=0 DoOrth=F DoCkMO=F.
 Alpha guess permutation (I<-O):    1    2    3    4    5    6    7    8    9   15
 Alpha guess permutation (I<-O):   10   11   12   13   14
 Initial guess orbital symmetries:
       Occupied  (A1G) (A1G) (T1U) (T1U) (T1U) (A1G) (T1U) (T1U)
                 (T1U) (A1G) (EG) (EG) (T2G) (T2G) (T2G)
       Virtual   (T1U) (T1U) (T1U) (A1G) (T1U) (T1U) (T1U) (EG)
                 (T2G) (T2G) (T2G) (EG) (A1G) (T1U) (T1U) (T1U)
                 (EG) (EG) (T2G) (T2G) (T2G) (A1G) (?A) (?A) (?A)
                 (?A) (?A) (A2U) (?A) (EG) (EG) (T2G) (T2G) (T2G)
                 (T1U) (T1U) (T1U) (A1G) (T1G) (T1G) (T1G) (T2G)
                 (T2G) (T2G) (T2G) (T2G) (T2G) (?A) (?A) (?A) (?A)
                 (?A) (A2U) (?A) (EG) (EG) (T2G) (T2G) (T2G) (T1U)
                 (T1U) (T1U) (A1G) (EG) (T2G) (EG) (T2G) (T2G)
                 (EU) (EU) (?B) (?B) (?B) (?B) (?B) (?B) (?B) (?B)
                 (?B) (?A) (?A) (?A) (?A) (?A) (A2U) (?A) (?C)
                 (?C) (?C) (?C) (?C) (?C) (T2G) (T2G) (T2G) (T1U)
                 (T1U) (T1U) (EG) (T2G) (T2G) (EG) (T2G) (A1G)
                 (?A) (?A) (?A) (?A) (?A) (A2U) (?A) (EU) (EU)
                 (?D) (?D) (?D) (?D) (?D) (?D) (?D) (?D) (?D) (T1G)
                 (T1G) (T1G) (T2G) (T2G) (T2G) (T2G) (T2G) (T2G)
                 (T1G) (T1G) (T1G) (T2G) (T2G) (T2G) (T2G) (T2G)
                 (T2G) (?E) (?E) (?E) (?E) (T1U) (T1U) (T1U) (T2G)
                 (T2G) (T2G) (EG) (EG) (A1G) (?A) (?A) (?A) (A2U)
                 (?A) (?A) (?A) (T1G) (T1G) (T1G) (T2G) (T2G) (T2G)
                 (T2G) (T2G) (T2G) (EU) (EU) (?F) (?F) (?F) (?F)
                 (?F) (?F) (?F) (?F) (?F) (T1U) (T1U) (T1U) (T2G)
                 (T2G) (T2G) (EG) (EG) (A1G) (T1G) (T1G) (T1G)
                 (T2G) (T2G) (T2G) (T2G) (T2G) (T2G) (T2G) (T2G)
                 (T2G) (EG) (EG) (?A) (?A) (?A) (A2U) (?A) (?A)
                 (?A) (EU) (EU) (?F) (?F) (?F) (?F) (?F) (?F) (?F)
                 (?F) (?F) (?C) (?C) (?C) (?C) (?C) (?C) (?E) (T2G)
                 (T2G) (T2G) (?E) (?E) (?E) (T1U) (T1U) (T1U) (T2G)
                 (T2G) (T2G) (EG) (EG) (A1G) (T1U) (T1U) (T1U)
                 (T2G) (T2G) (T2G) (EG) (EG) (A1G) (T1U) (T1U)
                 (T1U) (T2G) (T2G) (T2G) (EG) (EG) (A1G) (T1U)
                 (T1U) (T1U) (T2G) (T2G) (T2G) (EG) (EG) (A1G)
                 (T1U) (T1U) (T1U) (T2G) (T2G) (T2G) (EG) (EG)
                 (A1G) (T1U) (T1U) (T1U) (A1G) (T1U) (T1U) (T1U)
                 (A1G) (T1U) (T1U) (T1U) (A1G) (T1U) (T1U) (T1U)
                 (A1G) (T1U) (T1U) (T1U) (A1G) (A1G) (T1U) (T1U)
                 (T1U) (A1G) (A1G) (A1G) (A1G) (A1G) (A1G)
 Leave Link  401 at Thu Mar  1 16:08:46 2018, MaxMem= 10737418240 cpu:             534.6 elap:              17.0
 (Enter /home1/apps/gaussian/16rA.03/g16/l502.exe)
 Keep R1 and R2 ints in memory in symmetry-blocked form, NReq=1907116465.
 FoFCou: FMM=F IPFlag=           8 FMFlag=           0 FMFlg1=           0
         NFxFlg=           0 DoJE=F BraDBF=F KetDBF=F FulRan=T
         wScrn=  0.000000 ICntrl=       600 IOpCl=  0 I1Cent=           0 NGrid=           0
         NMat0=    1 NMatS0=  55278 NMatT0=    0 NMatD0=    1 NMtDS0=    0 NMtDT0=    0
 Petite list used in FoFCou.
 Restricted open shell SCF:
 Using DIIS extrapolation, IDIIS=  1040.
 NGot= 10737418240 LenX= 10349130688 LenY= 10348913998
 Requested convergence on RMS density matrix=1.00D-08 within 400 cycles.
 Requested convergence on MAX density matrix=1.00D-06.
 Requested convergence on             energy=1.00D-06.
 No special actions if energy rises.

 Cycle   1  Pass 1  IDiag  1:
 Density matrix breaks symmetry, PCut= 1.00D-07
 Density has only Abelian symmetry.
 E= -1271.26962220506    
 DIIS: error= 1.81D-01 at cycle   1 NSaved=   1.
 NSaved= 1 IEnMin= 1 EnMin= -1271.26962220506     IErMin= 1 ErrMin= 1.81D-01
 ErrMax= 1.81D-01  0.00D+00 EMaxC= 1.00D-01 BMatC= 1.84D+00 BMatP= 1.84D+00
 IDIUse=3 WtCom= 0.00D+00 WtEn= 1.00D+00
 Coeff-Com:  0.100D+01
 Coeff-En:   0.100D+01
 Coeff:      0.100D+01
 Fock symm off for IB=2 I1=   23 I=  105 J=   78 Cut=1.00D-07 Err=1.53D-07
 Fock matrix is not symmetric: symmetry in diagonalization turned off.
 Gap=     0.377 Goal=   None    Shift=    0.000
 GapD=    0.377 DampG=1.000 DampE=0.125 DampFc=0.1250 IDamp=-1.
 Damping current iteration by 1.25D-01
 RMSDP=5.77D-04 MaxDP=4.38D-02              OVMax= 1.00D+00

 Cycle   2  Pass 1  IDiag  1:
 Density matrix breaks symmetry, PCut= 1.00D-07
 Density has only Abelian symmetry.
 E= -1271.27628780979     Delta-E=       -0.006665604730 Rises=F Damp=T
 DIIS: error= 1.59D-01 at cycle   2 NSaved=   2.
 NSaved= 2 IEnMin= 2 EnMin= -1271.27628780979     IErMin= 2 ErrMin= 1.59D-01
 ErrMax= 1.59D-01  0.00D+00 EMaxC= 1.00D-01 BMatC= 1.38D+00 BMatP= 1.84D+00
 IDIUse=3 WtCom= 0.00D+00 WtEn= 1.00D+00
 Coeff-Com: -0.264D+01 0.364D+01
 Coeff-En:   0.282D+00 0.718D+00
 Coeff:      0.282D+00 0.718D+00
 Gap=     0.156 Goal=   None    Shift=    0.000
 RMSDP=4.39D-04 MaxDP=4.18D-02 DE=-6.67D-03 OVMax= 1.50D-01

 Cycle   3  Pass 1  IDiag  1:
 Density matrix breaks symmetry, PCut= 1.00D-07
 Density has only Abelian symmetry.
 E= -1271.33295110338     Delta-E=       -0.056663293597 Rises=F Damp=F
 DIIS: error= 2.17D-02 at cycle   3 NSaved=   3.
 NSaved= 3 IEnMin= 3 EnMin= -1271.33295110338     IErMin= 3 ErrMin= 2.17D-02
 ErrMax= 2.17D-02  0.00D+00 EMaxC= 1.00D-01 BMatC= 2.51D-02 BMatP= 1.38D+00
 IDIUse=3 WtCom= 7.83D-01 WtEn= 2.17D-01
 Coeff-Com: -0.242D+00 0.270D+00 0.971D+00
 Coeff-En:   0.000D+00 0.000D+00 0.100D+01
 Coeff:     -0.189D+00 0.212D+00 0.978D+00
 Gap=     0.095 Goal=   None    Shift=    0.000
 RMSDP=4.66D-04 MaxDP=3.78D-02 DE=-5.67D-02 OVMax= 1.69D-01

 Cycle   4  Pass 1  IDiag  1:
 Density matrix breaks symmetry, PCut= 1.00D-07
 Density matrix has no symmetry -- integrals replicated.
 E= -1271.33300073748     Delta-E=       -0.000049634100 Rises=F Damp=F
 DIIS: error= 2.49D-02 at cycle   4 NSaved=   4.
 NSaved= 4 IEnMin= 4 EnMin= -1271.33300073748     IErMin= 3 ErrMin= 2.17D-02
 ErrMax= 2.49D-02  0.00D+00 EMaxC= 1.00D-01 BMatC= 2.21D-02 BMatP= 2.51D-02
 IDIUse=3 WtCom= 7.51D-01 WtEn= 2.49D-01
 Coeff-Com: -0.161D+00 0.171D+00 0.484D+00 0.506D+00
 Coeff-En:   0.000D+00 0.000D+00 0.500D+00 0.500D+00
 Coeff:     -0.121D+00 0.128D+00 0.488D+00 0.505D+00
 Gap=     0.115 Goal=   None    Shift=    0.000
 RMSDP=5.52D-04 MaxDP=6.51D-02 DE=-4.96D-05 OVMax= 1.91D-01

 Cycle   5  Pass 1  IDiag  1:
 Density matrix breaks symmetry, PCut= 1.00D-07
 Density matrix has no symmetry -- integrals replicated.
 E= -1271.34215984592     Delta-E=       -0.009159108432 Rises=F Damp=F
 DIIS: error= 1.03D-02 at cycle   5 NSaved=   5.
 NSaved= 5 IEnMin= 5 EnMin= -1271.34215984592     IErMin= 5 ErrMin= 1.03D-02
 ErrMax= 1.03D-02  0.00D+00 EMaxC= 1.00D-01 BMatC= 7.21D-03 BMatP= 2.21D-02
 IDIUse=3 WtCom= 8.97D-01 WtEn= 1.03D-01
 Coeff-Com: -0.144D+00 0.157D+00 0.224D+00 0.351D+00 0.412D+00
 Coeff-En:   0.000D+00 0.000D+00 0.000D+00 0.441D+00 0.559D+00
 Coeff:     -0.129D+00 0.141D+00 0.201D+00 0.360D+00 0.427D+00
 Gap=     0.120 Goal=   None    Shift=    0.000
 RMSDP=4.02D-04 MaxDP=4.32D-02 DE=-9.16D-03 OVMax= 1.03D-01

 Cycle   6  Pass 1  IDiag  1:
 Density matrix breaks symmetry, PCut= 1.00D-07
 Density matrix has no symmetry -- integrals replicated.
 E= -1271.35211576784     Delta-E=       -0.009955921922 Rises=F Damp=F
 DIIS: error= 3.27D-03 at cycle   6 NSaved=   6.
 NSaved= 6 IEnMin= 6 EnMin= -1271.35211576784     IErMin= 6 ErrMin= 3.27D-03
 ErrMax= 3.27D-03  0.00D+00 EMaxC= 1.00D-01 BMatC= 9.66D-04 BMatP= 7.21D-03
 IDIUse=3 WtCom= 9.67D-01 WtEn= 3.27D-02
 Rare condition: small coef for last iteration:  0.000D+00
 Coeff-Com: -0.999D-01 0.115D+00-0.358D-01 0.843D-01 0.225D+00 0.711D+00
 Coeff-En:   0.000D+00 0.000D+00 0.000D+00 0.216D+00 0.183D+00 0.602D+00
 Coeff:     -0.999D-01 0.115D+00-0.358D-01 0.843D-01 0.225D+00 0.711D+00
 Gap=     0.114 Goal=   None    Shift=    0.000
 RMSDP=1.39D-04 MaxDP=1.33D-02 DE=-9.96D-03 OVMax= 2.80D-02

 Cycle   7  Pass 1  IDiag  1:
 Density matrix breaks symmetry, PCut= 1.00D-07
 Density matrix has no symmetry -- integrals replicated.
 E= -1271.35301691389     Delta-E=       -0.000901146047 Rises=F Damp=F
 DIIS: error= 3.66D-03 at cycle   7 NSaved=   7.
 NSaved= 7 IEnMin= 7 EnMin= -1271.35301691389     IErMin= 6 ErrMin= 3.27D-03
 ErrMax= 3.66D-03  0.00D+00 EMaxC= 1.00D-01 BMatC= 4.05D-04 BMatP= 9.66D-04
 IDIUse=3 WtCom= 9.67D-01 WtEn= 3.27D-02
 EnCoef did   100 forward-backward iterations
 Rare condition: small coef for last iteration:  0.000D+00
 Coeff-Com: -0.798D-01 0.929D-01-0.704D-01-0.164D-01 0.554D-01 0.372D+00
 Coeff-Com:  0.646D+00
 Coeff-En:   0.000D+00 0.000D+00 0.000D+00 0.190D+00 0.959D-01 0.190D-01
 Coeff-En:   0.695D+00
 Coeff:     -0.798D-01 0.929D-01-0.704D-01-0.164D-01 0.554D-01 0.372D+00
 Coeff:      0.646D+00
 Gap=     0.111 Goal=   None    Shift=    0.000
 RMSDP=7.40D-05 MaxDP=7.86D-03 DE=-9.01D-04 OVMax= 1.99D-02

 Cycle   8  Pass 1  IDiag  1:
 Density matrix breaks symmetry, PCut= 1.00D-07
 Density matrix has no symmetry -- integrals replicated.
 E= -1271.35317550893     Delta-E=       -0.000158595039 Rises=F Damp=F
 DIIS: error= 2.91D-03 at cycle   8 NSaved=   8.
 NSaved= 8 IEnMin= 8 EnMin= -1271.35317550893     IErMin= 8 ErrMin= 2.91D-03
 ErrMax= 2.91D-03  0.00D+00 EMaxC= 1.00D-01 BMatC= 3.14D-04 BMatP= 4.05D-04
 IDIUse=3 WtCom= 9.71D-01 WtEn= 2.91D-02
 EnCoef did   100 forward-backward iterations
 Coeff-Com: -0.669D-01 0.777D-01-0.511D-01-0.474D-01-0.398D-01 0.352D-01
 Coeff-Com:  0.586D+00 0.506D+00
 Coeff-En:   0.000D+00 0.000D+00 0.000D+00 0.430D+00 0.541D+00 0.000D+00
 Coeff-En:   0.104D-01 0.185D-01
 Coeff:     -0.650D-01 0.755D-01-0.496D-01-0.335D-01-0.229D-01 0.342D-01
 Coeff:      0.569D+00 0.492D+00
 Gap=     0.112 Goal=   None    Shift=    0.000
 RMSDP=4.41D-05 MaxDP=3.85D-03 DE=-1.59D-04 OVMax= 1.07D-02

 Cycle   9  Pass 1  IDiag  1:
 Density matrix breaks symmetry, PCut= 1.00D-07
 Density matrix has no symmetry -- integrals replicated.
 E= -1271.35339838481     Delta-E=       -0.000222875887 Rises=F Damp=F
 DIIS: error= 1.97D-03 at cycle   9 NSaved=   9.
 NSaved= 9 IEnMin= 9 EnMin= -1271.35339838481     IErMin= 9 ErrMin= 1.97D-03
 ErrMax= 1.97D-03  0.00D+00 EMaxC= 1.00D-01 BMatC= 1.46D-04 BMatP= 3.14D-04
 IDIUse=3 WtCom= 9.80D-01 WtEn= 1.97D-02
 EnCoef did   100 forward-backward iterations
 Rare condition: small coef for last iteration: -0.116D-15
 Coeff-Com: -0.512D-01 0.586D-01-0.108D-01-0.233D-02-0.130D-01-0.765D-01
 Coeff-Com:  0.151D-01 0.128D+00 0.953D+00
 Coeff-En:   0.000D+00 0.000D+00 0.000D+00 0.177D+00 0.917D-01 0.000D+00
 Coeff-En:   0.000D+00 0.000D+00 0.731D+00
 Coeff:     -0.512D-01 0.586D-01-0.108D-01-0.233D-02-0.130D-01-0.765D-01
 Coeff:      0.151D-01 0.128D+00 0.953D+00
 Gap=     0.112 Goal=   None    Shift=    0.000
 RMSDP=1.44D-05 MaxDP=1.05D-03 DE=-2.23D-04 OVMax= 3.53D-03

 Cycle  10  Pass 1  IDiag  1:
 Density matrix breaks symmetry, PCut= 1.00D-07
 Density matrix has no symmetry -- integrals replicated.
 E= -1271.35348536867     Delta-E=       -0.000086983859 Rises=F Damp=F
 DIIS: error= 1.51D-03 at cycle  10 NSaved=  10.
 NSaved=10 IEnMin=10 EnMin= -1271.35348536867     IErMin=10 ErrMin= 1.51D-03
 ErrMax= 1.51D-03  0.00D+00 EMaxC= 1.00D-01 BMatC= 8.39D-05 BMatP= 1.46D-04
 IDIUse=3 WtCom= 9.85D-01 WtEn= 1.51D-02
 EnCoef did   100 forward-backward iterations
 Coeff-Com: -0.432D-01 0.493D-01-0.770D-02 0.263D-02-0.279D-02-0.514D-01
 Coeff-Com: -0.630D-01 0.177D-01 0.594D+00 0.504D+00
 Coeff-En:   0.000D+00 0.000D+00 0.000D+00 0.429D+00 0.540D+00 0.000D+00
 Coeff-En:   0.000D+00 0.000D+00 0.000D+00 0.302D-01
 Coeff:     -0.425D-01 0.486D-01-0.758D-02 0.907D-02 0.542D-02-0.506D-01
 Coeff:     -0.621D-01 0.174D-01 0.585D+00 0.497D+00
 Gap=     0.113 Goal=   None    Shift=    0.000
 RMSDP=9.14D-06 MaxDP=9.76D-04 DE=-8.70D-05 OVMax= 2.25D-03

 Cycle  11  Pass 1  IDiag  1:
 Density matrix breaks symmetry, PCut= 1.00D-07
 Density matrix has no symmetry -- integrals replicated.
 E= -1271.35352386565     Delta-E=       -0.000038496974 Rises=F Damp=F
 DIIS: error= 1.05D-03 at cycle  11 NSaved=  11.
 NSaved=11 IEnMin=11 EnMin= -1271.35352386565     IErMin=11 ErrMin= 1.05D-03
 ErrMax= 1.05D-03  0.00D+00 EMaxC= 1.00D-01 BMatC= 5.28D-05 BMatP= 8.39D-05
 IDIUse=3 WtCom= 9.89D-01 WtEn= 1.05D-02
 EnCoef did   100 forward-backward iterations
 Rare condition: small coef for last iteration: -0.349D-15
 Coeff-Com: -0.288D-01 0.330D-01-0.930D-02 0.400D-02 0.650D-02-0.217D-01
 Coeff-Com: -0.945D-01-0.696D-01 0.786D-01 0.481D+00 0.621D+00
 Coeff-En:   0.000D+00 0.000D+00 0.000D+00 0.170D+00 0.100D+00 0.000D+00
 Coeff-En:   0.000D+00 0.000D+00 0.000D+00 0.000D+00 0.729D+00
 Coeff:     -0.288D-01 0.330D-01-0.930D-02 0.400D-02 0.650D-02-0.217D-01
 Coeff:     -0.945D-01-0.696D-01 0.786D-01 0.481D+00 0.621D+00
 Gap=     0.112 Goal=   None    Shift=    0.000
 RMSDP=1.40D-05 MaxDP=1.54D-03 DE=-3.85D-05 OVMax= 2.11D-03

 Cycle  12  Pass 1  IDiag  1:
 Density matrix breaks symmetry, PCut= 1.00D-07
 Density matrix has no symmetry -- integrals replicated.
 E= -1271.35356330071     Delta-E=       -0.000039435063 Rises=F Damp=F
 DIIS: error= 7.99D-04 at cycle  12 NSaved=  12.
 NSaved=12 IEnMin=12 EnMin= -1271.35356330071     IErMin=12 ErrMin= 7.99D-04
 ErrMax= 7.99D-04  0.00D+00 EMaxC= 1.00D-01 BMatC= 2.56D-05 BMatP= 5.28D-05
 IDIUse=3 WtCom= 9.92D-01 WtEn= 7.99D-03
 EnCoef did   100 forward-backward iterations
 Coeff-Com: -0.179D-01 0.206D-01-0.732D-02 0.161D-02 0.596D-02-0.237D-03
 Coeff-Com: -0.646D-01-0.657D-01-0.140D+00 0.206D+00 0.344D+00 0.717D+00
 Coeff-En:   0.000D+00 0.000D+00 0.000D+00 0.429D+00 0.540D+00 0.000D+00
 Coeff-En:   0.000D+00 0.000D+00 0.000D+00 0.000D+00 0.000D+00 0.307D-01
 Coeff:     -0.178D-01 0.204D-01-0.726D-02 0.503D-02 0.102D-01-0.235D-03
 Coeff:     -0.641D-01-0.652D-01-0.138D+00 0.205D+00 0.341D+00 0.712D+00
 Gap=     0.112 Goal=   None    Shift=    0.000
 RMSDP=1.55D-05 MaxDP=1.83D-03 DE=-3.94D-05 OVMax= 1.66D-03

 Cycle  13  Pass 1  IDiag  1:
 Density matrix breaks symmetry, PCut= 1.00D-07
 Density matrix has no symmetry -- integrals replicated.
 E= -1271.35358451928     Delta-E=       -0.000021218568 Rises=F Damp=F
 DIIS: error= 4.46D-04 at cycle  13 NSaved=  13.
 NSaved=13 IEnMin=13 EnMin= -1271.35358451928     IErMin=13 ErrMin= 4.46D-04
 ErrMax= 4.46D-04  0.00D+00 EMaxC= 1.00D-01 BMatC= 9.25D-06 BMatP= 2.56D-05
 IDIUse=3 WtCom= 9.96D-01 WtEn= 4.46D-03
 EnCoef did   100 forward-backward iterations
 Rare condition: small coef for last iteration:  0.291D-15
 Coeff-Com: -0.404D-02 0.467D-02-0.263D-02-0.559D-03 0.163D-02 0.517D-02
 Coeff-Com: -0.134D-01-0.213D-01-0.153D+00-0.128D+00-0.275D+00 0.819D+00
 Coeff-Com:  0.767D+00
 Coeff-En:   0.000D+00 0.000D+00 0.000D+00 0.167D+00 0.106D+00 0.000D+00
 Coeff-En:   0.000D+00 0.000D+00 0.000D+00 0.000D+00 0.000D+00 0.000D+00
 Coeff-En:   0.727D+00
 Coeff:     -0.404D-02 0.467D-02-0.263D-02-0.559D-03 0.163D-02 0.517D-02
 Coeff:     -0.134D-01-0.213D-01-0.153D+00-0.128D+00-0.275D+00 0.819D+00
 Coeff:      0.767D+00
 Gap=     0.111 Goal=   None    Shift=    0.000
 RMSDP=9.38D-06 MaxDP=9.77D-04 DE=-2.12D-05 OVMax= 1.72D-03

 Cycle  14  Pass 1  IDiag  1:
 Density matrix breaks symmetry, PCut= 1.00D-07
 Density matrix has no symmetry -- integrals replicated.
 E= -1271.35359664483     Delta-E=       -0.000012125550 Rises=F Damp=F
 DIIS: error= 1.31D-04 at cycle  14 NSaved=  14.
 NSaved=14 IEnMin=14 EnMin= -1271.35359664483     IErMin=14 ErrMin= 1.31D-04
 ErrMax= 1.31D-04  0.00D+00 EMaxC= 1.00D-01 BMatC= 6.24D-07 BMatP= 9.25D-06
 IDIUse=3 WtCom= 9.99D-01 WtEn= 1.31D-03
 EnCoef did   100 forward-backward iterations
 Coeff-Com:  0.183D-02-0.211D-02 0.143D-02-0.875D-03-0.181D-02 0.703D-03
 Coeff-Com:  0.147D-01 0.150D-01-0.178D-01-0.176D+00-0.437D+00 0.322D+00
 Coeff-Com:  0.649D+00 0.631D+00
 Coeff-En:   0.000D+00 0.000D+00 0.000D+00 0.429D+00 0.540D+00 0.000D+00
 Coeff-En:   0.000D+00 0.000D+00 0.000D+00 0.000D+00 0.000D+00 0.000D+00
 Coeff-En:   0.000D+00 0.312D-01
 Coeff:      0.183D-02-0.211D-02 0.143D-02-0.313D-03-0.111D-02 0.702D-03
 Coeff:      0.147D-01 0.150D-01-0.177D-01-0.176D+00-0.436D+00 0.321D+00
 Coeff:      0.648D+00 0.630D+00
 Gap=     0.111 Goal=   None    Shift=    0.000
 RMSDP=3.23D-06 MaxDP=3.03D-04 DE=-1.21D-05 OVMax= 9.09D-04

 Cycle  15  Pass 1  IDiag  1:
 Density matrix breaks symmetry, PCut= 1.00D-07
 Density matrix has no symmetry -- integrals replicated.
 E= -1271.35359733944     Delta-E=       -0.000000694608 Rises=F Damp=F
 DIIS: error= 5.66D-05 at cycle  15 NSaved=  15.
 NSaved=15 IEnMin=15 EnMin= -1271.35359733944     IErMin=15 ErrMin= 5.66D-05
 ErrMax= 5.66D-05  0.00D+00 EMaxC= 1.00D-01 BMatC= 1.20D-07 BMatP= 6.24D-07
 IDIUse=1 WtCom= 1.00D+00 WtEn= 0.00D+00
 Coeff-Com:  0.134D-02-0.154D-02 0.829D-03-0.626D-04-0.539D-03-0.903D-03
 Coeff-Com:  0.548D-02 0.557D-02-0.170D-03-0.494D-01-0.133D+00 0.763D-01
 Coeff-Com:  0.192D+00 0.251D+00 0.653D+00
 Coeff:      0.134D-02-0.154D-02 0.829D-03-0.626D-04-0.539D-03-0.903D-03
 Coeff:      0.548D-02 0.557D-02-0.170D-03-0.494D-01-0.133D+00 0.763D-01
 Coeff:      0.192D+00 0.251D+00 0.653D+00
 Gap=     0.111 Goal=   None    Shift=    0.000
 RMSDP=2.24D-06 MaxDP=2.65D-04 DE=-6.95D-07 OVMax= 1.62D-04

 Cycle  16  Pass 1  IDiag  1:
 Density matrix breaks symmetry, PCut= 1.00D-07
 Density matrix has no symmetry -- integrals replicated.
 E= -1271.35359741826     Delta-E=       -0.000000078821 Rises=F Damp=F
 DIIS: error= 3.64D-05 at cycle  16 NSaved=  16.
 NSaved=16 IEnMin=16 EnMin= -1271.35359741826     IErMin=16 ErrMin= 3.64D-05
 ErrMax= 3.64D-05  0.00D+00 EMaxC= 1.00D-01 BMatC= 5.66D-08 BMatP= 1.20D-07
 IDIUse=1 WtCom= 1.00D+00 WtEn= 0.00D+00
 Coeff-Com:  0.605D-03-0.696D-03 0.227D-03 0.209D-03 0.158D-03-0.843D-03
 Coeff-Com: -0.256D-03-0.578D-03 0.217D-02 0.170D-01 0.397D-01-0.285D-01
 Coeff-Com: -0.471D-01-0.195D-01 0.420D+00 0.618D+00
 Coeff:      0.605D-03-0.696D-03 0.227D-03 0.209D-03 0.158D-03-0.843D-03
 Coeff:     -0.256D-03-0.578D-03 0.217D-02 0.170D-01 0.397D-01-0.285D-01
 Coeff:     -0.471D-01-0.195D-01 0.420D+00 0.618D+00
 Gap=     0.111 Goal=   None    Shift=    0.000
 RMSDP=1.32D-06 MaxDP=1.37D-04 DE=-7.88D-08 OVMax= 1.13D-04

 Cycle  17  Pass 1  IDiag  1:
 Density matrix breaks symmetry, PCut= 1.00D-07
 Density matrix has no symmetry -- integrals replicated.
 E= -1271.35359748429     Delta-E=       -0.000000066029 Rises=F Damp=F
 DIIS: error= 1.79D-05 at cycle  17 NSaved=  17.
 NSaved=17 IEnMin=17 EnMin= -1271.35359748429     IErMin=17 ErrMin= 1.79D-05
 ErrMax= 1.79D-05  0.00D+00 EMaxC= 1.00D-01 BMatC= 1.27D-08 BMatP= 5.66D-08
 IDIUse=1 WtCom= 1.00D+00 WtEn= 0.00D+00
 Coeff-Com:  0.418D-03-0.479D-03 0.101D-03 0.163D-03 0.174D-03-0.547D-03
 Coeff-Com: -0.814D-03-0.110D-02 0.131D-02 0.187D-01 0.481D-01-0.302D-01
 Coeff-Com: -0.603D-01-0.530D-01 0.203D+00 0.449D+00 0.425D+00
 Coeff:      0.418D-03-0.479D-03 0.101D-03 0.163D-03 0.174D-03-0.547D-03
 Coeff:     -0.814D-03-0.110D-02 0.131D-02 0.187D-01 0.481D-01-0.302D-01
 Coeff:     -0.603D-01-0.530D-01 0.203D+00 0.449D+00 0.425D+00
 Gap=     0.111 Goal=   None    Shift=    0.000
 RMSDP=6.27D-07 MaxDP=7.40D-05 DE=-6.60D-08 OVMax= 8.64D-05

 Cycle  18  Pass 1  IDiag  1:
 Density matrix breaks symmetry, PCut= 1.00D-07
 Density matrix has no symmetry -- integrals replicated.
 E= -1271.35359749692     Delta-E=       -0.000000012639 Rises=F Damp=F
 DIIS: error= 1.18D-05 at cycle  18 NSaved=  18.
 NSaved=18 IEnMin=18 EnMin= -1271.35359749692     IErMin=18 ErrMin= 1.18D-05
 ErrMax= 1.18D-05  0.00D+00 EMaxC= 1.00D-01 BMatC= 6.42D-09 BMatP= 1.27D-08
 IDIUse=1 WtCom= 1.00D+00 WtEn= 0.00D+00
 Coeff-Com:  0.274D-03-0.314D-03 0.516D-04 0.905D-04 0.101D-03-0.299D-03
 Coeff-Com: -0.656D-03-0.775D-03 0.679D-03 0.115D-01 0.315D-01-0.175D-01
 Coeff-Com: -0.393D-01-0.440D-01 0.431D-01 0.209D+00 0.418D+00 0.388D+00
 Coeff:      0.274D-03-0.314D-03 0.516D-04 0.905D-04 0.101D-03-0.299D-03
 Coeff:     -0.656D-03-0.775D-03 0.679D-03 0.115D-01 0.315D-01-0.175D-01
 Coeff:     -0.393D-01-0.440D-01 0.431D-01 0.209D+00 0.418D+00 0.388D+00
 Gap=     0.111 Goal=   None    Shift=    0.000
 RMSDP=4.09D-07 MaxDP=4.17D-05 DE=-1.26D-08 OVMax= 5.02D-05

 Cycle  19  Pass 1  IDiag  1:
 Density matrix breaks symmetry, PCut= 1.00D-07
 Density matrix has no symmetry -- integrals replicated.
 E= -1271.35359750612     Delta-E=       -0.000000009199 Rises=F Damp=F
 DIIS: error= 8.02D-06 at cycle  19 NSaved=  19.
 NSaved=19 IEnMin=19 EnMin= -1271.35359750612     IErMin=19 ErrMin= 8.02D-06
 ErrMax= 8.02D-06  0.00D+00 EMaxC= 1.00D-01 BMatC= 2.80D-09 BMatP= 6.42D-09
 IDIUse=1 WtCom= 1.00D+00 WtEn= 0.00D+00
 Coeff-Com:  0.113D-03-0.129D-03 0.271D-04 0.387D-04 0.315D-04-0.161D-03
 Coeff-Com: -0.384D-03-0.292D-03 0.689D-03 0.399D-02 0.111D-01-0.389D-02
 Coeff-Com: -0.123D-01-0.194D-01-0.292D-01 0.331D-01 0.197D+00 0.271D+00
 Coeff-Com:  0.549D+00
 Coeff:      0.113D-03-0.129D-03 0.271D-04 0.387D-04 0.315D-04-0.161D-03
 Coeff:     -0.384D-03-0.292D-03 0.689D-03 0.399D-02 0.111D-01-0.389D-02
 Coeff:     -0.123D-01-0.194D-01-0.292D-01 0.331D-01 0.197D+00 0.271D+00
 Coeff:      0.549D+00
 Gap=     0.111 Goal=   None    Shift=    0.000
 RMSDP=1.20D-07 MaxDP=9.01D-06 DE=-9.20D-09 OVMax= 2.22D-05

 Cycle  20  Pass 1  IDiag  1:
 Density matrix breaks symmetry, PCut= 1.00D-07
 Density matrix has no symmetry -- integrals replicated.
 E= -1271.35359751371     Delta-E=       -0.000000007585 Rises=F Damp=F
 DIIS: error= 3.82D-06 at cycle  20 NSaved=  20.
 NSaved=20 IEnMin=20 EnMin= -1271.35359751371     IErMin=20 ErrMin= 3.82D-06
 ErrMax= 3.82D-06  0.00D+00 EMaxC= 1.00D-01 BMatC= 8.46D-10 BMatP= 2.80D-09
 IDIUse=1 WtCom= 1.00D+00 WtEn= 0.00D+00
 Coeff-Com: -0.342D-05 0.375D-05 0.843D-05 0.718D-05-0.637D-05-0.653D-04
 Coeff-Com: -0.181D-03 0.117D-05 0.632D-03-0.545D-03-0.154D-02 0.357D-02
 Coeff-Com:  0.388D-02-0.219D-02-0.508D-01-0.518D-01 0.316D-01 0.109D+00
 Coeff-Com:  0.470D+00 0.489D+00
 Coeff:     -0.342D-05 0.375D-05 0.843D-05 0.718D-05-0.637D-05-0.653D-04
 Coeff:     -0.181D-03 0.117D-05 0.632D-03-0.545D-03-0.154D-02 0.357D-02
 Coeff:      0.388D-02-0.219D-02-0.508D-01-0.518D-01 0.316D-01 0.109D+00
 Coeff:      0.470D+00 0.489D+00
 Gap=     0.111 Goal=   None    Shift=    0.000
 RMSDP=1.00D-07 MaxDP=6.43D-06 DE=-7.58D-09 OVMax= 1.62D-05

 Cycle  21  Pass 1  IDiag  1:
 Density matrix breaks symmetry, PCut= 1.00D-07
 Density matrix has no symmetry -- integrals replicated.
 E= -1271.35359751968     Delta-E=       -0.000000005972 Rises=F Damp=F
 DIIS: error= 3.04D-06 at cycle  21 NSaved=  20.
 NSaved=20 IEnMin=20 EnMin= -1271.35359751968     IErMin=20 ErrMin= 3.04D-06
 ErrMax= 3.04D-06  0.00D+00 EMaxC= 1.00D-01 BMatC= 4.35D-10 BMatP= 8.46D-10
 IDIUse=1 WtCom= 1.00D+00 WtEn= 0.00D+00
 Coeff-Com: -0.171D-06 0.624D-05-0.218D-05-0.270D-05 0.185D-04-0.697D-07
 Coeff-Com:  0.143D-04-0.192D-04-0.108D-02-0.215D-02 0.134D-02 0.273D-02
 Coeff-Com:  0.159D-02-0.677D-02-0.238D-02 0.636D-02-0.187D-02-0.870D-01
 Coeff-Com: -0.624D-01 0.115D+01
 Coeff:     -0.171D-06 0.624D-05-0.218D-05-0.270D-05 0.185D-04-0.697D-07
 Coeff:      0.143D-04-0.192D-04-0.108D-02-0.215D-02 0.134D-02 0.273D-02
 Coeff:      0.159D-02-0.677D-02-0.238D-02 0.636D-02-0.187D-02-0.870D-01
 Coeff:     -0.624D-01 0.115D+01
 Gap=     0.111 Goal=   None    Shift=    0.000
 RMSDP=1.15D-07 MaxDP=1.02D-05 DE=-5.97D-09 OVMax= 6.24D-06

 Cycle  22  Pass 1  IDiag  1:
 Density matrix breaks symmetry, PCut= 1.00D-07
 Density matrix has no symmetry -- integrals replicated.
 E= -1271.35359752828     Delta-E=       -0.000000008600 Rises=F Damp=F
 DIIS: error= 3.03D-06 at cycle  22 NSaved=  20.
 NSaved=20 IEnMin=20 EnMin= -1271.35359752828     IErMin=20 ErrMin= 3.03D-06
 ErrMax= 3.03D-06  0.00D+00 EMaxC= 1.00D-01 BMatC= 4.40D-10 BMatP= 4.35D-10
 IDIUse=1 WtCom= 1.00D+00 WtEn= 0.00D+00
 Coeff-Com: -0.362D-06-0.104D-04 0.101D-05 0.860D-04 0.147D-03 0.204D-04
 Coeff-Com: -0.508D-03-0.119D-02-0.181D-02-0.951D-03 0.729D-03 0.342D-02
 Coeff-Com:  0.292D-01 0.425D-01-0.368D-02-0.822D-01-0.542D+00-0.578D+00
 Coeff-Com:  0.158D+01 0.556D+00
 Coeff:     -0.362D-06-0.104D-04 0.101D-05 0.860D-04 0.147D-03 0.204D-04
 Coeff:     -0.508D-03-0.119D-02-0.181D-02-0.951D-03 0.729D-03 0.342D-02
 Coeff:      0.292D-01 0.425D-01-0.368D-02-0.822D-01-0.542D+00-0.578D+00
 Coeff:      0.158D+01 0.556D+00
 Gap=     0.111 Goal=   None    Shift=    0.000
 RMSDP=1.56D-07 MaxDP=1.39D-05 DE=-8.60D-09 OVMax= 8.42D-06

 Cycle  23  Pass 1  IDiag  1:
 Density matrix breaks symmetry, PCut= 1.00D-07
 Density matrix has no symmetry -- integrals replicated.
 E= -1271.35359754001     Delta-E=       -0.000000011735 Rises=F Damp=F
 DIIS: error= 3.02D-06 at cycle  23 NSaved=  20.
 NSaved=20 IEnMin=20 EnMin= -1271.35359754001     IErMin=20 ErrMin= 3.02D-06
 ErrMax= 3.02D-06  0.00D+00 EMaxC= 1.00D-01 BMatC= 4.32D-10 BMatP= 4.35D-10
 IDIUse=1 WtCom= 1.00D+00 WtEn= 0.00D+00
 Coeff-Com: -0.972D-05-0.205D-04 0.582D-04 0.364D-03 0.313D-03 0.622D-03
 Coeff-Com: -0.844D-03-0.103D-02-0.396D-02-0.191D-02 0.124D-02 0.440D-01
 Coeff-Com:  0.911D-01 0.736D-01-0.328D-01-0.752D+00-0.142D+01-0.317D+01
 Coeff-Com:  0.209D+01 0.408D+01
 Coeff:     -0.972D-05-0.205D-04 0.582D-04 0.364D-03 0.313D-03 0.622D-03
 Coeff:     -0.844D-03-0.103D-02-0.396D-02-0.191D-02 0.124D-02 0.440D-01
 Coeff:      0.911D-01 0.736D-01-0.328D-01-0.752D+00-0.142D+01-0.317D+01
 Coeff:      0.209D+01 0.408D+01
 Gap=     0.111 Goal=   None    Shift=    0.000
 RMSDP=1.23D-06 MaxDP=1.17D-04 DE=-1.17D-08 OVMax= 6.99D-05

 Cycle  24  Pass 1  IDiag  1:
 Density matrix breaks symmetry, PCut= 1.00D-07
 Density matrix has no symmetry -- integrals replicated.
 E= -1271.35359763697     Delta-E=       -0.000000096956 Rises=F Damp=F
 DIIS: error= 2.90D-06 at cycle  24 NSaved=  20.
 NSaved=20 IEnMin=20 EnMin= -1271.35359763697     IErMin=20 ErrMin= 2.90D-06
 ErrMax= 2.90D-06  0.00D+00 EMaxC= 1.00D-01 BMatC= 4.07D-10 BMatP= 4.32D-10
 IDIUse=1 WtCom= 1.00D+00 WtEn= 0.00D+00
 Large coefficients: NSaved= 20 BigCof=   21.27 CofMax=   10.00 Det=-2.13D-13
 Inversion failed.  Reducing to 19 matrices.
 Large coefficients: NSaved= 19 BigCof=   13.34 CofMax=   10.00 Det=-3.52D-13
 Inversion failed.  Reducing to 18 matrices.
 Large coefficients: NSaved= 18 BigCof=   11.99 CofMax=   10.00 Det=-3.79D-13
 Inversion failed.  Reducing to 17 matrices.
 Large coefficients: NSaved= 17 BigCof=   11.91 CofMax=   10.00 Det=-3.79D-13
 Inversion failed.  Reducing to 16 matrices.
 Coeff-Com:  0.144D-03-0.190D-02-0.548D-02 0.882D-02 0.830D-02 0.294D-03
 Coeff-Com: -0.619D-01-0.138D-01 0.176D+00 0.248D+00 0.256D+00-0.939D+00
 Coeff-Com: -0.966D+01 0.154D+01 0.641D+01 0.304D+01
 Coeff:      0.144D-03-0.190D-02-0.548D-02 0.882D-02 0.830D-02 0.294D-03
 Coeff:     -0.619D-01-0.138D-01 0.176D+00 0.248D+00 0.256D+00-0.939D+00
 Coeff:     -0.966D+01 0.154D+01 0.641D+01 0.304D+01
 Gap=     0.111 Goal=   None    Shift=    0.000
 RMSDP=4.84D-06 MaxDP=4.62D-04 DE=-9.70D-08 OVMax= 2.75D-04

 Cycle  25  Pass 1  IDiag  1:
 Density matrix breaks symmetry, PCut= 1.00D-07
 Density matrix has no symmetry -- integrals replicated.
 E= -1271.35359798228     Delta-E=       -0.000000345304 Rises=F Damp=F
 DIIS: error= 2.43D-06 at cycle  25 NSaved=  17.
 NSaved=17 IEnMin=17 EnMin= -1271.35359798228     IErMin=17 ErrMin= 2.43D-06
 ErrMax= 2.43D-06  0.00D+00 EMaxC= 1.00D-01 BMatC= 5.20D-10 BMatP= 4.07D-10
 IDIUse=1 WtCom= 1.00D+00 WtEn= 0.00D+00
 Large coefficients: NSaved= 17 BigCof=   11.95 CofMax=   10.00 Det=-4.50D-13
 Inversion failed.  Reducing to 16 matrices.
 Large coefficients: NSaved= 16 BigCof=   11.91 CofMax=   10.00 Det=-4.50D-13
 Inversion failed.  Reducing to 15 matrices.
 Large coefficients: NSaved= 15 BigCof=   11.26 CofMax=   10.00 Det=-4.71D-13
 Inversion failed.  Reducing to 14 matrices.
 Large coefficients: NSaved= 14 BigCof=   10.28 CofMax=   10.00 Det=-5.12D-13
 Inversion failed.  Reducing to 13 matrices.
 Coeff-Com: -0.217D-02-0.343D-02-0.620D-01-0.166D-01 0.138D+00 0.180D+00
 Coeff-Com:  0.236D-01-0.111D+01-0.891D+01 0.147D+01 0.597D+01 0.291D+01
 Coeff-Com:  0.413D+00
 Coeff:     -0.217D-02-0.343D-02-0.620D-01-0.166D-01 0.138D+00 0.180D+00
 Coeff:      0.236D-01-0.111D+01-0.891D+01 0.147D+01 0.597D+01 0.291D+01
 Coeff:      0.413D+00
 Gap=     0.111 Goal=   None    Shift=    0.000
 RMSDP=2.37D-06 MaxDP=2.26D-04 DE=-3.45D-07 OVMax= 1.34D-04

 Cycle  26  Pass 1  IDiag  1:
 Density matrix breaks symmetry, PCut= 1.00D-07
 Density matrix has no symmetry -- integrals replicated.
 E= -1271.35359813085     Delta-E=       -0.000000148575 Rises=F Damp=F
 DIIS: error= 3.14D-06 at cycle  26 NSaved=  14.
 NSaved=14 IEnMin=14 EnMin= -1271.35359813085     IErMin=13 ErrMin= 2.43D-06
 ErrMax= 3.14D-06  0.00D+00 EMaxC= 1.00D-01 BMatC= 5.02D-10 BMatP= 4.07D-10
 IDIUse=1 WtCom= 1.00D+00 WtEn= 0.00D+00
 Coeff-Com: -0.203D-02-0.291D-02-0.592D-01-0.158D-01 0.132D+00 0.173D+00
 Coeff-Com:  0.268D-01-0.106D+01-0.859D+01 0.141D+01 0.575D+01 0.282D+01
 Coeff-Com:  0.386D+00 0.413D-01
 Coeff:     -0.203D-02-0.291D-02-0.592D-01-0.158D-01 0.132D+00 0.173D+00
 Coeff:      0.268D-01-0.106D+01-0.859D+01 0.141D+01 0.575D+01 0.282D+01
 Coeff:      0.386D+00 0.413D-01
 Gap=     0.111 Goal=   None    Shift=    0.000
 RMSDP=1.13D-08 MaxDP=7.40D-07 DE=-1.49D-07 OVMax= 1.53D-06

 Cycle  27  Pass 1  IDiag  1:
 Density matrix breaks symmetry, PCut= 1.00D-07
 Density matrix has no symmetry -- integrals replicated.
 E= -1271.35359813041     Delta-E=        0.000000000445 Rises=F Damp=F
 DIIS: error= 3.03D-06 at cycle  27 NSaved=  15.
 NSaved=15 IEnMin=14 EnMin= -1271.35359813085     IErMin=13 ErrMin= 2.43D-06
 ErrMax= 3.03D-06  0.00D+00 EMaxC= 1.00D-01 BMatC= 4.76D-10 BMatP= 4.07D-10
 IDIUse=1 WtCom= 1.00D+00 WtEn= 0.00D+00
 Large coefficients: NSaved= 15 BigCof=   27.16 CofMax=   10.00 Det=-9.17D-14
 Inversion failed.  Reducing to 14 matrices.
 Large coefficients: NSaved= 14 BigCof=   27.04 CofMax=   10.00 Det=-9.18D-14
 Inversion failed.  Reducing to 13 matrices.
 Large coefficients: NSaved= 13 BigCof=   22.77 CofMax=   10.00 Det=-1.13D-13
 Inversion failed.  Reducing to 12 matrices.
 Large coefficients: NSaved= 12 BigCof=   23.45 CofMax=   10.00 Det=-1.15D-13
 Inversion failed.  Reducing to 11 matrices.
 Large coefficients: NSaved= 11 BigCof=   24.01 CofMax=   10.00 Det=-1.20D-13
 Inversion failed.  Reducing to 10 matrices.
 Large coefficients: NSaved= 10 BigCof=   23.74 CofMax=   10.00 Det=-1.29D-13
 Inversion failed.  Reducing to  9 matrices.
 Large coefficients: NSaved=  9 BigCof=   23.81 CofMax=   10.00 Det=-1.30D-13
 Inversion failed.  Reducing to  8 matrices.
 Large coefficients: NSaved=  8 BigCof=   23.90 CofMax=   10.00 Det=-1.31D-13
 Inversion failed.  Reducing to  7 matrices.
 Large coefficients: NSaved=  7 BigCof=   25.22 CofMax=   10.00 Det=-1.33D-13
 Inversion failed.  Reducing to  6 matrices.
 Large coefficients: NSaved=  6 BigCof=   25.49 CofMax=   10.00 Det=-1.35D-13
 Inversion failed.  Reducing to  5 matrices.
 Large coefficients: NSaved=  5 BigCof=   25.80 CofMax=   10.00 Det=-1.37D-13
 Inversion failed.  Reducing to  4 matrices.
 Large coefficients: NSaved=  4 BigCof=   25.87 CofMax=   10.00 Det=-1.39D-13
 Inversion failed.  Reducing to  3 matrices.
 Large coefficients: NSaved=  3 BigCof=   29.64 CofMax=   10.00 Det=-1.99D-13
 Inversion failed.  Reducing to  2 matrices.
 Coeff-Com: -0.848D+01 0.948D+01
 Coeff:     -0.848D+01 0.948D+01
 Gap=     0.111 Goal=   None    Shift=    0.000
 RMSDP=1.39D-07 MaxDP=1.09D-05 DE= 4.45D-10 OVMax= 2.33D-05

 Cycle  28  Pass 1  IDiag  1:
 Density matrix breaks symmetry, PCut= 1.00D-07
 Density matrix has no symmetry -- integrals replicated.
 E= -1271.35359812998     Delta-E=        0.000000000430 Rises=F Damp=F
 DIIS: error= 2.83D-06 at cycle  28 NSaved=   3.
 NSaved= 3 IEnMin= 1 EnMin= -1271.35359813085     IErMin= 3 ErrMin= 2.83D-06
 ErrMax= 2.83D-06  0.00D+00 EMaxC= 1.00D-01 BMatC= 6.12D-10 BMatP= 4.76D-10
 IDIUse=1 WtCom= 1.00D+00 WtEn= 0.00D+00
 Large coefficients: NSaved=  3 BigCof=   10.76 CofMax=   10.00 Det=-1.41D-12
 Inversion failed.  Reducing to  2 matrices.
 Coeff-Com:  0.621D+00 0.379D+00
 Coeff:      0.621D+00 0.379D+00
 Gap=     0.111 Goal=   None    Shift=    0.000
 RMSDP=3.95D-07 MaxDP=3.26D-05 DE= 4.30D-10 OVMax= 6.81D-05

 Cycle  29  Pass 1  IDiag  1:
 Density matrix breaks symmetry, PCut= 1.00D-07
 Density matrix has no symmetry -- integrals replicated.
 E= -1271.35359813320     Delta-E=       -0.000000003225 Rises=F Damp=F
 DIIS: error= 4.38D-06 at cycle  29 NSaved=   3.
 NSaved= 3 IEnMin= 3 EnMin= -1271.35359813320     IErMin= 2 ErrMin= 2.83D-06
 ErrMax= 4.38D-06  0.00D+00 EMaxC= 1.00D-01 BMatC= 1.04D-09 BMatP= 4.76D-10
 IDIUse=1 WtCom= 1.00D+00 WtEn= 0.00D+00
 Coeff-Com:  0.112D+00 0.524D+00 0.365D+00
 Coeff:      0.112D+00 0.524D+00 0.365D+00
 Gap=     0.111 Goal=   None    Shift=    0.000
 RMSDP=2.63D-07 MaxDP=2.17D-05 DE=-3.22D-09 OVMax= 4.32D-05

 Cycle  30  Pass 1  IDiag  1:
 Density matrix breaks symmetry, PCut= 1.00D-07
 Density matrix has no symmetry -- integrals replicated.
 E= -1271.35359813592     Delta-E=       -0.000000002721 Rises=F Damp=F
 DIIS: error= 2.24D-06 at cycle  30 NSaved=   4.
 NSaved= 4 IEnMin= 4 EnMin= -1271.35359813592     IErMin= 4 ErrMin= 2.24D-06
 ErrMax= 2.24D-06  0.00D+00 EMaxC= 1.00D-01 BMatC= 2.72D-10 BMatP= 4.76D-10
 IDIUse=1 WtCom= 1.00D+00 WtEn= 0.00D+00
 Coeff-Com:  0.378D-01 0.366D+00 0.259D+00 0.337D+00
 Coeff:      0.378D-01 0.366D+00 0.259D+00 0.337D+00
 Gap=     0.111 Goal=   None    Shift=    0.000
 RMSDP=4.39D-08 MaxDP=3.80D-06 DE=-2.72D-09 OVMax= 9.89D-06

 Cycle  31  Pass 1  IDiag  1:
 Density matrix breaks symmetry, PCut= 1.00D-07
 Density matrix has no symmetry -- integrals replicated.
 E= -1271.35359813737     Delta-E=       -0.000000001446 Rises=F Damp=F
 DIIS: error= 2.23D-06 at cycle  31 NSaved=   5.
 NSaved= 5 IEnMin= 5 EnMin= -1271.35359813737     IErMin= 5 ErrMin= 2.23D-06
 ErrMax= 2.23D-06  0.00D+00 EMaxC= 1.00D-01 BMatC= 2.40D-10 BMatP= 2.72D-10
 IDIUse=1 WtCom= 1.00D+00 WtEn= 0.00D+00
 Coeff-Com:  0.124D-01 0.174D+00 0.122D+00 0.245D+00 0.446D+00
 Coeff:      0.124D-01 0.174D+00 0.122D+00 0.245D+00 0.446D+00
 Gap=     0.111 Goal=   None    Shift=    0.000
 RMSDP=4.03D-08 MaxDP=3.19D-06 DE=-1.45D-09 OVMax= 5.89D-06

 Cycle  32  Pass 1  IDiag  1:
 Density matrix breaks symmetry, PCut= 1.00D-07
 Density matrix has no symmetry -- integrals replicated.
 E= -1271.35359813936     Delta-E=       -0.000000001995 Rises=F Damp=F
 DIIS: error= 2.23D-06 at cycle  32 NSaved=   6.
 NSaved= 6 IEnMin= 6 EnMin= -1271.35359813936     IErMin= 6 ErrMin= 2.23D-06
 ErrMax= 2.23D-06  0.00D+00 EMaxC= 1.00D-01 BMatC= 2.36D-10 BMatP= 2.40D-10
 IDIUse=1 WtCom= 1.00D+00 WtEn= 0.00D+00
 Coeff-Com:  0.629D-02-0.225D+00-0.153D+00-0.131D+00 0.500D+00 0.100D+01
 Coeff:      0.629D-02-0.225D+00-0.153D+00-0.131D+00 0.500D+00 0.100D+01
 Gap=     0.111 Goal=   None    Shift=    0.000
 RMSDP=1.04D-07 MaxDP=9.70D-06 DE=-1.99D-09 OVMax= 6.22D-06

 Cycle  33  Pass 1  IDiag  1:
 Density matrix breaks symmetry, PCut= 1.00D-07
 Density matrix has no symmetry -- integrals replicated.
 E= -1271.35359814538     Delta-E=       -0.000000006023 Rises=F Damp=F
 DIIS: error= 2.22D-06 at cycle  33 NSaved=   7.
 NSaved= 7 IEnMin= 7 EnMin= -1271.35359814538     IErMin= 7 ErrMin= 2.22D-06
 ErrMax= 2.22D-06  0.00D+00 EMaxC= 1.00D-01 BMatC= 2.36D-10 BMatP= 2.36D-10
 IDIUse=1 WtCom= 1.00D+00 WtEn= 0.00D+00
 Coeff-Com:  0.119D-01-0.527D+00-0.363D+00-0.480D+00 0.160D+00 0.137D+01
 Coeff-Com:  0.833D+00
 Coeff:      0.119D-01-0.527D+00-0.363D+00-0.480D+00 0.160D+00 0.137D+01
 Coeff:      0.833D+00
 Gap=     0.111 Goal=   None    Shift=    0.000
 RMSDP=1.79D-07 MaxDP=1.68D-05 DE=-6.02D-09 OVMax= 1.01D-05

 Cycle  34  Pass 1  IDiag  1:
 Density matrix breaks symmetry, PCut= 1.00D-07
 Density matrix has no symmetry -- integrals replicated.
 E= -1271.35359815577     Delta-E=       -0.000000010389 Rises=F Damp=F
 DIIS: error= 2.21D-06 at cycle  34 NSaved=   8.
 NSaved= 8 IEnMin= 8 EnMin= -1271.35359815577     IErMin= 8 ErrMin= 2.21D-06
 ErrMax= 2.21D-06  0.00D+00 EMaxC= 1.00D-01 BMatC= 2.30D-10 BMatP= 2.36D-10
 IDIUse=1 WtCom= 1.00D+00 WtEn= 0.00D+00
 Coeff-Com:  0.311D-01-0.365D+00-0.245D+00-0.371D+00-0.605D+00-0.170D+00
 Coeff-Com:  0.907D+00 0.182D+01
 Coeff:      0.311D-01-0.365D+00-0.245D+00-0.371D+00-0.605D+00-0.170D+00
 Coeff:      0.907D+00 0.182D+01
 Gap=     0.111 Goal=   None    Shift=    0.000
 RMSDP=5.01D-07 MaxDP=4.72D-05 DE=-1.04D-08 OVMax= 2.81D-05

 Cycle  35  Pass 1  IDiag  1:
 Density matrix breaks symmetry, PCut= 1.00D-07
 Density matrix has no symmetry -- integrals replicated.
 E= -1271.35359818449     Delta-E=       -0.000000028712 Rises=F Damp=F
 DIIS: error= 2.16D-06 at cycle  35 NSaved=   9.
 NSaved= 9 IEnMin= 9 EnMin= -1271.35359818449     IErMin= 9 ErrMin= 2.16D-06
 ErrMax= 2.16D-06  0.00D+00 EMaxC= 1.00D-01 BMatC= 2.44D-10 BMatP= 2.30D-10
 IDIUse=1 WtCom= 1.00D+00 WtEn= 0.00D+00
 Coeff-Com:  0.940D-01 0.852D+00 0.638D+00 0.756D+00-0.297D+01-0.698D+01
 Coeff-Com: -0.436D+00 0.731D+01 0.173D+01
 Coeff:      0.940D-01 0.852D+00 0.638D+00 0.756D+00-0.297D+01-0.698D+01
 Coeff:     -0.436D+00 0.731D+01 0.173D+01
 Gap=     0.111 Goal=   None    Shift=    0.000
 RMSDP=2.47D-06 MaxDP=2.36D-04 DE=-2.87D-08 OVMax= 1.40D-04

 Cycle  36  Pass 1  IDiag  1:
 Density matrix breaks symmetry, PCut= 1.00D-07
 Density matrix has no symmetry -- integrals replicated.
 E= -1271.35359831921     Delta-E=       -0.000000134728 Rises=F Damp=F
 DIIS: error= 1.87D-06 at cycle  36 NSaved=  10.
 NSaved=10 IEnMin=10 EnMin= -1271.35359831921     IErMin=10 ErrMin= 1.87D-06
 ErrMax= 1.87D-06  0.00D+00 EMaxC= 1.00D-01 BMatC= 2.02D-10 BMatP= 2.30D-10
 IDIUse=1 WtCom= 1.00D+00 WtEn= 0.00D+00
 Large coefficients: NSaved= 10 BigCof=   13.79 CofMax=   10.00 Det=-2.86D-13
 Inversion failed.  Reducing to  9 matrices.
 Coeff-Com: -0.346D+00 0.384D-02 0.376D+00-0.714D+00-0.347D+01-0.138D+01
 Coeff-Com:  0.301D+01 0.172D+01 0.180D+01
 Coeff:     -0.346D+00 0.384D-02 0.376D+00-0.714D+00-0.347D+01-0.138D+01
 Coeff:      0.301D+01 0.172D+01 0.180D+01
 Gap=     0.111 Goal=   None    Shift=    0.000
 RMSDP=4.71D-06 MaxDP=4.50D-04 DE=-1.35D-07 OVMax= 2.67D-04

 Cycle  37  Pass 1  IDiag  1:
 Density matrix breaks symmetry, PCut= 1.00D-07
 Density matrix has no symmetry -- integrals replicated.
 E= -1271.35359853454     Delta-E=       -0.000000215324 Rises=F Damp=F
 DIIS: error= 2.67D-06 at cycle  37 NSaved=  10.
 NSaved=10 IEnMin=10 EnMin= -1271.35359853454     IErMin= 9 ErrMin= 1.87D-06
 ErrMax= 2.67D-06  0.00D+00 EMaxC= 1.00D-01 BMatC= 4.04D-10 BMatP= 2.02D-10
 IDIUse=1 WtCom= 1.00D+00 WtEn= 0.00D+00
 Coeff-Com: -0.115D+01-0.671D-01 0.110D+01 0.294D+01 0.567D-01-0.293D+01
 Coeff-Com: -0.303D+01 0.819D+00 0.258D+01 0.682D+00
 Coeff:     -0.115D+01-0.671D-01 0.110D+01 0.294D+01 0.567D-01-0.293D+01
 Coeff:     -0.303D+01 0.819D+00 0.258D+01 0.682D+00
 Gap=     0.111 Goal=   None    Shift=    0.000
 RMSDP=5.37D-06 MaxDP=5.13D-04 DE=-2.15D-07 OVMax= 3.05D-04

 Cycle  38  Pass 1  IDiag  1:
 Density matrix breaks symmetry, PCut= 1.00D-07
 Density matrix has no symmetry -- integrals replicated.
 E= -1271.35359871365     Delta-E=       -0.000000179112 Rises=F Damp=F
 DIIS: error= 6.42D-06 at cycle  38 NSaved=  11.
 NSaved=11 IEnMin=11 EnMin= -1271.35359871365     IErMin= 9 ErrMin= 1.87D-06
 ErrMax= 6.42D-06  0.00D+00 EMaxC= 1.00D-01 BMatC= 1.21D-09 BMatP= 2.02D-10
 IDIUse=1 WtCom= 1.00D+00 WtEn= 0.00D+00
 Coeff-Com: -0.259D+01-0.184D+00 0.222D+01 0.761D+01 0.431D+01-0.367D+01
 Coeff-Com: -0.905D+01-0.986D+00 0.176D+01 0.942D+00 0.627D+00
 Coeff:     -0.259D+01-0.184D+00 0.222D+01 0.761D+01 0.431D+01-0.367D+01
 Coeff:     -0.905D+01-0.986D+00 0.176D+01 0.942D+00 0.627D+00
 Gap=     0.111 Goal=   None    Shift=    0.000
 RMSDP=4.60D-06 MaxDP=4.40D-04 DE=-1.79D-07 OVMax= 2.61D-04

 Cycle  39  Pass 1  IDiag  1:
 Density matrix breaks symmetry, PCut= 1.00D-07
 Density matrix has no symmetry -- integrals replicated.
 E= -1271.35359881080     Delta-E=       -0.000000097148 Rises=F Damp=F
 DIIS: error= 7.92D-06 at cycle  39 NSaved=  12.
 NSaved=12 IEnMin=12 EnMin= -1271.35359881080     IErMin= 9 ErrMin= 1.87D-06
 ErrMax= 7.92D-06  0.00D+00 EMaxC= 1.00D-01 BMatC= 1.67D-09 BMatP= 2.02D-10
 IDIUse=1 WtCom= 1.00D+00 WtEn= 0.00D+00
 Coeff-Com: -0.328D+01-0.244D+00 0.255D+01 0.820D+01 0.456D+01-0.278D+01
 Coeff-Com: -0.841D+01-0.164D+01 0.404D+00 0.535D+00 0.504D+00 0.591D+00
 Coeff:     -0.328D+01-0.244D+00 0.255D+01 0.820D+01 0.456D+01-0.278D+01
 Coeff:     -0.841D+01-0.164D+01 0.404D+00 0.535D+00 0.504D+00 0.591D+00
 Gap=     0.111 Goal=   None    Shift=    0.000
 RMSDP=1.18D-06 MaxDP=1.13D-04 DE=-9.71D-08 OVMax= 6.69D-05

 Cycle  40  Pass 1  IDiag  1:
 Density matrix breaks symmetry, PCut= 1.00D-07
 Density matrix has no symmetry -- integrals replicated.
 E= -1271.35359882759     Delta-E=       -0.000000016789 Rises=F Damp=F
 DIIS: error= 2.91D-06 at cycle  40 NSaved=  13.
 NSaved=13 IEnMin=13 EnMin= -1271.35359882759     IErMin= 9 ErrMin= 1.87D-06
 ErrMax= 2.91D-06  0.00D+00 EMaxC= 1.00D-01 BMatC= 2.51D-10 BMatP= 2.02D-10
 IDIUse=1 WtCom= 1.00D+00 WtEn= 0.00D+00
 Coeff-Com: -0.238D+01-0.182D+00 0.172D+01 0.518D+01 0.261D+01-0.132D+01
 Coeff-Com: -0.461D+01-0.121D+01-0.267D+00 0.174D+00 0.214D+00 0.430D+00
 Coeff-Com:  0.627D+00
 Coeff:     -0.238D+01-0.182D+00 0.172D+01 0.518D+01 0.261D+01-0.132D+01
 Coeff:     -0.461D+01-0.121D+01-0.267D+00 0.174D+00 0.214D+00 0.430D+00
 Coeff:      0.627D+00
 Gap=     0.111 Goal=   None    Shift=    0.000
 RMSDP=1.72D-06 MaxDP=1.64D-04 DE=-1.68D-08 OVMax= 9.75D-05

 Cycle  41  Pass 1  IDiag  1:
 Density matrix breaks symmetry, PCut= 1.00D-07
 Density matrix has no symmetry -- integrals replicated.
 E= -1271.35359884553     Delta-E=       -0.000000017944 Rises=F Damp=F
 DIIS: error= 1.25D-06 at cycle  41 NSaved=  14.
 NSaved=14 IEnMin=14 EnMin= -1271.35359884553     IErMin=14 ErrMin= 1.25D-06
 ErrMax= 1.25D-06  0.00D+00 EMaxC= 1.00D-01 BMatC= 6.22D-11 BMatP= 2.02D-10
 IDIUse=1 WtCom= 1.00D+00 WtEn= 0.00D+00
 Coeff-Com: -0.456D+00-0.388D-01 0.208D+00 0.314D+00-0.144D+00 0.235D+00
 Coeff-Com:  0.220D+00-0.174D+00-0.292D+00-0.554D-01-0.618D-01-0.730D-01
 Coeff-Com:  0.587D+00 0.732D+00
 Coeff:     -0.456D+00-0.388D-01 0.208D+00 0.314D+00-0.144D+00 0.235D+00
 Coeff:      0.220D+00-0.174D+00-0.292D+00-0.554D-01-0.618D-01-0.730D-01
 Coeff:      0.587D+00 0.732D+00
 Gap=     0.111 Goal=   None    Shift=    0.000
 RMSDP=2.11D-06 MaxDP=2.02D-04 DE=-1.79D-08 OVMax= 1.20D-04

 Cycle  42  Pass 1  IDiag  1:
 Density matrix breaks symmetry, PCut= 1.00D-07
 Density matrix has no symmetry -- integrals replicated.
 E= -1271.35359885754     Delta-E=       -0.000000012006 Rises=F Damp=F
 DIIS: error= 2.08D-06 at cycle  42 NSaved=  15.
 NSaved=15 IEnMin=15 EnMin= -1271.35359885754     IErMin=14 ErrMin= 1.25D-06
 ErrMax= 2.08D-06  0.00D+00 EMaxC= 1.00D-01 BMatC= 1.31D-10 BMatP= 6.22D-11
 IDIUse=1 WtCom= 1.00D+00 WtEn= 0.00D+00
 Coeff-Com:  0.951D+00 0.627D-01-0.913D+00-0.318D+01-0.204D+01 0.130D+01
 Coeff-Com:  0.364D+01 0.613D+00-0.229D+00-0.223D+00-0.258D+00-0.441D+00
 Coeff-Com:  0.249D+00 0.814D+00 0.649D+00
 Coeff:      0.951D+00 0.627D-01-0.913D+00-0.318D+01-0.204D+01 0.130D+01
 Coeff:      0.364D+01 0.613D+00-0.229D+00-0.223D+00-0.258D+00-0.441D+00
 Coeff:      0.249D+00 0.814D+00 0.649D+00
 Gap=     0.111 Goal=   None    Shift=    0.000
 RMSDP=1.42D-06 MaxDP=1.36D-04 DE=-1.20D-08 OVMax= 8.05D-05

 Cycle  43  Pass 1  IDiag  1:
 Density matrix breaks symmetry, PCut= 1.00D-07
 Density matrix has no symmetry -- integrals replicated.
 E= -1271.35359885949     Delta-E=       -0.000000001953 Rises=F Damp=F
 DIIS: error= 6.63D-07 at cycle  43 NSaved=  16.
 NSaved=16 IEnMin=16 EnMin= -1271.35359885949     IErMin=16 ErrMin= 6.63D-07
 ErrMax= 6.63D-07  0.00D+00 EMaxC= 1.00D-01 BMatC= 1.43D-11 BMatP= 6.22D-11
 IDIUse=1 WtCom= 1.00D+00 WtEn= 0.00D+00
 Coeff-Com:  0.627D+00 0.408D-01-0.602D+00-0.207D+01-0.131D+01 0.869D+00
 Coeff-Com:  0.240D+01 0.392D+00-0.179D+00-0.157D+00-0.169D+00-0.283D+00
 Coeff-Com:  0.892D-01 0.426D+00 0.431D+00 0.492D+00
 Coeff:      0.627D+00 0.408D-01-0.602D+00-0.207D+01-0.131D+01 0.869D+00
 Coeff:      0.240D+01 0.392D+00-0.179D+00-0.157D+00-0.169D+00-0.283D+00
 Coeff:      0.892D-01 0.426D+00 0.431D+00 0.492D+00
 Gap=     0.111 Goal=   None    Shift=    0.000
 RMSDP=5.01D-08 MaxDP=4.00D-06 DE=-1.95D-09 OVMax= 3.55D-06

 Cycle  44  Pass 1  IDiag  1:
 Density matrix breaks symmetry, PCut= 1.00D-07
 Density matrix has no symmetry -- integrals replicated.
 E= -1271.35359885950     Delta-E=       -0.000000000013 Rises=F Damp=F
 DIIS: error= 6.68D-07 at cycle  44 NSaved=  17.
 NSaved=17 IEnMin=17 EnMin= -1271.35359885950     IErMin=16 ErrMin= 6.63D-07
 ErrMax= 6.68D-07  0.00D+00 EMaxC= 1.00D-01 BMatC= 1.38D-11 BMatP= 1.43D-11
 IDIUse=1 WtCom= 1.00D+00 WtEn= 0.00D+00
 Coeff-Com:  0.207D+00 0.142D-01-0.188D+00-0.635D+00-0.386D+00 0.266D+00
 Coeff-Com:  0.726D+00 0.111D+00-0.656D-01-0.394D-01-0.403D-01-0.889D-01
 Coeff-Com: -0.355D-02 0.113D+00 0.168D+00 0.439D+00 0.402D+00
 Coeff:      0.207D+00 0.142D-01-0.188D+00-0.635D+00-0.386D+00 0.266D+00
 Coeff:      0.726D+00 0.111D+00-0.656D-01-0.394D-01-0.403D-01-0.889D-01
 Coeff:     -0.355D-02 0.113D+00 0.168D+00 0.439D+00 0.402D+00
 Gap=     0.111 Goal=   None    Shift=    0.000
 RMSDP=8.17D-08 MaxDP=7.39D-06 DE=-1.27D-11 OVMax= 4.41D-06

 Cycle  45  Pass 1  IDiag  1:
 Density matrix breaks symmetry, PCut= 1.00D-07
 Density matrix has no symmetry -- integrals replicated.
 E= -1271.35359885952     Delta-E=       -0.000000000023 Rises=F Damp=F
 DIIS: error= 4.28D-07 at cycle  45 NSaved=  18.
 NSaved=18 IEnMin=18 EnMin= -1271.35359885952     IErMin=18 ErrMin= 4.28D-07
 ErrMax= 4.28D-07  0.00D+00 EMaxC= 1.00D-01 BMatC= 5.13D-12 BMatP= 1.38D-11
 IDIUse=1 WtCom= 1.00D+00 WtEn= 0.00D+00
 Coeff-Com:  0.676D-01 0.575D-02-0.456D-01-0.144D+00-0.788D-01 0.415D-01
 Coeff-Com:  0.135D+00 0.246D-01-0.479D-02 0.710D-02 0.634D-02-0.187D-01
 Coeff-Com: -0.266D-01 0.159D-01 0.656D-01 0.276D+00 0.321D+00 0.352D+00
 Coeff:      0.676D-01 0.575D-02-0.456D-01-0.144D+00-0.788D-01 0.415D-01
 Coeff:      0.135D+00 0.246D-01-0.479D-02 0.710D-02 0.634D-02-0.187D-01
 Coeff:     -0.266D-01 0.159D-01 0.656D-01 0.276D+00 0.321D+00 0.352D+00
 Gap=     0.111 Goal=   None    Shift=    0.000
 RMSDP=1.52D-08 MaxDP=1.20D-06 DE=-2.30D-11 OVMax= 1.09D-06

 Cycle  46  Pass 1  IDiag  1:
 Density matrix breaks symmetry, PCut= 1.00D-07
 Density matrix has no symmetry -- integrals replicated.
 E= -1271.35359885953     Delta-E=       -0.000000000003 Rises=F Damp=F
 DIIS: error= 2.95D-08 at cycle  46 NSaved=  19.
 NSaved=19 IEnMin=19 EnMin= -1271.35359885953     IErMin=19 ErrMin= 2.95D-08
 ErrMax= 2.95D-08  0.00D+00 EMaxC= 1.00D-01 BMatC= 7.50D-14 BMatP= 5.13D-12
 IDIUse=1 WtCom= 1.00D+00 WtEn= 0.00D+00
 Coeff-Com: -0.261D-01-0.475D-03 0.391D-01 0.136D+00 0.835D-01-0.788D-01
 Coeff-Com: -0.178D+00-0.211D-01 0.271D-01 0.248D-01 0.250D-01 0.246D-01
 Coeff-Com: -0.298D-01-0.465D-01-0.183D-01 0.662D-01 0.119D+00 0.297D+00
 Coeff-Com:  0.556D+00
 Coeff:     -0.261D-01-0.475D-03 0.391D-01 0.136D+00 0.835D-01-0.788D-01
 Coeff:     -0.178D+00-0.211D-01 0.271D-01 0.248D-01 0.250D-01 0.246D-01
 Coeff:     -0.298D-01-0.465D-01-0.183D-01 0.662D-01 0.119D+00 0.297D+00
 Coeff:      0.556D+00
 Gap=     0.111 Goal=   None    Shift=    0.000
 RMSDP=2.78D-08 MaxDP=2.63D-06 DE=-3.41D-12 OVMax= 1.56D-06

 Cycle  47  Pass 1  IDiag  1:
 Density matrix breaks symmetry, PCut= 1.00D-07
 Density matrix has no symmetry -- integrals replicated.
 E= -1271.35359885953     Delta-E=       -0.000000000003 Rises=F Damp=F
 DIIS: error= 9.84D-08 at cycle  47 NSaved=  20.
 NSaved=20 IEnMin=20 EnMin= -1271.35359885953     IErMin=19 ErrMin= 2.95D-08
 ErrMax= 9.84D-08  0.00D+00 EMaxC= 1.00D-01 BMatC= 2.69D-13 BMatP= 7.50D-14
 IDIUse=1 WtCom= 1.00D+00 WtEn= 0.00D+00
 Coeff-Com: -0.270D-01-0.127D-02 0.301D-01 0.102D+00 0.613D-01-0.500D-01
 Coeff-Com: -0.122D+00-0.172D-01 0.141D-01 0.134D-01 0.143D-01 0.178D-01
 Coeff-Com: -0.162D-01-0.346D-01-0.212D-01 0.226D-01 0.586D-01 0.171D+00
 Coeff-Com:  0.351D+00 0.432D+00
 Coeff:     -0.270D-01-0.127D-02 0.301D-01 0.102D+00 0.613D-01-0.500D-01
 Coeff:     -0.122D+00-0.172D-01 0.141D-01 0.134D-01 0.143D-01 0.178D-01
 Coeff:     -0.162D-01-0.346D-01-0.212D-01 0.226D-01 0.586D-01 0.171D+00
 Coeff:      0.351D+00 0.432D+00
 Gap=     0.111 Goal=   None    Shift=    0.000
 RMSDP=1.78D-08 MaxDP=1.69D-06 DE=-2.96D-12 OVMax= 1.01D-06

 Cycle  48  Pass 1  IDiag  1:
 Density matrix breaks symmetry, PCut= 1.00D-07
 Density matrix has no symmetry -- integrals replicated.
 E= -1271.35359885953     Delta-E=       -0.000000000001 Rises=F Damp=F
 DIIS: error= 1.16D-08 at cycle  48 NSaved=  20.
 NSaved=20 IEnMin=20 EnMin= -1271.35359885953     IErMin=20 ErrMin= 1.16D-08
 ErrMax= 1.16D-08  0.00D+00 EMaxC= 1.00D-01 BMatC= 7.25D-15 BMatP= 7.50D-14
 IDIUse=1 WtCom= 1.00D+00 WtEn= 0.00D+00
 Coeff-Com:  0.223D-04-0.417D-03-0.143D-03 0.992D-03 0.465D-03-0.153D-03
 Coeff-Com: -0.123D-04 0.375D-03 0.582D-03 0.906D-03 0.163D-02-0.250D-02
 Coeff-Com: -0.618D-02-0.439D-02 0.744D-02 0.173D-01 0.452D-01 0.988D-01
 Coeff-Com:  0.379D+00 0.461D+00
 Coeff:      0.223D-04-0.417D-03-0.143D-03 0.992D-03 0.465D-03-0.153D-03
 Coeff:     -0.123D-04 0.375D-03 0.582D-03 0.906D-03 0.163D-02-0.250D-02
 Coeff:     -0.618D-02-0.439D-02 0.744D-02 0.173D-01 0.452D-01 0.988D-01
 Coeff:      0.379D+00 0.461D+00
 Gap=     0.111 Goal=   None    Shift=    0.000
 DSYEVD-2 returned Info=       79624 IAlg= 4 N=   324 NDim=   324 NE2=    31941091 trying  DSYEV.
 RMSDP=1.23D-09 MaxDP=9.38D-08 DE=-9.09D-13 OVMax= 9.45D-08

 Density matrix breaks symmetry, PCut= 1.00D-07
 Density matrix has no symmetry -- integrals replicated.
 SCF Done:  E(ROHF) =  -1271.35359886     A.U. after   48 cycles
            NFock= 48  Conv=0.12D-08     -V/T= 1.9594
 <Sx>= 0.0000 <Sy>= 0.0000 <Sz>= 2.0000 <S**2>= 6.0000 S= 2.0000
 <L.S>=  0.00000000000    
 KE= 1.325107449514D+03 PE=-3.081180237853D+03 EE= 4.847191894795D+02
 Annihilation of the first spin contaminant:
 S**2 before annihilation     6.0000,   after     6.0000
 Leave Link  502 at Thu Mar  1 16:21:56 2018, MaxMem= 10737418240 cpu:           24232.5 elap:             789.0
 (Enter /home1/apps/gaussian/16rA.03/g16/l801.exe)
 Windowed orbitals will be sorted by symmetry type.
 An orbital has undefined symmetry, so N**3 symmetry is turned off.
 Density matrix breaks symmetry, PCut= 1.00D-07
 Density matrix has no symmetry -- integrals replicated.
 GenMOA:  NOpAll= 48 NOp2=8 NOpUse=  1 JSym2X=2
 FoFJK:  IHMeth= 1 ICntrl=       0 DoSepK=F KAlg= 0 I1Cent=           0 FoldK=F
 IRaf=         0 NMat=       1 IRICut=       1 DoRegI=T DoRafI=F ISym2E= 2 IDoP0=0 IntGTp=1.
 FoFCou: FMM=F IPFlag=           8 FMFlag=      100000 FMFlg1=           0
         NFxFlg=           0 DoJE=F BraDBF=F KetDBF=F FulRan=T
         wScrn=  0.000000 ICntrl=         0 IOpCl=  1 I1Cent=           0 NGrid=           0
         NMat0=    1 NMatS0=      1 NMatT0=    0 NMatD0=    1 NMtDS0=    0 NMtDT0=    0
 Integrals replicated using symmetry in FoFCou.
 <Sx>= 0.0000 <Sy>= 0.0000 <Sz>= 2.0000 <S**2>= 6.0000 S= 2.0000
 Range of M.O.s used for correlation:     1   324
 NBasis=   332 NAE=    15 NBE=    11 NFC=     0 NFV=     0
 NROrb=    324 NOA=    15 NOB=    11 NVA=   309 NVB=   313

 **** Warning!!: The largest alpha MO coefficient is  0.16263355D+03


 **** Warning!!: The largest beta MO coefficient is  0.16258225D+03

 Singles contribution to E2=   -0.4902929412D-02
 Leave Link  801 at Thu Mar  1 16:23:52 2018, MaxMem= 10737418240 cpu:            3650.2 elap:             114.2
 (Enter /home1/apps/gaussian/16rA.03/g16/l804.exe)
 Open-shell transformation, MDV= 10737418240 ITran=4 ISComp=1.
 Unit  1 TFree=       3320457 TCopy=       2592259.
 Semi-Direct transformation.
 ModeAB=           2 MOrb=            15 LenV=   10734083389
 LASXX=    247533105 LTotXX=   247533105 LenRXX=   247533105
 LTotAB=   250350750 MaxLAS=   526556700 LenRXY=   526556700
 NonZer=   539605800 LenScr=   812582912 LnRSAI=           0
 LnScr1=           0 LExtra=    26352133 Total=   1613024850
 MaxDsk= 67108864000 SrtSym=           F ITran=            4
 DoSDTr:  NPSUse= 32
 JobTyp=1 Pass  1:  I=   1 to  15.
 (rs|ai) integrals will be sorted in core.
 Complete sort for first half transformation.
 First half transformation complete.
 Begin second half transformation for I=  10.
 Begin second half transformation for I=  10.
 Complete sort for second half transformation.
 Second half transformation complete.
 ModeAB=           2 MOrb=            11 LenV=   10734083389
 LASXX=    182845498 LTotXX=   182845498 LenRXX=   386141580
 LTotAB=   168063555 MaxLAS=   386141580 LenRXY=   168063555
 NonZer=   395710920 LenScr=   595894272 LnRSAI=           0
 LnScr1=           0 LExtra=   800441938 Total=   1950541345
 MaxDsk= 67108864000 SrtSym=           F ITran=            4
 DoSDTr:  NPSUse= 32
 JobTyp=2 Pass  1:  I=   1 to  11.
 (rs|ai) integrals will be sorted in core.
 Complete sort for first half transformation.
 First half transformation complete.
 Begin second half transformation for I=  10.
 Begin second half transformation for I=  10.
 Complete sort for second half transformation.
 Second half transformation complete.
 SymMOI:  orbitals are not symmetric.
 Spin components of T(2) and E(2):
     alpha-alpha T2 =       0.2261499140D-01 E2=     -0.2328375468D+00
     alpha-beta  T2 =       0.7721464133D-01 E2=     -0.7742483307D+00
     beta-beta   T2 =       0.7810730253D-02 E2=     -0.1147123910D+00
 ANorm=    0.1053517403D+01
 E2 =    -0.1126701198D+01 EUMP2 =    -0.12724803000575D+04
 (S**2,0)=  0.60000D+01           (S**2,1)=  0.60000D+01
 E(PUHF)=      -0.12713535989D+04        E(PMP2)=      -0.12724803001D+04
 Leave Link  804 at Thu Mar  1 16:38:20 2018, MaxMem= 10737418240 cpu:           27717.6 elap:             866.3
 (Enter /home1/apps/gaussian/16rA.03/g16/l913.exe)
 CIDS:  MDV= 10737418240.
 IFCWin=0 IBDFC=1 NFBD=     0     0 NFCmp=     0     0 NFFFC=     0     0
 Using original routines for 1st iteration.
 Using DD4UQ or CC4UQ for 2nd and later iterations.
 Keep R2 and R3 ints in memory in symmetry-blocked form, NReq=1907147805.
 FoFCou: FMM=F IPFlag=           8 FMFlag=           0 FMFlg1=           0
         NFxFlg=           0 DoJE=F BraDBF=F KetDBF=F FulRan=T
         wScrn=  0.000000 ICntrl=       600 IOpCl=  0 I1Cent=           0 NGrid=           0
         NMat0=    1 NMatS0=  55278 NMatT0=    0 NMatD0=    1 NMtDS0=    0 NMtDT0=    0
 Petite list used in FoFCou.
 CIDS: In Core Option IDoMem=           1.
 CCSD(T)
 =======
 Iterations= 150 Convergence= 0.100D-06
 Produce multiple copies of IABC intergrals
 Iteration Nr.   1
 **********************
 DD1Dir will call FoFMem   1 times, MxPair=       490
 NAB=   165 NAA=   105 NBB=    55.
 DD1Dir will call FoFMem   1 times, MxPair=       490
 NAB=   165 NAA=   105 NBB=    55.
 MP4(R+Q)= -0.25549362D-01
 Maximum subspace dimension=  5
 A-vector RMS=  1.4168478D-04 Max=  5.0168199D-03 conv= 1.00D-05.
 RLE energy=       -1.1172844782
 E3=        0.34868558D-01        EROMP3=      -0.12724454315D+04
 E4(SDQ)=  -0.12050075D-01        ROMP4(SDQ)=  -0.12724574816D+04
 VARIATIONAL ENERGIES WITH THE FIRST-ORDER WAVEFUNCTION:
 DE(Corr)=  -1.1172044     E(Corr)=     -1272.4708032    
 NORM(A)=   0.10492264D+01
 Iteration Nr.   2
 **********************
 DD1Dir will call FoFMem   1 times, MxPair=       490
 NAB=   165 NAA=   105 NBB=    55.
 A-vector RMS=  1.7016824D-03 Max=  3.3674353D-02 conv= 1.00D-05.
 RLE energy=       -1.1077657481
 DE(Corr)=  -1.0821019     E(CORR)=     -1272.4357008     Delta= 3.51D-02
 NORM(A)=   0.10495854D+01
 Iteration Nr.   3
 **********************
 DD1Dir will call FoFMem   1 times, MxPair=       490
 NAB=   165 NAA=   105 NBB=    55.
 A-vector RMS=  1.3079630D-03 Max=  2.7344090D-02 conv= 1.00D-05.
 RLE energy=       -1.1073281696
 DE(Corr)=  -1.0870753     E(CORR)=     -1272.4406742     Delta=-4.97D-03
 NORM(A)=   0.10538651D+01
 Iteration Nr.   4
 **********************
 DD1Dir will call FoFMem   1 times, MxPair=       490
 NAB=   165 NAA=   105 NBB=    55.
 A-vector RMS=  9.5446314D-04 Max=  1.8787011D-02 conv= 1.00D-05.
 RLE energy=       -1.0991666788
 DE(Corr)=  -1.0914229     E(CORR)=     -1272.4450217     Delta=-4.35D-03
 NORM(A)=   0.10693707D+01
 Iteration Nr.   5
 **********************
 DD1Dir will call FoFMem   1 times, MxPair=       490
 NAB=   165 NAA=   105 NBB=    55.
 A-vector RMS=  2.2487169D-04 Max=  3.7959398D-03 conv= 1.00D-05.
 RLE energy=       -1.1007906683
 DE(Corr)=  -1.1037865     E(CORR)=     -1272.4573854     Delta=-1.24D-02
 NORM(A)=   0.10675776D+01
 Iteration Nr.   6
 **********************
 DD1Dir will call FoFMem   1 times, MxPair=       490
 NAB=   165 NAA=   105 NBB=    55.
 A-vector RMS=  5.9256430D-05 Max=  1.2899242D-03 conv= 1.00D-05.
 RLE energy=       -1.1013366375
 DE(Corr)=  -1.1019946     E(CORR)=     -1272.4555935     Delta= 1.79D-03
 NORM(A)=   0.10666927D+01
 Iteration Nr.   7
 **********************
 DD1Dir will call FoFMem   1 times, MxPair=       490
 NAB=   165 NAA=   105 NBB=    55.
 A-vector RMS=  5.4867454D-06 Max=  9.9283805D-05 conv= 1.00D-05.
 RLE energy=       -1.1013220002
 DE(Corr)=  -1.1013171     E(CORR)=     -1272.4549159     Delta= 6.78D-04
 NORM(A)=   0.10667165D+01
 Iteration Nr.   8
 **********************
 DD1Dir will call FoFMem   1 times, MxPair=       490
 NAB=   165 NAA=   105 NBB=    55.
 A-vector RMS=  6.9026296D-06 Max=  1.7601023D-04 conv= 1.00D-05.
 RLE energy=       -1.1013277281
 DE(Corr)=  -1.1013374     E(CORR)=     -1272.4549362     Delta=-2.03D-05
 NORM(A)=   0.10666969D+01
 Iteration Nr.   9
 **********************
 DD1Dir will call FoFMem   1 times, MxPair=       490
 NAB=   165 NAA=   105 NBB=    55.
 A-vector RMS=  3.6210499D-06 Max=  9.9794916D-05 conv= 1.00D-05.
 RLE energy=       -1.1013350325
 DE(Corr)=  -1.1013297     E(CORR)=     -1272.4549286     Delta= 7.61D-06
 NORM(A)=   0.10666929D+01
 Iteration Nr.  10
 **********************
 DD1Dir will call FoFMem   1 times, MxPair=       490
 NAB=   165 NAA=   105 NBB=    55.
 A-vector RMS=  2.3952990D-06 Max=  7.1065546D-05 conv= 1.00D-05.
 RLE energy=       -1.1013328532
 DE(Corr)=  -1.1013314     E(CORR)=     -1272.4549303     Delta=-1.68D-06
 NORM(A)=   0.10666867D+01
 Iteration Nr.  11
 **********************
 DD1Dir will call FoFMem   1 times, MxPair=       490
 NAB=   165 NAA=   105 NBB=    55.
 A-vector RMS=  2.0463512D-06 Max=  6.3762108D-05 conv= 1.00D-05.
 RLE energy=       -1.1013284268
 DE(Corr)=  -1.1013304     E(CORR)=     -1272.4549293     Delta= 1.01D-06
 NORM(A)=   0.10666806D+01
 Iteration Nr.  12
 **********************
 DD1Dir will call FoFMem   1 times, MxPair=       490
 NAB=   165 NAA=   105 NBB=    55.
 A-vector RMS=  1.5687541D-06 Max=  5.5367855D-05 conv= 1.00D-05.
 RLE energy=       -1.1013291487
 DE(Corr)=  -1.1013297     E(CORR)=     -1272.4549286     Delta= 6.71D-07
 NORM(A)=   0.10666801D+01
 Iteration Nr.  13
 **********************
 DD1Dir will call FoFMem   1 times, MxPair=       490
 NAB=   165 NAA=   105 NBB=    55.
 A-vector RMS=  1.4895273D-06 Max=  4.6732986D-05 conv= 1.00D-05.
 RLE energy=       -1.1013274182
 DE(Corr)=  -1.1013289     E(CORR)=     -1272.4549277     Delta= 8.78D-07
 NORM(A)=   0.10666833D+01
 Iteration Nr.  14
 **********************
 DD1Dir will call FoFMem   1 times, MxPair=       490
 NAB=   165 NAA=   105 NBB=    55.
 A-vector RMS=  1.0337524D-06 Max=  2.7548361D-05 conv= 1.00D-05.
 RLE energy=       -1.1013292549
 DE(Corr)=  -1.1013294     E(CORR)=     -1272.4549282     Delta=-4.92D-07
 NORM(A)=   0.10666872D+01
 Iteration Nr.  15
 **********************
 DD1Dir will call FoFMem   1 times, MxPair=       490
 NAB=   165 NAA=   105 NBB=    55.
 A-vector RMS=  8.1428987D-07 Max=  1.9597640D-05 conv= 1.00D-05.
 RLE energy=       -1.1013309634
 DE(Corr)=  -1.1013304     E(CORR)=     -1272.4549292     Delta=-1.01D-06
 NORM(A)=   0.10666891D+01
 Iteration Nr.  16
 **********************
 DD1Dir will call FoFMem   1 times, MxPair=       490
 NAB=   165 NAA=   105 NBB=    55.
 A-vector RMS=  3.4992507D-07 Max=  6.6885409D-06 conv= 1.00D-05.
 RLE energy=       -1.1013307917
 DE(Corr)=  -1.1013304     E(CORR)=     -1272.4549293     Delta=-4.56D-08
 NORM(A)=   0.10666893D+01
 CI/CC converged in   16 iterations to DelEn=-4.56D-08 Conv= 1.00D-07 ErrA1= 3.50D-07 Conv= 1.00D-05
 Wavefunction amplitudes converged. E(Corr)=     -1272.4549293    
 Largest amplitude= 6.69D-02
 Time for triples=   493532.61 seconds.
 T4(CCSD)= -0.23675394D-01
 T5(CCSD)=  0.80259369D-03
 CCSD(T)= -0.12724778021D+04
 Discarding MO integrals.
 Leave Link  913 at Thu Mar  1 21:34:18 2018, MaxMem= 10737418240 cpu:          558607.3 elap:           17755.4
 (Enter /home1/apps/gaussian/16rA.03/g16/l601.exe)
 Copying SCF densities to generalized density rwf, IOpCl= 0 IROHF=1.
 SCF density gives NOpUse=  8 NOpAll= 48.
 Marking SCF density as not fully symmetric.

 **********************************************************************

            Population analysis using the SCF density.

 **********************************************************************

 Orbital symmetries:
       Occupied  (A1G) (A1G) (T1U) (T1U) (T1U) (A1G) (T1U) (T1U)
                 (T1U) (?A) (?A) (?A) (T2G) (T2G) (T2G)
       Virtual   (?B) (?B) (?B) (A1G) (?B) (EG) (T2G) (T2G) (?B)
                 (?B) (T2G) (EG) (A1G) (?B) (?A) (T2G) (T2G) (?A)
                 (T2G) (?B) (?B) (?A) (?C) (?C) (?C) (A2U) (?C)
                 (?C) (?C) (?A) (T2G) (T2G) (?A) (T2G) (?B) (?B)
                 (?B) (?A) (?A) (?D) (?D) (?D) (?A) (?D) (?D) (?D)
                 (?A) (?B) (?B) (?B) (A2U) (?B) (?B) (?B) (?A)
                 (?D) (?D) (?A) (?D) (?B) (?B) (?B) (?E) (?F) (?F)
                 (?F) (EU) (?F) (?F) (?F) (EU) (?F) (?F) (?F) (?E)
                 (?F) (?F) (?E) (?F) (?F) (?F) (?F) (?E) (?F) (?F)
                 (?F) (A2U) (?F) (?E) (?F) (?F) (?F) (?F) (?F)
                 (?E) (?F) (?F) (?F) (?F) (?F) (?F) (?F) (?F) (?F)
                 (?C) (?C) (?C) (A2U) (?C) (?C) (?C) (?F) (?F)
[...]
 106       56D 0        0.00005   0.00005   0.00000   0.00005
 107       56D+1        0.00005   0.00005   0.00000   0.00005
 108       56D-1        0.00005   0.00005   0.00000   0.00005
 109       56D+2        0.00010   0.00005   0.00005   0.00000
 110       56D-2        0.00005   0.00005   0.00000   0.00005
 111       57D 0        0.00091   0.00091   0.00000   0.00091
 112       57D+1        0.00090   0.00090   0.00000   0.00090
 113       57D-1        0.00090   0.00090   0.00000   0.00090
 114       57D+2        0.00170   0.00085   0.00085   0.00000
 115       57D-2        0.00089   0.00089   0.00000   0.00089
 116       58D 0        0.00770   0.00770   0.00000   0.00770
 117       58D+1        0.00768   0.00768   0.00000   0.00768
 118       58D-1        0.00768   0.00768   0.00000   0.00768
 119       58D+2        0.01442   0.00721   0.00721   0.00000
 120       58D-2        0.00760   0.00760   0.00000   0.00760
 121       59D 0        0.03896   0.03896   0.00000   0.03895
 122       59D+1        0.03883   0.03883   0.00000   0.03883
 123       59D-1        0.03883   0.03883   0.00000   0.03883
 124       59D+2        0.07296   0.03648   0.03648   0.00000
 125       59D-2        0.03844   0.03844   0.00000   0.03844
 126       60D 0        0.12152   0.12152   0.00000   0.12152
 127       60D+1        0.12110   0.12110   0.00000   0.12110
 128       60D-1        0.12110   0.12110   0.00000   0.12110
 129       60D+2        0.22659   0.11329   0.11329   0.00000
 130       60D-2        0.11980   0.11980   0.00000   0.11980
 131       61D 0        0.23415   0.23415   0.00000   0.23415
 132       61D+1        0.23335   0.23335   0.00000   0.23335
 133       61D-1        0.23335   0.23335   0.00000   0.23335
 134       61D+2        0.43716   0.21858   0.21858   0.00000
 135       61D-2        0.23092   0.23092   0.00000   0.23092
 136       62D 0        0.28555   0.28554   0.00001   0.28554
 137       62D+1        0.28487   0.28487   0.00000   0.28487
 138       62D-1        0.28487   0.28487   0.00000   0.28487
 139       62D+2        0.54386   0.27193   0.27193   0.00000
 140       62D-2        0.28280   0.28280   0.00000   0.28280
 141       63D 0        0.21555   0.21550   0.00005   0.21546
 142       63D+1        0.21594   0.21594   0.00000   0.21594
 143       63D-1        0.21594   0.21594   0.00000   0.21594
 144       63D+2        0.44519   0.22259   0.22259   0.00000
 145       63D-2        0.21721   0.21721   0.00000   0.21721
 146       64D 0        0.08360   0.08348   0.00012   0.08337
 147       64D+1        0.08459   0.08459   0.00000   0.08459
 148       64D-1        0.08459   0.08459   0.00000   0.08459
 149       64D+2        0.21257   0.10628   0.10628   0.00000
 150       64D-2        0.08821   0.08821   0.00000   0.08821
 151       65D 0        0.01076   0.01065   0.00011   0.01054
 152       65D+1        0.01098   0.01098   0.00000   0.01098
 153       65D-1        0.01098   0.01098   0.00000   0.01098
 154       65D+2        0.04080   0.02040   0.02040   0.00000
 155       65D-2        0.01233   0.01233   0.00000   0.01233
 156       66D 0        0.00014   0.00011   0.00003   0.00008
 157       66D+1        0.00010   0.00010   0.00000   0.00010
 158       66D-1        0.00010   0.00010   0.00000   0.00010
 159       66D+2        0.00103   0.00051   0.00051   0.00000
 160       66D-2        0.00013   0.00013   0.00000   0.00013
 161       67D 0        0.00063   0.00063  -0.00000   0.00063
 162       67D+1        0.00064   0.00064   0.00000   0.00064
 163       67D-1        0.00064   0.00064  -0.00000   0.00064
 164       67D+2        0.00147   0.00073   0.00073   0.00000
 165       67D-2        0.00064   0.00064   0.00000   0.00064
 166       68D 0        0.00095   0.00095  -0.00000   0.00095
 167       68D+1        0.00096   0.00096   0.00000   0.00096
 168       68D-1        0.00096   0.00096  -0.00000   0.00096
 169       68D+2        0.00216   0.00108   0.00108   0.00000
 170       68D-2        0.00096   0.00096   0.00000   0.00096
 171       69D 0        0.00000   0.00000   0.00000   0.00000
 172       69D+1        0.00000   0.00000   0.00000   0.00000
 173       69D-1        0.00000   0.00000   0.00000   0.00000
 174       69D+2        0.00000   0.00000   0.00000  -0.00000
 175       69D-2        0.00000   0.00000   0.00000   0.00000
 176       70F 0        0.00000   0.00000   0.00000   0.00000
 177       70F+1       -0.00000  -0.00000  -0.00000   0.00000
 178       70F-1       -0.00000  -0.00000  -0.00000   0.00000
 179       70F+2        0.00000   0.00000   0.00000   0.00000
 180       70F-2        0.00000   0.00000   0.00000   0.00000
 181       70F+3        0.00000   0.00000   0.00000   0.00000
 182       70F-3        0.00000   0.00000   0.00000   0.00000
 183       71F 0        0.00001   0.00000   0.00000   0.00000
 184       71F+1        0.00000   0.00000   0.00000   0.00000
 185       71F-1        0.00000   0.00000   0.00000   0.00000
 186       71F+2        0.00000   0.00000   0.00000   0.00000
 187       71F-2        0.00000   0.00000   0.00000   0.00000
 188       71F+3        0.00001   0.00000   0.00000   0.00000
 189       71F-3        0.00001   0.00000   0.00000   0.00000
 190       72F 0        0.00002   0.00001   0.00001   0.00000
 191       72F+1        0.00000   0.00000   0.00000   0.00000
 192       72F-1        0.00000   0.00000   0.00000   0.00000
 193       72F+2        0.00000   0.00000   0.00000   0.00000
 194       72F-2        0.00000   0.00000   0.00000   0.00000
 195       72F+3        0.00002   0.00001   0.00001   0.00000
 196       72F-3        0.00002   0.00001   0.00001   0.00000
 197       73F 0        0.00001   0.00000   0.00000   0.00000
 198       73F+1        0.00000   0.00000   0.00000   0.00000
 199       73F-1        0.00000   0.00000   0.00000   0.00000
 200       73F+2        0.00000   0.00000   0.00000   0.00000
 201       73F-2        0.00000   0.00000   0.00000   0.00000
 202       73F+3        0.00003   0.00002   0.00002   0.00000
 203       73F-3        0.00003   0.00002   0.00002   0.00000
 204       74F 0        0.00000   0.00000   0.00000   0.00000
 205       74F+1       -0.00000  -0.00000  -0.00000   0.00000
 206       74F-1       -0.00000  -0.00000  -0.00000   0.00000
 207       74F+2        0.00000   0.00000   0.00000   0.00000
 208       74F-2        0.00000   0.00000   0.00000   0.00000
 209       74F+3        0.00001   0.00000   0.00000   0.00000
 210       74F-3        0.00001   0.00000   0.00000   0.00000
 211       75F 0       -0.00000  -0.00000  -0.00000   0.00000
 212       75F+1       -0.00000  -0.00000  -0.00000   0.00000
 213       75F-1       -0.00000  -0.00000  -0.00000   0.00000
 214       75F+2       -0.00000   0.00000  -0.00000   0.00000
 215       75F-2       -0.00000  -0.00000  -0.00000   0.00000
 216       75F+3       -0.00000  -0.00000  -0.00000   0.00000
 217       75F-3       -0.00000  -0.00000  -0.00000   0.00000
 218       76G 0        0.00000   0.00000   0.00000   0.00000
 219       76G+1        0.00000   0.00000   0.00000   0.00000
 220       76G-1        0.00000   0.00000   0.00000   0.00000
 221       76G+2        0.00000   0.00000   0.00000   0.00000
 222       76G-2        0.00000   0.00000   0.00000   0.00000
 223       76G+3        0.00000   0.00000   0.00000   0.00000
 224       76G-3        0.00000   0.00000   0.00000   0.00000
 225       76G+4        0.00000   0.00000   0.00000   0.00000
 226       76G-4        0.00000   0.00000   0.00000   0.00000
 227       77G 0        0.00000   0.00000   0.00000   0.00000
 228       77G+1        0.00000   0.00000   0.00000   0.00000
 229       77G-1        0.00000   0.00000   0.00000   0.00000
 230       77G+2        0.00000   0.00000   0.00000   0.00000
 231       77G-2        0.00000   0.00000   0.00000   0.00000
 232       77G+3        0.00000   0.00000   0.00000   0.00000
 233       77G-3        0.00000   0.00000   0.00000   0.00000
 234       77G+4        0.00000   0.00000   0.00000   0.00000
 235       77G-4        0.00000   0.00000   0.00000   0.00000
 236       78G 0        0.00001   0.00001   0.00000   0.00001
 237       78G+1        0.00001   0.00001   0.00000   0.00001
 238       78G-1        0.00001   0.00001   0.00000   0.00001
 239       78G+2        0.00000   0.00000   0.00000   0.00000
 240       78G-2        0.00000   0.00000   0.00000   0.00000
 241       78G+3        0.00000   0.00000   0.00000   0.00000
 242       78G-3        0.00000   0.00000   0.00000   0.00000
 243       78G+4        0.00000   0.00000   0.00000   0.00000
 244       78G-4        0.00000   0.00000   0.00000   0.00000
 245       79G 0        0.00001   0.00001   0.00000   0.00001
 246       79G+1        0.00001   0.00001   0.00000   0.00001
 247       79G-1        0.00001   0.00001   0.00000   0.00001
 248       79G+2        0.00000   0.00000   0.00000   0.00000
 249       79G-2        0.00000   0.00000   0.00000   0.00000
 250       79G+3        0.00000   0.00000   0.00000   0.00000
 251       79G-3        0.00000   0.00000   0.00000   0.00000
 252       79G+4        0.00000   0.00000   0.00000   0.00000
 253       79G-4        0.00000   0.00000   0.00000   0.00000
 254       80G 0        0.00000   0.00000   0.00000   0.00000
 255       80G+1        0.00000   0.00000   0.00000   0.00000
 256       80G-1        0.00000   0.00000   0.00000   0.00000
 257       80G+2        0.00000   0.00000   0.00000   0.00000
 258       80G-2        0.00000   0.00000   0.00000   0.00000
 259       80G+3        0.00000   0.00000   0.00000   0.00000
 260       80G-3        0.00000   0.00000   0.00000   0.00000
 261       80G+4        0.00000   0.00000   0.00000  -0.00000
 262       80G-4        0.00000   0.00000   0.00000   0.00000
 263       81H 0        0.00000   0.00000   0.00000   0.00000
 264       81H+1        0.00000   0.00000   0.00000   0.00000
 265       81H-1        0.00000   0.00000   0.00000   0.00000
 266       81H+2        0.00000   0.00000   0.00000   0.00000
 267       81H-2        0.00000   0.00000   0.00000   0.00000
 268       81H+3        0.00000   0.00000   0.00000   0.00000
 269       81H-3        0.00000   0.00000   0.00000   0.00000
 270       81H+4        0.00000   0.00000   0.00000   0.00000
 271       81H-4        0.00000   0.00000   0.00000   0.00000
 272       81H+5        0.00000   0.00000   0.00000   0.00000
 273       81H-5        0.00000   0.00000   0.00000   0.00000
 274       82H 0        0.00000   0.00000   0.00000   0.00000
 275       82H+1        0.00000   0.00000   0.00000   0.00000
 276       82H-1        0.00000   0.00000   0.00000   0.00000
 277       82H+2        0.00000   0.00000   0.00000   0.00000
 278       82H-2        0.00000   0.00000   0.00000   0.00000
 279       82H+3        0.00000   0.00000   0.00000   0.00000
 280       82H-3        0.00000   0.00000   0.00000   0.00000
 281       82H+4        0.00000   0.00000   0.00000   0.00000
 282       82H-4        0.00000   0.00000   0.00000   0.00000
 283       82H+5        0.00000   0.00000   0.00000   0.00000
 284       82H-5        0.00000   0.00000   0.00000   0.00000
 285       83H 0        0.00000   0.00000   0.00000   0.00000
 286       83H+1        0.00000   0.00000   0.00000   0.00000
 287       83H-1        0.00000   0.00000   0.00000   0.00000
 288       83H+2        0.00000   0.00000   0.00000   0.00000
 289       83H-2        0.00000   0.00000   0.00000   0.00000
 290       83H+3        0.00000   0.00000   0.00000   0.00000
 291       83H-3        0.00000   0.00000   0.00000   0.00000
 292       83H+4        0.00000   0.00000   0.00000   0.00000
 293       83H-4        0.00000   0.00000   0.00000   0.00000
 294       83H+5        0.00000   0.00000   0.00000   0.00000
 295       83H-5        0.00000   0.00000   0.00000   0.00000
 296       84H 0        0.00000   0.00000   0.00000   0.00000
 297       84H+1        0.00000   0.00000   0.00000   0.00000
 298       84H-1        0.00000   0.00000   0.00000   0.00000
 299       84H+2        0.00000   0.00000   0.00000   0.00000
 300       84H-2        0.00000   0.00000   0.00000   0.00000
 301       84H+3        0.00000   0.00000   0.00000   0.00000
 302       84H-3        0.00000   0.00000   0.00000   0.00000
 303       84H+4        0.00000   0.00000   0.00000   0.00000
 304       84H-4        0.00000   0.00000   0.00000   0.00000
 305       84H+5        0.00000   0.00000   0.00000   0.00000
 306       84H-5        0.00000   0.00000   0.00000   0.00000
 307       85I 0        0.00000   0.00000   0.00000   0.00000
 308       85I+1        0.00000   0.00000   0.00000   0.00000
 309       85I-1        0.00000   0.00000   0.00000   0.00000
 310       85I+2        0.00000   0.00000   0.00000   0.00000
 311       85I-2        0.00000   0.00000   0.00000   0.00000
 312       85I+3        0.00000   0.00000   0.00000   0.00000
 313       85I-3        0.00000   0.00000   0.00000   0.00000
 314       85I+4        0.00000   0.00000   0.00000   0.00000
 315       85I-4        0.00000   0.00000   0.00000   0.00000
 316       85I+5        0.00000   0.00000   0.00000   0.00000
 317       85I-5        0.00000   0.00000   0.00000   0.00000
 318       85I+6        0.00000   0.00000   0.00000   0.00000
 319       85I-6        0.00000   0.00000   0.00000   0.00000
 320       86I 0        0.00000   0.00000   0.00000   0.00000
 321       86I+1        0.00000   0.00000   0.00000   0.00000
 322       86I-1        0.00000   0.00000   0.00000   0.00000
 323       86I+2        0.00000   0.00000   0.00000   0.00000
 324       86I-2        0.00000   0.00000   0.00000   0.00000
 325       86I+3        0.00000   0.00000   0.00000   0.00000
 326       86I-3        0.00000   0.00000   0.00000   0.00000
 327       86I+4        0.00000   0.00000   0.00000   0.00000
 328       86I-4        0.00000   0.00000   0.00000   0.00000
 329       86I+5        0.00000   0.00000   0.00000   0.00000
 330       86I-5        0.00000   0.00000   0.00000   0.00000
 331       86I+6        0.00000   0.00000   0.00000   0.00000
 332       86I-6        0.00000   0.00000   0.00000   0.00000
          Condensed to atoms (all electrons):
               1
     1  Fe  26.000000
          Atomic-Atomic Spin Densities.
               1
     1  Fe   4.000000
 Mulliken charges and spin densities:
               1          2
     1  Fe  -0.000000   4.000000
 Sum of Mulliken charges =  -0.00000   4.00000
 Mulliken charges and spin densities with hydrogens summed into heavy atoms:
               1          2
     1  Fe  -0.000000   4.000000
 Electronic spatial extent (au):  <R**2>=             40.6470
 Charge=             -0.0000 electrons
 Dipole moment (field-independent basis, Debye):
    X=             -0.0000    Y=              0.0000    Z=             -0.0000  Tot=              0.0000
 Quadrupole moment (field-independent basis, Debye-Ang):
   XX=            -18.3154   YY=            -18.3154   ZZ=            -18.0408
   XY=             -0.0000   XZ=              0.0000   YZ=              0.0000
 Traceless Quadrupole moment (field-independent basis, Debye-Ang):
   XX=             -0.0915   YY=             -0.0915   ZZ=              0.1830
   XY=             -0.0000   XZ=              0.0000   YZ=              0.0000
 Octapole moment (field-independent basis, Debye-Ang**2):
  XXX=             -0.0000  YYY=              0.0000  ZZZ=             -0.0000  XYY=             -0.0000
  XXY=              0.0000  XXZ=             -0.0000  XZZ=             -0.0000  YZZ=              0.0000
  YYZ=             -0.0000  XYZ=              0.0000
 Hexadecapole moment (field-independent basis, Debye-Ang**3):
 XXXX=            -41.9249 YYYY=            -41.9249 ZZZZ=            -42.8728 XXXY=             -0.0000
 XXXZ=             -0.0000 YYYX=              0.0000 YYYZ=              0.0000 ZZZX=             -0.0000
 ZZZY=              0.0000 XXYY=            -13.7611 XXZZ=            -14.0774 YYZZ=            -14.0774
 XXYZ=              0.0000 YYXZ=             -0.0000 ZZXY=             -0.0000
 N-N= 0.000000000000D+00 E-N=-3.081180237890D+03  KE= 1.325107449514D+03
 Orbital energies and kinetic energies (alpha):
                                 1                 2
   7         (T1U)--O         -3.012961         11.170359
   8         (T1U)--O         -2.938677         11.170359
   9         (T1U)--O         -2.938677         11.178085
  10         O                -0.697972          6.975348
  11         O                -0.687982          0.862724
  12         O                -0.687982          7.398816
  13         (T2G)--O         -0.656901          7.377002
  14         (T2G)--O         -0.604998          7.377001
  15         (T2G)--O         -0.275471          7.310104
  16         V                 0.017596          0.086750
  17         V                 0.019183          0.074325
  18         V                 0.019183          0.074325
  19         (A1G)--V          0.021996          0.053041
  20         V                 0.057187          0.239084
 Total kinetic energy from orbitals= 1.354570371895D+03
 FoFCou: FMM=F IPFlag=           8 FMFlag=           0 FMFlg1=           0
         NFxFlg=           0 DoJE=F BraDBF=T KetDBF=F FulRan=T
         wScrn=  0.000000 ICntrl=   2000500 IOpCl=  0 I1Cent=           5 NGrid=           0
         NMat0=    1 NMatS0=      1 NMatT0=    0 NMatD0=    1 NMtDS0=    0 NMtDT0=    0
 Symmetry not used in FoFCou.
                          Isotropic Fermi Contact Couplings
        Atom                 a.u.       MegaHertz       Gauss      10(-4) cm-1
     1  Fe(57)             0.00178       0.06449       0.02301       0.02151
 --------------------------------------------------------
       Center         ----  Spin Dipole Couplings  ----
                      3XX-RR        3YY-RR        3ZZ-RR
 --------------------------------------------------------
     1   Atom       -1.479057     -1.479047      2.958105
 --------------------------------------------------------
                        XY            XZ            YZ
 --------------------------------------------------------
     1   Atom        0.000000      0.000010     -0.000000
 --------------------------------------------------------


 ---------------------------------------------------------------------------------
              Anisotropic Spin Dipole Couplings in Principal Axis System
 ---------------------------------------------------------------------------------

       Atom             a.u.   MegaHertz   Gauss  10(-4) cm-1        Axes

              Baa    -1.4791   -25.607    -9.137    -8.541  1.0000 -0.0028 -0.0000
     1 Fe(57) Bbb    -1.4790   -25.607    -9.137    -8.541  0.0028  1.0000  0.0000
              Bcc     2.9581    51.213    18.274    17.083  0.0000 -0.0000  1.0000
 

 ---------------------------------------------------------------------------------

 No NMR shielding tensors so no spin-rotation constants.
 Leave Link  601 at Thu Mar  1 21:34:48 2018, MaxMem= 10737418240 cpu:             527.6 elap:              16.9
 (Enter /home1/apps/gaussian/16rA.03/g16/l9999.exe)

 Test job not archived.
 1\1\GINC-C405-001\SP\ROCCSD(T)-Full\Gen\Fe1(5)\GWANG18\01-Mar-2018\2\\
 #P ROCCSD(T)=(MaxCyc=150, Full)/Gen SCF=(maxcycle=400) Integral(DKHSO,
  NoXCTest) Pop=Regular MaxDisk=500GB Guess=Permute IOp(5/15=2)\\Fe\\0,
 5\Fe,0,0.,0.,0.\\1,2,3,4,5,6,7,8,9,15,10,11,12,13,14\\Version=ES64L-G1
 6RevA.03\HF=-1271.3535989\MP2=-1272.4803001\MP3=-1272.4454315\PUHF=-12
 71.3535989\PMP2-0=-1272.4803001\MP4SDQ=-1272.4574816\CCSD=-1272.454929
 3\CCSD(T)=-1272.4778021\RMSD=1.231e-09\PG=OH [O(Fe1)]\\@


 HERE WE GO......
 SLIDING DOWN THE RAZOR BLADE OF LIFE......
                                 TOM LEHRER
 Job cpu time:       7 days  3 hours  8 minutes 47.7 seconds.
 Elapsed time:       0 days  5 hours 26 minutes 29.9 seconds.
 File lengths (MBytes):  RWF=  86047 Int=      0 D2E=      0 Chk=     12 Scr=      1
 Normal termination of Gaussian 16 at Thu Mar  1 21:34:54 2018.
