 Entering Gaussian System, Link 0=g16
 Initial command:
 /home1/apps/gaussian/16rA.03/g16/l1.exe "/tmp/Gau-27618.inp" -scrdir="/tmp/"
 Entering Link 1 = /home1/apps/gaussian/16rA.03/g16/l1.exe PID=     27619.
  
 Copyright (c) 1988,1990,1992,1993,1995,1998,2003,2009,2016,
            Gaussian, Inc.  All Rights Reserved.
  
 This is part of the Gaussian(R) 16 program.  It is based on
 the Gaussian(R) 09 system (copyright 2009, Gaussian, Inc.),
 the Gaussian(R) 03 system (copyright 2003, Gaussian, Inc.),
 the Gaussian(R) 98 system (copyright 1998, Gaussian, Inc.),
 the Gaussian(R) 94 system (copyright 1995, Gaussian, Inc.),
 the Gaussian 92(TM) system (copyright 1992, Gaussian, Inc.),
 the Gaussian 90(TM) system (copyright 1990, Gaussian, Inc.),
 the Gaussian 88(TM) system (copyright 1988, Gaussian, Inc.),
 the Gaussian 86(TM) system (copyright 1986, Carnegie Mellon
 University), and the Gaussian 82(TM) system (copyright 1983,
 Carnegie Mellon University). Gaussian is a federally registered
 trademark of Gaussian, Inc.
  
 This software contains proprietary and confidential information,
 including trade secrets, belonging to Gaussian, Inc.
  
 This software is provided under written license and may be
 used, copied, transmitted, or stored only in accord with that
 written license.
  
 The following legend is applicable only to US Government
 contracts under FAR:
  
                    RESTRICTED RIGHTS LEGEND
  
 Use, reproduction and disclosure by the US Government is
 subject to restrictions as set forth in subparagraphs (a)
 and (c) of the Commercial Computer Software - Restricted
 Rights clause in FAR 52.227-19.
  
 Gaussian, Inc.
 340 Quinnipiac St., Bldg. 40, Wallingford CT 06492
  
  
 ---------------------------------------------------------------
 Warning -- This program may not be used in any manner that
 competes with the business of Gaussian, Inc. or will provide
 assistance to any competitor of Gaussian, Inc.  The licensee
 of this program is prohibited from giving any competitor of
 Gaussian, Inc. access to this program.  By using this program,
 the user acknowledges that Gaussian, Inc. is engaged in the
 business of creating and licensing software in the field of
 computational chemistry and represents and warrants to the
 licensee that it is not a competitor of Gaussian, Inc. and that
 it will not use this program in any manner prohibited above.
 ---------------------------------------------------------------
  

 Cite this work as:
 Gaussian 16, Revision A.03,
 M. J. Frisch, G. W. Trucks, H. B. Schlegel, G. E. Scuseria, 
 M. A. Robb, J. R. Cheeseman, G. Scalmani, V. Barone, 
 G. A. Petersson, H. Nakatsuji, X. Li, M. Caricato, A. V. Marenich, 
 J. Bloino, B. G. Janesko, R. Gomperts, B. Mennucci, H. P. Hratchian, 
 J. V. Ortiz, A. F. Izmaylov, J. L. Sonnenberg, D. Williams-Young, 
 F. Ding, F. Lipparini, F. Egidi, J. Goings, B. Peng, A. Petrone, 
 T. Henderson, D. Ranasinghe, V. G. Zakrzewski, J. Gao, N. Rega, 
 G. Zheng, W. Liang, M. Hada, M. Ehara, K. Toyota, R. Fukuda, 
 J. Hasegawa, M. Ishida, T. Nakajima, Y. Honda, O. Kitao, H. Nakai, 
 T. Vreven, K. Throssell, J. A. Montgomery, Jr., J. E. Peralta, 
 F. Ogliaro, M. J. Bearpark, J. J. Heyd, E. N. Brothers, K. N. Kudin, 
 V. N. Staroverov, T. A. Keith, R. Kobayashi, J. Normand, 
 K. Raghavachari, A. P. Rendell, J. C. Burant, S. S. Iyengar, 
 J. Tomasi, M. Cossi, J. M. Millam, M. Klene, C. Adamo, R. Cammi, 
 J. W. Ochterski, R. L. Martin, K. Morokuma, O. Farkas, 
 J. B. Foresman, and D. J. Fox, Gaussian, Inc., Wallingford CT, 2016.
 
 ******************************************
 Gaussian 16:  ES64L-G16RevA.03 25-Dec-2016
                13-Mar-2018 
 ******************************************
 %MEM=80GB
 %CPU=0-15
 SetSPE:  set environment variable "MP_BIND" = "yes"
 SetSPE:  set environment variable "MP_BLIST" = "0,1,2,3,4,5,6,7,8,9,10,11,12,13,14,15"
 Will use up to   16 processors via shared memory.
 %RWF=/scratch/04843/aannabe/gaussian/
 %Int=/scratch/04843/aannabe/gaussian/
 %D2E=/scratch/04843/aannabe/gaussian/
 %NoSave
 %CHK=CrO
 ----------------------------------------------------------------------
 #P ROCCSD(T)=(maxcyc=150, Full, SaveAmplitudes, ReadAmplitudes)/Gen 5d
  7f SCF=(maxcycles=300) Integral(NoXCTest) MaxDisk=500GB Pop=Regular P
 seudo=Read Guess=Read
 ----------------------------------------------------------------------
 1/38=1,172=1/1;
 2/12=2,17=6,18=5,40=1/2;
 3/5=7,8=11,11=2,16=1,17=8,25=1,30=1,47=8,116=101/1,2,3;
 4/5=1/1;
 5/5=2,7=300,38=6/2;
 8/5=-1,6=4,9=120000,10=90,24=1/1,4;
 9/5=7,6=150,14=2,77=1/13;
 6//1;
 99/5=1,9=1/99;
 Leave Link    1 at Tue Mar 13 06:33:52 2018, MaxMem= 10737418240 cpu:               3.5 elap:               0.2
 (Enter /home1/apps/gaussian/16rA.03/g16/l101.exe)
 ---
 CrO
 ---
 Symbolic Z-matrix:
 Charge =  0 Multiplicity = 5
 Cr                    0.        0.        0. 
 O                     0.        0.        1.7 
 
 ITRead=  0  0
 MicOpt= -1 -1
 NAtoms=      2 NQM=        2 NQMF=       0 NMMI=      0 NMMIF=      0
                NMic=       0 NMicF=      0.
                    Isotopes and Nuclear Properties:
 (Nuclear quadrupole moments (NQMom) in fm**2, nuclear magnetic moments (NMagM)
  in nuclear magnetons)

  Atom         1           2
 IAtWgt=          52          16
 AtmWgt=  51.9405097  15.9949146
 NucSpn=           0           0
 AtZEff=  -0.0000000  -0.0000000
 NQMom=    0.0000000   0.0000000
 NMagM=    0.0000000   0.0000000
 AtZNuc=  24.0000000   8.0000000
 Leave Link  101 at Tue Mar 13 06:33:52 2018, MaxMem= 10737418240 cpu:               1.4 elap:               0.1
 (Enter /home1/apps/gaussian/16rA.03/g16/l202.exe)
                          Input orientation:                          
 ---------------------------------------------------------------------
 Center     Atomic      Atomic             Coordinates (Angstroms)
 Number     Number       Type             X           Y           Z
 ---------------------------------------------------------------------
      1         24           0        0.000000    0.000000    0.000000
      2          8           0        0.000000    0.000000    1.700000
 ---------------------------------------------------------------------
 Stoichiometry    CrO(5)
 Framework group  C*V[C*(OCr)]
 Deg. of freedom     1
 Full point group                 C*V     NOp   4
 Largest Abelian subgroup         C2V     NOp   4
 Largest concise Abelian subgroup C1      NOp   1
                         Standard orientation:                         
 ---------------------------------------------------------------------
 Center     Atomic      Atomic             Coordinates (Angstroms)
 Number     Number       Type             X           Y           Z
 ---------------------------------------------------------------------
      1         24           0        0.000000    0.000000    0.425000
      2          8           0        0.000000    0.000000   -1.275000
 ---------------------------------------------------------------------
 Rotational constants (GHZ):           0.0000000          14.2997194          14.2997194
 Leave Link  202 at Tue Mar 13 06:33:53 2018, MaxMem= 10737418240 cpu:               0.3 elap:               0.1
 (Enter /home1/apps/gaussian/16rA.03/g16/l301.exe)
 General basis read from cards:  (5D, 7F)
 Centers:       1
 S 1 1.00
     Exponent=  1.1016640000D+07 Coefficients=  1.0000000000D+00
 S 1 1.00
     Exponent=  1.6494230000D+06 Coefficients=  1.0000000000D+00
 S 1 1.00
     Exponent=  3.7535890000D+05 Coefficients=  1.0000000000D+00
 S 1 1.00
     Exponent=  1.0632360000D+05 Coefficients=  1.0000000000D+00
 S 1 1.00
     Exponent=  3.4689760000D+04 Coefficients=  1.0000000000D+00
 S 1 1.00
     Exponent=  1.2524830000D+04 Coefficients=  1.0000000000D+00
 S 1 1.00
     Exponent=  4.8857520000D+03 Coefficients=  1.0000000000D+00
 S 1 1.00
     Exponent=  2.0269180000D+03 Coefficients=  1.0000000000D+00
 S 1 1.00
     Exponent=  8.8436450000D+02 Coefficients=  1.0000000000D+00
 S 1 1.00
     Exponent=  4.0231700000D+02 Coefficients=  1.0000000000D+00
 S 1 1.00
     Exponent=  1.8952710000D+02 Coefficients=  1.0000000000D+00
 S 1 1.00
     Exponent=  9.1860950000D+01 Coefficients=  1.0000000000D+00
 S 1 1.00
     Exponent=  4.5124760000D+01 Coefficients=  1.0000000000D+00
 S 1 1.00
     Exponent=  2.0625120000D+01 Coefficients=  1.0000000000D+00
 S 1 1.00
     Exponent=  1.0319730000D+01 Coefficients=  1.0000000000D+00
 S 1 1.00
     Exponent=  5.1577230000D+00 Coefficients=  1.0000000000D+00
 S 1 1.00
     Exponent=  2.3126280000D+00 Coefficients=  1.0000000000D+00
 S 1 1.00
     Exponent=  1.1030790000D+00 Coefficients=  1.0000000000D+00
 S 1 1.00
     Exponent=  4.9804200000D-01 Coefficients=  1.0000000000D+00
 S 1 1.00
     Exponent=  1.1824700000D-01 Coefficients=  1.0000000000D+00
 S 1 1.00
     Exponent=  5.7356000000D-02 Coefficients=  1.0000000000D+00
 S 1 1.00
     Exponent=  2.5760000000D-02 Coefficients=  1.0000000000D+00
 S 1 1.00
     Exponent=  4.7991000000D+00 Coefficients=  1.0000000000D+00
 S 1 1.00
     Exponent=  1.4287000000D+00 Coefficients=  1.0000000000D+00
 S 1 1.00
     Exponent=  1.1570000000D-02 Coefficients=  1.0000000000D+00
 P 1 1.00
     Exponent=  3.1539890000D+04 Coefficients=  1.0000000000D+00
 P 1 1.00
     Exponent=  7.4602340000D+03 Coefficients=  1.0000000000D+00
 P 1 1.00
     Exponent=  2.4226220000D+03 Coefficients=  1.0000000000D+00
 P 1 1.00
     Exponent=  9.2775470000D+02 Coefficients=  1.0000000000D+00
 P 1 1.00
     Exponent=  3.9480410000D+02 Coefficients=  1.0000000000D+00
 P 1 1.00
     Exponent=  1.8080270000D+02 Coefficients=  1.0000000000D+00
 P 1 1.00
     Exponent=  8.7423930000D+01 Coefficients=  1.0000000000D+00
 P 1 1.00
     Exponent=  4.4034270000D+01 Coefficients=  1.0000000000D+00
 P 1 1.00
     Exponent=  2.2777040000D+01 Coefficients=  1.0000000000D+00
 P 1 1.00
     Exponent=  1.2015470000D+01 Coefficients=  1.0000000000D+00
 P 1 1.00
     Exponent=  6.4117510000D+00 Coefficients=  1.0000000000D+00
 P 1 1.00
     Exponent=  3.3811360000D+00 Coefficients=  1.0000000000D+00
 P 1 1.00
     Exponent=  1.7470540000D+00 Coefficients=  1.0000000000D+00
 P 1 1.00
     Exponent=  8.8500400000D-01 Coefficients=  1.0000000000D+00
 P 1 1.00
     Exponent=  4.3302800000D-01 Coefficients=  1.0000000000D+00
 P 1 1.00
     Exponent=  1.7396200000D-01 Coefficients=  1.0000000000D+00
 P 1 1.00
     Exponent=  7.2823000000D-02 Coefficients=  1.0000000000D+00
 P 1 1.00
     Exponent=  2.9952000000D-02 Coefficients=  1.0000000000D+00
 P 1 1.00
     Exponent=  6.4552000000D+00 Coefficients=  1.0000000000D+00
 P 1 1.00
     Exponent=  1.6531000000D+00 Coefficients=  1.0000000000D+00
 P 1 1.00
     Exponent=  1.2320000000D-02 Coefficients=  1.0000000000D+00
 D 1 1.00
     Exponent=  2.8131200000D+02 Coefficients=  1.0000000000D+00
 D 1 1.00
     Exponent=  8.3188500000D+01 Coefficients=  1.0000000000D+00
 D 1 1.00
     Exponent=  3.1839600000D+01 Coefficients=  1.0000000000D+00
 D 1 1.00
     Exponent=  1.3602600000D+01 Coefficients=  1.0000000000D+00
 D 1 1.00
     Exponent=  6.1829800000D+00 Coefficients=  1.0000000000D+00
 D 1 1.00
     Exponent=  2.9227000000D+00 Coefficients=  1.0000000000D+00
 D 1 1.00
     Exponent=  1.3821600000D+00 Coefficients=  1.0000000000D+00
 D 1 1.00
     Exponent=  6.3946000000D-01 Coefficients=  1.0000000000D+00
 D 1 1.00
     Exponent=  2.8489800000D-01 Coefficients=  1.0000000000D+00
 D 1 1.00
     Exponent=  1.2004500000D-01 Coefficients=  1.0000000000D+00
 D 1 1.00
     Exponent=  4.6229000000D-02 Coefficients=  1.0000000000D+00
 D 1 1.00
     Exponent=  4.0848000000D+00 Coefficients=  1.0000000000D+00
 D 1 1.00
     Exponent=  2.1405000000D+00 Coefficients=  1.0000000000D+00
 D 1 1.00
     Exponent=  1.7800000000D-02 Coefficients=  1.0000000000D+00
 F 1 1.00
     Exponent=  5.6633000000D+00 Coefficients=  1.0000000000D+00
 F 1 1.00
     Exponent=  2.3365000000D+00 Coefficients=  1.0000000000D+00
 F 1 1.00
     Exponent=  9.6390000000D-01 Coefficients=  1.0000000000D+00
 F 1 1.00
     Exponent=  3.1420000000D-01 Coefficients=  1.0000000000D+00
 F 1 1.00
     Exponent=  1.0242000000D-01 Coefficients=  1.0000000000D+00
 G 1 1.00
     Exponent=  4.6690000000D+00 Coefficients=  1.0000000000D+00
 G 1 1.00
     Exponent=  1.9538000000D+00 Coefficients=  1.0000000000D+00
 G 1 1.00
     Exponent=  6.8480000000D-01 Coefficients=  1.0000000000D+00
 G 1 1.00
     Exponent=  2.4002000000D-01 Coefficients=  1.0000000000D+00
 H 1 1.00
     Exponent=  4.4133000000D+00 Coefficients=  1.0000000000D+00
 H 1 1.00
     Exponent=  1.6472000000D+00 Coefficients=  1.0000000000D+00
 H 1 1.00
     Exponent=  6.1479000000D-01 Coefficients=  1.0000000000D+00
 ****
 Centers:       2
 S 1 1.00
     Exponent=  6.1420000000D+04 Coefficients=  1.0000000000D+00
 S 1 1.00
     Exponent=  9.1990000000D+03 Coefficients=  1.0000000000D+00
 S 1 1.00
     Exponent=  2.0910000000D+03 Coefficients=  1.0000000000D+00
 S 1 1.00
     Exponent=  5.9090000000D+02 Coefficients=  1.0000000000D+00
 S 1 1.00
     Exponent=  1.9230000000D+02 Coefficients=  1.0000000000D+00
 S 1 1.00
     Exponent=  6.9320000000D+01 Coefficients=  1.0000000000D+00
 S 1 1.00
     Exponent=  2.6970000000D+01 Coefficients=  1.0000000000D+00
 S 1 1.00
     Exponent=  1.1100000000D+01 Coefficients=  1.0000000000D+00
 S 1 1.00
     Exponent=  4.6820000000D+00 Coefficients=  1.0000000000D+00
 S 1 1.00
     Exponent=  1.4280000000D+00 Coefficients=  1.0000000000D+00
 S 1 1.00
     Exponent=  5.5470000000D-01 Coefficients=  1.0000000000D+00
 S 1 1.00
     Exponent=  2.0670000000D-01 Coefficients=  1.0000000000D+00
 S 1 1.00
     Exponent=  1.2974000000D+01 Coefficients=  1.0000000000D+00
 S 1 1.00
     Exponent=  3.4900000000D+01 Coefficients=  1.0000000000D+00
 S 1 1.00
     Exponent=  9.3881000000D+01 Coefficients=  1.0000000000D+00
 S 1 1.00
     Exponent=  6.9590000000D-02 Coefficients=  1.0000000000D+00
 P 1 1.00
     Exponent=  6.3420000000D+01 Coefficients=  1.0000000000D+00
 P 1 1.00
     Exponent=  1.4660000000D+01 Coefficients=  1.0000000000D+00
 P 1 1.00
     Exponent=  4.4590000000D+00 Coefficients=  1.0000000000D+00
 P 1 1.00
     Exponent=  1.5310000000D+00 Coefficients=  1.0000000000D+00
 P 1 1.00
     Exponent=  5.3020000000D-01 Coefficients=  1.0000000000D+00
 P 1 1.00
     Exponent=  1.7500000000D-01 Coefficients=  1.0000000000D+00
 P 1 1.00
     Exponent=  1.4475000000D+01 Coefficients=  1.0000000000D+00
 P 1 1.00
     Exponent=  4.2730000000D+01 Coefficients=  1.0000000000D+00
 P 1 1.00
     Exponent=  1.2614000000D+02 Coefficients=  1.0000000000D+00
 P 1 1.00
     Exponent=  5.3480000000D-02 Coefficients=  1.0000000000D+00
 D 1 1.00
     Exponent=  3.7750000000D+00 Coefficients=  1.0000000000D+00
 D 1 1.00
     Exponent=  1.3000000000D+00 Coefficients=  1.0000000000D+00
 D 1 1.00
     Exponent=  4.4400000000D-01 Coefficients=  1.0000000000D+00
 D 1 1.00
     Exponent=  1.4927000000D+01 Coefficients=  1.0000000000D+00
 D 1 1.00
     Exponent=  5.7544000000D+01 Coefficients=  1.0000000000D+00
 D 1 1.00
     Exponent=  1.5400000000D-01 Coefficients=  1.0000000000D+00
 F 1 1.00
     Exponent=  2.6660000000D+00 Coefficients=  1.0000000000D+00
 F 1 1.00
     Exponent=  8.5900000000D-01 Coefficients=  1.0000000000D+00
 F 1 1.00
     Exponent=  2.6483000000D+01 Coefficients=  1.0000000000D+00
 F 1 1.00
     Exponent=  3.2400000000D-01 Coefficients=  1.0000000000D+00
 G 1 1.00
     Exponent=  1.8460000000D+00 Coefficients=  1.0000000000D+00
 G 1 1.00
     Exponent=  7.1400000000D-01 Coefficients=  1.0000000000D+00
 ****
 ======================================================================================================
                                       Pseudopotential Parameters
 ======================================================================================================
  Center     Atomic      Valence      Angular      Power
  Number     Number     Electrons     Momentum     of R      Exponent        Coefficient   SO-Coeffient
 ======================================================================================================
    1         24           14
                                      F and up 
                                                     1       13.0767520       14.00000000    0.00000000
                                                     2       15.1580758     1258.15550380    0.00000000
                                                     2        4.6278569      -98.60998187    0.00000000
                                                     2       15.4113660    -6552.46055066    0.00000000
                                                     2       15.3869064     5353.09061557    0.00000000
                                                     3        5.2489731      183.07452839    0.00000000
                                      S - F
                                                     2        9.7768084    **************    0.00000000
                                                     2        9.9598011    96320.14803227    0.00000000
                                                     2        8.6227521     3928.31359170    0.00000000
                                                     2       12.2928814    **************    0.00000000
                                                     2       18.4131659    -1741.60409682    0.00000000
                                                     2       16.3854196     4413.26493033    0.00000000
                                      P - F
                                                     2       12.0010000    **************    0.00000000
                                                     2       11.4652444    21551.07876111    0.00000000
                                                     2       16.2385223     3703.78784703    0.00000000
                                                     2       18.4386111    -1424.18632323    0.00000000
                                                     2        8.8887794    -1964.93568469    0.00000000
                                                     2        7.5264478      317.50498882    0.00000000
                                      D - F
                                                     2       11.1066837    -5435.29666496    0.00000000
                                                     2        8.4980111     7350.69608766    0.00000000
                                                     2       12.2806553     2443.80334995    0.00000000
                                                     2        8.1885354    -5401.76770998    0.00000000
                                                     2       14.3430684     3881.23075486    0.00000000
                                                     2       15.2478418    -2855.87137953    0.00000000
    2          8            6
                                      P and up 
                                                     1       12.3099700        6.00000000    0.00000000
                                                     3       14.7696200       73.85984000    0.00000000
                                                     2       13.7141900      -47.87600000    0.00000000
                                      S - P
                                                     2       13.6551200       85.86406000    0.00000000
 ======================================================================================================
 Ernie: Thresh=  0.10000D-02 Tol=  0.10000D-05 Strict=F.
 There are   213 symmetry adapted cartesian basis functions of A1  symmetry.
 There are    56 symmetry adapted cartesian basis functions of A2  symmetry.
 There are   114 symmetry adapted cartesian basis functions of B1  symmetry.
 There are   114 symmetry adapted cartesian basis functions of B2  symmetry.
 There are   157 symmetry adapted basis functions of A1  symmetry.
 There are    47 symmetry adapted basis functions of A2  symmetry.
 There are    90 symmetry adapted basis functions of B1  symmetry.
 There are    90 symmetry adapted basis functions of B2  symmetry.
   384 basis functions,   497 primitive gaussians,   497 cartesian basis functions
    12 alpha electrons        8 beta electrons
       nuclear repulsion energy        26.1475798337 Hartrees.
 IExCor=    0 DFT=F Ex=HF Corr=None ExCW=0 ScaHFX=  1.000000
 ScaDFX=  1.000000  1.000000  1.000000  1.000000 ScalE2=  1.000000  1.000000
 IRadAn=      5 IRanWt=     -1 IRanGd=            0 ICorTp=0 IEmpDi=  4
 NAtoms=    2 NActive=    2 NUniq=    2 SFac= 1.00D+00 NAtFMM=   60 NAOKFM=F Big=F
 Integral buffers will be    131072 words long.
 Raffenetti 2 integral format.
 Two-electron integral symmetry is turned on.
 Leave Link  301 at Tue Mar 13 06:33:53 2018, MaxMem= 10737418240 cpu:               5.0 elap:               0.3
 (Enter /home1/apps/gaussian/16rA.03/g16/l302.exe)
 NPDir=0 NMtPBC=     1 NCelOv=     1 NCel=       1 NClECP=     1 NCelD=      1
         NCelK=      1 NCelE2=     1 NClLst=     1 CellRange=     0.0.
 One-electron integrals computed using PRISM.
 One-electron integral symmetry used in STVInt
   4 Symmetry operations used in ECPInt.
 ECPInt:  NShTT=    6105 NPrTT=    6105 LenC2=    5563 LenP2D=    5562.
 LDataN:  DoStor=T MaxTD1=10 Len=  848
 NBasis=   384 RedAO= T EigKep=  1.40D-06  NBF=   157    47    90    90
 NBsUse=   380 1.00D-06 EigRej=  3.59D-07 NBFU=   155    47    89    89
 Leave Link  302 at Tue Mar 13 06:33:56 2018, MaxMem= 10737418240 cpu:              50.6 elap:               3.2
 (Enter /home1/apps/gaussian/16rA.03/g16/l303.exe)
 DipDrv:  MaxL=1.
 Leave Link  303 at Tue Mar 13 06:33:56 2018, MaxMem= 10737418240 cpu:               1.9 elap:               0.2
 (Enter /home1/apps/gaussian/16rA.03/g16/l401.exe)
 Initial guess from the checkpoint file:  "CrO.chk"
 B after Tr=     0.000000    0.000000    0.000000
         Rot=    1.000000    0.000000    0.000000    0.000000 Ang=   0.00 deg.
 Guess basis will be translated and rotated to current coordinates.
 JPrj=2 DoOrth=T DoCkMO=T.
 Initial guess orbital symmetries:
       Occupied  (SG) (SG) (PI) (PI) (SG) (SG) (?A) (?A) (?B) (?B)
                 (?B) (?A)
       Virtual   (?B) (?A) (?A) (SG) (SG) (?A) (?A) (?C) (?C) (?C)
                 (?A) (?A) (SG) (SG) (?A) (?A) (?A) (?B) (?B) (?B)
                 (?B) (?A) (?A) (?A) (?A) (SG) (SG) (DLTA) (DLTA)
                 (PHI) (PHI) (?A) (SG) (?A) (?A) (?A) (SG) (?D)
                 (?D) (?D) (?A) (?A) (?D) (?D) (?A) (?A) (SG) (SG)
                 (PI) (PI) (SG) (DLTA) (DLTA) (?E) (?E) (?E) (?E)
                 (SG) (SG) (PHI) (PHI) (?F) (?F) (?G) (?G) (?F)
                 (?H) (?H) (?G) (?G) (DLTA) (DLTA) (PHI) (PHI)
                 (?B) (PI) (PI) (?B) (?B) (?B) (?I) (?I) (PI) (PI)
                 (?I) (PI) (PI) (SG) (PI) (PI) (SG) (PHI) (PHI)
                 (?J) (?J) (?J) (PI) (PI) (SG) (SG) (PI) (PI) (PHI)
                 (PHI) (?K) (?K) (?K) (?H) (?H) (?E) (?E) (?E)
                 (?E) (?L) (?L) (?L) (PI) (PI) (?L) (?L) (?L) (?L)
                 (?L) (PI) (PI) (PI) (PI) (SG) (SG) (?E) (?E) (?L)
                 (?L) (?E) (?E) (?L) (PI) (PI) (SG) (PI) (PI) (SG)
                 (SG) (SG) (DLTA) (DLTA) (PI) (PI) (SG) (?E) (?L)
                 (?L) (?E) (?L) (?L) (?E) (?E) (?L) (PI) (PI) (SG)
                 (SG) (DLTA) (DLTA) (PI) (PI) (SG) (SG) (DLTA)
                 (DLTA) (PI) (PI) (SG) (PI) (PI) (SG) (SG) (PI)
                 (PI) (SG) (SG) (DLTA) (DLTA) (PI) (PI) (SG) (PI)
                 (PI) (SG) (SG) (PI) (PI) (SG) (SG) (PI) (PI) (SG)
                 (SG) (SG) (PI) (PI) (SG) (DLTA) (DLTA) (PI) (PI)
                 (SG) (PI) (PI) (SG) (SG) (SG) (PI) (PI) (SG) (SG)
                 (SG) (PI) (PI) (SG) (SG) (SG) (PI) (PI) (SG) (SG)
                 (SG) (PI) (PI) (SG) (SG) (SG) (PI) (PI) (SG) (SG)
                 (SG) (SG) (SG) (SG) (DLTA) (SG) (SG) (DLTA) (SG)
                 (SG) (SG) (SG) (SG) (DLTA) (SG) (DLTA) (SG) (SG)
                 (DLTA) (SG) (DLTA) (SG) (?H) (SG) (SG) (DLTA)
                 (SG) (DLTA) (SG) (DLTA) (SG) (?H) (DLTA) (?H)
                 (SG) (SG) (DLTA) (DLTA) (SG) (DLTA) (DLTA) (SG)
                 (SG) (DLTA) (SG) (SG) (?H) (?H) (?H) (DLTA) (DLTA)
                 (DLTA) (DLTA) (DLTA) (DLTA) (?H) (DLTA) (DLTA)
                 (DLTA) (?H) (DLTA) (?H) (DLTA) (DLTA) (DLTA) (DLTA)
                 (DLTA) (?H) (?H) (?H) (PI) (PI) (PI) (PI) (PI)
                 (PI) (PI) (PHI) (PI) (PHI) (PI) (PI) (PI) (PHI)
                 (PI) (PHI) (PI) (?L) (PI) (PI) (PHI) (PI) (PHI)
                 (PI) (PHI) (PI) (PI) (PHI) (?L) (PHI) (?L) (PI)
                 (PI) (PI) (PI) (PI) (PI) (PI) (PHI) (PI) (PHI)
                 (PI) (PI) (PI) (PHI) (PI) (PHI) (PI) (?L) (PI)
                 (PI) (PHI) (PI) (PHI) (PI) (PHI) (PI) (PI) (PHI)
                 (?L) (PHI) (?L)
 Leave Link  401 at Tue Mar 13 06:33:57 2018, MaxMem= 10737418240 cpu:              12.2 elap:               0.9
 (Enter /home1/apps/gaussian/16rA.03/g16/l502.exe)
 Keep R1 and R2 ints in memory in symmetry-blocked form, NReq=3425113631.
 FoFCou: FMM=F IPFlag=           8 FMFlag=           0 FMFlg1=           0
         NFxFlg=           0 DoJE=F BraDBF=F KetDBF=F FulRan=T
         wScrn=  0.000000 ICntrl=       600 IOpCl=  0 I1Cent=           0 NGrid=           0
         NMat0=    1 NMatS0=  73920 NMatT0=    0 NMatD0=    1 NMtDS0=    0 NMtDT0=    0
 Petite list used in FoFCou.
 Restricted open shell SCF:
 Using DIIS extrapolation, IDIIS=  1040.
 NGot= 10737418240 LenX=  9351093905 LenY=  9350846399
 Requested convergence on RMS density matrix=1.00D-08 within 300 cycles.
 Requested convergence on MAX density matrix=1.00D-06.
 Requested convergence on             energy=1.00D-06.
 No special actions if energy rises.

 Cycle   1  Pass 1  IDiag  1:
 E= -101.870151658718    
 DIIS: error= 4.37D+00 at cycle   1 NSaved=   1.
 NSaved= 1 IEnMin= 1 EnMin= -101.870151658718     IErMin= 1 ErrMin= 4.37D+00
 ErrMax= 4.37D+00  0.00D+00 EMaxC= 1.00D-01 BMatC= 3.38D+03 BMatP= 3.38D+03
 IDIUse=3 WtCom= 0.00D+00 WtEn= 1.00D+00
 Coeff-Com:  0.100D+01
 Coeff-En:   0.100D+01
 Coeff:      0.100D+01
 Gap=     0.034 Goal=   None    Shift=    0.000
 GapD=    0.034 DampG=0.250 DampE=0.125 DampFc=0.1250 IDamp=-1.
 Damping current iteration by 1.25D-01
 RMSDP=8.34D-03 MaxDP=9.11D-01              OVMax= 7.83D-03

 Cycle   2  Pass 1  IDiag  1:
 E= -101.870891438122     Delta-E=       -0.000739779404 Rises=F Damp=T
 DIIS: error= 3.82D+00 at cycle   2 NSaved=   2.
 NSaved= 2 IEnMin= 2 EnMin= -101.870891438122     IErMin= 2 ErrMin= 3.82D+00
 ErrMax= 3.82D+00  0.00D+00 EMaxC= 1.00D-01 BMatC= 2.59D+03 BMatP= 3.38D+03
 IDIUse=3 WtCom= 0.00D+00 WtEn= 1.00D+00
 Coeff-Com: -0.700D+01 0.800D+01
 Coeff-En:   0.000D+00 0.100D+01
 Coeff:      0.000D+00 0.100D+01
 Gap=     0.034 Goal=   None    Shift=    0.000
 RMSDP=7.30D-03 MaxDP=7.97D-01 DE=-7.40D-04 OVMax= 1.34D-02

 Cycle   3  Pass 1  IDiag  1:
 E= -101.876027612412     Delta-E=       -0.005136174290 Rises=F Damp=F
 DIIS: error= 8.42D-04 at cycle   3 NSaved=   3.
 NSaved= 3 IEnMin= 3 EnMin= -101.876027612412     IErMin= 3 ErrMin= 8.42D-04
 ErrMax= 8.42D-04  0.00D+00 EMaxC= 1.00D-01 BMatC= 6.76D-05 BMatP= 2.59D+03
 IDIUse=3 WtCom= 9.92D-01 WtEn= 8.42D-03
 Coeff-Com: -0.121D+01 0.138D+01 0.827D+00
 Coeff-En:   0.000D+00 0.000D+00 0.100D+01
 Coeff:     -0.120D+01 0.137D+01 0.829D+00
 Gap=     0.034 Goal=   None    Shift=    0.000
 RMSDP=3.44D-04 MaxDP=2.66D-02 DE=-5.14D-03 OVMax= 1.58D-02

 Cycle   4  Pass 1  IDiag  1:
 E= -101.876062999200     Delta-E=       -0.000035386789 Rises=F Damp=F
 DIIS: error= 7.79D-04 at cycle   4 NSaved=   4.
 NSaved= 4 IEnMin= 4 EnMin= -101.876062999200     IErMin= 4 ErrMin= 7.79D-04
 ErrMax= 7.79D-04  0.00D+00 EMaxC= 1.00D-01 BMatC= 4.85D-05 BMatP= 6.76D-05
 IDIUse=3 WtCom= 9.92D-01 WtEn= 7.79D-03
 Coeff-Com: -0.872D+00 0.997D+00 0.505D+00 0.371D+00
 Coeff-En:   0.000D+00 0.000D+00 0.452D+00 0.548D+00
 Coeff:     -0.865D+00 0.989D+00 0.504D+00 0.372D+00
 Gap=     0.034 Goal=   None    Shift=    0.000
 RMSDP=1.12D-04 MaxDP=8.53D-03 DE=-3.54D-05 OVMax= 1.40D-02

 Cycle   5  Pass 1  IDiag  1:
 E= -101.876099675304     Delta-E=       -0.000036676104 Rises=F Damp=F
 DIIS: error= 4.57D-04 at cycle   5 NSaved=   5.
 NSaved= 5 IEnMin= 5 EnMin= -101.876099675304     IErMin= 5 ErrMin= 4.57D-04
 ErrMax= 4.57D-04  0.00D+00 EMaxC= 1.00D-01 BMatC= 2.35D-05 BMatP= 4.85D-05
 IDIUse=3 WtCom= 9.95D-01 WtEn= 4.57D-03
 EnCoef did    32 forward-backward iterations
 Coeff-Com: -0.749D+00 0.855D+00 0.112D+00 0.228D+00 0.553D+00
 Coeff-En:   0.000D+00 0.000D+00 0.193D+00 0.460D+00 0.347D+00
 Coeff:     -0.745D+00 0.852D+00 0.112D+00 0.229D+00 0.552D+00
 Gap=     0.034 Goal=   None    Shift=    0.000
 RMSDP=9.99D-05 MaxDP=8.17D-03 DE=-3.67D-05 OVMax= 1.41D-02

 Cycle   6  Pass 1  IDiag  1:
 E= -101.876090916494     Delta-E=        0.000008758810 Rises=F Damp=F
 DIIS: error= 4.53D-04 at cycle   6 NSaved=   6.
 NSaved= 6 IEnMin= 5 EnMin= -101.876099675304     IErMin= 6 ErrMin= 4.53D-04
 ErrMax= 4.53D-04  0.00D+00 EMaxC= 1.00D-01 BMatC= 2.44D-05 BMatP= 2.35D-05
 IDIUse=3 WtCom= 9.95D-01 WtEn= 4.53D-03
 EnCoef did    57 forward-backward iterations
 Coeff-Com: -0.698D+00 0.798D+00-0.414D-01 0.117D+00 0.555D+00 0.269D+00
 Coeff-En:   0.000D+00 0.000D+00 0.539D-01 0.382D+00 0.438D+00 0.126D+00
 Coeff:     -0.695D+00 0.794D+00-0.409D-01 0.118D+00 0.555D+00 0.269D+00
 Gap=     0.034 Goal=   None    Shift=    0.000
 RMSDP=4.62D-05 MaxDP=6.45D-03 DE= 8.76D-06 OVMax= 1.16D-02

 Cycle   7  Pass 1  IDiag  1:
 E= -101.876118340865     Delta-E=       -0.000027424371 Rises=F Damp=F
 DIIS: error= 3.60D-04 at cycle   7 NSaved=   7.
 NSaved= 7 IEnMin= 7 EnMin= -101.876118340865     IErMin= 7 ErrMin= 3.60D-04
 ErrMax= 3.60D-04  0.00D+00 EMaxC= 1.00D-01 BMatC= 1.30D-05 BMatP= 2.35D-05
 IDIUse=3 WtCom= 9.96D-01 WtEn= 3.60D-03
 Rare condition: small coef for last iteration: -0.444D-15
 Coeff-Com: -0.648D+00 0.741D+00-0.927D-01 0.324D-01 0.361D+00 0.271D+00
 Coeff-Com:  0.336D+00
 Coeff-En:   0.000D+00 0.000D+00 0.558D-01 0.238D+00 0.641D-01 0.207D+00
 Coeff-En:   0.435D+00
 Coeff:     -0.648D+00 0.741D+00-0.927D-01 0.324D-01 0.361D+00 0.271D+00
 Coeff:      0.336D+00
 Gap=     0.034 Goal=   None    Shift=    0.000
 RMSDP=2.99D-05 MaxDP=3.57D-03 DE=-2.74D-05 OVMax= 3.89D-03

 Cycle   8  Pass 1  IDiag  1:
 E= -101.876124564534     Delta-E=       -0.000006223669 Rises=F Damp=F
 DIIS: error= 3.31D-04 at cycle   8 NSaved=   8.
 NSaved= 8 IEnMin= 8 EnMin= -101.876124564534     IErMin= 8 ErrMin= 3.31D-04
 ErrMax= 3.31D-04  0.00D+00 EMaxC= 1.00D-01 BMatC= 9.63D-06 BMatP= 1.30D-05
 IDIUse=3 WtCom= 9.97D-01 WtEn= 3.31D-03
 EnCoef did   100 forward-backward iterations
 Rare condition: small coef for last iteration:  0.000D+00
 Coeff-Com: -0.588D+00 0.672D+00-0.101D+00-0.282D-01 0.139D+00 0.195D+00
 Coeff-Com:  0.328D+00 0.384D+00
 Coeff-En:   0.000D+00 0.000D+00 0.687D-01 0.215D+00 0.000D+00 0.144D+00
 Coeff-En:   0.135D+00 0.437D+00
 Coeff:     -0.588D+00 0.672D+00-0.101D+00-0.282D-01 0.139D+00 0.195D+00
 Coeff:      0.328D+00 0.384D+00
 Gap=     0.034 Goal=   None    Shift=    0.000
 RMSDP=2.31D-05 MaxDP=2.53D-03 DE=-6.22D-06 OVMax= 1.96D-03

 Cycle   9  Pass 1  IDiag  1:
 E= -101.876128176096     Delta-E=       -0.000003611562 Rises=F Damp=F
 DIIS: error= 2.94D-04 at cycle   9 NSaved=   9.
 NSaved= 9 IEnMin= 9 EnMin= -101.876128176096     IErMin= 9 ErrMin= 2.94D-04
 ErrMax= 2.94D-04  0.00D+00 EMaxC= 1.00D-01 BMatC= 7.38D-06 BMatP= 9.63D-06
 IDIUse=3 WtCom= 9.97D-01 WtEn= 2.94D-03
 EnCoef did   100 forward-backward iterations
 Coeff-Com: -0.513D+00 0.586D+00-0.864D-01-0.596D-01-0.266D-01 0.103D+00
 Coeff-Com:  0.184D+00 0.331D+00 0.481D+00
 Coeff-En:   0.000D+00 0.000D+00 0.635D-01 0.382D+00 0.418D+00 0.119D+00
 Coeff-En:   0.000D+00 0.000D+00 0.172D-01
 Coeff:     -0.511D+00 0.584D+00-0.860D-01-0.583D-01-0.253D-01 0.104D+00
 Coeff:      0.183D+00 0.330D+00 0.480D+00
 Gap=     0.034 Goal=   None    Shift=    0.000
 RMSDP=1.62D-05 MaxDP=1.53D-03 DE=-3.61D-06 OVMax= 7.76D-04

 Cycle  10  Pass 1  IDiag  1:
 E= -101.876130798649     Delta-E=       -0.000002622553 Rises=F Damp=F
 DIIS: error= 2.43D-04 at cycle  10 NSaved=  10.
 NSaved=10 IEnMin=10 EnMin= -101.876130798649     IErMin=10 ErrMin= 2.43D-04
 ErrMax= 2.43D-04  0.00D+00 EMaxC= 1.00D-01 BMatC= 5.37D-06 BMatP= 7.38D-06
 IDIUse=3 WtCom= 9.98D-01 WtEn= 2.43D-03
 EnCoef did   100 forward-backward iterations
 Rare condition: small coef for last iteration: -0.345D-15
 Coeff-Com: -0.415D+00 0.474D+00-0.639D-01-0.719D-01-0.132D+00 0.134D-01
 Coeff-Com:  0.360D-01 0.171D+00 0.475D+00 0.513D+00
 Coeff-En:   0.000D+00 0.000D+00 0.757D-01 0.177D+00 0.000D+00 0.827D-01
 Coeff-En:   0.000D+00 0.000D+00 0.000D+00 0.665D+00
 Coeff:     -0.415D+00 0.474D+00-0.639D-01-0.719D-01-0.132D+00 0.134D-01
 Coeff:      0.360D-01 0.171D+00 0.475D+00 0.513D+00
 Gap=     0.034 Goal=   None    Shift=    0.000
 RMSDP=1.91D-05 MaxDP=1.90D-03 DE=-2.62D-06 OVMax= 5.55D-04

 Cycle  11  Pass 1  IDiag  1:
 E= -101.876133115084     Delta-E=       -0.000002316435 Rises=F Damp=F
 DIIS: error= 1.98D-04 at cycle  11 NSaved=  11.
 NSaved=11 IEnMin=11 EnMin= -101.876133115084     IErMin=11 ErrMin= 1.98D-04
 ErrMax= 1.98D-04  0.00D+00 EMaxC= 1.00D-01 BMatC= 3.54D-06 BMatP= 5.37D-06
 IDIUse=3 WtCom= 9.98D-01 WtEn= 1.98D-03
 EnCoef did   100 forward-backward iterations
 Coeff-Com: -0.350D+00 0.400D+00-0.506D-01-0.697D-01-0.154D+00-0.245D-01
 Coeff-Com: -0.196D-01 0.899D-01 0.373D+00 0.476D+00 0.329D+00
 Coeff-En:   0.000D+00 0.000D+00 0.709D-01 0.381D+00 0.404D+00 0.112D+00
 Coeff-En:   0.000D+00 0.000D+00 0.000D+00 0.000D+00 0.324D-01
 Coeff:     -0.349D+00 0.399D+00-0.503D-01-0.689D-01-0.153D+00-0.243D-01
 Coeff:     -0.195D-01 0.897D-01 0.372D+00 0.475D+00 0.329D+00
 Gap=     0.034 Goal=   None    Shift=    0.000
 RMSDP=1.25D-05 MaxDP=1.24D-03 DE=-2.32D-06 OVMax= 3.85D-04

 Cycle  12  Pass 1  IDiag  1:
 E= -101.876134445119     Delta-E=       -0.000001330034 Rises=F Damp=F
 DIIS: error= 1.68D-04 at cycle  12 NSaved=  12.
 NSaved=12 IEnMin=12 EnMin= -101.876134445119     IErMin=12 ErrMin= 1.68D-04
 ErrMax= 1.68D-04  0.00D+00 EMaxC= 1.00D-01 BMatC= 2.50D-06 BMatP= 3.54D-06
 IDIUse=3 WtCom= 9.98D-01 WtEn= 1.68D-03
 EnCoef did   100 forward-backward iterations
 Rare condition: small coef for last iteration:  0.177D-15
 Coeff-Com: -0.320D+00 0.366D+00-0.468D-01-0.595D-01-0.119D+00-0.162D-01
 Coeff-Com:  0.500D-03 0.931D-01 0.279D+00 0.254D+00 0.126D+00 0.443D+00
 Coeff-En:   0.000D+00 0.000D+00 0.833D-01 0.138D+00 0.519D-02 0.704D-01
 Coeff-En:   0.000D+00 0.000D+00 0.000D+00 0.000D+00 0.000D+00 0.703D+00
 Coeff:     -0.320D+00 0.366D+00-0.468D-01-0.595D-01-0.119D+00-0.162D-01
 Coeff:      0.500D-03 0.931D-01 0.279D+00 0.254D+00 0.126D+00 0.443D+00
 Gap=     0.034 Goal=   None    Shift=    0.000
 RMSDP=4.79D-06 MaxDP=4.39D-04 DE=-1.33D-06 OVMax= 1.26D-04

 Cycle  13  Pass 1  IDiag  1:
 E= -101.876134912568     Delta-E=       -0.000000467449 Rises=F Damp=F
 DIIS: error= 1.54D-04 at cycle  13 NSaved=  13.
 NSaved=13 IEnMin=13 EnMin= -101.876134912568     IErMin=13 ErrMin= 1.54D-04
 ErrMax= 1.54D-04  0.00D+00 EMaxC= 1.00D-01 BMatC= 2.11D-06 BMatP= 2.50D-06
 IDIUse=3 WtCom= 9.98D-01 WtEn= 1.54D-03
 EnCoef did   100 forward-backward iterations
 Coeff-Com: -0.254D+00 0.291D+00-0.396D-01-0.338D-01-0.279D-01 0.144D-01
 Coeff-Com:  0.587D-01 0.119D+00 0.992D-01-0.202D+00-0.472D+00 0.484D+00
 Coeff-Com:  0.964D+00
 Coeff-En:   0.000D+00 0.000D+00 0.555D-01 0.382D+00 0.434D+00 0.124D+00
 Coeff-En:   0.000D+00 0.000D+00 0.000D+00 0.000D+00 0.000D+00 0.000D+00
 Coeff-En:   0.448D-02
 Coeff:     -0.254D+00 0.290D+00-0.395D-01-0.332D-01-0.271D-01 0.145D-01
 Coeff:      0.587D-01 0.118D+00 0.991D-01-0.202D+00-0.471D+00 0.483D+00
 Coeff:      0.963D+00
 Gap=     0.034 Goal=   None    Shift=    0.000
 RMSDP=1.30D-05 MaxDP=1.25D-03 DE=-4.67D-07 OVMax= 3.29D-04

 Cycle  14  Pass 1  IDiag  1:
 E= -101.876135909530     Delta-E=       -0.000000996962 Rises=F Damp=F
 DIIS: error= 1.21D-04 at cycle  14 NSaved=  14.
 NSaved=14 IEnMin=14 EnMin= -101.876135909530     IErMin=14 ErrMin= 1.21D-04
 ErrMax= 1.21D-04  0.00D+00 EMaxC= 1.00D-01 BMatC= 1.33D-06 BMatP= 2.11D-06
 IDIUse=3 WtCom= 9.99D-01 WtEn= 1.21D-03
 EnCoef did   100 forward-backward iterations
 Rare condition: small coef for last iteration: -0.127D-14
 Coeff-Com: -0.198D+00 0.226D+00-0.336D-01-0.147D-01 0.351D-01 0.410D-01
 Coeff-Com:  0.997D-01 0.140D+00 0.951D-02-0.369D+00-0.802D+00-0.237D+00
 Coeff-Com:  0.146D+01 0.639D+00
 Coeff-En:   0.000D+00 0.000D+00 0.856D-01 0.126D+00 0.262D-01 0.758D-01
 Coeff-En:   0.000D+00 0.000D+00 0.000D+00 0.000D+00 0.000D+00 0.000D+00
 Coeff-En:   0.000D+00 0.686D+00
 Coeff:     -0.198D+00 0.226D+00-0.336D-01-0.147D-01 0.351D-01 0.410D-01
 Coeff:      0.997D-01 0.140D+00 0.951D-02-0.369D+00-0.802D+00-0.237D+00
 Coeff:      0.146D+01 0.639D+00
 Gap=     0.034 Goal=   None    Shift=    0.000
 RMSDP=1.08D-05 MaxDP=1.07D-03 DE=-9.97D-07 OVMax= 3.50D-04

 Cycle  15  Pass 1  IDiag  1:
 E= -101.876136584414     Delta-E=       -0.000000674884 Rises=F Damp=F
 DIIS: error= 9.60D-05 at cycle  15 NSaved=  15.
 NSaved=15 IEnMin=15 EnMin= -101.876136584414     IErMin=15 ErrMin= 9.60D-05
 ErrMax= 9.60D-05  0.00D+00 EMaxC= 1.00D-01 BMatC= 8.07D-07 BMatP= 1.33D-06
 IDIUse=1 WtCom= 1.00D+00 WtEn= 0.00D+00
 Coeff-Com: -0.127D+00 0.145D+00-0.228D-01-0.836D-02 0.287D-01 0.339D-01
 Coeff-Com:  0.734D-01 0.109D+00 0.276D-01-0.884D-01-0.548D+00-0.129D+01
 Coeff-Com:  0.102D+01 0.804D+00 0.851D+00
 Coeff:     -0.127D+00 0.145D+00-0.228D-01-0.836D-02 0.287D-01 0.339D-01
 Coeff:      0.734D-01 0.109D+00 0.276D-01-0.884D-01-0.548D+00-0.129D+01
 Coeff:      0.102D+01 0.804D+00 0.851D+00
 Gap=     0.034 Goal=   None    Shift=    0.000
 RMSDP=1.25D-05 MaxDP=1.17D-03 DE=-6.75D-07 OVMax= 3.88D-04

 Cycle  16  Pass 1  IDiag  1:
 E= -101.876137189025     Delta-E=       -0.000000604610 Rises=F Damp=F
 DIIS: error= 6.13D-05 at cycle  16 NSaved=  16.
 NSaved=16 IEnMin=16 EnMin= -101.876137189025     IErMin=16 ErrMin= 6.13D-05
 ErrMax= 6.13D-05  0.00D+00 EMaxC= 1.00D-01 BMatC= 3.32D-07 BMatP= 8.07D-07
 IDIUse=1 WtCom= 1.00D+00 WtEn= 0.00D+00
 Coeff-Com: -0.614D-01 0.702D-01-0.107D-01-0.863D-02-0.700D-02 0.784D-02
 Coeff-Com:  0.198D-01 0.486D-01 0.573D-01 0.213D+00-0.813D-01-0.137D+01
 Coeff-Com:  0.215D+00 0.352D+00 0.732D+00 0.826D+00
 Coeff:     -0.614D-01 0.702D-01-0.107D-01-0.863D-02-0.700D-02 0.784D-02
 Coeff:      0.198D-01 0.486D-01 0.573D-01 0.213D+00-0.813D-01-0.137D+01
 Coeff:      0.215D+00 0.352D+00 0.732D+00 0.826D+00
 Gap=     0.034 Goal=   None    Shift=    0.000
 RMSDP=1.29D-05 MaxDP=1.22D-03 DE=-6.05D-07 OVMax= 3.45D-04

 Cycle  17  Pass 1  IDiag  1:
 E= -101.876137512340     Delta-E=       -0.000000323316 Rises=F Damp=F
 DIIS: error= 2.94D-05 at cycle  17 NSaved=  17.
 NSaved=17 IEnMin=17 EnMin= -101.876137512340     IErMin=17 ErrMin= 2.94D-05
 ErrMax= 2.94D-05  0.00D+00 EMaxC= 1.00D-01 BMatC= 7.78D-08 BMatP= 3.32D-07
 IDIUse=1 WtCom= 1.00D+00 WtEn= 0.00D+00
 Coeff-Com: -0.329D-01 0.376D-01-0.502D-02-0.811D-02-0.212D-01-0.379D-02
 Coeff-Com: -0.491D-02 0.138D-01 0.634D-01 0.227D+00 0.115D+00-0.695D+00
 Coeff-Com: -0.170D+00 0.415D-02 0.245D+00 0.525D+00 0.711D+00
 Coeff:     -0.329D-01 0.376D-01-0.502D-02-0.811D-02-0.212D-01-0.379D-02
 Coeff:     -0.491D-02 0.138D-01 0.634D-01 0.227D+00 0.115D+00-0.695D+00
 Coeff:     -0.170D+00 0.415D-02 0.245D+00 0.525D+00 0.711D+00
 Gap=     0.034 Goal=   None    Shift=    0.000
 RMSDP=5.30D-06 MaxDP=5.05D-04 DE=-3.23D-07 OVMax= 1.57D-04

 Cycle  18  Pass 1  IDiag  1:
 E= -101.876137584156     Delta-E=       -0.000000071816 Rises=F Damp=F
 DIIS: error= 1.60D-05 at cycle  18 NSaved=  18.
 NSaved=18 IEnMin=18 EnMin= -101.876137584156     IErMin=18 ErrMin= 1.60D-05
 ErrMax= 1.60D-05  0.00D+00 EMaxC= 1.00D-01 BMatC= 2.22D-08 BMatP= 7.78D-08
 IDIUse=1 WtCom= 1.00D+00 WtEn= 0.00D+00
 Coeff-Com: -0.156D-01 0.179D-01-0.214D-02-0.457D-02-0.139D-01-0.409D-02
 Coeff-Com: -0.613D-02 0.237D-02 0.372D-01 0.109D+00 0.743D-01-0.217D+00
 Coeff-Com: -0.139D+00-0.541D-01-0.178D-03 0.116D+00 0.563D+00 0.537D+00
 Coeff:     -0.156D-01 0.179D-01-0.214D-02-0.457D-02-0.139D-01-0.409D-02
 Coeff:     -0.613D-02 0.237D-02 0.372D-01 0.109D+00 0.743D-01-0.217D+00
 Coeff:     -0.139D+00-0.541D-01-0.178D-03 0.116D+00 0.563D+00 0.537D+00
 Gap=     0.034 Goal=   None    Shift=    0.000
 RMSDP=3.04D-06 MaxDP=2.87D-04 DE=-7.18D-08 OVMax= 9.80D-05

 Cycle  19  Pass 1  IDiag  1:
 E= -101.876137606014     Delta-E=       -0.000000021859 Rises=F Damp=F
 DIIS: error= 7.48D-06 at cycle  19 NSaved=  19.
 NSaved=19 IEnMin=19 EnMin= -101.876137606014     IErMin=19 ErrMin= 7.48D-06
 ErrMax= 7.48D-06  0.00D+00 EMaxC= 1.00D-01 BMatC= 5.05D-09 BMatP= 2.22D-08
 IDIUse=1 WtCom= 1.00D+00 WtEn= 0.00D+00
 Coeff-Com: -0.233D-02 0.266D-02-0.241D-03-0.476D-03-0.145D-02-0.863D-03
 Coeff-Com: -0.833D-03-0.142D-02 0.530D-02-0.177D-01-0.717D-02 0.124D+00
 Coeff-Com: -0.226D-01-0.332D-01-0.117D+00-0.183D+00 0.161D+00 0.442D+00
 Coeff-Com:  0.654D+00
 Coeff:     -0.233D-02 0.266D-02-0.241D-03-0.476D-03-0.145D-02-0.863D-03
 Coeff:     -0.833D-03-0.142D-02 0.530D-02-0.177D-01-0.717D-02 0.124D+00
 Coeff:     -0.226D-01-0.332D-01-0.117D+00-0.183D+00 0.161D+00 0.442D+00
 Coeff:      0.654D+00
 Gap=     0.034 Goal=   None    Shift=    0.000
 RMSDP=2.48D-06 MaxDP=2.39D-04 DE=-2.19D-08 OVMax= 6.84D-05

 Cycle  20  Pass 1  IDiag  1:
 E= -101.876137612304     Delta-E=       -0.000000006289 Rises=F Damp=F
 DIIS: error= 1.13D-06 at cycle  20 NSaved=  20.
 NSaved=20 IEnMin=20 EnMin= -101.876137612304     IErMin=20 ErrMin= 1.13D-06
 ErrMax= 1.13D-06  0.00D+00 EMaxC= 1.00D-01 BMatC= 1.31D-10 BMatP= 5.05D-09
 IDIUse=1 WtCom= 1.00D+00 WtEn= 0.00D+00
 Coeff-Com: -0.271D-02 0.310D-02-0.520D-03 0.619D-03 0.413D-02 0.226D-02
 Coeff-Com:  0.409D-02 0.262D-02-0.631D-02-0.552D-01-0.439D-01 0.156D+00
 Coeff-Com:  0.577D-01 0.150D-01-0.624D-01-0.159D+00-0.152D+00-0.656D-02
 Coeff-Com:  0.402D+00 0.841D+00
 Coeff:     -0.271D-02 0.310D-02-0.520D-03 0.619D-03 0.413D-02 0.226D-02
 Coeff:      0.409D-02 0.262D-02-0.631D-02-0.552D-01-0.439D-01 0.156D+00
 Coeff:      0.577D-01 0.150D-01-0.624D-01-0.159D+00-0.152D+00-0.656D-02
 Coeff:      0.402D+00 0.841D+00
 Gap=     0.034 Goal=   None    Shift=    0.000
 RMSDP=1.81D-07 MaxDP=1.62D-05 DE=-6.29D-09 OVMax= 6.78D-06

 Cycle  21  Pass 1  IDiag  1:
 E= -101.876137612319     Delta-E=       -0.000000000015 Rises=F Damp=F
 DIIS: error= 1.33D-06 at cycle  21 NSaved=  20.
 NSaved=20 IEnMin=20 EnMin= -101.876137612319     IErMin=19 ErrMin= 1.13D-06
 ErrMax= 1.33D-06  0.00D+00 EMaxC= 1.00D-01 BMatC= 1.60D-10 BMatP= 1.31D-10
 IDIUse=1 WtCom= 1.00D+00 WtEn= 0.00D+00
 Coeff-Com:  0.451D-10-0.734D-04 0.601D-03 0.299D-02 0.121D-02 0.234D-02
 Coeff-Com:  0.140D-02-0.902D-02-0.329D-01-0.275D-01 0.662D-01 0.519D-01
 Coeff-Com:  0.140D-01-0.812D-02-0.460D-01-0.141D+00-0.128D+00 0.512D-01
 Coeff-Com:  0.501D+00 0.700D+00
 Coeff:      0.451D-10-0.734D-04 0.601D-03 0.299D-02 0.121D-02 0.234D-02
 Coeff:      0.140D-02-0.902D-02-0.329D-01-0.275D-01 0.662D-01 0.519D-01
 Coeff:      0.140D-01-0.812D-02-0.460D-01-0.141D+00-0.128D+00 0.512D-01
 Coeff:      0.501D+00 0.700D+00
 Gap=     0.034 Goal=   None    Shift=    0.000
 RMSDP=5.19D-07 MaxDP=4.81D-05 DE=-1.50D-11 OVMax= 1.61D-05

 Cycle  22  Pass 1  IDiag  1:
 E= -101.876137612526     Delta-E=       -0.000000000207 Rises=F Damp=F
 DIIS: error= 2.20D-07 at cycle  22 NSaved=  20.
 NSaved=20 IEnMin=20 EnMin= -101.876137612526     IErMin=20 ErrMin= 2.20D-07
 ErrMax= 2.20D-07  0.00D+00 EMaxC= 1.00D-01 BMatC= 6.14D-12 BMatP= 1.31D-10
 IDIUse=1 WtCom= 1.00D+00 WtEn= 0.00D+00
 Coeff-Com:  0.129D-06-0.139D-03-0.379D-03-0.271D-03-0.270D-03 0.557D-03
 Coeff-Com: -0.351D-02 0.877D-02 0.720D-02-0.341D-01 0.726D-02-0.615D-02
 Coeff-Com:  0.254D-01 0.585D-01-0.219D-01-0.966D-01-0.209D+00-0.115D+00
 Coeff-Com:  0.668D+00 0.712D+00
 Coeff:      0.129D-06-0.139D-03-0.379D-03-0.271D-03-0.270D-03 0.557D-03
 Coeff:     -0.351D-02 0.877D-02 0.720D-02-0.341D-01 0.726D-02-0.615D-02
 Coeff:      0.254D-01 0.585D-01-0.219D-01-0.966D-01-0.209D+00-0.115D+00
 Coeff:      0.668D+00 0.712D+00
 Gap=     0.034 Goal=   None    Shift=    0.000
 RMSDP=1.03D-07 MaxDP=1.50D-05 DE=-2.07D-10 OVMax= 4.34D-06

 Cycle  23  Pass 1  IDiag  1:
 E= -101.876137612542     Delta-E=       -0.000000000016 Rises=F Damp=F
 DIIS: error= 1.31D-07 at cycle  23 NSaved=  20.
 NSaved=20 IEnMin=20 EnMin= -101.876137612542     IErMin=20 ErrMin= 1.31D-07
 ErrMax= 1.31D-07  0.00D+00 EMaxC= 1.00D-01 BMatC= 1.90D-12 BMatP= 6.14D-12
 IDIUse=1 WtCom= 1.00D+00 WtEn= 0.00D+00
 Coeff-Com: -0.207D-03-0.801D-03-0.340D-03-0.588D-03 0.252D-03-0.657D-03
 Coeff-Com:  0.134D-01 0.122D-01-0.340D-01-0.845D-02-0.105D-01 0.164D-01
 Coeff-Com:  0.501D-01 0.177D-01-0.408D-01-0.168D+00-0.218D+00 0.332D+00
 Coeff-Com:  0.544D+00 0.496D+00
 Coeff:     -0.207D-03-0.801D-03-0.340D-03-0.588D-03 0.252D-03-0.657D-03
 Coeff:      0.134D-01 0.122D-01-0.340D-01-0.845D-02-0.105D-01 0.164D-01
 Coeff:      0.501D-01 0.177D-01-0.408D-01-0.168D+00-0.218D+00 0.332D+00
 Coeff:      0.544D+00 0.496D+00
 Gap=     0.034 Goal=   None    Shift=    0.000
 RMSDP=6.84D-08 MaxDP=8.61D-06 DE=-1.56D-11 OVMax= 3.60D-06

 Cycle  24  Pass 1  IDiag  1:
 E= -101.876137612545     Delta-E=       -0.000000000003 Rises=F Damp=F
 DIIS: error= 9.50D-08 at cycle  24 NSaved=  20.
 NSaved=20 IEnMin=20 EnMin= -101.876137612545     IErMin=20 ErrMin= 9.50D-08
 ErrMax= 9.50D-08  0.00D+00 EMaxC= 1.00D-01 BMatC= 6.45D-13 BMatP= 1.90D-12
 IDIUse=1 WtCom= 1.00D+00 WtEn= 0.00D+00
 Coeff-Com: -0.471D-04 0.251D-04-0.988D-04 0.100D-03 0.516D-03 0.216D-02
 Coeff-Com:  0.958D-03-0.707D-02-0.244D-02-0.869D-03 0.621D-03 0.476D-02
 Coeff-Com:  0.203D-01 0.106D-01-0.152D-01-0.809D-01-0.708D-01 0.351D-01
 Coeff-Com:  0.373D+00 0.729D+00
 Coeff:     -0.471D-04 0.251D-04-0.988D-04 0.100D-03 0.516D-03 0.216D-02
 Coeff:      0.958D-03-0.707D-02-0.244D-02-0.869D-03 0.621D-03 0.476D-02
 Coeff:      0.203D-01 0.106D-01-0.152D-01-0.809D-01-0.708D-01 0.351D-01
 Coeff:      0.373D+00 0.729D+00
 Gap=     0.034 Goal=   None    Shift=    0.000
 RMSDP=2.33D-08 MaxDP=2.33D-06 DE=-2.81D-12 OVMax= 2.10D-06

 Cycle  25  Pass 1  IDiag  1:
 E= -101.876137612548     Delta-E=       -0.000000000003 Rises=F Damp=F
 DIIS: error= 4.07D-08 at cycle  25 NSaved=  20.
 NSaved=20 IEnMin=20 EnMin= -101.876137612548     IErMin=20 ErrMin= 4.07D-08
 ErrMax= 4.07D-08  0.00D+00 EMaxC= 1.00D-01 BMatC= 1.57D-13 BMatP= 6.45D-13
 IDIUse=1 WtCom= 1.00D+00 WtEn= 0.00D+00
 Coeff-Com: -0.602D-04-0.106D-03-0.113D-03 0.763D-03 0.759D-05 0.195D-03
 Coeff-Com:  0.237D-02-0.309D-02-0.660D-03-0.409D-02-0.545D-02 0.141D-01
 Coeff-Com:  0.197D-01 0.243D-01-0.213D-01-0.122D+00-0.851D-01 0.151D+00
 Coeff-Com:  0.458D+00 0.572D+00
 Coeff:     -0.602D-04-0.106D-03-0.113D-03 0.763D-03 0.759D-05 0.195D-03
 Coeff:      0.237D-02-0.309D-02-0.660D-03-0.409D-02-0.545D-02 0.141D-01
 Coeff:      0.197D-01 0.243D-01-0.213D-01-0.122D+00-0.851D-01 0.151D+00
 Coeff:      0.458D+00 0.572D+00
 Gap=     0.034 Goal=   None    Shift=    0.000
 RMSDP=1.89D-08 MaxDP=2.05D-06 DE=-3.10D-12 OVMax= 9.07D-07

 Cycle  26  Pass 1  IDiag  1:
 E= -101.876137612548     Delta-E=        0.000000000000 Rises=F Damp=F
 DIIS: error= 3.00D-08 at cycle  26 NSaved=  20.
 NSaved=20 IEnMin=19 EnMin= -101.876137612548     IErMin=20 ErrMin= 3.00D-08
 ErrMax= 3.00D-08  0.00D+00 EMaxC= 1.00D-01 BMatC= 9.81D-14 BMatP= 1.57D-13
 IDIUse=1 WtCom= 1.00D+00 WtEn= 0.00D+00
 Coeff-Com:  0.751D-05-0.911D-04 0.238D-03-0.117D-02-0.453D-03 0.483D-02
 Coeff-Com: -0.801D-03 0.220D-04-0.316D-02-0.623D-02 0.391D-03 0.105D-01
 Coeff-Com:  0.280D-01 0.217D-01-0.667D-01-0.892D-01-0.643D-01 0.313D-02
 Coeff-Com:  0.514D+00 0.649D+00
 Coeff:      0.751D-05-0.911D-04 0.238D-03-0.117D-02-0.453D-03 0.483D-02
 Coeff:     -0.801D-03 0.220D-04-0.316D-02-0.623D-02 0.391D-03 0.105D-01
 Coeff:      0.280D-01 0.217D-01-0.667D-01-0.892D-01-0.643D-01 0.313D-02
 Coeff:      0.514D+00 0.649D+00
 Gap=     0.034 Goal=   None    Shift=    0.000
 RMSDP=1.09D-08 MaxDP=1.36D-06 DE= 0.00D+00 OVMax= 6.13D-07

 Cycle  27  Pass 1  IDiag  1:
 E= -101.876137612547     Delta-E=        0.000000000000 Rises=F Damp=F
 DIIS: error= 1.26D-08 at cycle  27 NSaved=  20.
 NSaved=20 IEnMin=18 EnMin= -101.876137612548     IErMin=20 ErrMin= 1.26D-08
 ErrMax= 1.26D-08  0.00D+00 EMaxC= 1.00D-01 BMatC= 3.29D-14 BMatP= 9.81D-14
 IDIUse=1 WtCom= 1.00D+00 WtEn= 0.00D+00
 Coeff-Com: -0.925D-04 0.166D-03-0.681D-03 0.213D-04 0.365D-02-0.967D-03
 Coeff-Com: -0.112D-03-0.212D-02-0.444D-02-0.203D-02 0.608D-02 0.203D-01
 Coeff-Com:  0.221D-01-0.341D-01-0.540D-01-0.818D-01-0.104D+00 0.182D+00
 Coeff-Com:  0.452D+00 0.599D+00
 Coeff:     -0.925D-04 0.166D-03-0.681D-03 0.213D-04 0.365D-02-0.967D-03
 Coeff:     -0.112D-03-0.212D-02-0.444D-02-0.203D-02 0.608D-02 0.203D-01
 Coeff:      0.221D-01-0.341D-01-0.540D-01-0.818D-01-0.104D+00 0.182D+00
 Coeff:      0.452D+00 0.599D+00
 Gap=     0.034 Goal=   None    Shift=    0.000
 RMSDP=5.07D-09 MaxDP=5.71D-07 DE= 2.56D-13 OVMax= 3.68D-07

 SCF Done:  E(ROHF) =  -101.876137613     A.U. after   27 cycles
            NFock= 27  Conv=0.51D-08     -V/T= 2.8194
 <Sx>= 0.0000 <Sy>= 0.0000 <Sz>= 2.0000 <S**2>= 6.0000 S= 2.0000
 <L.S>=  0.00000000000    
 KE= 5.599360183645D+01 PE=-2.845287202810D+02 EE= 1.005114009983D+02
 Annihilation of the first spin contaminant:
 S**2 before annihilation     6.0000,   after     6.0000
 Leave Link  502 at Tue Mar 13 06:36:26 2018, MaxMem= 10737418240 cpu:            2002.4 elap:             148.3
 (Enter /home1/apps/gaussian/16rA.03/g16/l801.exe)
 Windowed orbitals will be sorted by symmetry type.
 GenMOA:  NOpAll=  4 NOp2=4 NOpUse=  4 JSym2X=1
 FoFJK:  IHMeth= 1 ICntrl=       0 DoSepK=F KAlg= 0 I1Cent=           0 FoldK=F
 IRaf=         0 NMat=       1 IRICut=       1 DoRegI=T DoRafI=F ISym2E= 1 IDoP0=0 IntGTp=1.
 FoFCou: FMM=F IPFlag=           8 FMFlag=      100000 FMFlg1=           0
         NFxFlg=           0 DoJE=F BraDBF=F KetDBF=F FulRan=T
         wScrn=  0.000000 ICntrl=         0 IOpCl=  1 I1Cent=           0 NGrid=           0
         NMat0=    1 NMatS0=      1 NMatT0=    0 NMatD0=    1 NMtDS0=    0 NMtDT0=    0
 Petite list used in FoFCou.
 <Sx>= 0.0000 <Sy>= 0.0000 <Sz>= 2.0000 <S**2>= 6.0000 S= 2.0000
 Range of M.O.s used for correlation:     1   380
 NBasis=   384 NAE=    12 NBE=     8 NFC=     0 NFV=     0
 NROrb=    380 NOA=    12 NOB=     8 NVA=   368 NVB=   372

 **** Warning!!: The largest alpha MO coefficient is  0.31911072D+03


 **** Warning!!: The largest beta MO coefficient is  0.31874013D+03

 Singles contribution to E2=   -0.7510094404D-02
 Leave Link  801 at Tue Mar 13 06:37:00 2018, MaxMem= 10737418240 cpu:             535.1 elap:              33.5
 (Enter /home1/apps/gaussian/16rA.03/g16/l804.exe)
 Open-shell transformation, MDV= 10737418240 ITran=4 ISComp=2.
 Unit  1 TFree=       4464345 TCopy=       3213103.
 Semi-Direct transformation.
 ModeAB=           4 MOrb=            12 LenV=   10733106173
 LASXX=     82082530 LTotXX=    82082530 LenRXX=   165023772
 LTotAB=    82941242 MaxLAS=   556557120 LenRXY=           0
 NonZer=   247106302 LenScr=   372113408 LnRSAI=   556557120
 LnScr1=   838110208 LExtra=    22862196 Total=   1954666704
 MaxDsk= 67108864000 SrtSym=           T ITran=            4
 DoSDTr:  NPSUse= 16
 JobTyp=1 Pass  1:  I=   1 to  12.
 (rs|ai) integrals will be sorted in core.
 Complete sort for first half transformation.
 First half transformation complete.
 Begin second half transformation for I=  10.
 Complete sort for second half transformation.
 Second half transformation complete.
 ModeAB=           4 MOrb=             8 LenV=   10733106173
 LASXX=     55242478 LTotXX=    55242478 LenRXX=   107543238
 LTotAB=    52300760 MaxLAS=   371038080 LenRXY=           0
 NonZer=   162785716 LenScr=   245136384 LnRSAI=   371038080
 LnScr1=   558740480 LExtra=   187885968 Total=   1470344150
 MaxDsk= 67108864000 SrtSym=           T ITran=            4
 DoSDTr:  NPSUse= 16
 JobTyp=2 Pass  1:  I=   1 to   8.
 (rs|ai) integrals will be sorted in core.
 Complete sort for first half transformation.
 First half transformation complete.
 Complete sort for second half transformation.
 Second half transformation complete.
 Spin components of T(2) and E(2):
     alpha-alpha T2 =       0.4426111323D-01 E2=     -0.1757765760D+00
     alpha-beta  T2 =       0.1396705835D+00 E2=     -0.6241144842D+00
     beta-beta   T2 =       0.2608641077D-01 E2=     -0.9159397864D-01
 ANorm=    0.1103911880D+01
 E2 =    -0.8989951332D+00 EUMP2 =    -0.10277513274576D+03
 (S**2,0)=  0.60000D+01           (S**2,1)=  0.60000D+01
 E(PUHF)=      -0.10187613761D+03        E(PMP2)=      -0.10277513275D+03
 Recovering and transforming amplitudes from chk file.
 B after Tr=     0.000000    0.000000    0.000000
         Rot=    1.000000    0.000000    0.000000    0.000000 Ang=   0.00 deg.
 Alpha occ  Sing. vals= 9.999981D-01 9.999980D-01 9.999980D-01 9.999968D-01 9.999925D-01 9.999892D-01 9.999890D-01 9.999890D-01 9.999830D-01 9.999764D-01
 Alpha occ  Sing. vals= 9.999733D-01 9.999599D-01
 Alpha occ  NOrbO=    12 NOrbN=    12 NSVal=    12 ThrEig=  0.900000.
 TrMax= 1.000000D+00 PrMax= 1.000000D+00 Trace(Pr)= 1.200000D+01
 B after Tr=     0.000000    0.000000    0.000000
         Rot=    1.000000    0.000000    0.000000    0.000000 Ang=   0.00 deg.
 Alpha virt Sing. vals= 1.000000D+00 1.000000D+00 1.000000D+00 1.000000D+00 1.000000D+00 1.000000D+00 1.000000D+00 1.000000D+00 1.000000D+00 1.000000D+00
 Alpha virt Sing. vals= 1.000000D+00 1.000000D+00 1.000000D+00 1.000000D+00 1.000000D+00 1.000000D+00 1.000000D+00 1.000000D+00 1.000000D+00 1.000000D+00
 Alpha virt Sing. vals= 1.000000D+00 1.000000D+00 1.000000D+00 1.000000D+00 1.000000D+00 9.999999D-01 9.999999D-01 9.999999D-01 9.999999D-01 9.999999D-01
 Alpha virt Sing. vals= 9.999999D-01 9.999999D-01 9.999999D-01 9.999999D-01 9.999998D-01 9.999998D-01 9.999998D-01 9.999998D-01 9.999997D-01 9.999996D-01
 Alpha virt Sing. vals= 9.999995D-01 9.999994D-01 9.999992D-01 9.999992D-01 9.999992D-01 9.999991D-01 9.999989D-01 9.999989D-01 9.999989D-01 9.999980D-01
 Alpha virt Sing. vals= 9.999978D-01 9.999978D-01 9.999978D-01 9.999977D-01 9.999972D-01 9.999964D-01 9.999956D-01 9.999947D-01 9.999946D-01 9.999940D-01
 Alpha virt Sing. vals= 9.999895D-01 9.999887D-01 9.999873D-01 9.999804D-01 9.999798D-01 9.999752D-01 9.999751D-01 9.999751D-01 9.999749D-01 9.999745D-01
 Alpha virt Sing. vals= 9.999617D-01 9.999617D-01 9.999548D-01 9.999461D-01 9.999369D-01 9.999369D-01 9.999243D-01 9.999221D-01 9.999219D-01 9.999219D-01
 Alpha virt Sing. vals= 9.998829D-01 9.998827D-01 9.998675D-01 9.998664D-01 9.998644D-01 9.998545D-01 9.998541D-01 9.998487D-01 9.998245D-01 9.998245D-01
 Alpha virt Sing. vals= 9.998245D-01 9.998216D-01 9.998030D-01 9.997932D-01 9.997927D-01 9.997926D-01 9.997926D-01 9.997926D-01 9.997723D-01 9.997720D-01
 Alpha virt Sing. vals= 9.997580D-01 9.997580D-01 9.997545D-01 9.997545D-01 9.997474D-01 9.997146D-01 9.997146D-01 9.996525D-01 9.996480D-01 9.996479D-01
 Alpha virt Sing. vals= 9.995847D-01 9.995847D-01 9.995815D-01 9.995533D-01 9.995196D-01 9.995196D-01 9.995134D-01 9.994342D-01 9.994341D-01 9.994151D-01
 Alpha virt Sing. vals= 9.993907D-01 9.993907D-01 9.993795D-01 9.993795D-01 9.993711D-01 9.993711D-01 9.993362D-01 9.992759D-01 9.992758D-01 9.991655D-01
 Alpha virt Sing. vals= 9.991655D-01 9.987812D-01 9.987218D-01 9.987218D-01 9.985947D-01 9.985945D-01 9.985262D-01 9.985094D-01 9.983417D-01 9.983417D-01
 Alpha virt Sing. vals= 9.981692D-01 9.981692D-01 9.981059D-01 9.977737D-01 9.977732D-01 9.977234D-01 9.976467D-01 9.976467D-01 9.976375D-01 9.974234D-01
 Alpha virt Sing. vals= 9.974231D-01 9.971274D-01 9.971274D-01 9.966678D-01 9.966672D-01 9.966439D-01 9.966221D-01 9.966220D-01 9.965246D-01 9.963948D-01
 Alpha virt Sing. vals= 9.963948D-01 9.956851D-01 9.956850D-01 9.956850D-01 9.952963D-01 9.952963D-01 9.950873D-01 9.943789D-01 9.943789D-01 9.941277D-01
 Alpha virt Sing. vals= 9.941276D-01 9.941151D-01 9.941151D-01 9.939796D-01 9.939796D-01 9.937558D-01 9.934424D-01 9.934424D-01 9.926985D-01 9.925104D-01
 Alpha virt Sing. vals= 9.899020D-01 9.899019D-01 9.897287D-01 9.870094D-01 9.870093D-01 9.826130D-01 9.826125D-01 9.809177D-01 9.809177D-01 9.806992D-01
 Alpha virt Sing. vals= 9.806992D-01 9.800774D-01 9.797311D-01 9.790450D-01 9.775323D-01 9.758361D-01 9.758361D-01 9.715576D-01 9.715572D-01 9.691471D-01
 Alpha virt Sing. vals= 9.691470D-01 9.686883D-01 9.655408D-01 9.605485D-01 9.605479D-01 9.504143D-01 9.459827D-01 9.459827D-01 9.407978D-01 9.399977D-01
 Alpha virt Sing. vals= 9.399977D-01 9.399972D-01 9.393011D-01 9.393011D-01 9.261056D-01 9.261056D-01 9.253397D-01 9.242818D-01 9.242818D-01 9.217191D-01
 Alpha virt Sing. vals= 9.217191D-01 9.206816D-01 9.206816D-01 9.199209D-01 9.199209D-01 9.177851D-01 9.161499D-01 9.161497D-01 9.005401D-01 8.963522D-01
 Alpha virt Sing. vals= 8.963521D-01 8.761790D-01 8.761789D-01 8.522386D-01 8.479092D-01 8.479092D-01 8.408989D-01 8.408989D-01 8.132795D-01 7.497515D-01
 Alpha virt NOrbO=   240 NOrbN=   368 NSVal=   229 ThrEig=  0.900000.
 TrMax= 9.998979D-01 PrMax= 9.998878D-01 Trace(Pr)= 2.290000D+02
 B after Tr=     0.000000    0.000000    0.000000
         Rot=    1.000000    0.000000    0.000000    0.000000 Ang=   0.00 deg.
 Beta  occ  Sing. vals= 9.999981D-01 9.999980D-01 9.999980D-01 9.999968D-01 9.999924D-01 9.999764D-01 9.999756D-01 9.999749D-01
 Beta  occ  NOrbO=     8 NOrbN=     8 NSVal=     8 ThrEig=  0.900000.
 TrMax= 1.000000D+00 PrMax= 1.000000D+00 Trace(Pr)= 8.000000D+00
 B after Tr=     0.000000    0.000000    0.000000
         Rot=    1.000000    0.000000    0.000000    0.000000 Ang=   0.00 deg.
 Beta  virt Sing. vals= 1.000000D+00 1.000000D+00 1.000000D+00 1.000000D+00 1.000000D+00 1.000000D+00 1.000000D+00 1.000000D+00 1.000000D+00 1.000000D+00
 Beta  virt Sing. vals= 1.000000D+00 1.000000D+00 1.000000D+00 1.000000D+00 1.000000D+00 1.000000D+00 1.000000D+00 1.000000D+00 1.000000D+00 1.000000D+00
 Beta  virt Sing. vals= 1.000000D+00 1.000000D+00 1.000000D+00 1.000000D+00 1.000000D+00 1.000000D+00 1.000000D+00 1.000000D+00 1.000000D+00 1.000000D+00
 Beta  virt Sing. vals= 9.999999D-01 9.999999D-01 9.999999D-01 9.999999D-01 9.999999D-01 9.999999D-01 9.999999D-01 9.999999D-01 9.999999D-01 9.999998D-01
 Beta  virt Sing. vals= 9.999998D-01 9.999998D-01 9.999997D-01 9.999996D-01 9.999995D-01 9.999994D-01 9.999994D-01 9.999994D-01 9.999994D-01 9.999991D-01
 Beta  virt Sing. vals= 9.999991D-01 9.999989D-01 9.999989D-01 9.999987D-01 9.999978D-01 9.999978D-01 9.999978D-01 9.999978D-01 9.999975D-01 9.999960D-01
 Beta  virt Sing. vals= 9.999956D-01 9.999947D-01 9.999946D-01 9.999940D-01 9.999896D-01 9.999891D-01 9.999873D-01 9.999804D-01 9.999798D-01 9.999749D-01
 Beta  virt Sing. vals= 9.999749D-01 9.999748D-01 9.999748D-01 9.999744D-01 9.999618D-01 9.999617D-01 9.999548D-01 9.999460D-01 9.999369D-01 9.999369D-01
 Beta  virt Sing. vals= 9.999243D-01 9.999221D-01 9.999212D-01 9.999212D-01 9.998829D-01 9.998825D-01 9.998668D-01 9.998664D-01 9.998644D-01 9.998542D-01
 Beta  virt Sing. vals= 9.998541D-01 9.998487D-01 9.998245D-01 9.998245D-01 9.998245D-01 9.998216D-01 9.998029D-01 9.997932D-01 9.997927D-01 9.997927D-01
 Beta  virt Sing. vals= 9.997926D-01 9.997926D-01 9.997723D-01 9.997720D-01 9.997579D-01 9.997579D-01 9.997545D-01 9.997545D-01 9.997475D-01 9.997146D-01
 Beta  virt Sing. vals= 9.997146D-01 9.996523D-01 9.996480D-01 9.996478D-01 9.995847D-01 9.995847D-01 9.995815D-01 9.995531D-01 9.995196D-01 9.995196D-01
 Beta  virt Sing. vals= 9.995133D-01 9.994341D-01 9.994341D-01 9.994150D-01 9.993907D-01 9.993907D-01 9.993795D-01 9.993795D-01 9.993710D-01 9.993710D-01
 Beta  virt Sing. vals= 9.993362D-01 9.992758D-01 9.992758D-01 9.991655D-01 9.991655D-01 9.987812D-01 9.987203D-01 9.987203D-01 9.985945D-01 9.985945D-01
 Beta  virt Sing. vals= 9.985262D-01 9.985091D-01 9.983394D-01 9.983394D-01 9.981692D-01 9.981692D-01 9.981059D-01 9.977732D-01 9.977732D-01 9.977234D-01
 Beta  virt Sing. vals= 9.976467D-01 9.976467D-01 9.976372D-01 9.974231D-01 9.974231D-01 9.971274D-01 9.971274D-01 9.966672D-01 9.966672D-01 9.966439D-01
 Beta  virt Sing. vals= 9.966219D-01 9.966219D-01 9.965240D-01 9.963949D-01 9.963949D-01 9.956851D-01 9.956850D-01 9.956850D-01 9.952963D-01 9.952963D-01
 Beta  virt Sing. vals= 9.950872D-01 9.943790D-01 9.943789D-01 9.941278D-01 9.941277D-01 9.941151D-01 9.941151D-01 9.939796D-01 9.939796D-01 9.937576D-01
 Beta  virt Sing. vals= 9.934424D-01 9.934424D-01 9.926985D-01 9.925106D-01 9.899020D-01 9.899020D-01 9.897290D-01 9.870094D-01 9.870093D-01 9.826126D-01
 Beta  virt Sing. vals= 9.826125D-01 9.809177D-01 9.809177D-01 9.806986D-01 9.806986D-01 9.800774D-01 9.797309D-01 9.790450D-01 9.775323D-01 9.758361D-01
 Beta  virt Sing. vals= 9.758361D-01 9.715572D-01 9.715571D-01 9.691468D-01 9.691468D-01 9.686873D-01 9.655406D-01 9.605479D-01 9.605477D-01 9.504148D-01
 Beta  virt Sing. vals= 9.459827D-01 9.459825D-01 9.407974D-01 9.399977D-01 9.399977D-01 9.399972D-01 9.393012D-01 9.393012D-01 9.261057D-01 9.261056D-01
 Beta  virt Sing. vals= 9.253395D-01 9.242818D-01 9.242818D-01 9.217191D-01 9.217191D-01 9.206816D-01 9.206816D-01 9.199209D-01 9.199209D-01 9.177853D-01
 Beta  virt Sing. vals= 9.161497D-01 9.161496D-01 9.005400D-01 8.963522D-01 8.963522D-01 8.761789D-01 8.761788D-01 8.522388D-01 8.479092D-01 8.479092D-01
 Beta  virt Sing. vals= 8.408988D-01 8.408988D-01 8.132792D-01 7.497515D-01
 Beta  virt NOrbO=   244 NOrbN=   372 NSVal=   233 ThrEig=  0.900000.
 TrMax= 9.999049D-01 PrMax= 9.998967D-01 Trace(Pr)= 2.330000D+02
 Leave Link  804 at Tue Mar 13 06:50:34 2018, MaxMem= 10737418240 cpu:           13011.7 elap:             814.2
 (Enter /home1/apps/gaussian/16rA.03/g16/l913.exe)
 CIDS:  MDV= 10737418240.
 IFCWin=0 IBDFC=1 NFBD=     0     0 NFCmp=     0     0 NFFFC=     0     0
 Amplitudes recovered.
 Using DD4UQ or CC4UQ for all iterations.
 Keep R2 and R3 ints in memory in symmetry-blocked form, NReq=3425134269.
 FoFCou: FMM=F IPFlag=           8 FMFlag=           0 FMFlg1=           0
         NFxFlg=           0 DoJE=F BraDBF=F KetDBF=F FulRan=T
         wScrn=  0.000000 ICntrl=       600 IOpCl=  0 I1Cent=           0 NGrid=           0
         NMat0=    1 NMatS0=  73920 NMatT0=    0 NMatD0=    1 NMtDS0=    0 NMtDT0=    0
 Petite list used in FoFCou.
 CIDS: In Core Option IDoMem=           1.
 CCSD(T)
 =======
 Iterations= 150 Convergence= 0.100D-06
 Produce multiple copies of IABC intergrals
 Iteration Nr.   1
 **********************
 DD1Dir will call FoFMem   1 times, MxPair=       286
 NAB=    96 NAA=    66 NBB=    28.
 Maximum subspace dimension=  5
 A-vector RMS=  2.2226066D-04 Max=  6.6665241D-03 conv= 1.00D-05.
 RLE energy=       -0.8949014423
 DE(Corr)= -0.88829950     E(Corr)=     -102.76443711    
 NORM(A)=   0.11334869D+01
 Iteration Nr.   2
 **********************
 DD1Dir will call FoFMem   1 times, MxPair=       286
 NAB=    96 NAA=    66 NBB=    28.
 A-vector RMS=  3.9370341D-03 Max=  7.0888534D-02 conv= 1.00D-05.
 RLE energy=       -0.8474540566
 DE(Corr)= -0.84499418     E(CORR)=     -102.72113179     Delta= 4.33D-02
 NORM(A)=   0.11549318D+01
 Iteration Nr.   3
 **********************
 DD1Dir will call FoFMem   1 times, MxPair=       286
 NAB=    96 NAA=    66 NBB=    28.
 A-vector RMS=  2.7711767D-03 Max=  5.4133086D-02 conv= 1.00D-05.
 RLE energy=       -0.8770910849
 DE(Corr)= -0.89444378     E(CORR)=     -102.77058139     Delta=-4.94D-02
 NORM(A)=   0.11603868D+01
 Iteration Nr.   4
 **********************
 DD1Dir will call FoFMem   1 times, MxPair=       286
 NAB=    96 NAA=    66 NBB=    28.
 A-vector RMS=  1.7548763D-03 Max=  4.1912402D-02 conv= 1.00D-05.
 RLE energy=       -0.8842444732
 DE(Corr)= -0.87395868     E(CORR)=     -102.75009630     Delta= 2.05D-02
 NORM(A)=   0.11941159D+01
 Iteration Nr.   5
 **********************
 DD1Dir will call FoFMem   1 times, MxPair=       286
 NAB=    96 NAA=    66 NBB=    28.
 A-vector RMS=  5.7953584D-04 Max=  1.3744347D-02 conv= 1.00D-05.
 RLE energy=       -0.8855552621
 DE(Corr)= -0.88275673     E(CORR)=     -102.75889434     Delta=-8.80D-03
 NORM(A)=   0.12206101D+01
 Iteration Nr.   6
 **********************
 DD1Dir will call FoFMem   1 times, MxPair=       286
 NAB=    96 NAA=    66 NBB=    28.
 A-vector RMS=  4.5424825D-04 Max=  1.0114803D-02 conv= 1.00D-05.
 RLE energy=       -0.8866846119
 DE(Corr)= -0.88659889     E(CORR)=     -102.76273650     Delta=-3.84D-03
 NORM(A)=   0.12347230D+01
 Iteration Nr.   7
 **********************
 DD1Dir will call FoFMem   1 times, MxPair=       286
 NAB=    96 NAA=    66 NBB=    28.
 A-vector RMS=  3.4460450D-04 Max=  9.1275707D-03 conv= 1.00D-05.
 RLE energy=       -0.8891763289
 DE(Corr)= -0.88741726     E(CORR)=     -102.76355488     Delta=-8.18D-04
 NORM(A)=   0.12483777D+01
 Iteration Nr.   8
 **********************
 DD1Dir will call FoFMem   1 times, MxPair=       286
 NAB=    96 NAA=    66 NBB=    28.
 A-vector RMS=  2.1913387D-04 Max=  5.8680963D-03 conv= 1.00D-05.
 RLE energy=       -0.8876073368
 DE(Corr)= -0.88779884     E(CORR)=     -102.76393645     Delta=-3.82D-04
 NORM(A)=   0.12508981D+01
 Iteration Nr.   9
 **********************
 DD1Dir will call FoFMem   1 times, MxPair=       286
 NAB=    96 NAA=    66 NBB=    28.
 A-vector RMS=  2.0931516D-04 Max=  5.3389874D-03 conv= 1.00D-05.
 RLE energy=       -0.8890188044
 DE(Corr)= -0.88923412     E(CORR)=     -102.76537173     Delta=-1.44D-03
 NORM(A)=   0.12520128D+01
 Iteration Nr.  10
 **********************
 DD1Dir will call FoFMem   1 times, MxPair=       286
 NAB=    96 NAA=    66 NBB=    28.
 A-vector RMS=  1.9335793D-04 Max=  3.9670756D-03 conv= 1.00D-05.
 RLE energy=       -0.8885784449
 DE(Corr)= -0.88768368     E(CORR)=     -102.76382129     Delta= 1.55D-03
 NORM(A)=   0.12559395D+01
 Iteration Nr.  11
 **********************
 DD1Dir will call FoFMem   1 times, MxPair=       286
 NAB=    96 NAA=    66 NBB=    28.
 A-vector RMS=  9.7612139D-05 Max=  1.7639606D-03 conv= 1.00D-05.
 RLE energy=       -0.8887331499
 DE(Corr)= -0.88896445     E(CORR)=     -102.76510206     Delta=-1.28D-03
 NORM(A)=   0.12559857D+01
 Iteration Nr.  12
 **********************
 DD1Dir will call FoFMem   1 times, MxPair=       286
 NAB=    96 NAA=    66 NBB=    28.
 A-vector RMS=  3.4593286D-05 Max=  6.6275274D-04 conv= 1.00D-05.
 RLE energy=       -0.8887505715
 DE(Corr)= -0.88872390     E(CORR)=     -102.76486151     Delta= 2.41D-04
 NORM(A)=   0.12563515D+01
 Iteration Nr.  13
 **********************
 DD1Dir will call FoFMem   1 times, MxPair=       286
 NAB=    96 NAA=    66 NBB=    28.
 A-vector RMS=  3.0222195D-05 Max=  5.9301912D-04 conv= 1.00D-05.
 RLE energy=       -0.8887555074
 DE(Corr)= -0.88876298     E(CORR)=     -102.76490060     Delta=-3.91D-05
 NORM(A)=   0.12564301D+01
 Iteration Nr.  14
 **********************
 DD1Dir will call FoFMem   1 times, MxPair=       286
 NAB=    96 NAA=    66 NBB=    28.
 A-vector RMS=  3.0330207D-05 Max=  1.0013127D-03 conv= 1.00D-05.
 RLE energy=       -0.8887092074
 DE(Corr)= -0.88874868     E(CORR)=     -102.76488630     Delta= 1.43D-05
 NORM(A)=   0.12562732D+01
 Iteration Nr.  15
 **********************
 DD1Dir will call FoFMem   1 times, MxPair=       286
 NAB=    96 NAA=    66 NBB=    28.
 A-vector RMS=  1.9895488D-05 Max=  5.3743790D-04 conv= 1.00D-05.
 RLE energy=       -0.8887939167
 DE(Corr)= -0.88878571     E(CORR)=     -102.76492332     Delta=-3.70D-05
 NORM(A)=   0.12561264D+01
 Iteration Nr.  16
 **********************
 DD1Dir will call FoFMem   1 times, MxPair=       286
 NAB=    96 NAA=    66 NBB=    28.
 A-vector RMS=  1.8959752D-05 Max=  4.8404753D-04 conv= 1.00D-05.
 RLE energy=       -0.8886905314
 DE(Corr)= -0.88866340     E(CORR)=     -102.76480101     Delta= 1.22D-04
 NORM(A)=   0.12560910D+01
 Iteration Nr.  17
 **********************
 DD1Dir will call FoFMem   1 times, MxPair=       286
 NAB=    96 NAA=    66 NBB=    28.
 A-vector RMS=  1.2554516D-05 Max=  3.5573159D-04 conv= 1.00D-05.
 RLE energy=       -0.8887334169
 DE(Corr)= -0.88877083     E(CORR)=     -102.76490844     Delta=-1.07D-04
 NORM(A)=   0.12559044D+01
 Iteration Nr.  18
 **********************
 DD1Dir will call FoFMem   1 times, MxPair=       286
 NAB=    96 NAA=    66 NBB=    28.
 A-vector RMS=  7.7858608D-06 Max=  1.7775278D-04 conv= 1.00D-05.
 RLE energy=       -0.8887159928
 DE(Corr)= -0.88870001     E(CORR)=     -102.76483762     Delta= 7.08D-05
 NORM(A)=   0.12558114D+01
 Iteration Nr.  19
 **********************
 DD1Dir will call FoFMem   1 times, MxPair=       286
 NAB=    96 NAA=    66 NBB=    28.
 A-vector RMS=  5.2741446D-06 Max=  1.0702785D-04 conv= 1.00D-05.
 RLE energy=       -0.8887072344
 DE(Corr)= -0.88870892     E(CORR)=     -102.76484653     Delta=-8.91D-06
 NORM(A)=   0.12557086D+01
 Iteration Nr.  20
 **********************
 DD1Dir will call FoFMem   1 times, MxPair=       286
 NAB=    96 NAA=    66 NBB=    28.
 A-vector RMS=  3.9108757D-06 Max=  7.6644381D-05 conv= 1.00D-05.
 RLE energy=       -0.8887023701
 DE(Corr)= -0.88870240     E(CORR)=     -102.76484001     Delta= 6.52D-06
 NORM(A)=   0.12556444D+01
 Iteration Nr.  21
 **********************
 DD1Dir will call FoFMem   1 times, MxPair=       286
 NAB=    96 NAA=    66 NBB=    28.
 A-vector RMS=  3.9771345D-06 Max=  1.2587069D-04 conv= 1.00D-05.
 RLE energy=       -0.8887088340
 DE(Corr)= -0.88870371     E(CORR)=     -102.76484132     Delta=-1.31D-06
 NORM(A)=   0.12555860D+01
 Iteration Nr.  22
 **********************
 DD1Dir will call FoFMem   1 times, MxPair=       286
 NAB=    96 NAA=    66 NBB=    28.
 A-vector RMS=  2.9455262D-06 Max=  6.5256810D-05 conv= 1.00D-05.
 RLE energy=       -0.8886862112
 DE(Corr)= -0.88868863     E(CORR)=     -102.76482624     Delta= 1.51D-05
 NORM(A)=   0.12555519D+01
 Iteration Nr.  23
 **********************
 DD1Dir will call FoFMem   1 times, MxPair=       286
 NAB=    96 NAA=    66 NBB=    28.
 A-vector RMS=  3.1107663D-06 Max=  5.6216565D-05 conv= 1.00D-05.
 RLE energy=       -0.8886997146
 DE(Corr)= -0.88871002     E(CORR)=     -102.76484763     Delta=-2.14D-05
 NORM(A)=   0.12555174D+01
 Iteration Nr.  24
 **********************
 DD1Dir will call FoFMem   1 times, MxPair=       286
 NAB=    96 NAA=    66 NBB=    28.
 A-vector RMS=  1.7163332D-06 Max=  2.2261500D-05 conv= 1.00D-05.
 RLE energy=       -0.8886942524
 DE(Corr)= -0.88869166     E(CORR)=     -102.76482927     Delta= 1.84D-05
 NORM(A)=   0.12555026D+01
 Iteration Nr.  25
 **********************
 DD1Dir will call FoFMem   1 times, MxPair=       286
 NAB=    96 NAA=    66 NBB=    28.
 A-vector RMS=  1.0683174D-06 Max=  1.2992532D-05 conv= 1.00D-05.
 RLE energy=       -0.8886938258
 DE(Corr)= -0.88869609     E(CORR)=     -102.76483370     Delta=-4.43D-06
 NORM(A)=   0.12554937D+01
 Iteration Nr.  26
 **********************
 DD1Dir will call FoFMem   1 times, MxPair=       286
 NAB=    96 NAA=    66 NBB=    28.
 A-vector RMS=  8.1845192D-07 Max=  1.3199366D-05 conv= 1.00D-05.
 RLE energy=       -0.8886928637
 DE(Corr)= -0.88869470     E(CORR)=     -102.76483231     Delta= 1.39D-06
 NORM(A)=   0.12554833D+01
 Iteration Nr.  27
 **********************
 DD1Dir will call FoFMem   1 times, MxPair=       286
 NAB=    96 NAA=    66 NBB=    28.
 A-vector RMS=  9.1818428D-07 Max=  2.7860075D-05 conv= 1.00D-05.
 RLE energy=       -0.8886940136
 DE(Corr)= -0.88869476     E(CORR)=     -102.76483237     Delta=-6.18D-08
 NORM(A)=   0.12554770D+01
 Iteration Nr.  28
 **********************
 DD1Dir will call FoFMem   1 times, MxPair=       286
 NAB=    96 NAA=    66 NBB=    28.
 A-vector RMS=  7.1549954D-07 Max=  1.8907997D-05 conv= 1.00D-05.
 RLE energy=       -0.8886908588
 DE(Corr)= -0.88869173     E(CORR)=     -102.76482934     Delta= 3.03D-06
 NORM(A)=   0.12554784D+01
 Iteration Nr.  29
 **********************
 DD1Dir will call FoFMem   1 times, MxPair=       286
 NAB=    96 NAA=    66 NBB=    28.
 A-vector RMS=  5.2870585D-07 Max=  1.1278330D-05 conv= 1.00D-05.
 RLE energy=       -0.8886939338
 DE(Corr)= -0.88869485     E(CORR)=     -102.76483247     Delta=-3.12D-06
 NORM(A)=   0.12554736D+01
 Iteration Nr.  30
 **********************
 DD1Dir will call FoFMem   1 times, MxPair=       286
 NAB=    96 NAA=    66 NBB=    28.
 A-vector RMS=  5.2690103D-07 Max=  1.4412405D-05 conv= 1.00D-05.
 RLE energy=       -0.8886920465
 DE(Corr)= -0.88869044     E(CORR)=     -102.76482805     Delta= 4.42D-06
 NORM(A)=   0.12554778D+01
 Iteration Nr.  31
 **********************
 DD1Dir will call FoFMem   1 times, MxPair=       286
 NAB=    96 NAA=    66 NBB=    28.
 A-vector RMS=  3.4242687D-07 Max=  4.9143857D-06 conv= 1.00D-05.
 RLE energy=       -0.8886922712
 DE(Corr)= -0.88869258     E(CORR)=     -102.76483020     Delta=-2.15D-06
 NORM(A)=   0.12554787D+01
 Iteration Nr.  32
 **********************
 DD1Dir will call FoFMem   1 times, MxPair=       286
 NAB=    96 NAA=    66 NBB=    28.
 A-vector RMS=  2.8025686D-07 Max=  6.0198448D-06 conv= 1.00D-05.
 RLE energy=       -0.8886921744
 DE(Corr)= -0.88869195     E(CORR)=     -102.76482956     Delta= 6.36D-07
 NORM(A)=   0.12554802D+01
 Iteration Nr.  33
 **********************
 DD1Dir will call FoFMem   1 times, MxPair=       286
 NAB=    96 NAA=    66 NBB=    28.
 A-vector RMS=  1.5303871D-07 Max=  3.7760306D-06 conv= 1.00D-05.
 RLE energy=       -0.8886924664
 DE(Corr)= -0.88869220     E(CORR)=     -102.76482981     Delta=-2.48D-07
 NORM(A)=   0.12554818D+01
 Iteration Nr.  34
 **********************
 DD1Dir will call FoFMem   1 times, MxPair=       286
 NAB=    96 NAA=    66 NBB=    28.
 A-vector RMS=  1.5922870D-07 Max=  4.0655270D-06 conv= 1.00D-05.
 RLE energy=       -0.8886919672
 DE(Corr)= -0.88869190     E(CORR)=     -102.76482951     Delta= 3.00D-07
 NORM(A)=   0.12554838D+01
 Iteration Nr.  35
 **********************
 DD1Dir will call FoFMem   1 times, MxPair=       286
 NAB=    96 NAA=    66 NBB=    28.
 A-vector RMS=  1.0175155D-07 Max=  1.9591054D-06 conv= 1.00D-05.
 RLE energy=       -0.8886926392
 DE(Corr)= -0.88869266     E(CORR)=     -102.76483027     Delta=-7.58D-07
 NORM(A)=   0.12554851D+01
 Iteration Nr.  36
 **********************
 DD1Dir will call FoFMem   1 times, MxPair=       286
 NAB=    96 NAA=    66 NBB=    28.
 A-vector RMS=  8.5688510D-08 Max=  1.7539955D-06 conv= 1.00D-05.
 RLE energy=       -0.8886922927
 DE(Corr)= -0.88869209     E(CORR)=     -102.76482970     Delta= 5.70D-07
 NORM(A)=   0.12554869D+01
 Iteration Nr.  37
 **********************
 DD1Dir will call FoFMem   1 times, MxPair=       286
 NAB=    96 NAA=    66 NBB=    28.
 A-vector RMS=  7.6820652D-08 Max=  9.9614580D-07 conv= 1.00D-05.
 RLE energy=       -0.8886925166
 DE(Corr)= -0.88869270     E(CORR)=     -102.76483031     Delta=-6.11D-07
 NORM(A)=   0.12554877D+01
 Iteration Nr.  38
 **********************
 DD1Dir will call FoFMem   1 times, MxPair=       286
 NAB=    96 NAA=    66 NBB=    28.
 A-vector RMS=  4.5054734D-08 Max=  7.6405430D-07 conv= 1.00D-05.
 RLE energy=       -0.8886925791
 DE(Corr)= -0.88869255     E(CORR)=     -102.76483017     Delta= 1.42D-07
 NORM(A)=   0.12554884D+01
 Iteration Nr.  39
 **********************
 DD1Dir will call FoFMem   1 times, MxPair=       286
 NAB=    96 NAA=    66 NBB=    28.
 A-vector RMS=  5.0183107D-08 Max=  1.4149441D-06 conv= 1.00D-05.
 RLE energy=       -0.8886927149
 DE(Corr)= -0.88869266     E(CORR)=     -102.76483027     Delta=-1.04D-07
 NORM(A)=   0.12554891D+01
 Iteration Nr.  40
 **********************
 DD1Dir will call FoFMem   1 times, MxPair=       286
 NAB=    96 NAA=    66 NBB=    28.
 A-vector RMS=  3.7485905D-08 Max=  9.9956197D-07 conv= 1.00D-05.
 RLE energy=       -0.8886926428
 DE(Corr)= -0.88869260     E(CORR)=     -102.76483022     Delta= 5.53D-08
 NORM(A)=   0.12554895D+01
 CI/CC converged in   40 iterations to DelEn= 5.53D-08 Conv= 1.00D-07 ErrA1= 3.75D-08 Conv= 1.00D-05
 Wavefunction amplitudes converged. E(Corr)=     -102.76483022    
 Dominant configurations:
 ***********************
 Spin Case        I    J    A    B          Value
    AA           12        13           -0.327085D+00
    AA           12        16           -0.141273D+00
    AA           12        26           -0.117020D+00
    AA           10        18           -0.125095D+00
    AA           10        27            0.230819D+00
    AA           10        32            0.129837D+00
    AA           10        34            0.171501D+00
 Largest amplitude= 3.27D-01
 Time for triples=    56799.60 seconds.
 T4(CCSD)= -0.80252196D-01
 T5(CCSD)=  0.28169711D-01
 CCSD(T)= -0.10281691270D+03
 Discarding MO integrals.
 Leave Link  913 at Tue Mar 13 08:25:02 2018, MaxMem= 10737418240 cpu:           90610.1 elap:            5667.9
 (Enter /home1/apps/gaussian/16rA.03/g16/l601.exe)
 Copying SCF densities to generalized density rwf, IOpCl= 0 IROHF=1.

 **********************************************************************

            Population analysis using the SCF density.

 **********************************************************************

 Orbital symmetries:
       Occupied  (SG) (SG) (PI) (PI) (SG) (SG) (?A) (?A) (?B) (?B)
                 (?B) (?A)
       Virtual   (?B) (?A) (?A) (SG) (SG) (?A) (DLTA) (DLTA) (?A)
                 (SG) (?A) (?A) (SG) (?B) (?A) (?B) (?B) (?A) (?B)
                 (?A) (?A) (SG) (?A) (?A) (?A) (SG) (?C) (?C) (?C)
                 (PHI) (PHI) (?D) (?A) (?A) (?D) (?D) (?D) (?A)
                 (?A) (?A) (?A) (SG) (?E) (?E) (?E) (?A) (?A) (SG)
                 (SG) (PI) (PI) (PHI) (PHI) (?F) (?F) (?F) (?F)
                 (?F) (?A) (?A) (?A) (?A) (?G) (?G) (?A) (?A) (?G)
                 (?G) (?G) (PI) (PI) (SG) (PHI) (PHI) (SG) (PI)
                 (PI) (?H) (?H) (?H) (PI) (PI) (SG) (DLTA) (DLTA)
                 (SG) (PI) (PI) (SG) (?I) (?I) (PI) (PI) (?I) (PI)
                 (PI) (DLTA) (DLTA) (?J) (?J) (?J) (?J) (?J) (?J)
                 (?K) (?K) (?K) (?K) (?K) (?L) (?L) (?L) (?L) (?L)
                 (?L) (?L) (?L) (SG) (?L) (?L) (?L) (?L) (SG) (SG)
                 (?L) (?L) (SG) (?L) (?L) (PHI) (PHI) (PHI) (PHI)
                 (DLTA) (DLTA) (SG) (DLTA) (DLTA) (PI) (PI) (SG)
                 (DLTA) (DLTA) (PI) (PI) (SG) (PI) (PI) (SG) (?L)
                 (?L) (?L) (PI) (PI) (SG) (PHI) (PHI) (DLTA) (DLTA)
                 (PI) (PI) (PI) (SG) (PI) (?L) (?L) (?L) (?L) (?L)
                 (?L) (DLTA) (DLTA) (SG) (SG) (?L) (?L) (?L) (?L)
                 (?L) (?L) (?L) (?L) (?L) (?L) (?L) (PI) (PI) (SG)
                 (?L) (?L) (PHI) (PHI) (DLTA) (DLTA) (PI) (PI)
                 (SG) (PHI) (PHI) (?L) (?L) (PI) (PI) (?L) (?L)
                 (?L) (?L) (PI) (PI) (DLTA) (DLTA) (SG) (PI) (PI)
                 (SG) (SG) (PI) (PI) (SG) (PHI) (PHI) (DLTA) (DLTA)
                 (PI) (PI) (?L) (?L) (PI) (PI) (SG) (?L) (?L) (?L)
                 (PHI) (PHI) (?L) (?L) (PI) (PI) (?L) (SG) (?L)
                 (?L) (?L) (?L) (?L) (?L) (?L) (?L) (?L) (?L) (?L)
                 (PI) (PI) (SG) (PI) (PI) (SG) (SG) (?L) (?L) (PI)
                 (PI) (?L) (DLTA) (DLTA) (PI) (PI) (SG) (SG) (PI)
                 (PI) (SG) (SG) (?L) (?L) (PI) (PI) (?L) (PI) (PI)
                 (SG) (SG) (?L) (?L) (?L) (?L) (?L) (?L) (?L) (PI)
                 (PI) (SG) (SG) (DLTA) (DLTA) (PI) (PI) (SG) (PI)
                 (PI) (SG) (SG) (DLTA) (DLTA) (PI) (PI) (SG) (SG)
                 (PI) (PI) (SG) (PI) (PI) (SG) (SG) (SG) (DLTA)
                 (DLTA) (PI) (PI) (SG) (PI) (PI) (SG) (SG) (PI)
                 (PI) (SG) (SG) (PI) (PI) (SG) (SG) (DLTA) (DLTA)
                 (PI) (PI) (SG) (SG) (PI) (PI) (SG) (SG) (SG) (PI)
                 (PI) (SG) (SG) (SG) (PI) (PI) (SG) (SG) (SG) (PI)
                 (PI) (SG) (SG) (PI) (PI) (SG) (SG) (SG) (SG) (SG)
                 (SG) (SG)
 Unable to determine electronic state:  an orbital has unidentified symmetry.
 Alpha  occ. eigenvalues --   -3.76098  -2.50857  -2.46209  -2.45018  -1.12014
[...]
 166       62F 0        0.00008   0.00004   0.00003   0.00001
 167       62F+1        0.00003   0.00002   0.00001   0.00000
 168       62F-1        0.00004   0.00002   0.00002   0.00000
 169       62F+2        0.00000   0.00000   0.00000   0.00000
 170       62F-2        0.00000   0.00000   0.00000   0.00000
 171       62F+3        0.00001   0.00000   0.00000   0.00000
 172       62F-3        0.00001   0.00000   0.00000   0.00000
 173       63F 0        0.00179   0.00103   0.00075   0.00028
 174       63F+1        0.00108   0.00071   0.00037   0.00034
 175       63F-1        0.00088   0.00044   0.00044   0.00000
 176       63F+2        0.00012   0.00011   0.00001   0.00011
 177       63F-2        0.00010   0.00010   0.00000   0.00010
 178       63F+3        0.00001   0.00000   0.00000   0.00000
 179       63F-3        0.00001   0.00000   0.00000   0.00000
 180       64F 0        0.00572   0.00343   0.00230   0.00113
 181       64F+1        0.01200   0.00747   0.00453   0.00294
 182       64F-1        0.00926   0.00463   0.00463   0.00000
 183       64F+2        0.00041   0.00041   0.00001   0.00040
 184       64F-2        0.00038   0.00038   0.00000   0.00038
 185       64F+3        0.00000   0.00000   0.00000   0.00000
 186       64F-3        0.00000   0.00000   0.00000   0.00000
 187       65F 0       -0.00155  -0.00080  -0.00075  -0.00005
 188       65F+1        0.00293   0.00206   0.00087   0.00119
 189       65F-1        0.00119   0.00059   0.00059   0.00000
 190       65F+2        0.00009   0.00009   0.00000   0.00009
 191       65F-2        0.00008   0.00008   0.00000   0.00008
 192       65F+3        0.00000   0.00000   0.00000   0.00000
 193       65F-3        0.00000   0.00000   0.00000   0.00000
 194       66G 0        0.00000   0.00000   0.00000   0.00000
 195       66G+1        0.00000   0.00000   0.00000   0.00000
 196       66G-1        0.00000   0.00000   0.00000   0.00000
 197       66G+2        0.00000   0.00000   0.00000   0.00000
 198       66G-2        0.00000   0.00000   0.00000   0.00000
 199       66G+3        0.00000   0.00000   0.00000   0.00000
 200       66G-3        0.00000   0.00000   0.00000   0.00000
 201       66G+4        0.00000   0.00000   0.00000   0.00000
 202       66G-4        0.00000   0.00000   0.00000   0.00000
 203       67G 0        0.00004   0.00002   0.00002   0.00000
 204       67G+1        0.00001   0.00001   0.00001  -0.00000
 205       67G-1        0.00001   0.00001   0.00001   0.00000
 206       67G+2        0.00000   0.00000   0.00000   0.00000
 207       67G-2        0.00000   0.00000   0.00000   0.00000
 208       67G+3        0.00000   0.00000   0.00000   0.00000
 209       67G-3        0.00000   0.00000   0.00000   0.00000
 210       67G+4        0.00000   0.00000   0.00000   0.00000
 211       67G-4        0.00000   0.00000   0.00000   0.00000
 212       68G 0        0.00088   0.00045   0.00043   0.00002
 213       68G+1        0.00080   0.00041   0.00039   0.00003
 214       68G-1        0.00077   0.00038   0.00038   0.00000
 215       68G+2        0.00001   0.00001   0.00000   0.00000
 216       68G-2        0.00000   0.00000   0.00000   0.00000
 217       68G+3        0.00000   0.00000   0.00000   0.00000
 218       68G-3        0.00000   0.00000   0.00000   0.00000
 219       68G+4        0.00000   0.00000   0.00000   0.00000
 220       68G-4        0.00000   0.00000   0.00000   0.00000
 221       69G 0       -0.00002  -0.00001  -0.00000  -0.00001
 222       69G+1        0.00280   0.00154   0.00126   0.00028
 223       69G-1        0.00255   0.00128   0.00128   0.00000
 224       69G+2        0.00000   0.00000   0.00000   0.00000
 225       69G-2        0.00000   0.00000   0.00000   0.00000
 226       69G+3        0.00000   0.00000   0.00000   0.00000
 227       69G-3        0.00000   0.00000   0.00000   0.00000
 228       69G+4        0.00000   0.00000   0.00000   0.00000
 229       69G-4        0.00000   0.00000   0.00000   0.00000
 230       70H 0       -0.00000  -0.00000  -0.00000   0.00000
 231       70H+1       -0.00000  -0.00000  -0.00000  -0.00000
 232       70H-1        0.00000   0.00000   0.00000   0.00000
 233       70H+2        0.00000   0.00000   0.00000   0.00000
 234       70H-2        0.00000   0.00000   0.00000   0.00000
 235       70H+3        0.00000   0.00000   0.00000  -0.00000
 236       70H-3        0.00000   0.00000   0.00000   0.00000
 237       70H+4       -0.00000  -0.00000  -0.00000  -0.00000
 238       70H-4       -0.00000  -0.00000  -0.00000  -0.00000
 239       70H+5        0.00000   0.00000   0.00000   0.00000
 240       70H-5        0.00000   0.00000   0.00000   0.00000
 241       71H 0        0.00002   0.00001   0.00001  -0.00000
 242       71H+1        0.00001   0.00000   0.00000   0.00000
 243       71H-1        0.00001   0.00000   0.00000   0.00000
 244       71H+2        0.00000   0.00000   0.00000   0.00000
 245       71H-2        0.00000   0.00000   0.00000   0.00000
 246       71H+3        0.00000   0.00000   0.00000   0.00000
 247       71H-3        0.00000   0.00000   0.00000   0.00000
 248       71H+4        0.00000   0.00000   0.00000   0.00000
 249       71H-4        0.00000   0.00000   0.00000   0.00000
 250       71H+5        0.00000   0.00000   0.00000   0.00000
 251       71H-5        0.00000   0.00000   0.00000   0.00000
 252       72H 0        0.00023   0.00011   0.00012  -0.00000
 253       72H+1        0.00027   0.00014   0.00013   0.00001
 254       72H-1        0.00029   0.00014   0.00014   0.00000
 255       72H+2        0.00000   0.00000   0.00000   0.00000
 256       72H-2        0.00000   0.00000   0.00000   0.00000
 257       72H+3        0.00000   0.00000   0.00000   0.00000
 258       72H-3        0.00000   0.00000   0.00000   0.00000
 259       72H+4        0.00000   0.00000   0.00000   0.00000
 260       72H-4        0.00000   0.00000   0.00000   0.00000
 261       72H+5        0.00000   0.00000   0.00000   0.00000
 262       72H-5        0.00000   0.00000   0.00000   0.00000
 263 2   O  1S         -0.00000  -0.00000  -0.00000  -0.00000
 264        2S          0.00000   0.00000   0.00000   0.00000
 265        3S         -0.00000  -0.00000  -0.00000  -0.00000
 266        4S          0.00000   0.00000   0.00000   0.00000
 267        5S         -0.00000  -0.00000  -0.00000  -0.00000
 268        6S         -0.00008  -0.00004  -0.00004  -0.00000
 269        7S         -0.00071  -0.00036  -0.00035  -0.00000
 270        8S         -0.09183  -0.04594  -0.04590  -0.00004
 271        9S         -0.07561  -0.03781  -0.03780  -0.00001
 272       10S          0.43240   0.21623   0.21617   0.00006
 273       11S          1.05630   0.52821   0.52809   0.00012
 274       12S          0.57329   0.28780   0.28549   0.00231
 275       13S          0.05565   0.02784   0.02781   0.00003
 276       14S          0.00042   0.00021   0.00021   0.00000
 277       15S          0.00003   0.00002   0.00002   0.00000
 278       16S          0.06382   0.02931   0.03452  -0.00521
 279       17PX        -0.00016  -0.00008  -0.00008  -0.00000
 280       17PY        -0.00014  -0.00007  -0.00007  -0.00000
 281       17PZ        -0.00016  -0.00008  -0.00008  -0.00000
 282       18PX        -0.11798  -0.06043  -0.05755  -0.00288
 283       18PY        -0.10266  -0.05133  -0.05133  -0.00000
 284       18PZ        -0.11296  -0.05666  -0.05630  -0.00035
 285       19PX         0.13890   0.07127   0.06763   0.00365
 286       19PY         0.12061   0.06030   0.06030   0.00000
 287       19PZ         0.12488   0.06295   0.06192   0.00103
 288       20PX         0.46969   0.24052   0.22917   0.01135
 289       20PY         0.41280   0.20640   0.20640   0.00000
 290       20PZ         0.43148   0.21707   0.21441   0.00266
 291       21PX         0.69726   0.35465   0.34261   0.01204
 292       21PY         0.63496   0.31748   0.31748   0.00000
 293       21PZ         0.62618   0.31462   0.31156   0.00306
 294       22PX         0.44658   0.22662   0.21996   0.00666
 295       22PY         0.41681   0.20841   0.20841   0.00000
 296       22PZ         0.37004   0.19512   0.17492   0.02020
 297       23PX         0.13579   0.06957   0.06622   0.00335
 298       23PY         0.11810   0.05905   0.05905   0.00000
 299       23PZ         0.12912   0.06480   0.06432   0.00047
 300       24PX         0.00062   0.00032   0.00030   0.00002
 301       24PY         0.00054   0.00027   0.00027   0.00000
 302       24PZ         0.00059   0.00030   0.00030   0.00000
 303       25PX         0.00001   0.00000   0.00000   0.00000
 304       25PY         0.00001   0.00000   0.00000   0.00000
 305       25PZ         0.00001   0.00000   0.00000  -0.00000
 306       26PX         0.05325   0.02806   0.02519   0.00287
 307       26PY         0.04467   0.02234   0.02234   0.00000
 308       26PZ         0.04973   0.02993   0.01980   0.01013
 309       27D 0        0.00007   0.00004   0.00003   0.00001
 310       27D+1        0.00004   0.00002   0.00002   0.00000
 311       27D-1        0.00006   0.00003   0.00003   0.00000
 312       27D+2        0.00000   0.00000   0.00000   0.00000
 313       27D-2        0.00000   0.00000   0.00000   0.00000
 314       28D 0        0.00151   0.00093   0.00058   0.00035
 315       28D+1        0.00084   0.00050   0.00035   0.00015
 316       28D-1        0.00106   0.00053   0.00053   0.00000
 317       28D+2        0.00002   0.00002   0.00000   0.00002
 318       28D-2        0.00002   0.00002   0.00000   0.00002
 319       29D 0        0.00826   0.00433   0.00393   0.00040
 320       29D+1        0.00474   0.00262   0.00212   0.00051
 321       29D-1        0.00667   0.00333   0.00333   0.00000
 322       29D+2        0.00020   0.00020   0.00000   0.00020
 323       29D-2        0.00020   0.00020   0.00000   0.00020
 324       30D 0        0.00000   0.00000   0.00000   0.00000
 325       30D+1        0.00000   0.00000   0.00000   0.00000
 326       30D-1        0.00000   0.00000   0.00000   0.00000
 327       30D+2        0.00000   0.00000   0.00000   0.00000
 328       30D-2        0.00000   0.00000   0.00000   0.00000
 329       31D 0       -0.00000  -0.00000  -0.00000  -0.00000
 330       31D+1       -0.00000  -0.00000  -0.00000  -0.00000
 331       31D-1       -0.00000  -0.00000  -0.00000  -0.00000
 332       31D+2       -0.00000  -0.00000  -0.00000  -0.00000
 333       31D-2       -0.00000  -0.00000  -0.00000  -0.00000
 334       32D 0        0.01042   0.00559   0.00482   0.00077
 335       32D+1        0.00333   0.00152   0.00181  -0.00029
 336       32D-1        0.00508   0.00254   0.00254   0.00000
 337       32D+2        0.00017   0.00017   0.00000   0.00017
 338       32D-2        0.00016   0.00016   0.00000   0.00016
 339       33F 0        0.00002   0.00001   0.00000   0.00001
 340       33F+1        0.00001   0.00001   0.00000   0.00000
 341       33F-1        0.00001   0.00000   0.00000   0.00000
 342       33F+2        0.00000   0.00000   0.00000   0.00000
 343       33F-2        0.00000   0.00000   0.00000   0.00000
 344       33F+3        0.00000   0.00000   0.00000   0.00000
 345       33F-3        0.00000   0.00000   0.00000   0.00000
 346       34F 0        0.00119   0.00075   0.00043   0.00032
 347       34F+1        0.00053   0.00036   0.00017   0.00018
 348       34F-1        0.00050   0.00025   0.00025   0.00000
 349       34F+2        0.00005   0.00005   0.00000   0.00005
 350       34F-2        0.00005   0.00005   0.00000   0.00005
 351       34F+3        0.00000   0.00000   0.00000   0.00000
 352       34F-3        0.00000   0.00000   0.00000   0.00000
 353       35F 0        0.00000   0.00000   0.00000   0.00000
 354       35F+1        0.00000   0.00000   0.00000   0.00000
 355       35F-1        0.00000   0.00000   0.00000   0.00000
 356       35F+2        0.00000   0.00000   0.00000   0.00000
 357       35F-2        0.00000   0.00000   0.00000   0.00000
 358       35F+3        0.00000   0.00000   0.00000   0.00000
 359       35F-3        0.00000   0.00000   0.00000   0.00000
 360       36F 0        0.00324   0.00156   0.00168  -0.00012
 361       36F+1        0.00045   0.00023   0.00022   0.00001
 362       36F-1        0.00075   0.00037   0.00037   0.00000
 363       36F+2        0.00012   0.00012   0.00000   0.00012
 364       36F-2        0.00012   0.00012   0.00000   0.00012
 365       36F+3        0.00000   0.00000   0.00000   0.00000
 366       36F-3        0.00000   0.00000   0.00000   0.00000
 367       37G 0        0.00003   0.00002   0.00001   0.00001
 368       37G+1        0.00001   0.00001   0.00000   0.00001
 369       37G-1        0.00001   0.00000   0.00000   0.00000
 370       37G+2        0.00000   0.00000  -0.00000   0.00000
 371       37G-2        0.00000   0.00000  -0.00000   0.00000
 372       37G+3       -0.00000  -0.00000  -0.00000   0.00000
 373       37G-3       -0.00000  -0.00000  -0.00000  -0.00000
 374       37G+4        0.00000   0.00000   0.00000   0.00000
 375       37G-4        0.00000   0.00000   0.00000   0.00000
 376       38G 0        0.00062   0.00037   0.00025   0.00012
 377       38G+1        0.00017   0.00012   0.00006   0.00006
 378       38G-1        0.00017   0.00009   0.00009   0.00000
 379       38G+2        0.00004   0.00004   0.00000   0.00004
 380       38G-2        0.00004   0.00004   0.00000   0.00004
 381       38G+3        0.00000   0.00000   0.00000  -0.00000
 382       38G-3        0.00000   0.00000   0.00000   0.00000
 383       38G+4        0.00000   0.00000   0.00000   0.00000
 384       38G-4        0.00000   0.00000   0.00000   0.00000
          Condensed to atoms (all electrons):
               1          2
     1  Cr  12.493744   0.353001
     2  O    0.353001   6.800253
          Atomic-Atomic Spin Densities.
               1          2
     1  Cr   3.933381  -0.008588
     2  O   -0.008588   0.083795
 Mulliken charges and spin densities:
               1          2
     1  Cr   1.153254   3.924793
     2  O   -1.153254   0.075207
 Sum of Mulliken charges =  -0.00000   4.00000
 Mulliken charges and spin densities with hydrogens summed into heavy atoms:
               1          2
     1  Cr   1.153254   3.924793
     2  O   -1.153254   0.075207
 Electronic spatial extent (au):  <R**2>=             89.7017
 Charge=             -0.0000 electrons
 Dipole moment (field-independent basis, Debye):
    X=              0.0000    Y=              0.0000    Z=              8.8408  Tot=              8.8408
 Quadrupole moment (field-independent basis, Debye-Ang):
   XX=            -19.7600   YY=            -18.7370   ZZ=            -23.1595
   XY=              0.0000   XZ=              0.0000   YZ=              0.0000
 Traceless Quadrupole moment (field-independent basis, Debye-Ang):
   XX=              0.7922   YY=              1.8152   ZZ=             -2.6074
   XY=              0.0000   XZ=              0.0000   YZ=              0.0000
 Octapole moment (field-independent basis, Debye-Ang**2):
  XXX=              0.0000  YYY=              0.0000  ZZZ=             23.9883  XYY=              0.0000
  XXY=              0.0000  XXZ=              4.9126  XZZ=              0.0000  YZZ=              0.0000
  YYZ=              5.5777  XYZ=              0.0000
 Hexadecapole moment (field-independent basis, Debye-Ang**3):
 XXXX=            -24.8519 YYYY=            -22.6451 ZZZZ=           -105.2860 XXXY=              0.0000
 XXXZ=              0.0000 YYYX=              0.0000 YYYZ=              0.0000 ZZZX=              0.0000
 ZZZY=              0.0000 XXYY=             -7.9144 XXZZ=            -21.5536 YYZZ=            -20.0398
 XXYZ=              0.0000 YYXZ=              0.0000 ZZXY=              0.0000
 N-N= 2.614757983369D+01 E-N=-2.845287202399D+02  KE= 5.599360183645D+01
 Symmetry A1   KE= 2.505538539064D+01
 Symmetry A2   KE= 5.331912381628D+00
 Symmetry B1   KE= 1.547180961822D+01
 Symmetry B2   KE= 1.013449444755D+01
 Symmetry A1   SP= 2.000000000000D+00
 Symmetry A2   SP= 1.000000000000D+00
 Symmetry B1   SP= 1.000000000000D+00
 Symmetry B2   SP= 1.018270614145D-15
 Orbital energies and kinetic energies (alpha):
                                 1                 2
   4         O                -2.450177          3.043994
   5         O                -1.120135          0.965656
   6         O                -0.561119          2.301830
   7         O                -0.559530          2.020928
   8         O                -0.542273          2.013621
   9         O                -0.496840          4.904466
  10         O                -0.366831          5.331912
  11         O                -0.339293          4.206358
  12         O                -0.327469          5.341965
  13         V                -0.033711          0.457907
  14         V                 0.007795          0.107442
  15         V                 0.013759          0.072944
  16         V                 0.017479          0.238711
  17         V                 0.031301          0.057121
 Total kinetic energy from orbitals= 7.577830366649D+01
                          Isotropic Fermi Contact Couplings
        Atom                 a.u.       MegaHertz       Gauss      10(-4) cm-1
     1  Cr(53)             0.00119      -0.07536      -0.02689      -0.02514
     2  O(17)              0.00001      -0.00093      -0.00033      -0.00031
 --------------------------------------------------------
       Center         ----  Spin Dipole Couplings  ----
                      3XX-RR        3YY-RR        3ZZ-RR
 --------------------------------------------------------
     1   Atom        1.454752     -0.738105     -0.716647
     2   Atom        0.029581     -0.180443      0.150862
 --------------------------------------------------------
                        XY            XZ            YZ
 --------------------------------------------------------
     1   Atom        0.000000      0.000000      0.000000
     2   Atom        0.000000      0.000000      0.000000
 --------------------------------------------------------


 ---------------------------------------------------------------------------------
              Anisotropic Spin Dipole Couplings in Principal Axis System
 ---------------------------------------------------------------------------------

       Atom             a.u.   MegaHertz   Gauss  10(-4) cm-1        Axes

              Baa    -0.7381    22.305     7.959     7.440 -0.0000  1.0000  0.0000
     1 Cr(53) Bbb    -0.7166    21.656     7.728     7.224  0.0000  0.0000  1.0000
              Bcc     1.4548   -43.961   -15.686   -14.664  1.0000  0.0000  0.0000
 
              Baa    -0.1804    13.057     4.659     4.355 -0.0000  1.0000  0.0000
     2 O(17)  Bbb     0.0296    -2.140    -0.764    -0.714  1.0000  0.0000  0.0000
              Bcc     0.1509   -10.916    -3.895    -3.641  0.0000  0.0000  1.0000
 

 ---------------------------------------------------------------------------------

 No NMR shielding tensors so no spin-rotation constants.
 Leave Link  601 at Tue Mar 13 08:25:10 2018, MaxMem= 10737418240 cpu:             113.7 elap:               7.4
 (Enter /home1/apps/gaussian/16rA.03/g16/l9999.exe)
 1\1\GINC-C438-111\SP\ROCCSD(T)-Full\Gen\Cr1O1(5)\AANNABE\13-Mar-2018\0
 \\#P ROCCSD(T)=(maxcyc=150, Full, SaveAmplitudes, ReadAmplitudes)/Gen 
 5d 7f SCF=(maxcycles=300) Integral(NoXCTest) MaxDisk=500GB Pop=Regular
  Pseudo=Read Guess=Read\\CrO\\0,5\Cr,0,0.,0.,0.\O,0,0.,0.,1.7\\Version
 =ES64L-G16RevA.03\HF=-101.8761376\MP2=-102.7751327\PUHF=-101.8761376\P
 MP2-0=-102.7751327\CCSD=-102.7648302\CCSD(T)=-102.8169127\RMSD=5.066e-
 09\PG=C*V [C*(O1Cr1)]\\@


 FAULTILY FAULTLESS, ICILY REGULAR, SPLENDIDLY NULL...
           MAUDE BY TENNYSON
 Job cpu time:       1 days  5 hours 32 minutes 33.3 seconds.
 Elapsed time:       0 days  1 hours 51 minutes 16.6 seconds.
 File lengths (MBytes):  RWF=  14918 Int=      0 D2E=      0 Chk=     74 Scr=      1
 Normal termination of Gaussian 16 at Tue Mar 13 08:25:11 2018.
