 Entering Gaussian System, Link 0=g16
 Initial command:
 /home1/apps/gaussian/16rA.03/g16/l1.exe "/tmp/Gau-563.inp" -scrdir="/tmp/"
 Entering Link 1 = /home1/apps/gaussian/16rA.03/g16/l1.exe PID=       564.
  
 Copyright (c) 1988,1990,1992,1993,1995,1998,2003,2009,2016,
            Gaussian, Inc.  All Rights Reserved.
  
 This is part of the Gaussian(R) 16 program.  It is based on
 the Gaussian(R) 09 system (copyright 2009, Gaussian, Inc.),
 the Gaussian(R) 03 system (copyright 2003, Gaussian, Inc.),
 the Gaussian(R) 98 system (copyright 1998, Gaussian, Inc.),
 the Gaussian(R) 94 system (copyright 1995, Gaussian, Inc.),
 the Gaussian 92(TM) system (copyright 1992, Gaussian, Inc.),
 the Gaussian 90(TM) system (copyright 1990, Gaussian, Inc.),
 the Gaussian 88(TM) system (copyright 1988, Gaussian, Inc.),
 the Gaussian 86(TM) system (copyright 1986, Carnegie Mellon
 University), and the Gaussian 82(TM) system (copyright 1983,
 Carnegie Mellon University). Gaussian is a federally registered
 trademark of Gaussian, Inc.
  
 This software contains proprietary and confidential information,
 including trade secrets, belonging to Gaussian, Inc.
  
 This software is provided under written license and may be
 used, copied, transmitted, or stored only in accord with that
 written license.
  
 The following legend is applicable only to US Government
 contracts under FAR:
  
                    RESTRICTED RIGHTS LEGEND
  
 Use, reproduction and disclosure by the US Government is
 subject to restrictions as set forth in subparagraphs (a)
 and (c) of the Commercial Computer Software - Restricted
 Rights clause in FAR 52.227-19.
  
 Gaussian, Inc.
 340 Quinnipiac St., Bldg. 40, Wallingford CT 06492
  
  
 ---------------------------------------------------------------
 Warning -- This program may not be used in any manner that
 competes with the business of Gaussian, Inc. or will provide
 assistance to any competitor of Gaussian, Inc.  The licensee
 of this program is prohibited from giving any competitor of
 Gaussian, Inc. access to this program.  By using this program,
 the user acknowledges that Gaussian, Inc. is engaged in the
 business of creating and licensing software in the field of
 computational chemistry and represents and warrants to the
 licensee that it is not a competitor of Gaussian, Inc. and that
 it will not use this program in any manner prohibited above.
 ---------------------------------------------------------------
  

 Cite this work as:
 Gaussian 16, Revision A.03,
 M. J. Frisch, G. W. Trucks, H. B. Schlegel, G. E. Scuseria, 
 M. A. Robb, J. R. Cheeseman, G. Scalmani, V. Barone, 
 G. A. Petersson, H. Nakatsuji, X. Li, M. Caricato, A. V. Marenich, 
 J. Bloino, B. G. Janesko, R. Gomperts, B. Mennucci, H. P. Hratchian, 
 J. V. Ortiz, A. F. Izmaylov, J. L. Sonnenberg, D. Williams-Young, 
 F. Ding, F. Lipparini, F. Egidi, J. Goings, B. Peng, A. Petrone, 
 T. Henderson, D. Ranasinghe, V. G. Zakrzewski, J. Gao, N. Rega, 
 G. Zheng, W. Liang, M. Hada, M. Ehara, K. Toyota, R. Fukuda, 
 J. Hasegawa, M. Ishida, T. Nakajima, Y. Honda, O. Kitao, H. Nakai, 
 T. Vreven, K. Throssell, J. A. Montgomery, Jr., J. E. Peralta, 
 F. Ogliaro, M. J. Bearpark, J. J. Heyd, E. N. Brothers, K. N. Kudin, 
 V. N. Staroverov, T. A. Keith, R. Kobayashi, J. Normand, 
 K. Raghavachari, A. P. Rendell, J. C. Burant, S. S. Iyengar, 
 J. Tomasi, M. Cossi, J. M. Millam, M. Klene, C. Adamo, R. Cammi, 
 J. W. Ochterski, R. L. Martin, K. Morokuma, O. Farkas, 
 J. B. Foresman, and D. J. Fox, Gaussian, Inc., Wallingford CT, 2016.
 
 ******************************************
 Gaussian 16:  ES64L-G16RevA.03 25-Dec-2016
                 5-Apr-2018 
 ******************************************
 %MEM=80GB
 %CPU=0-19
 SetSPE:  set environment variable "MP_BIND" = "yes"
 SetSPE:  set environment variable "MP_BLIST" = "0,1,2,3,4,5,6,7,8,9,10,11,12,13,14,15,16,17,18,19"
 Will use up to   20 processors via shared memory.
 %RWF=/scratch/04843/aannabe/gaussian/
 %Int=/scratch/04843/aannabe/gaussian/
 %D2E=/scratch/04843/aannabe/gaussian/
 %NoSave
 %CHK=Cr
 ----------------------------------------------------------------------
 #P ROCCSD(T)=(maxcyc=150, Full)/Gen 5d 7f SCF=(maxcycles=300, NoVarAcc
 , VShift=300) MaxDisk=100GB Pop=Regular Pseudo=Read Guess=Read IOp(5/1
 5=2)
 ----------------------------------------------------------------------
 1/38=1,172=1/1;
 2/12=2,17=6,18=5,40=1/2;
 3/5=7,8=11,11=2,16=1,17=8,25=1,30=1,116=101/1,2,3;
 4/5=1/1;
 5/5=2,7=300,10=300,15=2,38=6/2;
 8/5=-1,6=4,9=120000,10=90/1,4;
 9/5=7,6=150,14=2/13;
 6//1;
 99/5=1,9=1/99;
 Leave Link    1 at Thu Apr  5 18:06:40 2018, MaxMem= 10737418240 cpu:               1.0 elap:               0.1
 (Enter /home1/apps/gaussian/16rA.03/g16/l101.exe)
 --
 Cr
 --
 Symbolic Z-matrix:
 Charge =  0 Multiplicity = 7
 Cr                    0.        0.        0. 
 
 ITRead=  0
 MicOpt= -1
 NAtoms=      1 NQM=        1 NQMF=       0 NMMI=      0 NMMIF=      0
                NMic=       0 NMicF=      0.
                    Isotopes and Nuclear Properties:
 (Nuclear quadrupole moments (NQMom) in fm**2, nuclear magnetic moments (NMagM)
  in nuclear magnetons)

  Atom         1
 IAtWgt=          52
 AtmWgt=  51.9405097
 NucSpn=           0
 AtZEff=  -0.0000000
 NQMom=    0.0000000
 NMagM=    0.0000000
 AtZNuc=  24.0000000
 Leave Link  101 at Thu Apr  5 18:06:40 2018, MaxMem= 10737418240 cpu:               1.7 elap:               0.1
 (Enter /home1/apps/gaussian/16rA.03/g16/l202.exe)
                          Input orientation:                          
 ---------------------------------------------------------------------
 Center     Atomic      Atomic             Coordinates (Angstroms)
 Number     Number       Type             X           Y           Z
 ---------------------------------------------------------------------
      1         24           0        0.000000    0.000000    0.000000
 ---------------------------------------------------------------------
 Stoichiometry    Cr(7)
 Framework group  OH[O(Cr)]
 Deg. of freedom     0
 Full point group                 OH      NOp  48
 Largest Abelian subgroup         D2H     NOp   8
 Largest concise Abelian subgroup C1      NOp   1
                         Standard orientation:                         
 ---------------------------------------------------------------------
 Center     Atomic      Atomic             Coordinates (Angstroms)
 Number     Number       Type             X           Y           Z
 ---------------------------------------------------------------------
      1         24           0        0.000000    0.000000    0.000000
 ---------------------------------------------------------------------
 Leave Link  202 at Thu Apr  5 18:06:40 2018, MaxMem= 10737418240 cpu:               0.7 elap:               0.1
 (Enter /home1/apps/gaussian/16rA.03/g16/l301.exe)
 General basis read from cards:  (5D, 7F)
 Centers:       1
 S 1 1.00
     Exponent=  3.4689760000D+04 Coefficients=  1.0000000000D+00
 S 1 1.00
     Exponent=  1.2524830000D+04 Coefficients=  1.0000000000D+00
 S 1 1.00
     Exponent=  4.8857520000D+03 Coefficients=  1.0000000000D+00
 S 1 1.00
     Exponent=  2.0269180000D+03 Coefficients=  1.0000000000D+00
 S 1 1.00
     Exponent=  8.8436450000D+02 Coefficients=  1.0000000000D+00
 S 1 1.00
     Exponent=  4.0231700000D+02 Coefficients=  1.0000000000D+00
 S 1 1.00
     Exponent=  1.8952710000D+02 Coefficients=  1.0000000000D+00
 S 1 1.00
     Exponent=  9.1860950000D+01 Coefficients=  1.0000000000D+00
 S 1 1.00
     Exponent=  4.5124760000D+01 Coefficients=  1.0000000000D+00
 S 1 1.00
     Exponent=  2.0625120000D+01 Coefficients=  1.0000000000D+00
 S 1 1.00
     Exponent=  1.0319730000D+01 Coefficients=  1.0000000000D+00
 S 1 1.00
     Exponent=  5.1577230000D+00 Coefficients=  1.0000000000D+00
 S 1 1.00
     Exponent=  2.3126280000D+00 Coefficients=  1.0000000000D+00
 S 1 1.00
     Exponent=  1.1030790000D+00 Coefficients=  1.0000000000D+00
 S 1 1.00
     Exponent=  4.9804200000D-01 Coefficients=  1.0000000000D+00
 S 1 1.00
     Exponent=  1.1824700000D-01 Coefficients=  1.0000000000D+00
 S 1 1.00
     Exponent=  5.7356000000D-02 Coefficients=  1.0000000000D+00
 S 1 1.00
     Exponent=  2.5760000000D-02 Coefficients=  1.0000000000D+00
 S 1 1.00
     Exponent=  4.7991000000D+00 Coefficients=  1.0000000000D+00
 S 1 1.00
     Exponent=  1.4287000000D+00 Coefficients=  1.0000000000D+00
 S 1 1.00
     Exponent=  1.1570000000D-02 Coefficients=  1.0000000000D+00
 P 1 1.00
     Exponent=  2.4226220000D+03 Coefficients=  1.0000000000D+00
 P 1 1.00
     Exponent=  9.2775470000D+02 Coefficients=  1.0000000000D+00
 P 1 1.00
     Exponent=  3.9480410000D+02 Coefficients=  1.0000000000D+00
 P 1 1.00
     Exponent=  1.8080270000D+02 Coefficients=  1.0000000000D+00
 P 1 1.00
     Exponent=  8.7423930000D+01 Coefficients=  1.0000000000D+00
 P 1 1.00
     Exponent=  4.4034270000D+01 Coefficients=  1.0000000000D+00
 P 1 1.00
     Exponent=  2.2777040000D+01 Coefficients=  1.0000000000D+00
 P 1 1.00
     Exponent=  1.2015470000D+01 Coefficients=  1.0000000000D+00
 P 1 1.00
     Exponent=  6.4117510000D+00 Coefficients=  1.0000000000D+00
 P 1 1.00
     Exponent=  3.3811360000D+00 Coefficients=  1.0000000000D+00
 P 1 1.00
     Exponent=  1.7470540000D+00 Coefficients=  1.0000000000D+00
 P 1 1.00
     Exponent=  8.8500400000D-01 Coefficients=  1.0000000000D+00
 P 1 1.00
     Exponent=  4.3302800000D-01 Coefficients=  1.0000000000D+00
 P 1 1.00
     Exponent=  1.7396200000D-01 Coefficients=  1.0000000000D+00
 P 1 1.00
     Exponent=  7.2823000000D-02 Coefficients=  1.0000000000D+00
 P 1 1.00
     Exponent=  2.9952000000D-02 Coefficients=  1.0000000000D+00
 P 1 1.00
     Exponent=  6.4552000000D+00 Coefficients=  1.0000000000D+00
 P 1 1.00
     Exponent=  1.6531000000D+00 Coefficients=  1.0000000000D+00
 P 1 1.00
     Exponent=  1.2320000000D-02 Coefficients=  1.0000000000D+00
 D 1 1.00
     Exponent=  2.8131200000D+02 Coefficients=  1.0000000000D+00
 D 1 1.00
     Exponent=  8.3188500000D+01 Coefficients=  1.0000000000D+00
 D 1 1.00
     Exponent=  3.1839600000D+01 Coefficients=  1.0000000000D+00
 D 1 1.00
     Exponent=  1.3602600000D+01 Coefficients=  1.0000000000D+00
 D 1 1.00
     Exponent=  6.1829800000D+00 Coefficients=  1.0000000000D+00
 D 1 1.00
     Exponent=  2.9227000000D+00 Coefficients=  1.0000000000D+00
 D 1 1.00
     Exponent=  1.3821600000D+00 Coefficients=  1.0000000000D+00
 D 1 1.00
     Exponent=  6.3946000000D-01 Coefficients=  1.0000000000D+00
 D 1 1.00
     Exponent=  2.8489800000D-01 Coefficients=  1.0000000000D+00
 D 1 1.00
     Exponent=  1.2004500000D-01 Coefficients=  1.0000000000D+00
 D 1 1.00
     Exponent=  4.6229000000D-02 Coefficients=  1.0000000000D+00
 D 1 1.00
     Exponent=  4.0848000000D+00 Coefficients=  1.0000000000D+00
 D 1 1.00
     Exponent=  2.1405000000D+00 Coefficients=  1.0000000000D+00
 D 1 1.00
     Exponent=  1.7800000000D-02 Coefficients=  1.0000000000D+00
 F 1 1.00
     Exponent=  5.6633000000D+00 Coefficients=  1.0000000000D+00
 F 1 1.00
     Exponent=  2.3365000000D+00 Coefficients=  1.0000000000D+00
 F 1 1.00
     Exponent=  9.6390000000D-01 Coefficients=  1.0000000000D+00
 F 1 1.00
     Exponent=  3.1420000000D-01 Coefficients=  1.0000000000D+00
 F 1 1.00
     Exponent=  1.0242000000D-01 Coefficients=  1.0000000000D+00
 G 1 1.00
     Exponent=  4.6690000000D+00 Coefficients=  1.0000000000D+00
 G 1 1.00
     Exponent=  1.9538000000D+00 Coefficients=  1.0000000000D+00
 G 1 1.00
     Exponent=  6.8480000000D-01 Coefficients=  1.0000000000D+00
 G 1 1.00
     Exponent=  2.4002000000D-01 Coefficients=  1.0000000000D+00
 H 1 1.00
     Exponent=  4.4133000000D+00 Coefficients=  1.0000000000D+00
 H 1 1.00
     Exponent=  1.6472000000D+00 Coefficients=  1.0000000000D+00
 H 1 1.00
     Exponent=  6.1479000000D-01 Coefficients=  1.0000000000D+00
 ****
 ======================================================================================================
                                       Pseudopotential Parameters
 ======================================================================================================
  Center     Atomic      Valence      Angular      Power
  Number     Number     Electrons     Momentum     of R      Exponent        Coefficient   SO-Coeffient
 ======================================================================================================
    1         24           14
                                      D and up 
                                                     1       17.2879472       14.00000000    0.00000000
                                                     3       17.3913560      242.03126039    0.00000000
                                                     2       16.8640484     -132.23033385    0.00000000
                                                     2        5.2753764       -0.38908764    0.00000000
                                      S - D
                                                     2       16.6702673      219.47993185    0.00000000
                                                     2        7.6093239       28.22499595    0.00000000
                                      P - D
                                                     2       16.2841376      140.07443193    0.00000000
                                                     2        7.4999011       19.62146606    0.00000000
 ======================================================================================================
 Ernie: Thresh=  0.10000D-02 Tol=  0.10000D-05 Strict=F.
 There are    87 symmetry adapted cartesian basis functions of AG  symmetry.
 There are    26 symmetry adapted cartesian basis functions of B1G symmetry.
 There are    26 symmetry adapted cartesian basis functions of B2G symmetry.
 There are    26 symmetry adapted cartesian basis functions of B3G symmetry.
 There are    14 symmetry adapted cartesian basis functions of AU  symmetry.
 There are    52 symmetry adapted cartesian basis functions of B1U symmetry.
 There are    52 symmetry adapted cartesian basis functions of B2U symmetry.
 There are    52 symmetry adapted cartesian basis functions of B3U symmetry.
 There are    61 symmetry adapted basis functions of AG  symmetry.
 There are    22 symmetry adapted basis functions of B1G symmetry.
 There are    22 symmetry adapted basis functions of B2G symmetry.
 There are    22 symmetry adapted basis functions of B3G symmetry.
 There are    11 symmetry adapted basis functions of AU  symmetry.
 There are    38 symmetry adapted basis functions of B1U symmetry.
 There are    38 symmetry adapted basis functions of B2U symmetry.
 There are    38 symmetry adapted basis functions of B3U symmetry.
   252 basis functions,   335 primitive gaussians,   335 cartesian basis functions
    10 alpha electrons        4 beta electrons
       nuclear repulsion energy         0.0000000000 Hartrees.
 IExCor=    0 DFT=F Ex=HF Corr=None ExCW=0 ScaHFX=  1.000000
 ScaDFX=  1.000000  1.000000  1.000000  1.000000 ScalE2=  1.000000  1.000000
 IRadAn=      5 IRanWt=     -1 IRanGd=            0 ICorTp=0 IEmpDi=  4
 NAtoms=    1 NActive=    1 NUniq=    1 SFac= 1.00D+00 NAtFMM=   60 NAOKFM=F Big=F
 Integral buffers will be    131072 words long.
 Raffenetti 2 integral format.
 Two-electron integral symmetry is turned on.
 Leave Link  301 at Thu Apr  5 18:06:41 2018, MaxMem= 10737418240 cpu:               2.1 elap:               0.1
 (Enter /home1/apps/gaussian/16rA.03/g16/l302.exe)
 NPDir=0 NMtPBC=     1 NCelOv=     1 NCel=       1 NClECP=     1 NCelD=      1
         NCelK=      1 NCelE2=     1 NClLst=     1 CellRange=     0.0.
 One-electron integrals computed using PRISM.
 One-electron integral symmetry used in STVInt
  48 Symmetry operations used in ECPInt.
 ECPInt:  NShTT=    2211 NPrTT=    2211 LenC2=    2212 LenP2D=    2211.
 LDataN:  DoStor=T MaxTD1=10 Len=  848
 NBasis=   252 RedAO= T EigKep=  1.68D-06  NBF=    61    22    22    22    11    38    38    38
 NBsUse=   248 1.00D-06 EigRej=  3.90D-07 NBFU=    60    22    22    22    11    37    37    37
 Leave Link  302 at Thu Apr  5 18:06:41 2018, MaxMem= 10737418240 cpu:              15.2 elap:               0.8
 (Enter /home1/apps/gaussian/16rA.03/g16/l303.exe)
 DipDrv:  MaxL=1.
 Leave Link  303 at Thu Apr  5 18:06:42 2018, MaxMem= 10737418240 cpu:               1.1 elap:               0.1
 (Enter /home1/apps/gaussian/16rA.03/g16/l401.exe)
 Initial guess from the checkpoint file:  "Cr.chk"
 B after Tr=     0.000000    0.000000    0.000000
         Rot=    1.000000    0.000000    0.000000    0.000000 Ang=   0.00 deg.
 Guess basis will be translated and rotated to current coordinates.
 JPrj=2 DoOrth=T DoCkMO=T.
 Initial guess orbital symmetries:
       Occupied  (A1G) (T1U) (T1U) (T1U) (A1G) (EG) (T2G) (T2G)
                 (T2G) (EG)
       Virtual   (T1U) (T1U) (T1U) (A1G) (T1U) (T1U) (T1U) (T2G)
                 (EG) (EG) (T2G) (T2G) (A1G) (T1U) (T1U) (T1U)
                 (EG) (EG) (T2G) (T2G) (T2G) (A2U) (?A) (?A) (?A)
                 (?A) (?A) (?A) (T1U) (T1U) (T1U) (EG) (T2G) (EG)
                 (T2G) (T2G) (A1G) (?A) (?A) (?A) (A2U) (?A) (?A)
                 (?A) (?B) (?B) (?B) (T2G) (T2G) (?B) (?B) (T2G)
                 (?B) (T1U) (T1U) (T1U) (EG) (EG) (T2G) (T2G) (T2G)
                 (?A) (?A) (?A) (?A) (?A) (?A) (A2U) (A1G) (T1U)
                 (T1U) (T1U) (?B) (T2G) (?B) (?B) (T2G) (?B) (?B)
                 (T2G) (?B) (EG) (T2G) (T2G) (T2G) (EG) (?A) (?A)
                 (?A) (A2U) (?A) (?A) (?A) (T1U) (T1U) (T1U) (A1G)
                 (T2G) (EG) (EG) (T2G) (T2G) (?B) (T2G) (?B) (?B)
                 (T2G) (?B) (T2G) (?B) (?B) (T1U) (T1U) (T1U) (T2G)
                 (EG) (T2G) (EG) (T2G) (A1G) (T1U) (T1U) (T1U)
                 (A1G) (T2G) (EG) (T2G) (T2G) (EG) (T1U) (T1U)
                 (T1U) (A1G) (T1U) (T1U) (T1U) (A1G) (T2G) (EG)
                 (EG) (T2G) (T2G) (T1U) (T1U) (T1U) (A1G) (T1U)
                 (T1U) (T1U) (A1G) (T1U) (T1U) (T1U) (A1G) (A1G)
                 (T1U) (T1U) (T1U) (A1G) (T1U) (T1U) (T1U) (A1G)
                 (T1U) (T1U) (T1U) (A1G) (A1G) (EG) (EG) (EG) (EG)
                 (T2G) (T2G) (T2G) (EG) (EG) (EG) (EG) (A1G) (T2G)
                 (T2G) (?B) (?B) (T2G) (T2G) (T2G) (T2G) (?B) (?B)
                 (T2G) (T2G) (T2G) (T2G) (?B) (?B) (T2G) (T2G)
                 (A2U) (EU) (EU) (EU) (EU) (EU) (EU) (?A) (?A)
                 (?C) (?C) (?C) (?D) (?D) (?D) (?E) (?E) (?E) (?A)
                 (?A) (?C) (?C) (?C) (?D) (?D) (?D) (?E) (?E) (?E)
                 (?A) (?A) (?C) (?C) (?C) (?D) (?D) (?D) (?E) (?E)
                 (?E)
 The electronic state of the initial guess is 7-A1G.
 Leave Link  401 at Thu Apr  5 18:06:42 2018, MaxMem= 10737418240 cpu:               3.5 elap:               0.2
 (Enter /home1/apps/gaussian/16rA.03/g16/l502.exe)
 Keep R1 and R2 ints in memory in symmetry-blocked form, NReq=590572836.
 FoFCou: FMM=F IPFlag=           0 FMFlag=           0 FMFlg1=           0
         NFxFlg=           0 DoJE=F BraDBF=F KetDBF=F FulRan=T
         wScrn=  0.000000 ICntrl=       600 IOpCl=  0 I1Cent=           0 NGrid=           0
         NMat0=    1 NMatS0=  31878 NMatT0=    0 NMatD0=    1 NMtDS0=    0 NMtDT0=    0
 Petite list used in FoFCou.
 Restricted open shell SCF:
 Using DIIS extrapolation, IDIIS=  1040.
 NGot= 10737418240 LenX= 10608022470 LenY= 10607909804
 Requested convergence on RMS density matrix=1.00D-08 within 300 cycles.
 Requested convergence on MAX density matrix=1.00D-06.
 Requested convergence on             energy=1.00D-06.
 Virtual orbitals will be shifted by   0.300 hartree.
 No special actions if energy rises.

 Cycle   1  Pass 1  IDiag  1:
 Density matrix breaks symmetry, PCut= 1.00D-07
 Density has only Abelian symmetry.
 E= -85.8571694980147    
 DIIS: error= 1.24D-01 at cycle   1 NSaved=   1.
 NSaved= 1 IEnMin= 1 EnMin= -85.8571694980147     IErMin= 1 ErrMin= 1.24D-01
 ErrMax= 1.24D-01  0.00D+00 EMaxC= 1.00D-01 BMatC= 1.65D+00 BMatP= 1.65D+00
 IDIUse=3 WtCom= 0.00D+00 WtEn= 1.00D+00
 Coeff-Com:  0.100D+01
 Coeff-En:   0.100D+01
 Coeff:      0.100D+01
 Gap=    -0.014 Goal=   None    Shift=    0.300
 DSYEVD-2 returned Info=         121 IAlg= 4 N=    60 NDim=   248 NE2=    42773828 trying  DSYEV.
 GapD=   -0.014 DampG=0.250 DampE=0.125 DampFc=0.1250 IDamp=-1.
 Damping current iteration by 1.25D-01
 RMSDP=2.52D-03 MaxDP=1.86D-01              OVMax= 8.17D-03

 Cycle   2  Pass 1  IDiag  1:
 Density matrix breaks symmetry, PCut= 1.00D-07
 Density has only Abelian symmetry.
 E= -85.8585684137908     Delta-E=       -0.001398915776 Rises=F Damp=T
 DIIS: error= 1.09D-01 at cycle   2 NSaved=   2.
 NSaved= 2 IEnMin= 2 EnMin= -85.8585684137908     IErMin= 2 ErrMin= 1.09D-01
 ErrMax= 1.09D-01  0.00D+00 EMaxC= 1.00D-01 BMatC= 1.26D+00 BMatP= 1.65D+00
 IDIUse=3 WtCom= 0.00D+00 WtEn= 1.00D+00
 Coeff-Com: -0.696D+01 0.796D+01
 Coeff-En:   0.000D+00 0.100D+01
 Coeff:      0.000D+00 0.100D+01
 Gap=    -0.013 Goal=   None    Shift=    0.300
 DSYEVD-2 returned Info=          91 IAlg= 4 N=    60 NDim=   248 NE2=    42773828 trying  DSYEV.
 RMSDP=2.26D-03 MaxDP=1.66D-01 DE=-1.40D-03 OVMax= 1.32D-03

 Cycle   3  Pass 1  IDiag  1:
 Density matrix breaks symmetry, PCut= 1.00D-07
 Density has only Abelian symmetry.
 E= -85.8684690899869     Delta-E=       -0.009900676196 Rises=F Damp=F
 DIIS: error= 3.71D-03 at cycle   3 NSaved=   3.
 NSaved= 3 IEnMin= 3 EnMin= -85.8684690899869     IErMin= 3 ErrMin= 3.71D-03
 ErrMax= 3.71D-03  0.00D+00 EMaxC= 1.00D-01 BMatC= 4.68D-04 BMatP= 1.26D+00
 IDIUse=3 WtCom= 9.63D-01 WtEn= 3.71D-02
 Coeff-Com:  0.908D-01-0.108D+00 0.102D+01
 Coeff-En:   0.000D+00 0.000D+00 0.100D+01
 Coeff:      0.874D-01-0.104D+00 0.102D+01
 Gap=    -0.005 Goal=   None    Shift=    0.300
 RMSDP=9.51D-05 MaxDP=9.53D-03 DE=-9.90D-03 OVMax= 5.48D-03

 Cycle   4  Pass 1  IDiag  1:
 Density matrix breaks symmetry, PCut= 1.00D-07
 Density has only Abelian symmetry.
 E= -85.8685552270365     Delta-E=       -0.000086137050 Rises=F Damp=F
 DIIS: error= 1.59D-03 at cycle   4 NSaved=   4.
 NSaved= 4 IEnMin= 4 EnMin= -85.8685552270365     IErMin= 4 ErrMin= 1.59D-03
 ErrMax= 1.59D-03  0.00D+00 EMaxC= 1.00D-01 BMatC= 1.53D-04 BMatP= 4.68D-04
 IDIUse=3 WtCom= 9.84D-01 WtEn= 1.59D-02
 Coeff-Com: -0.318D+00 0.362D+00 0.300D+00 0.656D+00
 Coeff-En:   0.000D+00 0.000D+00 0.347D+00 0.653D+00
 Coeff:     -0.313D+00 0.356D+00 0.301D+00 0.656D+00
 Gap=    -0.010 Goal=   None    Shift=    0.300
 DSYEVD-2 returned Info=         121 IAlg= 4 N=    60 NDim=   248 NE2=    42773828 trying  DSYEV.
 RMSDP=2.73D-05 MaxDP=2.32D-03 DE=-8.61D-05 OVMax= 1.24D-03

 Cycle   5  Pass 1  IDiag  1:
 Density matrix breaks symmetry, PCut= 1.00D-07
 Density has only Abelian symmetry.
 E= -85.8685934583273     Delta-E=       -0.000038231291 Rises=F Damp=F
 DIIS: error= 3.79D-04 at cycle   5 NSaved=   5.
 NSaved= 5 IEnMin= 5 EnMin= -85.8685934583273     IErMin= 5 ErrMin= 3.79D-04
 ErrMax= 3.79D-04  0.00D+00 EMaxC= 1.00D-01 BMatC= 1.22D-05 BMatP= 1.53D-04
 IDIUse=3 WtCom= 9.96D-01 WtEn= 3.79D-03
 Coeff-Com: -0.436D+00 0.498D+00-0.848D-01-0.197D+00 0.122D+01
 Coeff-En:   0.000D+00 0.000D+00 0.141D+00 0.000D+00 0.859D+00
 Coeff:     -0.434D+00 0.496D+00-0.840D-01-0.196D+00 0.122D+01
 Gap=    -0.011 Goal=   None    Shift=    0.300
 RMSDP=1.49D-05 MaxDP=1.77D-03 DE=-3.82D-05 OVMax= 6.23D-04

 Cycle   6  Pass 1  IDiag  1:
 Density matrix breaks symmetry, PCut= 1.00D-07
 Density has only Abelian symmetry.
 E= -85.8685961498356     Delta-E=       -0.000002691508 Rises=F Damp=F
 DIIS: error= 3.76D-04 at cycle   6 NSaved=   6.
 NSaved= 6 IEnMin= 6 EnMin= -85.8685961498356     IErMin= 6 ErrMin= 3.76D-04
 ErrMax= 3.76D-04  0.00D+00 EMaxC= 1.00D-01 BMatC= 7.11D-06 BMatP= 1.22D-05
 IDIUse=3 WtCom= 9.96D-01 WtEn= 3.76D-03
 Rare condition: small coef for last iteration:  0.000D+00
 Coeff-Com: -0.402D+00 0.459D+00-0.821D-01 0.293D-01-0.170D+00 0.117D+01
 Coeff-En:   0.000D+00 0.000D+00 0.433D-01 0.000D+00 0.000D+00 0.957D+00
 Coeff:     -0.402D+00 0.459D+00-0.821D-01 0.293D-01-0.170D+00 0.117D+01
 Gap=    -0.010 Goal=   None    Shift=    0.300
 RMSDP=1.87D-06 MaxDP=1.58D-04 DE=-2.69D-06 OVMax= 1.02D-04

 Cycle   7  Pass 1  IDiag  1:
 Density matrix breaks symmetry, PCut= 1.00D-07
 Density has only Abelian symmetry.
 E= -85.8685959529104     Delta-E=        0.000000196925 Rises=F Damp=F
 DIIS: error= 3.60D-04 at cycle   7 NSaved=   7.
 NSaved= 7 IEnMin= 6 EnMin= -85.8685961498356     IErMin= 7 ErrMin= 3.60D-04
 ErrMax= 3.60D-04  0.00D+00 EMaxC= 1.00D-01 BMatC= 6.68D-06 BMatP= 7.11D-06
 IDIUse=3 WtCom= 9.96D-01 WtEn= 3.60D-03
 EnCoef did   100 forward-backward iterations
 Rare condition: small coef for last iteration:  0.000D+00
 Coeff-Com: -0.396D+00 0.452D+00-0.741D-01 0.835D-02-0.882D-01 0.320D+00
 Coeff-Com:  0.777D+00
 Coeff-En:   0.000D+00 0.000D+00 0.518D-01 0.000D+00 0.000D+00 0.000D+00
 Coeff-En:   0.948D+00
 Coeff:     -0.396D+00 0.452D+00-0.741D-01 0.835D-02-0.882D-01 0.320D+00
 Coeff:      0.777D+00
 Gap=    -0.010 Goal=   None    Shift=    0.300
 RMSDP=7.17D-07 MaxDP=7.23D-05 DE= 1.97D-07 OVMax= 5.57D-05

 Cycle   8  Pass 1  IDiag  1:
 Density matrix breaks symmetry, PCut= 1.00D-07
 Density has only Abelian symmetry.
 E= -85.8685960107632     Delta-E=       -0.000000057853 Rises=F Damp=F
 DIIS: error= 3.55D-04 at cycle   8 NSaved=   8.
 NSaved= 8 IEnMin= 6 EnMin= -85.8685961498356     IErMin= 8 ErrMin= 3.55D-04
 ErrMax= 3.55D-04  0.00D+00 EMaxC= 1.00D-01 BMatC= 6.53D-06 BMatP= 6.68D-06
 IDIUse=3 WtCom= 9.96D-01 WtEn= 3.55D-03
 EnCoef did   100 forward-backward iterations
 Coeff-Com: -0.389D+00 0.445D+00-0.732D-01 0.123D-01-0.925D-01 0.636D+00
 Coeff-Com: -0.165D+01 0.211D+01
 Coeff-En:   0.000D+00 0.000D+00 0.132D+00 0.000D+00 0.777D+00 0.235D-02
 Coeff-En:   0.000D+00 0.891D-01
 Coeff:     -0.388D+00 0.443D+00-0.724D-01 0.123D-01-0.894D-01 0.634D+00
 Coeff:     -0.164D+01 0.210D+01
 Gap=    -0.010 Goal=   None    Shift=    0.300
 RMSDP=5.48D-07 MaxDP=4.64D-05 DE=-5.79D-08 OVMax= 2.85D-05

 Cycle   9  Pass 1  IDiag  1:
 Density matrix breaks symmetry, PCut= 1.00D-07
 Density has only Abelian symmetry.
 E= -85.8685960559059     Delta-E=       -0.000000045143 Rises=F Damp=F
 DIIS: error= 3.51D-04 at cycle   9 NSaved=   9.
 NSaved= 9 IEnMin= 6 EnMin= -85.8685961498356     IErMin= 9 ErrMin= 3.51D-04
 ErrMax= 3.51D-04  0.00D+00 EMaxC= 1.00D-01 BMatC= 6.36D-06 BMatP= 6.53D-06
 IDIUse=3 WtCom= 9.96D-01 WtEn= 3.51D-03
 EnCoef did   100 forward-backward iterations
 Rare condition: small coef for last iteration:  0.333D-15
 Coeff-Com: -0.385D+00 0.440D+00-0.731D-01 0.164D-01-0.106D+00 0.783D+00
 Coeff-Com: -0.178D+01 0.108D+01 0.102D+01
 Coeff-En:   0.000D+00 0.000D+00 0.500D-01 0.000D+00 0.000D+00 0.000D+00
 Coeff-En:   0.000D+00 0.000D+00 0.950D+00
 Coeff:     -0.385D+00 0.440D+00-0.731D-01 0.164D-01-0.106D+00 0.783D+00
 Coeff:     -0.178D+01 0.108D+01 0.102D+01
 Gap=    -0.010 Goal=   None    Shift=    0.300
 RMSDP=2.94D-07 MaxDP=2.26D-05 DE=-4.51D-08 OVMax= 1.34D-05

 Cycle  10  Pass 1  IDiag  1:
 Density matrix breaks symmetry, PCut= 1.00D-07
 Density has only Abelian symmetry.
 E= -85.8685960989885     Delta-E=       -0.000000043083 Rises=F Damp=F
 DIIS: error= 3.49D-04 at cycle  10 NSaved=  10.
 NSaved=10 IEnMin= 6 EnMin= -85.8685961498356     IErMin=10 ErrMin= 3.49D-04
 ErrMax= 3.49D-04  0.00D+00 EMaxC= 1.00D-01 BMatC= 6.27D-06 BMatP= 6.36D-06
 IDIUse=3 WtCom= 9.97D-01 WtEn= 3.49D-03
 Large coefficients: NSaved= 10 BigCof=   13.54 CofMax=   10.00 Det=-1.64D-11
 Inversion failed.  Reducing to  9 matrices.
 Large coefficients: NSaved=  9 BigCof=  111.05 CofMax=   10.00 Det=-2.10D-11
 Inversion failed.  Reducing to  8 matrices.
 Large coefficients: NSaved=  8 BigCof=  110.54 CofMax=   10.00 Det=-9.98D-12
 Inversion failed.  Reducing to  7 matrices.
 Large coefficients: NSaved=  7 BigCof=   91.45 CofMax=   10.00 Det=-1.05D-11
 Inversion failed.  Reducing to  6 matrices.
 Large coefficients: NSaved=  6 BigCof=  131.62 CofMax=   10.00 Det=-1.18D-11
 Inversion failed.  Reducing to  5 matrices.
 Large coefficients: NSaved=  5 BigCof=  114.65 CofMax=   10.00 Det=-1.85D-11
 Inversion failed.  Reducing to  4 matrices.
 Large coefficients: NSaved=  4 BigCof=  107.76 CofMax=   10.00 Det=-1.89D-11
 Inversion failed.  Reducing to  3 matrices.
 Large coefficients: NSaved=  3 BigCof=  131.95 CofMax=   10.00 Det=-2.39D-10
 Inversion failed.  Reducing to  2 matrices.
 Large coefficients: NSaved=  2 BigCof=  109.83 CofMax=   10.00 Det=-3.84D-10
 Coeff-Com: -0.109D+03 0.110D+03
 Coeff-En:   0.000D+00 0.100D+01
 Coeff:     -0.108D+03 0.109D+03
 Gap=    -0.010 Goal=   None    Shift=    0.300
 RMSDP=2.53D-05 MaxDP=2.99D-03 DE=-4.31D-08 OVMax= 1.43D-03

 Cycle  11  Pass 1  IDiag  1:
 Density matrix breaks symmetry, PCut= 1.00D-07
 Density has only Abelian symmetry.
 E= -85.8686008014568     Delta-E=       -0.000004702468 Rises=F Damp=F
 DIIS: error= 7.52D-05 at cycle  11 NSaved=   3.
 NSaved= 3 IEnMin= 3 EnMin= -85.8686008014568     IErMin= 3 ErrMin= 7.52D-05
 ErrMax= 7.52D-05  0.00D+00 EMaxC= 1.00D-01 BMatC= 6.86D-07 BMatP= 6.27D-06
 IDIUse=1 WtCom= 1.00D+00 WtEn= 0.00D+00
 Large coefficients: NSaved=  3 BigCof=   48.14 CofMax=   10.00 Det=-1.95D-10
 Inversion failed.  Reducing to  2 matrices.
 Coeff-Com:  0.492D-01 0.951D+00
 Coeff:      0.492D-01 0.951D+00
 Gap=    -0.010 Goal=   None    Shift=    0.300
 RMSDP=8.64D-06 MaxDP=5.41D-04 DE=-4.70D-06 OVMax= 3.58D-04

 Cycle  12  Pass 1  IDiag  1:
 Density matrix breaks symmetry, PCut= 1.00D-07
 Density has only Abelian symmetry.
 E= -85.8686013900736     Delta-E=       -0.000000588617 Rises=F Damp=F
 DIIS: error= 3.40D-05 at cycle  12 NSaved=   3.
 NSaved= 3 IEnMin= 3 EnMin= -85.8686013900736     IErMin= 3 ErrMin= 3.40D-05
 ErrMax= 3.40D-05  0.00D+00 EMaxC= 1.00D-01 BMatC= 5.98D-08 BMatP= 6.86D-07
 IDIUse=1 WtCom= 1.00D+00 WtEn= 0.00D+00
 Coeff-Com: -0.236D-01 0.145D+00 0.879D+00
 Coeff:     -0.236D-01 0.145D+00 0.879D+00
 Gap=    -0.010 Goal=   None    Shift=    0.300
 RMSDP=2.02D-06 MaxDP=2.30D-04 DE=-5.89D-07 OVMax= 1.66D-04

 Cycle  13  Pass 1  IDiag  1:
 E= -85.8686014456956     Delta-E=       -0.000000055622 Rises=F Damp=F
 DIIS: error= 1.33D-05 at cycle  13 NSaved=   4.
 NSaved= 4 IEnMin= 4 EnMin= -85.8686014456956     IErMin= 4 ErrMin= 1.33D-05
 ErrMax= 1.33D-05  0.00D+00 EMaxC= 1.00D-01 BMatC= 7.44D-09 BMatP= 5.98D-08
 IDIUse=1 WtCom= 1.00D+00 WtEn= 0.00D+00
 Coeff-Com: -0.348D-02-0.292D-01 0.622D-01 0.971D+00
 Coeff:     -0.348D-02-0.292D-01 0.622D-01 0.971D+00
 Gap=    -0.010 Goal=   None    Shift=    0.300
 RMSDP=1.11D-06 MaxDP=1.34D-04 DE=-5.56D-08 OVMax= 1.12D-04

 Cycle  14  Pass 1  IDiag  1:
 E= -85.8686014612003     Delta-E=       -0.000000015505 Rises=F Damp=F
 DIIS: error= 8.97D-06 at cycle  14 NSaved=   5.
 NSaved= 5 IEnMin= 5 EnMin= -85.8686014612003     IErMin= 5 ErrMin= 8.97D-06
 ErrMax= 8.97D-06  0.00D+00 EMaxC= 1.00D-01 BMatC= 2.02D-09 BMatP= 7.44D-09
 IDIUse=1 WtCom= 1.00D+00 WtEn= 0.00D+00
 Coeff-Com:  0.328D-02-0.258D-01-0.979D-01-0.702D+00 0.182D+01
 Coeff:      0.328D-02-0.258D-01-0.979D-01-0.702D+00 0.182D+01
 Gap=    -0.010 Goal=   None    Shift=    0.300
 RMSDP=6.53D-07 MaxDP=8.22D-05 DE=-1.55D-08 OVMax= 8.19D-05

 Cycle  15  Pass 1  IDiag  1:
 Density matrix breaks symmetry, PCut= 1.00D-07
 Density has only Abelian symmetry.
 E= -85.8686014664764     Delta-E=       -0.000000005276 Rises=F Damp=F
 DIIS: error= 5.31D-06 at cycle  15 NSaved=   6.
 NSaved= 6 IEnMin= 6 EnMin= -85.8686014664764     IErMin= 6 ErrMin= 5.31D-06
 ErrMax= 5.31D-06  0.00D+00 EMaxC= 1.00D-01 BMatC= 7.56D-10 BMatP= 2.02D-09
 IDIUse=1 WtCom= 1.00D+00 WtEn= 0.00D+00
 Coeff-Com: -0.148D-02 0.562D-02-0.791D-01-0.242D+00 0.273D+00 0.104D+01
 Coeff:     -0.148D-02 0.562D-02-0.791D-01-0.242D+00 0.273D+00 0.104D+01
 Gap=    -0.010 Goal=   None    Shift=    0.300
 RMSDP=4.43D-07 MaxDP=6.95D-05 DE=-5.28D-09 OVMax= 4.73D-05

 Cycle  16  Pass 1  IDiag  1:
 E= -85.8686014682982     Delta-E=       -0.000000001822 Rises=F Damp=F
 DIIS: error= 3.23D-06 at cycle  16 NSaved=   7.
 NSaved= 7 IEnMin= 7 EnMin= -85.8686014682982     IErMin= 7 ErrMin= 3.23D-06
 ErrMax= 3.23D-06  0.00D+00 EMaxC= 1.00D-01 BMatC= 2.71D-10 BMatP= 7.56D-10
 IDIUse=1 WtCom= 1.00D+00 WtEn= 0.00D+00
 Coeff-Com:  0.131D-02-0.592D-02 0.209D-01-0.132D+00 0.449D+00-0.201D+01
 Coeff-Com:  0.267D+01
 Coeff:      0.131D-02-0.592D-02 0.209D-01-0.132D+00 0.449D+00-0.201D+01
 Coeff:      0.267D+01
 Gap=    -0.010 Goal=   None    Shift=    0.300
 RMSDP=2.72D-07 MaxDP=4.46D-05 DE=-1.82D-09 OVMax= 2.79D-05

 Cycle  17  Pass 1  IDiag  1:
 Density matrix breaks symmetry, PCut= 1.00D-07
 Density has only Abelian symmetry.
 E= -85.8686014689306     Delta-E=       -0.000000000632 Rises=F Damp=F
 DIIS: error= 2.03D-06 at cycle  17 NSaved=   8.
 NSaved= 8 IEnMin= 8 EnMin= -85.8686014689306     IErMin= 8 ErrMin= 2.03D-06
 ErrMax= 2.03D-06  0.00D+00 EMaxC= 1.00D-01 BMatC= 1.05D-10 BMatP= 2.71D-10
 IDIUse=1 WtCom= 1.00D+00 WtEn= 0.00D+00
 Coeff-Com:  0.662D-03-0.239D-02 0.288D-01-0.819D-01 0.272D+00-0.149D+01
 Coeff-Com:  0.151D+01 0.760D+00
 Coeff:      0.662D-03-0.239D-02 0.288D-01-0.819D-01 0.272D+00-0.149D+01
 Coeff:      0.151D+01 0.760D+00
 Gap=    -0.010 Goal=   None    Shift=    0.300
 DSYEVD-2 returned Info=          75 IAlg= 4 N=    37 NDim=   248 NE2=    42773828 trying  DSYEV.
 RMSDP=2.02D-07 MaxDP=4.43D-05 DE=-6.32D-10 OVMax= 1.77D-05

 Cycle  18  Pass 1  IDiag  1:
 Density matrix breaks symmetry, PCut= 1.00D-07
 Density has only Abelian symmetry.
 E= -85.8686014691850     Delta-E=       -0.000000000254 Rises=F Damp=F
 DIIS: error= 1.29D-06 at cycle  18 NSaved=   9.
 NSaved= 9 IEnMin= 9 EnMin= -85.8686014691850     IErMin= 9 ErrMin= 1.29D-06
 ErrMax= 1.29D-06  0.00D+00 EMaxC= 1.00D-01 BMatC= 5.33D-11 BMatP= 1.05D-10
 IDIUse=1 WtCom= 1.00D+00 WtEn= 0.00D+00
 Coeff-Com:  0.846D-04-0.708D-03 0.203D-02-0.840D-01 0.217D+00-0.499D+00
 Coeff-Com:  0.164D+01-0.405D+01 0.378D+01
 Coeff:      0.846D-04-0.708D-03 0.203D-02-0.840D-01 0.217D+00-0.499D+00
 Coeff:      0.164D+01-0.405D+01 0.378D+01
 Gap=    -0.010 Goal=   None    Shift=    0.300
 RMSDP=1.31D-07 MaxDP=3.07D-05 DE=-2.54D-10 OVMax= 1.08D-05

 Cycle  19  Pass 1  IDiag  1:
 Density matrix breaks symmetry, PCut= 1.00D-07
 Density has only Abelian symmetry.
 E= -85.8686014692934     Delta-E=       -0.000000000108 Rises=F Damp=F
 DIIS: error= 8.65D-07 at cycle  19 NSaved=  10.
 NSaved=10 IEnMin=10 EnMin= -85.8686014692934     IErMin=10 ErrMin= 8.65D-07
 ErrMax= 8.65D-07  0.00D+00 EMaxC= 1.00D-01 BMatC= 3.27D-11 BMatP= 5.33D-11
 IDIUse=1 WtCom= 1.00D+00 WtEn= 0.00D+00
 Coeff-Com:  0.651D-04-0.763D-03 0.350D-02-0.820D-01 0.224D+00-0.490D+00
 Coeff-Com:  0.125D+01-0.238D+01 0.102D+01 0.145D+01
 Coeff:      0.651D-04-0.763D-03 0.350D-02-0.820D-01 0.224D+00-0.490D+00
 Coeff:      0.125D+01-0.238D+01 0.102D+01 0.145D+01
 Gap=    -0.010 Goal=   None    Shift=    0.300
 RMSDP=8.49D-08 MaxDP=2.12D-05 DE=-1.08D-10 OVMax= 7.27D-06

 Cycle  20  Pass 1  IDiag  1:
 Density matrix breaks symmetry, PCut= 1.00D-07
 Density has only Abelian symmetry.
 E= -85.8686014693484     Delta-E=       -0.000000000055 Rises=F Damp=F
 DIIS: error= 5.78D-07 at cycle  20 NSaved=  11.
 NSaved=11 IEnMin=11 EnMin= -85.8686014693484     IErMin=11 ErrMin= 5.78D-07
 ErrMax= 5.78D-07  0.00D+00 EMaxC= 1.00D-01 BMatC= 2.13D-11 BMatP= 3.27D-11
 IDIUse=1 WtCom= 1.00D+00 WtEn= 0.00D+00
 Coeff-Com:  0.133D-03-0.173D-02 0.893D-03-0.649D-01 0.173D+00-0.483D+00
 Coeff-Com:  0.795D+00-0.986D-02 0.126D+01-0.651D+01 0.583D+01
 Coeff:      0.133D-03-0.173D-02 0.893D-03-0.649D-01 0.173D+00-0.483D+00
 Coeff:      0.795D+00-0.986D-02 0.126D+01-0.651D+01 0.583D+01
 Gap=    -0.010 Goal=   None    Shift=    0.300
 DSYEVD-2 returned Info=          75 IAlg= 4 N=    37 NDim=   248 NE2=    42773828 trying  DSYEV.
 RMSDP=6.70D-08 MaxDP=1.60D-05 DE=-5.50D-11 OVMax= 4.51D-06

 Cycle  21  Pass 1  IDiag  1:
 Density matrix breaks symmetry, PCut= 1.00D-07
 Density has only Abelian symmetry.
 E= -85.8686014693753     Delta-E=       -0.000000000027 Rises=F Damp=F
 DIIS: error= 4.05D-07 at cycle  21 NSaved=  12.
 NSaved=12 IEnMin=12 EnMin= -85.8686014693753     IErMin=12 ErrMin= 4.05D-07
 ErrMax= 4.05D-07  0.00D+00 EMaxC= 1.00D-01 BMatC= 1.52D-11 BMatP= 2.13D-11
 IDIUse=1 WtCom= 1.00D+00 WtEn= 0.00D+00
 Coeff-Com:  0.138D-03-0.179D-02 0.923D-03-0.602D-01 0.163D+00-0.492D+00
 Coeff-Com:  0.760D+00 0.258D+00 0.105D+01-0.638D+01 0.503D+01 0.679D+00
 Coeff:      0.138D-03-0.179D-02 0.923D-03-0.602D-01 0.163D+00-0.492D+00
 Coeff:      0.760D+00 0.258D+00 0.105D+01-0.638D+01 0.503D+01 0.679D+00
 Gap=    -0.010 Goal=   None    Shift=    0.300
 RMSDP=3.84D-08 MaxDP=9.68D-06 DE=-2.69D-11 OVMax= 3.11D-06

 Cycle  22  Pass 1  IDiag  1:
 Density matrix breaks symmetry, PCut= 1.00D-07
 Density has only Abelian symmetry.
 E= -85.8686014693912     Delta-E=       -0.000000000016 Rises=F Damp=F
 DIIS: error= 2.88D-07 at cycle  22 NSaved=  13.
 NSaved=13 IEnMin=13 EnMin= -85.8686014693912     IErMin=13 ErrMin= 2.88D-07
 ErrMax= 2.88D-07  0.00D+00 EMaxC= 1.00D-01 BMatC= 1.13D-11 BMatP= 1.52D-11
 IDIUse=1 WtCom= 1.00D+00 WtEn= 0.00D+00
 Large coefficients: NSaved= 13 BigCof=   15.60 CofMax=   10.00 Det=-8.49D-16
 Inversion failed.  Reducing to 12 matrices.
 Large coefficients: NSaved= 12 BigCof=   15.99 CofMax=   10.00 Det=-8.53D-16
 Inversion failed.  Reducing to 11 matrices.
 Large coefficients: NSaved= 11 BigCof=   14.10 CofMax=   10.00 Det=-8.60D-16
 Inversion failed.  Reducing to 10 matrices.
 Coeff-Com: -0.324D-01 0.714D-01-0.296D+00 0.641D+00-0.434D+00 0.878D+00
 Coeff-Com: -0.183D+01 0.384D+01-0.905D+01 0.722D+01
 Coeff:     -0.324D-01 0.714D-01-0.296D+00 0.641D+00-0.434D+00 0.878D+00
 Coeff:     -0.183D+01 0.384D+01-0.905D+01 0.722D+01
 Gap=    -0.010 Goal=   None    Shift=    0.300
 RMSDP=2.59D-08 MaxDP=6.30D-06 DE=-1.59D-11 OVMax= 2.15D-06

 Cycle  23  Pass 1  IDiag  1:
 Density matrix breaks symmetry, PCut= 1.00D-07
 Density has only Abelian symmetry.
 E= -85.8686014694033     Delta-E=       -0.000000000012 Rises=F Damp=F
 DIIS: error= 2.54D-07 at cycle  23 NSaved=  11.
 NSaved=11 IEnMin=11 EnMin= -85.8686014694033     IErMin=11 ErrMin= 2.54D-07
 ErrMax= 2.54D-07  0.00D+00 EMaxC= 1.00D-01 BMatC= 8.04D-12 BMatP= 1.13D-11
 IDIUse=1 WtCom= 1.00D+00 WtEn= 0.00D+00
 Coeff-Com: -0.264D-01 0.489D-01-0.669D-01 0.277D+00-0.840D+00 0.136D+01
 Coeff-Com: -0.672D+00 0.362D+01-0.942D+01 0.295D+01 0.377D+01
 Coeff:     -0.264D-01 0.489D-01-0.669D-01 0.277D+00-0.840D+00 0.136D+01
 Coeff:     -0.672D+00 0.362D+01-0.942D+01 0.295D+01 0.377D+01
 Gap=    -0.010 Goal=   None    Shift=    0.300
 RMSDP=1.62D-08 MaxDP=4.09D-06 DE=-1.21D-11 OVMax= 1.47D-06

 Cycle  24  Pass 1  IDiag  1:
 Density matrix breaks symmetry, PCut= 1.00D-07
 Density has only Abelian symmetry.
 E= -85.8686014694094     Delta-E=       -0.000000000006 Rises=F Damp=F
 DIIS: error= 2.17D-07 at cycle  24 NSaved=  12.
 NSaved=12 IEnMin=12 EnMin= -85.8686014694094     IErMin=12 ErrMin= 2.17D-07
 ErrMax= 2.17D-07  0.00D+00 EMaxC= 1.00D-01 BMatC= 6.60D-12 BMatP= 8.04D-12
 IDIUse=1 WtCom= 1.00D+00 WtEn= 0.00D+00
 Coeff-Com: -0.226D-01 0.535D-01-0.701D-01 0.234D+00-0.106D+01 0.171D+01
 Coeff-Com: -0.424D+00 0.311D+01-0.666D+01-0.486D+00 0.162D+01 0.301D+01
 Coeff:     -0.226D-01 0.535D-01-0.701D-01 0.234D+00-0.106D+01 0.171D+01
 Coeff:     -0.424D+00 0.311D+01-0.666D+01-0.486D+00 0.162D+01 0.301D+01
 Gap=    -0.010 Goal=   None    Shift=    0.300
 RMSDP=9.08D-09 MaxDP=2.22D-06 DE=-6.15D-12 OVMax= 1.10D-06

 Cycle  25  Pass 1  IDiag  1:
 Density matrix breaks symmetry, PCut= 1.00D-07
 Density has only Abelian symmetry.
 E= -85.8686014694135     Delta-E=       -0.000000000004 Rises=F Damp=F
 DIIS: error= 1.89D-07 at cycle  25 NSaved=  13.
 NSaved=13 IEnMin=13 EnMin= -85.8686014694135     IErMin=13 ErrMin= 1.89D-07
 ErrMax= 1.89D-07  0.00D+00 EMaxC= 1.00D-01 BMatC= 5.36D-12 BMatP= 6.60D-12
 IDIUse=1 WtCom= 1.00D+00 WtEn= 0.00D+00
 Coeff-Com: -0.218D-01 0.501D-01-0.612D-01 0.245D+00-0.111D+01 0.155D+01
 Coeff-Com: -0.743D-01 0.246D+01-0.468D+01-0.182D+01 0.141D+01 0.102D+01
 Coeff-Com:  0.203D+01
 Coeff:     -0.218D-01 0.501D-01-0.612D-01 0.245D+00-0.111D+01 0.155D+01
 Coeff:     -0.743D-01 0.246D+01-0.468D+01-0.182D+01 0.141D+01 0.102D+01
 Coeff:      0.203D+01
 Gap=    -0.010 Goal=   None    Shift=    0.300
 RMSDP=6.09D-09 MaxDP=1.23D-06 DE=-4.09D-12 OVMax= 8.17D-07

 Cycle  26  Pass 1  IDiag  1:
 Density matrix breaks symmetry, PCut= 1.00D-07
 Density has only Abelian symmetry.
 E= -85.8686014694166     Delta-E=       -0.000000000003 Rises=F Damp=F
 DIIS: error= 1.73D-07 at cycle  26 NSaved=  14.
 NSaved=14 IEnMin=14 EnMin= -85.8686014694166     IErMin=14 ErrMin= 1.73D-07
 ErrMax= 1.73D-07  0.00D+00 EMaxC= 1.00D-01 BMatC= 4.45D-12 BMatP= 5.36D-12
 IDIUse=1 WtCom= 1.00D+00 WtEn= 0.00D+00
 Coeff-Com: -0.248D-01 0.534D-01-0.599D-01 0.308D+00-0.113D+01 0.137D+01
 Coeff-Com: -0.732D+00 0.115D+01 0.274D+01-0.626D+01 0.114D+01-0.674D+00
 Coeff-Com: -0.171D+01 0.483D+01
 Coeff:     -0.248D-01 0.534D-01-0.599D-01 0.308D+00-0.113D+01 0.137D+01
 Coeff:     -0.732D+00 0.115D+01 0.274D+01-0.626D+01 0.114D+01-0.674D+00
 Coeff:     -0.171D+01 0.483D+01
 Gap=    -0.010 Goal=   None    Shift=    0.300
 RMSDP=4.38D-09 MaxDP=7.29D-07 DE=-3.11D-12 OVMax= 6.01D-07

 Density matrix breaks symmetry, PCut= 1.00D-07
 Density has only Abelian symmetry.
 SCF Done:  E(ROHF) =  -85.8686014694     A.U. after   26 cycles
            NFock= 26  Conv=0.44D-08     -V/T= 2.8628
 <Sx>= 0.0000 <Sy>= 0.0000 <Sz>= 3.0000 <S**2>=12.0000 S= 3.0000
 <L.S>=  0.00000000000    
 KE= 4.609567604950D+01 PE=-1.965871955419D+02 EE= 6.462291802296D+01
 Annihilation of the first spin contaminant:
 S**2 before annihilation    12.0000,   after    12.0000
 Leave Link  502 at Thu Apr  5 18:07:01 2018, MaxMem= 10737418240 cpu:             367.6 elap:              19.3
 (Enter /home1/apps/gaussian/16rA.03/g16/l801.exe)
 Windowed orbitals will be sorted by symmetry type.
 Density matrix breaks symmetry, PCut= 1.00D-07
 Density has only Abelian symmetry.
 GenMOA:  NOpAll= 48 NOp2=8 NOpUse=  8 JSym2X=1
 FoFJK:  IHMeth= 1 ICntrl=       0 DoSepK=F KAlg= 0 I1Cent=           0 FoldK=F
 IRaf=         0 NMat=       1 IRICut=       1 DoRegI=T DoRafI=F ISym2E= 1 IDoP0=0 IntGTp=1.
 FoFCou: FMM=F IPFlag=           0 FMFlag=      100000 FMFlg1=           0
         NFxFlg=           0 DoJE=F BraDBF=F KetDBF=F FulRan=T
         wScrn=  0.000000 ICntrl=         0 IOpCl=  1 I1Cent=           0 NGrid=           0
         NMat0=    1 NMatS0=      1 NMatT0=    0 NMatD0=    1 NMtDS0=    0 NMtDT0=    0
 Petite list used in FoFCou.
 <Sx>= 0.0000 <Sy>= 0.0000 <Sz>= 3.0000 <S**2>=12.0000 S= 3.0000
 Range of M.O.s used for correlation:     1   248
 NBasis=   252 NAE=    10 NBE=     4 NFC=     0 NFV=     0
 NROrb=    248 NOA=    10 NOB=     4 NVA=   238 NVB=   244

 **** Warning!!: The largest alpha MO coefficient is  0.30370593D+03


 **** Warning!!: The largest beta MO coefficient is  0.30323943D+03

 Singles contribution to E2=   -0.2468973816D-03
 Leave Link  801 at Thu Apr  5 18:07:04 2018, MaxMem= 10737418240 cpu:              56.0 elap:               2.8
 (Enter /home1/apps/gaussian/16rA.03/g16/l804.exe)
 Open-shell transformation, MDV= 10737418240 ITran=4 ISComp=2.
 Unit  1 TFree=       1931476 TCopy=       1557321.
 Semi-Direct transformation.
 ModeAB=           2 MOrb=            10 LenV=   10735380799
 LASXX=      9445319 LTotXX=     9445319 LenRXX=     9445319
 LTotAB=     9606150 MaxLAS=   139574400 LenRXY=   139574400
 NonZer=   143398560 LenScr=   215942144 LnRSAI=           0
 LnScr1=           0 LExtra=     5334845 Total=    370296708
 MaxDsk= 13421772800 SrtSym=           F ITran=            4
 DoSDTr:  NPSUse= 20
 JobTyp=1 Pass  1:  I=   1 to  10.
 (rs|ai) integrals will be sorted in core.
 Complete sort for first half transformation.
 First half transformation complete.
 Begin second half transformation for I=  10.
 Begin second half transformation for I=  10.
 Complete sort for second half transformation.
 Second half transformation complete.
 ModeAB=           2 MOrb=             4 LenV=   10735380799
 LASXX=      3848534 LTotXX=     3848534 LenRXX=    55829760
 LTotAB=     3597473 MaxLAS=    55829760 LenRXY=     3597473
 NonZer=    57359424 LenScr=    86793216 LnRSAI=           0
 LnScr1=           0 LExtra=   154354564 Total=    300575013
 MaxDsk= 13421772800 SrtSym=           F ITran=            4
 DoSDTr:  NPSUse= 20
 JobTyp=2 Pass  1:  I=   1 to   4.
 (rs|ai) integrals will be sorted in core.
 Complete sort for first half transformation.
 First half transformation complete.
 Complete sort for second half transformation.
 Second half transformation complete.
 Spin components of T(2) and E(2):
     alpha-alpha T2 =       0.3725430867D-01 E2=     -0.1668119911D+00
     alpha-beta  T2 =       0.4068579540D-01 E2=     -0.3487603978D+00
     beta-beta   T2 =       0.5953443391D-02 E2=     -0.3685634840D-01
 ANorm=    0.1041131504D+01
 E2 =    -0.5526756347D+00 EUMP2 =    -0.86421277104079D+02
 (S**2,0)=  0.12000D+02           (S**2,1)=  0.12000D+02
 E(PUHF)=      -0.85868601469D+02        E(PMP2)=      -0.86421277104D+02
 Leave Link  804 at Thu Apr  5 18:08:09 2018, MaxMem= 10737418240 cpu:            1293.7 elap:              65.0
 (Enter /home1/apps/gaussian/16rA.03/g16/l913.exe)
 CIDS:  MDV= 10737418240.
 IFCWin=0 IBDFC=1 NFBD=     0     0 NFCmp=     0     0 NFFFC=     0     0
 Using original routines for 1st iteration.
 Using DD4UQ or CC4UQ for 2nd and later iterations.
 Keep R2 and R3 ints in memory in symmetry-blocked form, NReq=590586104.
 FoFCou: FMM=F IPFlag=           0 FMFlag=           0 FMFlg1=           0
         NFxFlg=           0 DoJE=F BraDBF=F KetDBF=F FulRan=T
         wScrn=  0.000000 ICntrl=       600 IOpCl=  0 I1Cent=           0 NGrid=           0
         NMat0=    1 NMatS0=  31878 NMatT0=    0 NMatD0=    1 NMtDS0=    0 NMtDT0=    0
 Petite list used in FoFCou.
 CIDS: In Core Option IDoMem=           1.
 CCSD(T)
 =======
 Iterations= 150 Convergence= 0.100D-06
 Produce multiple copies of IABC intergrals
 Iteration Nr.   1
 **********************
 DD1Dir will call FoFMem   1 times, MxPair=       132
 NAB=    40 NAA=    45 NBB=     6.
 DD1Dir will call FoFMem   1 times, MxPair=       132
 NAB=    40 NAA=    45 NBB=     6.
 MP4(R+Q)= -0.16338781D-02
 Maximum subspace dimension=  5
 A-vector RMS=  2.6011833D-05 Max=  9.6543761D-04 conv= 1.00D-05.
 RLE energy=       -0.5451322269
 E3=        0.92805409D-02        EROMP3=      -0.86411996563D+02
 E4(SDQ)=  -0.34690111D-02        ROMP4(SDQ)=  -0.86415465574D+02
 VARIATIONAL ENERGIES WITH THE FIRST-ORDER WAVEFUNCTION:
 DE(Corr)= -0.54502772     E(Corr)=     -86.413629185    
 NORM(A)=   0.10393372D+01
 Iteration Nr.   2
 **********************
 DD1Dir will call FoFMem   1 times, MxPair=       132
 NAB=    40 NAA=    45 NBB=     6.
 A-vector RMS=  1.5131154D-03 Max=  2.1625807D-02 conv= 1.00D-05.
 RLE energy=       -0.5426072988
 DE(Corr)= -0.53588433     E(CORR)=     -86.404485798     Delta= 9.14D-03
 NORM(A)=   0.10387117D+01
 Iteration Nr.   3
 **********************
 DD1Dir will call FoFMem   1 times, MxPair=       132
 NAB=    40 NAA=    45 NBB=     6.
 A-vector RMS=  1.1112739D-03 Max=  1.8543563D-02 conv= 1.00D-05.
 RLE energy=       -0.5449628312
 DE(Corr)= -0.53849495     E(CORR)=     -86.407096419     Delta=-2.61D-03
 NORM(A)=   0.10400065D+01
 Iteration Nr.   4
 **********************
 DD1Dir will call FoFMem   1 times, MxPair=       132
 NAB=    40 NAA=    45 NBB=     6.
 A-vector RMS=  8.3887340D-04 Max=  1.2602184D-02 conv= 1.00D-05.
 RLE energy=       -0.5459130278
 DE(Corr)= -0.54096182     E(CORR)=     -86.409563286     Delta=-2.47D-03
 NORM(A)=   0.10453976D+01
 Iteration Nr.   5
 **********************
 DD1Dir will call FoFMem   1 times, MxPair=       132
 NAB=    40 NAA=    45 NBB=     6.
 A-vector RMS=  3.6623505D-04 Max=  3.7893442D-03 conv= 1.00D-05.
 RLE energy=       -0.5458585671
 DE(Corr)= -0.54818824     E(CORR)=     -86.416789712     Delta=-7.23D-03
 NORM(A)=   0.10440135D+01
 Iteration Nr.   6
 **********************
 DD1Dir will call FoFMem   1 times, MxPair=       132
 NAB=    40 NAA=    45 NBB=     6.
 A-vector RMS=  4.0368035D-05 Max=  5.2505636D-04 conv= 1.00D-05.
 RLE energy=       -0.5458263524
 DE(Corr)= -0.54590674     E(CORR)=     -86.414508212     Delta= 2.28D-03
 NORM(A)=   0.10440808D+01
 Iteration Nr.   7
 **********************
 DD1Dir will call FoFMem   1 times, MxPair=       132
 NAB=    40 NAA=    45 NBB=     6.
 A-vector RMS=  6.3556150D-06 Max=  8.7559621D-05 conv= 1.00D-05.
 RLE energy=       -0.5458218982
 DE(Corr)= -0.54582081     E(CORR)=     -86.414422277     Delta= 8.59D-05
 NORM(A)=   0.10441029D+01
 Iteration Nr.   8
 **********************
 DD1Dir will call FoFMem   1 times, MxPair=       132
 NAB=    40 NAA=    45 NBB=     6.
 A-vector RMS=  5.7226706D-06 Max=  1.0725844D-04 conv= 1.00D-05.
 RLE energy=       -0.5458224976
 DE(Corr)= -0.54582496     E(CORR)=     -86.414426429     Delta=-4.15D-06
 NORM(A)=   0.10441070D+01
 Iteration Nr.   9
 **********************
 DD1Dir will call FoFMem   1 times, MxPair=       132
 NAB=    40 NAA=    45 NBB=     6.
 A-vector RMS=  1.8937481D-06 Max=  3.2359187D-05 conv= 1.00D-05.
 RLE energy=       -0.5458240307
 DE(Corr)= -0.54582275     E(CORR)=     -86.414424218     Delta= 2.21D-06
 NORM(A)=   0.10441106D+01
 Iteration Nr.  10
 **********************
 DD1Dir will call FoFMem   1 times, MxPair=       132
 NAB=    40 NAA=    45 NBB=     6.
 A-vector RMS=  9.1068191D-07 Max=  1.6607684D-05 conv= 1.00D-05.
 RLE energy=       -0.5458244254
 DE(Corr)= -0.54582362     E(CORR)=     -86.414425085     Delta=-8.67D-07
 NORM(A)=   0.10441089D+01
 Iteration Nr.  11
 **********************
 DD1Dir will call FoFMem   1 times, MxPair=       132
 NAB=    40 NAA=    45 NBB=     6.
 A-vector RMS=  2.5053746D-07 Max=  6.3853131D-06 conv= 1.00D-05.
 RLE energy=       -0.5458230457
 DE(Corr)= -0.54582309     E(CORR)=     -86.414424564     Delta= 5.21D-07
 NORM(A)=   0.10441075D+01
 Iteration Nr.  12
 **********************
 DD1Dir will call FoFMem   1 times, MxPair=       132
 NAB=    40 NAA=    45 NBB=     6.
 A-vector RMS=  5.4341614D-08 Max=  9.7655091D-07 conv= 1.00D-05.
 RLE energy=       -0.5458229462
 DE(Corr)= -0.54582297     E(CORR)=     -86.414424442     Delta= 1.22D-07
 NORM(A)=   0.10441073D+01
 Iteration Nr.  13
 **********************
 DD1Dir will call FoFMem   1 times, MxPair=       132
 NAB=    40 NAA=    45 NBB=     6.
 A-vector RMS=  2.2200305D-08 Max=  4.9997695D-07 conv= 1.00D-05.
 RLE energy=       -0.5458229100
 DE(Corr)= -0.54582291     E(CORR)=     -86.414424379     Delta= 6.25D-08
 NORM(A)=   0.10441072D+01
 CI/CC converged in   13 iterations to DelEn= 6.25D-08 Conv= 1.00D-07 ErrA1= 2.22D-08 Conv= 1.00D-05
 Wavefunction amplitudes converged. E(Corr)=     -86.414424379    
 Largest amplitude= 4.44D-02
 Time for triples=     3011.08 seconds.
 T4(CCSD)= -0.17739982D-01
 T5(CCSD)=  0.61192996D-03
 CCSD(T)= -0.86431552431D+02
 Discarding MO integrals.
 Leave Link  913 at Thu Apr  5 18:11:13 2018, MaxMem= 10737418240 cpu:            3656.3 elap:             184.4
 (Enter /home1/apps/gaussian/16rA.03/g16/l601.exe)
 Copying SCF densities to generalized density rwf, IOpCl= 0 IROHF=1.
 SCF density gives NOpUse=  8 NOpAll= 48.
 Marking SCF density as not fully symmetric.

 **********************************************************************

            Population analysis using the SCF density.

 **********************************************************************

 Orbital symmetries:
       Occupied  (A1G) (T1U) (T1U) (T1U) (A1G) (T2G) (EG) (T2G)
                 (T2G) (EG)
       Virtual   (T1U) (T1U) (T1U) (A1G) (EG) (T2G) (T2G) (T2G)
                 (EG) (T1U) (T1U) (T1U) (A1G) (T2G) (EG) (T2G)
                 (EG) (T2G) (T1U) (T1U) (T1U) (?A) (?A) (?A) (A2U)
                 (?A) (?A) (?A) (A1G) (T2G) (EG) (T2G) (EG) (T2G)
                 (T1U) (T1U) (T1U) (?B) (T2G) (?B) (?B) (T2G) (?B)
                 (?B) (?B) (T2G) (?A) (?A) (A2U) (?A) (?A) (?A)
                 (?A) (T2G) (EG) (T2G) (EG) (T2G) (A1G) (T1U) (T1U)
                 (T1U) (T2G) (EG) (T2G) (EG) (T2G) (?A) (?A) (?A)
                 (?A) (A2U) (?A) (?A) (T2G) (?B) (?B) (?B) (T2G)
                 (?B) (?B) (?B) (T2G) (?C) (?C) (?C) (EU) (?C)
                 (?C) (?C) (?C) (EU) (?C) (?C) (T1U) (T1U) (T1U)
                 (A1G) (EG) (T2G) (T2G) (EG) (T2G) (?A) (?A) (?A)
                 (A2U) (?A) (?A) (?A) (T1U) (T1U) (T1U) (?B) (T2G)
                 (T2G) (?B) (?B) (?B) (?B) (?B) (T2G) (?D) (?D)
                 (?D) (EU) (?D) (?D) (?D) (?D) (EU) (?D) (?D) (EG)
                 (T2G) (T2G) (T2G) (EG) (A1G) (T1U) (T1U) (T1U)
                 (?A) (?A) (?A) (A2U) (?A) (?A) (?A) (EG) (T2G)
                 (T2G) (EG) (T2G) (T2G) (?B) (?B) (?B) (T2G) (?B)
                 (?B) (?B) (T2G) (?E) (?E) (EU) (?E) (?E) (?E)
                 (?E) (EU) (?E) (?E) (?E) (A1G) (T1U) (T1U) (T1U)
                 (EG) (T2G) (T2G) (T2G) (EG) (EG) (T2G) (T2G) (T2G)
                 (EG) (T1U) (T1U) (T1U) (A1G) (T1U) (T1U) (T1U)
                 (EG) (T2G) (T2G) (EG) (T2G) (A1G) (A1G) (T1U)
                 (T1U) (T1U) (EG) (T2G) (T2G) (EG) (T2G) (A1G)
                 (T1U) (T1U) (T1U) (A1G) (T1U) (T1U) (T1U) (EG)
                 (T2G) (EG) (T2G) (T2G) (A1G) (T1U) (T1U) (T1U)
                 (A1G) (T1U) (T1U) (T1U) (A1G) (T1U) (T1U) (T1U)
                 (A1G) (A1G) (A1G)
 The electronic state is 7-A1G.
 Alpha  occ. eigenvalues --   -3.57717  -2.29071  -2.29071  -2.29071  -0.36959
 Alpha  occ. eigenvalues --   -0.36959  -0.36959  -0.36959  -0.36959  -0.22680
 Alpha virt. eigenvalues --    0.01733   0.01733   0.01733   0.02413   0.05525
 Alpha virt. eigenvalues --    0.05525   0.05525   0.05525   0.05525   0.05971
 Alpha virt. eigenvalues --    0.05971   0.05971   0.12701   0.17967   0.17967
 Alpha virt. eigenvalues --    0.17967   0.17967   0.17967   0.20052   0.20052
 Alpha virt. eigenvalues --    0.20052   0.40751   0.40751   0.40751   0.40751
 Alpha virt. eigenvalues --    0.40751   0.40751   0.40751   0.44339   0.50027
 Alpha virt. eigenvalues --    0.50027   0.50027   0.50027   0.50027   0.60299
 Alpha virt. eigenvalues --    0.60299   0.60299   1.18703   1.18703   1.18703
 Alpha virt. eigenvalues --    1.18703   1.18703   1.18703   1.18703   1.18703
 Alpha virt. eigenvalues --    1.18703   1.27672   1.27672   1.27672   1.27672
 Alpha virt. eigenvalues --    1.27672   1.27672   1.27672   1.29455   1.29455
 Alpha virt. eigenvalues --    1.29455   1.29455   1.29455   1.66757   1.70376
 Alpha virt. eigenvalues --    1.70376   1.70376   3.04205   3.04205   3.04205
 Alpha virt. eigenvalues --    3.04205   3.04205   3.45924   3.45924   3.45924
 Alpha virt. eigenvalues --    3.45924   3.45924   3.45924   3.45924   3.54337
 Alpha virt. eigenvalues --    3.54337   3.54337   3.54337   3.54337   3.54337
 Alpha virt. eigenvalues --    3.54337   3.54337   3.54337   3.59376   3.59376
 Alpha virt. eigenvalues --    3.59376   3.59376   3.59376   3.59376   3.59376
 Alpha virt. eigenvalues --    3.59376   3.59376   3.59376   3.59376   4.25089
 Alpha virt. eigenvalues --    4.25089   4.25089   5.14380   6.41123   6.41123
 Alpha virt. eigenvalues --    6.41123   6.41123   6.41123   8.61531   8.61531
 Alpha virt. eigenvalues --    8.61531   8.61531   8.61531   8.61531   8.61531
 Alpha virt. eigenvalues --    9.16891   9.16891   9.16891   9.46851   9.46851
 Alpha virt. eigenvalues --    9.46851   9.46851   9.46851   9.46851   9.46851
 Alpha virt. eigenvalues --    9.46851   9.46851  10.11052  10.11052  10.11052
 Alpha virt. eigenvalues --   10.11052  10.11052  10.11052  10.11052  10.11052
 Alpha virt. eigenvalues --   10.11052  10.11052  10.11052  12.20728  12.20728
 Alpha virt. eigenvalues --   12.20728  12.20728  12.20728  12.45984  17.99284
 Alpha virt. eigenvalues --   17.99284  17.99284  21.20600  21.20600  21.20600
 Alpha virt. eigenvalues --   21.20600  21.20600  21.20600  21.20600  21.62673
 Alpha virt. eigenvalues --   21.62673  21.62673  21.62673  21.62673  23.32532
 Alpha virt. eigenvalues --   23.32532  23.32532  23.32532  23.32532  23.32532
 Alpha virt. eigenvalues --   23.32532  23.32532  23.32532  26.51740  26.51740
 Alpha virt. eigenvalues --   26.51740  26.51740  26.51740  26.51740  26.51740
 Alpha virt. eigenvalues --   26.51740  26.51740  26.51740  26.51740  28.81453
 Alpha virt. eigenvalues --   34.61839  34.61839  34.61839  36.85759  36.85759
 Alpha virt. eigenvalues --   36.85759  36.85759  36.85759  64.47985  64.47985
 Alpha virt. eigenvalues --   64.47985  64.47985  64.47985  67.17795  67.17795
 Alpha virt. eigenvalues --   67.17795  67.30998 127.95634 127.95634 127.95634
 Alpha virt. eigenvalues --  131.31238 131.31238 131.31238 131.31238 131.31238
 Alpha virt. eigenvalues --  134.07429 238.66065 240.78027 240.78027 240.78027
 Alpha virt. eigenvalues --  340.47406 340.47406 340.47406 340.47406 340.47406
 Alpha virt. eigenvalues --  437.86690 458.40037 458.40037 458.40037 835.29902
 Alpha virt. eigenvalues --  900.52007 900.52007 900.520071146.349251146.34925
 Alpha virt. eigenvalues -- 1146.349251146.349251146.349251658.311361861.88079
 Alpha virt. eigenvalues -- 1861.880791861.880793442.174854147.058274147.05827
 Alpha virt. eigenvalues -- 4147.058277498.58570******************************
 Alpha virt. eigenvalues -- ******************************
     Molecular Orbital Coefficients:
                           1         2         3         4         5
                       (A1G)--O  (T1U)--O  (T1U)--O  (T1U)--O  (A1G)--O
     Eigenvalues --    -3.57717  -2.29071  -2.29071  -2.29071  -0.36959
   1 1   Cr 1S         -0.00000   0.00000   0.00000   0.00000   0.00000
   2        2S          0.00001   0.00000   0.00000   0.00000  -0.00000
   3        3S         -0.00003   0.00000   0.00000   0.00000   0.00001
   4        4S          0.00011   0.00000   0.00000   0.00000  -0.00002
   5        5S         -0.00034   0.00000   0.00000   0.00000   0.00007
   6        6S          0.00096   0.00000   0.00000   0.00000  -0.00022
   7        7S         -0.00265   0.00000   0.00000   0.00000   0.00059
   8        8S          0.00723   0.00000   0.00000   0.00000  -0.00163
   9        9S         -0.02203   0.00000   0.00000   0.00000   0.00507
  10       10S          0.10475   0.00000   0.00000   0.00000  -0.02526
  11       11S         -0.16660   0.00000   0.00000   0.00000   0.04282
  12       12S         -0.30976   0.00000   0.00000   0.00000   0.08583
  13       13S          0.40002   0.00000   0.00000   0.00000  -0.11550
  14       14S          0.79974   0.00000   0.00000   0.00000  -0.28276
  15       15S          0.28562   0.00000   0.00000   0.00000  -0.19266
  16       16S          0.01576   0.00000   0.00000   0.00000   0.30578
  17       17S         -0.00916   0.00000   0.00000   0.00000   0.58893
  18       18S          0.00417   0.00000   0.00000   0.00000   0.25865
  19       19S         -0.08445   0.00000   0.00000   0.00000   0.01273
  20       20S         -0.15990   0.00000   0.00000   0.00000   0.06256
  21       21S         -0.00112   0.00000   0.00000   0.00000  -0.00040
  22       22PX         0.00000   0.00000   0.00000   0.00000   0.00000
  23       22PY         0.00000   0.00000   0.00000   0.00000   0.00000
  24       22PZ         0.00000   0.00000   0.00000   0.00000   0.00000
  25       23PX         0.00000  -0.00001   0.00000   0.00000   0.00000
  26       23PY         0.00000   0.00000   0.00000  -0.00001   0.00000
  27       23PZ         0.00000   0.00000  -0.00001   0.00000   0.00000
  28       24PX         0.00000   0.00003   0.00000   0.00000   0.00000
  29       24PY         0.00000   0.00000   0.00000   0.00003   0.00000
  30       24PZ         0.00000   0.00000   0.00003   0.00000   0.00000
  31       25PX         0.00000  -0.00011   0.00000   0.00000   0.00000
  32       25PY         0.00000   0.00000   0.00000  -0.00011   0.00000
  33       25PZ         0.00000   0.00000  -0.00011   0.00000   0.00000
  34       26PX         0.00000   0.00037   0.00000   0.00000   0.00000
  35       26PY         0.00000   0.00000   0.00000   0.00037   0.00000
  36       26PZ         0.00000   0.00000   0.00037   0.00000   0.00000
  37       27PX         0.00000  -0.00167   0.00000   0.00000   0.00000
  38       27PY         0.00000   0.00000   0.00000  -0.00167   0.00000
  39       27PZ         0.00000   0.00000  -0.00167   0.00000   0.00000
  40       28PX         0.00000   0.01470   0.00000   0.00000   0.00000
  41       28PY         0.00000   0.00000   0.00000   0.01470   0.00000
  42       28PZ         0.00000   0.00000   0.01470   0.00000   0.00000
  43       29PX         0.00000  -0.06784   0.00000   0.00000   0.00000
  44       29PY         0.00000   0.00000   0.00000  -0.06784   0.00000
  45       29PZ         0.00000   0.00000  -0.06784   0.00000   0.00000
  46       30PX         0.00000  -0.03693   0.00000   0.00000   0.00000
  47       30PY         0.00000   0.00000   0.00000  -0.03693   0.00000
  48       30PZ         0.00000   0.00000  -0.03693   0.00000   0.00000
  49       31PX         0.00000   0.19543   0.00000   0.00000   0.00000
  50       31PY         0.00000   0.00000   0.00000   0.19543   0.00000
  51       31PZ         0.00000   0.00000   0.19543   0.00000   0.00000
  52       32PX         0.00000   0.33607   0.00000   0.00000   0.00000
  53       32PY         0.00000   0.00000   0.00000   0.33607   0.00000
  54       32PZ         0.00000   0.00000   0.33607   0.00000   0.00000
  55       33PX         0.00000   0.37851   0.00000   0.00000   0.00000
  56       33PY         0.00000   0.00000   0.00000   0.37851   0.00000
  57       33PZ         0.00000   0.00000   0.37851   0.00000   0.00000
  58       34PX         0.00000   0.17718   0.00000   0.00000   0.00000
  59       34PY         0.00000   0.00000   0.00000   0.17718   0.00000
  60       34PZ         0.00000   0.00000   0.17718   0.00000   0.00000
  61       35PX         0.00000   0.02066   0.00000   0.00000   0.00000
  62       35PY         0.00000   0.00000   0.00000   0.02066   0.00000
  63       35PZ         0.00000   0.00000   0.02066   0.00000   0.00000
  64       36PX         0.00000  -0.00105   0.00000   0.00000   0.00000
  65       36PY         0.00000   0.00000   0.00000  -0.00105   0.00000
  66       36PZ         0.00000   0.00000  -0.00105   0.00000   0.00000
  67       37PX         0.00000   0.00075   0.00000   0.00000   0.00000
  68       37PY         0.00000   0.00000   0.00000   0.00075   0.00000
  69       37PZ         0.00000   0.00000   0.00075   0.00000   0.00000
  70       38PX         0.00000  -0.01882   0.00000   0.00000   0.00000
  71       38PY         0.00000   0.00000   0.00000  -0.01882   0.00000
  72       38PZ         0.00000   0.00000  -0.01882   0.00000   0.00000
  73       39PX         0.00000   0.06258   0.00000   0.00000   0.00000
  74       39PY         0.00000   0.00000   0.00000   0.06258   0.00000
  75       39PZ         0.00000   0.00000   0.06258   0.00000   0.00000
  76       40PX         0.00000  -0.00021   0.00000   0.00000   0.00000
  77       40PY         0.00000   0.00000   0.00000  -0.00021   0.00000
  78       40PZ         0.00000   0.00000  -0.00021   0.00000   0.00000
  79       41D 0       -0.00000   0.00000   0.00000   0.00000  -0.00000
  80       41D+1        0.00000   0.00000   0.00000   0.00000   0.00000
  81       41D-1        0.00000   0.00000   0.00000   0.00000   0.00000
  82       41D+2        0.00000   0.00000   0.00000   0.00000  -0.00000
  83       41D-2        0.00000   0.00000   0.00000   0.00000   0.00000
  84       42D 0       -0.00000   0.00000   0.00000   0.00000   0.00000
  85       42D+1        0.00000   0.00000   0.00000   0.00000   0.00000
  86       42D-1        0.00000   0.00000   0.00000   0.00000   0.00000
  87       42D+2       -0.00000   0.00000   0.00000   0.00000   0.00000
  88       42D-2        0.00000   0.00000   0.00000   0.00000   0.00000
  89       43D 0       -0.00000   0.00000   0.00000   0.00000  -0.00000
  90       43D+1        0.00000   0.00000   0.00000   0.00000   0.00000
  91       43D-1        0.00000   0.00000   0.00000   0.00000   0.00000
  92       43D+2       -0.00000   0.00000   0.00000   0.00000  -0.00000
  93       43D-2        0.00000   0.00000   0.00000   0.00000   0.00000
  94       44D 0       -0.00000   0.00000   0.00000   0.00000  -0.00000
  95       44D+1        0.00000   0.00000   0.00000   0.00000   0.00000
  96       44D-1        0.00000   0.00000   0.00000   0.00000   0.00000
  97       44D+2       -0.00000   0.00000   0.00000   0.00000  -0.00000
  98       44D-2        0.00000   0.00000   0.00000   0.00000   0.00000
  99       45D 0       -0.00000   0.00000   0.00000   0.00000  -0.00000
 100       45D+1        0.00000   0.00000   0.00000   0.00000   0.00000
 101       45D-1        0.00000   0.00000   0.00000   0.00000   0.00000
 102       45D+2       -0.00000   0.00000   0.00000   0.00000  -0.00000
 103       45D-2        0.00000   0.00000   0.00000   0.00000   0.00000
 104       46D 0       -0.00000   0.00000   0.00000   0.00000  -0.00000
 105       46D+1        0.00000   0.00000   0.00000   0.00000   0.00000
 106       46D-1        0.00000   0.00000   0.00000   0.00000   0.00000
 107       46D+2       -0.00000   0.00000   0.00000   0.00000  -0.00000
 108       46D-2        0.00000   0.00000   0.00000   0.00000   0.00000
 109       47D 0       -0.00000   0.00000   0.00000   0.00000  -0.00000
 110       47D+1        0.00000   0.00000   0.00000   0.00000   0.00000
 111       47D-1        0.00000   0.00000   0.00000   0.00000   0.00000
 112       47D+2       -0.00000   0.00000   0.00000   0.00000  -0.00000
 113       47D-2        0.00000   0.00000   0.00000   0.00000   0.00000
 114       48D 0        0.00000   0.00000   0.00000   0.00000  -0.00000
 115       48D+1        0.00000   0.00000   0.00000   0.00000   0.00000
 116       48D-1        0.00000   0.00000   0.00000   0.00000   0.00000
 117       48D+2        0.00000   0.00000   0.00000   0.00000  -0.00000
 118       48D-2        0.00000   0.00000   0.00000   0.00000   0.00000
 119       49D 0        0.00000   0.00000   0.00000   0.00000  -0.00000
 120       49D+1        0.00000   0.00000   0.00000   0.00000   0.00000
 121       49D-1        0.00000   0.00000   0.00000   0.00000   0.00000
 122       49D+2        0.00000   0.00000   0.00000   0.00000  -0.00000
 123       49D-2        0.00000   0.00000   0.00000   0.00000   0.00000
 124       50D 0        0.00000   0.00000   0.00000   0.00000  -0.00000
 125       50D+1        0.00000   0.00000   0.00000   0.00000   0.00000
 126       50D-1        0.00000   0.00000   0.00000   0.00000   0.00000
 127       50D+2        0.00000   0.00000   0.00000   0.00000  -0.00000
 128       50D-2        0.00000   0.00000   0.00000   0.00000   0.00000
 129       51D 0        0.00000   0.00000   0.00000   0.00000  -0.00000
 130       51D+1        0.00000   0.00000   0.00000   0.00000   0.00000
 131       51D-1        0.00000   0.00000   0.00000   0.00000   0.00000
 132       51D+2        0.00000   0.00000   0.00000   0.00000  -0.00000
 133       51D-2        0.00000   0.00000   0.00000   0.00000   0.00000
 134       52D 0        0.00000   0.00000   0.00000   0.00000  -0.00000
 135       52D+1        0.00000   0.00000   0.00000   0.00000   0.00000
 136       52D-1        0.00000   0.00000   0.00000   0.00000   0.00000
 137       52D+2        0.00000   0.00000   0.00000   0.00000  -0.00000
 138       52D-2        0.00000   0.00000   0.00000   0.00000   0.00000
 139       53D 0        0.00000   0.00000   0.00000   0.00000  -0.00000
 140       53D+1        0.00000   0.00000   0.00000   0.00000   0.00000
 141       53D-1        0.00000   0.00000   0.00000   0.00000   0.00000
 142       53D+2        0.00000   0.00000   0.00000   0.00000  -0.00000
 143       53D-2        0.00000   0.00000   0.00000   0.00000   0.00000
 144       54D 0       -0.00000   0.00000   0.00000   0.00000   0.00000
 145       54D+1        0.00000   0.00000   0.00000   0.00000   0.00000
 146       54D-1        0.00000   0.00000   0.00000   0.00000   0.00000
 147       54D+2       -0.00000   0.00000   0.00000   0.00000   0.00000
 148       54D-2        0.00000   0.00000   0.00000   0.00000   0.00000
 149       55F 0        0.00000   0.00000   0.00000   0.00000   0.00000
 150       55F+1        0.00000  -0.00000   0.00000   0.00000   0.00000
 151       55F-1        0.00000   0.00000   0.00000   0.00000   0.00000
 152       55F+2        0.00000   0.00000   0.00000   0.00000   0.00000
 153       55F-2        0.00000   0.00000   0.00000   0.00000   0.00000
 154       55F+3        0.00000   0.00000   0.00000   0.00000   0.00000
 155       55F-3        0.00000   0.00000   0.00000   0.00000   0.00000
 156       56F 0        0.00000   0.00000   0.00000   0.00000   0.00000
 157       56F+1        0.00000  -0.00000   0.00000   0.00000   0.00000
 158       56F-1        0.00000   0.00000   0.00000   0.00000   0.00000
 159       56F+2        0.00000   0.00000   0.00000   0.00000   0.00000
 160       56F-2        0.00000   0.00000   0.00000   0.00000   0.00000
 161       56F+3        0.00000   0.00000   0.00000   0.00000   0.00000
 162       56F-3        0.00000   0.00000   0.00000   0.00000   0.00000
 163       57F 0        0.00000   0.00000  -0.00000   0.00000   0.00000
 164       57F+1        0.00000  -0.00000   0.00000   0.00000   0.00000
 165       57F-1        0.00000   0.00000   0.00000  -0.00000   0.00000
 166       57F+2        0.00000   0.00000  -0.00000   0.00000   0.00000
 167       57F-2        0.00000   0.00000   0.00000   0.00000   0.00000
 168       57F+3        0.00000  -0.00000   0.00000   0.00000   0.00000
 169       57F-3        0.00000   0.00000   0.00000  -0.00000   0.00000
 170       58F 0        0.00000   0.00000   0.00000   0.00000   0.00000
 171       58F+1        0.00000   0.00000   0.00000   0.00000   0.00000
 172       58F-1        0.00000   0.00000   0.00000   0.00000   0.00000
 173       58F+2        0.00000   0.00000   0.00000   0.00000   0.00000
 174       58F-2        0.00000   0.00000   0.00000   0.00000   0.00000
 175       58F+3        0.00000   0.00000   0.00000   0.00000   0.00000
 176       58F-3        0.00000   0.00000   0.00000   0.00000   0.00000
 177       59F 0        0.00000   0.00000  -0.00000   0.00000   0.00000
 178       59F+1        0.00000  -0.00000   0.00000   0.00000   0.00000
 179       59F-1        0.00000   0.00000   0.00000  -0.00000   0.00000
 180       59F+2        0.00000   0.00000  -0.00000   0.00000   0.00000
 181       59F-2        0.00000   0.00000   0.00000   0.00000   0.00000
 182       59F+3        0.00000  -0.00000   0.00000   0.00000   0.00000
 183       59F-3        0.00000   0.00000   0.00000  -0.00000   0.00000
 184       60G 0       -0.00000   0.00000   0.00000   0.00000   0.00000
 185       60G+1        0.00000   0.00000   0.00000   0.00000   0.00000
 186       60G-1        0.00000   0.00000   0.00000   0.00000   0.00000
 187       60G+2       -0.00000   0.00000   0.00000   0.00000   0.00000
 188       60G-2        0.00000   0.00000   0.00000   0.00000   0.00000
 189       60G+3        0.00000   0.00000   0.00000   0.00000   0.00000
 190       60G-3        0.00000   0.00000   0.00000   0.00000   0.00000
 191       60G+4        0.00000   0.00000   0.00000   0.00000  -0.00000
 192       60G-4        0.00000   0.00000   0.00000   0.00000   0.00000
 193       61G 0       -0.00000   0.00000   0.00000   0.00000   0.00000
 194       61G+1        0.00000   0.00000   0.00000   0.00000   0.00000
 195       61G-1        0.00000   0.00000   0.00000   0.00000   0.00000
 196       61G+2       -0.00000   0.00000   0.00000   0.00000   0.00000
 197       61G-2        0.00000   0.00000   0.00000   0.00000   0.00000
 198       61G+3        0.00000   0.00000   0.00000   0.00000   0.00000
 199       61G-3        0.00000   0.00000   0.00000   0.00000   0.00000
 200       61G+4        0.00000   0.00000   0.00000   0.00000  -0.00000
 201       61G-4        0.00000   0.00000   0.00000   0.00000   0.00000
 202       62G 0        0.00000   0.00000   0.00000   0.00000   0.00000
 203       62G+1        0.00000   0.00000   0.00000   0.00000   0.00000
 204       62G-1        0.00000   0.00000   0.00000   0.00000   0.00000
 205       62G+2        0.00000   0.00000   0.00000   0.00000   0.00000
 206       62G-2        0.00000   0.00000   0.00000   0.00000   0.00000
 207       62G+3        0.00000   0.00000   0.00000   0.00000   0.00000
 208       62G-3        0.00000   0.00000   0.00000   0.00000   0.00000
 209       62G+4       -0.00000   0.00000   0.00000   0.00000  -0.00000
 210       62G-4        0.00000   0.00000   0.00000   0.00000   0.00000
 211       63G 0        0.00000   0.00000   0.00000   0.00000   0.00000
 212       63G+1        0.00000   0.00000   0.00000   0.00000   0.00000
 213       63G-1        0.00000   0.00000   0.00000   0.00000   0.00000
 214       63G+2        0.00000   0.00000   0.00000   0.00000   0.00000
 215       63G-2        0.00000   0.00000   0.00000   0.00000   0.00000
 216       63G+3        0.00000   0.00000   0.00000   0.00000   0.00000
 217       63G-3        0.00000   0.00000   0.00000   0.00000   0.00000
 218       63G+4       -0.00000   0.00000   0.00000   0.00000  -0.00000
 219       63G-4        0.00000   0.00000   0.00000   0.00000   0.00000
 220       64H 0        0.00000   0.00000   0.00000   0.00000   0.00000
 221       64H+1        0.00000  -0.00000   0.00000   0.00000   0.00000
 222       64H-1        0.00000   0.00000   0.00000   0.00000   0.00000
 223       64H+2        0.00000   0.00000   0.00000   0.00000   0.00000
 224       64H-2        0.00000   0.00000   0.00000   0.00000   0.00000
 225       64H+3        0.00000   0.00000   0.00000   0.00000   0.00000
 226       64H-3        0.00000   0.00000   0.00000   0.00000   0.00000
 227       64H+4        0.00000   0.00000  -0.00000   0.00000   0.00000
 228       64H-4        0.00000   0.00000   0.00000   0.00000   0.00000
 229       64H+5        0.00000  -0.00000   0.00000   0.00000   0.00000
 230       64H-5        0.00000   0.00000   0.00000  -0.00000   0.00000
 231       65H 0        0.00000   0.00000  -0.00000   0.00000   0.00000
 232       65H+1        0.00000   0.00000   0.00000   0.00000   0.00000
 233       65H-1        0.00000   0.00000   0.00000  -0.00000   0.00000
 234       65H+2        0.00000   0.00000  -0.00000   0.00000   0.00000
 235       65H-2        0.00000   0.00000   0.00000   0.00000   0.00000
 236       65H+3        0.00000  -0.00000   0.00000   0.00000   0.00000
 237       65H-3        0.00000   0.00000   0.00000  -0.00000   0.00000
 238       65H+4        0.00000   0.00000   0.00000   0.00000   0.00000
 239       65H-4        0.00000   0.00000   0.00000   0.00000   0.00000
 240       65H+5        0.00000   0.00000   0.00000   0.00000   0.00000
 241       65H-5        0.00000   0.00000   0.00000   0.00000   0.00000
 242       66H 0        0.00000   0.00000   0.00000   0.00000   0.00000
 243       66H+1        0.00000  -0.00000   0.00000   0.00000   0.00000
 244       66H-1        0.00000   0.00000   0.00000   0.00000   0.00000
 245       66H+2        0.00000   0.00000   0.00000   0.00000   0.00000
 246       66H-2        0.00000   0.00000   0.00000   0.00000   0.00000
 247       66H+3        0.00000   0.00000   0.00000   0.00000   0.00000
 248       66H-3        0.00000   0.00000   0.00000   0.00000   0.00000
 249       66H+4        0.00000   0.00000  -0.00000   0.00000   0.00000
 250       66H-4        0.00000   0.00000   0.00000   0.00000   0.00000
 251       66H+5        0.00000  -0.00000   0.00000   0.00000   0.00000
 252       66H-5        0.00000   0.00000   0.00000  -0.00000   0.00000
                           6         7         8         9        10
                       (T2G)--O   (EG)--O  (T2G)--O  (T2G)--O   (EG)--O
     Eigenvalues --    -0.36959  -0.36959  -0.36959  -0.36959  -0.22680
   1 1   Cr 1S          0.00000  -0.00000   0.00000   0.00000   0.00000
   2        2S          0.00000   0.00000   0.00000   0.00000  -0.00000
   3        3S          0.00000  -0.00000   0.00000   0.00000   0.00000
   4        4S          0.00000   0.00000   0.00000   0.00000  -0.00000
   5        5S          0.00000  -0.00000   0.00000   0.00000   0.00000
   6        6S          0.00000   0.00000   0.00000   0.00000  -0.00000
   7        7S          0.00000  -0.00000   0.00000   0.00000   0.00000
   8        8S          0.00000   0.00000   0.00000   0.00000  -0.00000
   9        9S          0.00000  -0.00000   0.00000   0.00000   0.00000
  10       10S          0.00000   0.00000   0.00000   0.00000  -0.00000
  11       11S          0.00000  -0.00000   0.00000   0.00000   0.00000
  12       12S          0.00000   0.00000   0.00000   0.00000  -0.00000
  13       13S          0.00000  -0.00000   0.00000   0.00000   0.00000
  14       14S          0.00000  -0.00000   0.00000   0.00000   0.00000
  15       15S          0.00000   0.00000   0.00000   0.00000  -0.00000
  16       16S          0.00000  -0.00000   0.00000   0.00000   0.00000
  17       17S          0.00000   0.00000   0.00000   0.00000  -0.00000
  18       18S          0.00000  -0.00000   0.00000   0.00000   0.00000
  19       19S          0.00000  -0.00000   0.00000   0.00000   0.00000
  20       20S          0.00000   0.00000   0.00000   0.00000  -0.00000
  21       21S          0.00000   0.00000   0.00000   0.00000  -0.00000
  22       22PX         0.00000   0.00000   0.00000   0.00000   0.00000
  23       22PY         0.00000   0.00000   0.00000   0.00000   0.00000
  24       22PZ         0.00000   0.00000   0.00000   0.00000   0.00000
  25       23PX         0.00000   0.00000   0.00000   0.00000   0.00000
  26       23PY         0.00000   0.00000   0.00000   0.00000   0.00000
  27       23PZ         0.00000   0.00000   0.00000   0.00000   0.00000
  28       24PX         0.00000   0.00000   0.00000   0.00000   0.00000
  29       24PY         0.00000   0.00000   0.00000   0.00000   0.00000
  30       24PZ         0.00000   0.00000   0.00000   0.00000   0.00000
  31       25PX         0.00000   0.00000   0.00000   0.00000   0.00000
  32       25PY         0.00000   0.00000   0.00000   0.00000   0.00000
  33       25PZ         0.00000   0.00000   0.00000   0.00000   0.00000
  34       26PX         0.00000   0.00000   0.00000   0.00000   0.00000
  35       26PY         0.00000   0.00000   0.00000   0.00000   0.00000
  36       26PZ         0.00000   0.00000   0.00000   0.00000   0.00000
  37       27PX         0.00000   0.00000   0.00000   0.00000   0.00000
  38       27PY         0.00000   0.00000   0.00000   0.00000   0.00000
  39       27PZ         0.00000   0.00000   0.00000   0.00000   0.00000
  40       28PX         0.00000   0.00000   0.00000   0.00000   0.00000
  41       28PY         0.00000   0.00000   0.00000   0.00000   0.00000
  42       28PZ         0.00000   0.00000   0.00000   0.00000   0.00000
  43       29PX         0.00000   0.00000   0.00000   0.00000   0.00000
  44       29PY         0.00000   0.00000   0.00000   0.00000   0.00000
  45       29PZ         0.00000   0.00000   0.00000   0.00000   0.00000
  46       30PX         0.00000   0.00000   0.00000   0.00000   0.00000
  47       30PY         0.00000   0.00000   0.00000   0.00000   0.00000
  48       30PZ         0.00000   0.00000   0.00000   0.00000   0.00000
  49       31PX         0.00000   0.00000   0.00000   0.00000   0.00000
  50       31PY         0.00000   0.00000   0.00000   0.00000   0.00000
  51       31PZ         0.00000   0.00000   0.00000   0.00000   0.00000
  52       32PX         0.00000   0.00000   0.00000   0.00000   0.00000
  53       32PY         0.00000   0.00000   0.00000   0.00000   0.00000
  54       32PZ         0.00000   0.00000   0.00000   0.00000   0.00000
  55       33PX         0.00000   0.00000   0.00000   0.00000   0.00000
[...]
  31       25PX        -0.00000  -0.00000  -0.00000  -0.00000
  32       25PY        -0.00000  -0.00000  -0.00000  -0.00000
  33       25PZ        -0.00000  -0.00000  -0.00000   0.00000
  34       26PX         0.00001   0.00001   0.00001   0.00000
  35       26PY         0.00001   0.00001   0.00001   0.00000
  36       26PZ         0.00001   0.00001   0.00001  -0.00000
  37       27PX        -0.00014  -0.00007  -0.00007   0.00000
  38       27PY        -0.00014  -0.00007  -0.00007  -0.00000
  39       27PZ        -0.00014  -0.00007  -0.00007   0.00000
  40       28PX         0.00313   0.00156   0.00156  -0.00000
  41       28PY         0.00313   0.00156   0.00156   0.00000
  42       28PZ         0.00313   0.00156   0.00156  -0.00000
  43       29PX        -0.03304  -0.01652  -0.01652   0.00000
  44       29PY        -0.03304  -0.01652  -0.01652  -0.00000
  45       29PZ        -0.03304  -0.01652  -0.01652   0.00000
  46       30PX        -0.03454  -0.01727  -0.01727   0.00000
  47       30PY        -0.03454  -0.01727  -0.01727  -0.00000
  48       30PZ        -0.03454  -0.01727  -0.01727  -0.00000
  49       31PX         0.28926   0.14463   0.14463  -0.00000
  50       31PY         0.28926   0.14463   0.14463   0.00000
  51       31PZ         0.28926   0.14463   0.14463  -0.00000
  52       32PX         0.63721   0.31861   0.31861  -0.00000
  53       32PY         0.63721   0.31861   0.31861  -0.00000
  54       32PZ         0.63721   0.31861   0.31861   0.00000
  55       33PX         0.73602   0.36801   0.36801  -0.00000
  56       33PY         0.73602   0.36801   0.36801   0.00000
  57       33PZ         0.73602   0.36801   0.36801  -0.00000
  58       34PX         0.28114   0.14057   0.14057   0.00000
  59       34PY         0.28114   0.14057   0.14057  -0.00000
  60       34PZ         0.28114   0.14057   0.14057   0.00000
  61       35PX         0.01885   0.00943   0.00943   0.00000
  62       35PY         0.01885   0.00943   0.00943  -0.00000
  63       35PZ         0.01885   0.00943   0.00943   0.00000
  64       36PX        -0.00045  -0.00022  -0.00022  -0.00000
  65       36PY        -0.00045  -0.00022  -0.00022   0.00000
  66       36PZ        -0.00045  -0.00022  -0.00022  -0.00000
  67       37PX         0.00012   0.00006   0.00006  -0.00000
  68       37PY         0.00012   0.00006   0.00006   0.00000
  69       37PZ         0.00012   0.00006   0.00006  -0.00000
  70       38PX        -0.01749  -0.00875  -0.00875   0.00000
  71       38PY        -0.01749  -0.00875  -0.00875  -0.00000
  72       38PZ        -0.01749  -0.00875  -0.00875   0.00000
  73       39PX         0.11992   0.05996   0.05996  -0.00000
  74       39PY         0.11992   0.05996   0.05996   0.00000
  75       39PZ         0.11992   0.05996   0.05996  -0.00000
  76       40PX        -0.00001  -0.00001  -0.00001  -0.00000
  77       40PY        -0.00001  -0.00001  -0.00001   0.00000
  78       40PZ        -0.00001  -0.00001  -0.00001  -0.00000
  79       41D 0        0.00000   0.00000  -0.00000   0.00000
  80       41D+1        0.00000   0.00000  -0.00000   0.00000
  81       41D-1        0.00000   0.00000  -0.00000   0.00000
  82       41D+2        0.00000   0.00000  -0.00000   0.00000
  83       41D-2        0.00000   0.00000  -0.00000   0.00000
  84       42D 0       -0.00001  -0.00001   0.00000  -0.00001
  85       42D+1       -0.00001  -0.00001   0.00000  -0.00001
  86       42D-1       -0.00001  -0.00001   0.00000  -0.00001
  87       42D+2       -0.00001  -0.00001   0.00000  -0.00001
  88       42D-2       -0.00001  -0.00001   0.00000  -0.00001
  89       43D 0        0.00161   0.00161   0.00000   0.00161
  90       43D+1        0.00161   0.00161   0.00000   0.00161
  91       43D-1        0.00161   0.00161   0.00000   0.00161
  92       43D+2        0.00161   0.00161   0.00000   0.00161
  93       43D-2        0.00161   0.00161   0.00000   0.00161
  94       44D 0        0.01602   0.01602   0.00000   0.01602
  95       44D+1        0.01602   0.01602   0.00000   0.01602
  96       44D-1        0.01602   0.01602   0.00000   0.01602
  97       44D+2        0.01602   0.01602   0.00000   0.01602
  98       44D-2        0.01602   0.01602   0.00000   0.01602
  99       45D 0        0.05691   0.05691  -0.00000   0.05691
 100       45D+1        0.05691   0.05691  -0.00000   0.05691
 101       45D-1        0.05691   0.05691  -0.00000   0.05691
 102       45D+2        0.05691   0.05691  -0.00000   0.05691
 103       45D-2        0.05691   0.05691  -0.00000   0.05691
 104       46D 0        0.13267   0.13267  -0.00000   0.13267
 105       46D+1        0.13267   0.13267  -0.00000   0.13267
 106       46D-1        0.13267   0.13267  -0.00000   0.13267
 107       46D+2        0.13267   0.13267  -0.00000   0.13267
 108       46D-2        0.13267   0.13267  -0.00000   0.13267
 109       47D 0        0.25145   0.25145  -0.00000   0.25145
 110       47D+1        0.25145   0.25145  -0.00000   0.25145
 111       47D-1        0.25145   0.25145  -0.00000   0.25145
 112       47D+2        0.25145   0.25145  -0.00000   0.25145
 113       47D-2        0.25145   0.25145  -0.00000   0.25145
 114       48D 0        0.26564   0.26564   0.00000   0.26564
 115       48D+1        0.26564   0.26564   0.00000   0.26564
 116       48D-1        0.26564   0.26564   0.00000   0.26564
 117       48D+2        0.26564   0.26564   0.00000   0.26564
 118       48D-2        0.26564   0.26564   0.00000   0.26564
 119       49D 0        0.17020   0.17020   0.00000   0.17020
 120       49D+1        0.17020   0.17020   0.00000   0.17020
 121       49D-1        0.17020   0.17020   0.00000   0.17020
 122       49D+2        0.17020   0.17020   0.00000   0.17020
 123       49D-2        0.17020   0.17020   0.00000   0.17020
 124       50D 0        0.05487   0.05487   0.00000   0.05487
 125       50D+1        0.05487   0.05487   0.00000   0.05487
 126       50D-1        0.05487   0.05487   0.00000   0.05487
 127       50D+2        0.05487   0.05487   0.00000   0.05487
 128       50D-2        0.05487   0.05487   0.00000   0.05487
 129       51D 0        0.00345   0.00345   0.00000   0.00345
 130       51D+1        0.00345   0.00345   0.00000   0.00345
 131       51D-1        0.00345   0.00345   0.00000   0.00345
 132       51D+2        0.00345   0.00345   0.00000   0.00345
 133       51D-2        0.00345   0.00345   0.00000   0.00345
 134       52D 0        0.02203   0.02203   0.00000   0.02203
 135       52D+1        0.02203   0.02203   0.00000   0.02203
 136       52D-1        0.02203   0.02203   0.00000   0.02203
 137       52D+2        0.02203   0.02203   0.00000   0.02203
 138       52D-2        0.02203   0.02203   0.00000   0.02203
 139       53D 0        0.02518   0.02518   0.00000   0.02518
 140       53D+1        0.02518   0.02518   0.00000   0.02518
 141       53D-1        0.02518   0.02518   0.00000   0.02518
 142       53D+2        0.02518   0.02518   0.00000   0.02518
 143       53D-2        0.02518   0.02518   0.00000   0.02518
 144       54D 0       -0.00004  -0.00004  -0.00000  -0.00004
 145       54D+1       -0.00004  -0.00004  -0.00000  -0.00004
 146       54D-1       -0.00004  -0.00004  -0.00000  -0.00004
 147       54D+2       -0.00004  -0.00004  -0.00000  -0.00004
 148       54D-2       -0.00004  -0.00004  -0.00000  -0.00004
 149       55F 0        0.00000   0.00000   0.00000  -0.00000
 150       55F+1        0.00000   0.00000   0.00000  -0.00000
 151       55F-1        0.00000   0.00000   0.00000   0.00000
 152       55F+2        0.00000   0.00000   0.00000   0.00000
 153       55F-2        0.00000   0.00000   0.00000  -0.00000
 154       55F+3        0.00000   0.00000   0.00000   0.00000
 155       55F-3        0.00000   0.00000   0.00000   0.00000
 156       56F 0        0.00000   0.00000   0.00000  -0.00000
 157       56F+1        0.00000   0.00000   0.00000  -0.00000
 158       56F-1        0.00000   0.00000   0.00000   0.00000
 159       56F+2        0.00000   0.00000   0.00000   0.00000
 160       56F-2        0.00000   0.00000   0.00000  -0.00000
 161       56F+3        0.00000   0.00000   0.00000   0.00000
 162       56F-3        0.00000   0.00000   0.00000   0.00000
 163       57F 0       -0.00000  -0.00000  -0.00000   0.00000
 164       57F+1       -0.00000   0.00000  -0.00000   0.00000
 165       57F-1       -0.00000  -0.00000  -0.00000   0.00000
 166       57F+2       -0.00000  -0.00000  -0.00000  -0.00000
 167       57F-2       -0.00000  -0.00000  -0.00000   0.00000
 168       57F+3       -0.00000  -0.00000  -0.00000  -0.00000
 169       57F-3       -0.00000  -0.00000  -0.00000  -0.00000
 170       58F 0        0.00000   0.00000   0.00000  -0.00000
 171       58F+1        0.00000   0.00000   0.00000  -0.00000
 172       58F-1        0.00000   0.00000   0.00000  -0.00000
 173       58F+2        0.00000   0.00000   0.00000   0.00000
 174       58F-2        0.00000   0.00000   0.00000  -0.00000
 175       58F+3        0.00000   0.00000   0.00000   0.00000
 176       58F-3        0.00000   0.00000   0.00000   0.00000
 177       59F 0       -0.00000  -0.00000  -0.00000  -0.00000
 178       59F+1       -0.00000  -0.00000  -0.00000   0.00000
 179       59F-1       -0.00000   0.00000  -0.00000   0.00000
 180       59F+2       -0.00000  -0.00000  -0.00000  -0.00000
 181       59F-2       -0.00000  -0.00000  -0.00000   0.00000
 182       59F+3       -0.00000  -0.00000  -0.00000   0.00000
 183       59F-3       -0.00000  -0.00000  -0.00000  -0.00000
 184       60G 0        0.00000   0.00000   0.00000   0.00000
 185       60G+1       -0.00000  -0.00000   0.00000  -0.00000
 186       60G-1        0.00000   0.00000   0.00000   0.00000
 187       60G+2        0.00000   0.00000   0.00000   0.00000
 188       60G-2        0.00000   0.00000   0.00000   0.00000
 189       60G+3        0.00000   0.00000   0.00000   0.00000
 190       60G-3        0.00000   0.00000   0.00000   0.00000
 191       60G+4        0.00000   0.00000   0.00000   0.00000
 192       60G-4        0.00000   0.00000   0.00000   0.00000
 193       61G 0        0.00000   0.00000   0.00000   0.00000
 194       61G+1       -0.00000  -0.00000   0.00000  -0.00000
 195       61G-1        0.00000   0.00000   0.00000   0.00000
 196       61G+2        0.00000   0.00000   0.00000   0.00000
 197       61G-2        0.00000   0.00000   0.00000   0.00000
 198       61G+3        0.00000   0.00000   0.00000   0.00000
 199       61G-3        0.00000   0.00000   0.00000   0.00000
 200       61G+4        0.00000   0.00000   0.00000   0.00000
 201       61G-4        0.00000   0.00000   0.00000   0.00000
 202       62G 0        0.00000   0.00000  -0.00000   0.00000
 203       62G+1        0.00000   0.00000  -0.00000   0.00000
 204       62G-1        0.00000   0.00000  -0.00000   0.00000
 205       62G+2        0.00000   0.00000  -0.00000   0.00000
 206       62G-2        0.00000   0.00000  -0.00000   0.00000
 207       62G+3        0.00000   0.00000  -0.00000   0.00000
 208       62G-3        0.00000   0.00000  -0.00000   0.00000
 209       62G+4        0.00000   0.00000  -0.00000   0.00000
 210       62G-4        0.00000   0.00000  -0.00000   0.00000
 211       63G 0        0.00000   0.00000   0.00000   0.00000
 212       63G+1        0.00000   0.00000   0.00000   0.00000
 213       63G-1       -0.00000  -0.00000   0.00000  -0.00000
 214       63G+2        0.00000   0.00000   0.00000   0.00000
 215       63G-2        0.00000   0.00000   0.00000   0.00000
 216       63G+3       -0.00000  -0.00000   0.00000  -0.00000
 217       63G-3       -0.00000  -0.00000   0.00000  -0.00000
 218       63G+4       -0.00000  -0.00000   0.00000  -0.00000
 219       63G-4       -0.00000  -0.00000   0.00000  -0.00000
 220       64H 0        0.00000   0.00000   0.00000  -0.00000
 221       64H+1        0.00000   0.00000   0.00000  -0.00000
 222       64H-1        0.00000   0.00000   0.00000  -0.00000
 223       64H+2        0.00000   0.00000   0.00000   0.00000
 224       64H-2        0.00000   0.00000   0.00000  -0.00000
 225       64H+3        0.00000   0.00000   0.00000   0.00000
 226       64H-3        0.00000   0.00000   0.00000   0.00000
 227       64H+4        0.00000   0.00000   0.00000  -0.00000
 228       64H-4        0.00000   0.00000   0.00000  -0.00000
 229       64H+5        0.00000   0.00000   0.00000  -0.00000
 230       64H-5        0.00000   0.00000   0.00000  -0.00000
 231       65H 0       -0.00000  -0.00000  -0.00000   0.00000
 232       65H+1       -0.00000  -0.00000  -0.00000   0.00000
 233       65H-1       -0.00000  -0.00000  -0.00000   0.00000
 234       65H+2       -0.00000  -0.00000  -0.00000  -0.00000
 235       65H-2       -0.00000  -0.00000  -0.00000   0.00000
 236       65H+3       -0.00000  -0.00000  -0.00000  -0.00000
 237       65H-3       -0.00000  -0.00000  -0.00000  -0.00000
 238       65H+4       -0.00000  -0.00000  -0.00000   0.00000
 239       65H-4       -0.00000  -0.00000  -0.00000   0.00000
 240       65H+5       -0.00000  -0.00000  -0.00000   0.00000
 241       65H-5       -0.00000  -0.00000  -0.00000   0.00000
 242       66H 0        0.00000   0.00000   0.00000  -0.00000
 243       66H+1        0.00000   0.00000   0.00000  -0.00000
 244       66H-1        0.00000   0.00000   0.00000  -0.00000
 245       66H+2        0.00000   0.00000   0.00000   0.00000
 246       66H-2        0.00000   0.00000   0.00000  -0.00000
 247       66H+3        0.00000   0.00000   0.00000   0.00000
 248       66H-3        0.00000   0.00000   0.00000   0.00000
 249       66H+4        0.00000   0.00000   0.00000  -0.00000
 250       66H-4        0.00000   0.00000   0.00000  -0.00000
 251       66H+5        0.00000   0.00000   0.00000  -0.00000
 252       66H-5        0.00000   0.00000   0.00000  -0.00000
          Condensed to atoms (all electrons):
               1
     1  Cr  14.000000
          Atomic-Atomic Spin Densities.
               1
     1  Cr   6.000000
 Mulliken charges and spin densities:
               1          2
     1  Cr   0.000000   6.000000
 Sum of Mulliken charges =   0.00000   6.00000
 Mulliken charges and spin densities with hydrogens summed into heavy atoms:
               1          2
     1  Cr   0.000000   6.000000
 Electronic spatial extent (au):  <R**2>=             36.6603
 Charge=             -0.0000 electrons
 Dipole moment (field-independent basis, Debye):
    X=              0.0000    Y=              0.0000    Z=              0.0000  Tot=              0.0000
 Quadrupole moment (field-independent basis, Debye-Ang):
   XX=            -16.4365   YY=            -16.4365   ZZ=            -16.4365
   XY=              0.0000   XZ=             -0.0000   YZ=             -0.0000
 Traceless Quadrupole moment (field-independent basis, Debye-Ang):
   XX=              0.0000   YY=             -0.0000   ZZ=              0.0000
   XY=              0.0000   XZ=             -0.0000   YZ=             -0.0000
 Octapole moment (field-independent basis, Debye-Ang**2):
  XXX=              0.0000  YYY=              0.0000  ZZZ=              0.0000  XYY=              0.0000
  XXY=              0.0000  XXZ=              0.0000  XZZ=              0.0000  YZZ=              0.0000
  YYZ=              0.0000  XYZ=              0.0000
 Hexadecapole moment (field-independent basis, Debye-Ang**3):
 XXXX=            -38.3990 YYYY=            -38.3990 ZZZZ=            -38.3990 XXXY=              0.0000
 XXXZ=             -0.0000 YYYX=              0.0000 YYYZ=             -0.0000 ZZZX=             -0.0000
 ZZZY=             -0.0000 XXYY=            -12.7997 XXZZ=            -12.7997 YYZZ=            -12.7997
 XXYZ=             -0.0000 YYXZ=             -0.0000 ZZXY=              0.0000
 N-N= 0.000000000000D+00 E-N=-1.965871954761D+02  KE= 4.609567604950D+01
 Symmetry AG   KE= 1.358664564167D+01
 Symmetry B1G  KE= 4.809430859139D+00
 Symmetry B2G  KE= 4.809430812843D+00
 Symmetry B3G  KE= 4.809430889428D+00
 Symmetry AU   KE= 2.273559984607D-50
 Symmetry B1U  KE= 6.026912613529D+00
 Symmetry B2U  KE= 6.026912621176D+00
 Symmetry B3U  KE= 6.026912612389D+00
 Symmetry AG   SP= 3.000000000000D+00
 Symmetry B1G  SP= 1.000000000000D+00
 Symmetry B2G  SP= 1.000000000000D+00
 Symmetry B3G  SP= 1.000000000000D+00
 Symmetry AU   SP=-1.371369574103D-51
 Symmetry B1U  SP=-6.741785399195D-15
 Symmetry B2U  SP= 2.475024401079D-15
 Symmetry B3U  SP= 3.531355714235D-15
 Orbital energies and kinetic energies (alpha):
                                 1                 2
   1         (A1G)--O         -3.577174          1.845235
   2         (T1U)--O         -2.290711          3.013456
   3         (T1U)--O         -2.290711          3.013456
   4         (T1U)--O         -2.290711          3.013456
   5         (A1G)--O         -0.369594          0.277314
   6         (T2G)--O         -0.369594          4.809431
   7         (EG)--O          -0.369594          4.809431
   8         (T2G)--O         -0.369594          4.809431
   9         (T2G)--O         -0.369594          4.809431
  10         (EG)--O          -0.226800          4.809431
  11         (T1U)--V          0.017326          0.035484
  12         (T1U)--V          0.017326          0.035484
  13         (T1U)--V          0.017326          0.035484
  14         (A1G)--V          0.024126          0.035825
  15         (EG)--V           0.055252          0.062772
 Total kinetic energy from orbitals= 7.042014405948D+01
                          Isotropic Fermi Contact Couplings
        Atom                 a.u.       MegaHertz       Gauss      10(-4) cm-1
     1  Cr(53)             0.00006      -0.00233      -0.00083      -0.00078
 --------------------------------------------------------
       Center         ----  Spin Dipole Couplings  ----
                      3XX-RR        3YY-RR        3ZZ-RR
 --------------------------------------------------------
     1   Atom       -0.000000      0.000000     -0.000000
 --------------------------------------------------------
                        XY            XZ            YZ
 --------------------------------------------------------
     1   Atom        0.000000      0.000000      0.000000
 --------------------------------------------------------


 ---------------------------------------------------------------------------------
              Anisotropic Spin Dipole Couplings in Principal Axis System
 ---------------------------------------------------------------------------------

       Atom             a.u.   MegaHertz   Gauss  10(-4) cm-1        Axes

              Baa    -0.0000     0.000     0.000     0.000  1.0000  0.0000  0.0000
     1 Cr(53) Bbb    -0.0000     0.000     0.000     0.000  0.0000  0.0000  1.0000
              Bcc     0.0000    -0.000    -0.000    -0.000 -0.0000  1.0000  0.0000
 

 ---------------------------------------------------------------------------------

 No NMR shielding tensors so no spin-rotation constants.
 Leave Link  601 at Thu Apr  5 18:11:15 2018, MaxMem= 10737418240 cpu:              21.4 elap:               1.1
 (Enter /home1/apps/gaussian/16rA.03/g16/l9999.exe)

 Test job not archived.
 1\1\GINC-C506-003\SP\ROCCSD(T)-Full\Gen\Cr1(7)\AANNABE\05-Apr-2018\0\\
 #P ROCCSD(T)=(maxcyc=150, Full)/Gen 5d 7f SCF=(maxcycles=300, NoVarAcc
 , VShift=300) MaxDisk=100GB Pop=Regular Pseudo=Read Guess=Read IOp(5/1
 5=2)\\Cr\\0,7\Cr,0,0.,0.,0.\\Version=ES64L-G16RevA.03\State=7-A1G\HF=-
 85.8686015\MP2=-86.4212771\MP3=-86.4119966\PUHF=-85.8686015\PMP2-0=-86
 .4212771\MP4SDQ=-86.4154656\CCSD=-86.4144244\CCSD(T)=-86.4315524\RMSD=
 4.378e-09\PG=OH [O(Cr1)]\\@


 A COMPLEXITY IS MERELY A DISARRANGEMENT OF SIMPLICITIES.

                                    -- G. O. ABELL IN "EXPLORATION OF THE UNIVERSE"
 Job cpu time:       0 days  1 hours 30 minutes 21.7 seconds.
 Elapsed time:       0 days  0 hours  4 minutes 34.2 seconds.
 File lengths (MBytes):  RWF=   2830 Int=      0 D2E=      0 Chk=      8 Scr=      1
 Normal termination of Gaussian 16 at Thu Apr  5 18:11:15 2018.
