 Entering Gaussian System, Link 0=g16
 Initial command:
 /home1/apps/gaussian/16rA.03/g16/l1.exe "/tmp/Gau-416655.inp" -scrdir="/tmp/"
 Entering Link 1 = /home1/apps/gaussian/16rA.03/g16/l1.exe PID=    416656.
  
 Copyright (c) 1988,1990,1992,1993,1995,1998,2003,2009,2016,
            Gaussian, Inc.  All Rights Reserved.
  
 This is part of the Gaussian(R) 16 program.  It is based on
 the Gaussian(R) 09 system (copyright 2009, Gaussian, Inc.),
 the Gaussian(R) 03 system (copyright 2003, Gaussian, Inc.),
 the Gaussian(R) 98 system (copyright 1998, Gaussian, Inc.),
 the Gaussian(R) 94 system (copyright 1995, Gaussian, Inc.),
 the Gaussian 92(TM) system (copyright 1992, Gaussian, Inc.),
 the Gaussian 90(TM) system (copyright 1990, Gaussian, Inc.),
 the Gaussian 88(TM) system (copyright 1988, Gaussian, Inc.),
 the Gaussian 86(TM) system (copyright 1986, Carnegie Mellon
 University), and the Gaussian 82(TM) system (copyright 1983,
 Carnegie Mellon University). Gaussian is a federally registered
 trademark of Gaussian, Inc.
  
 This software contains proprietary and confidential information,
 including trade secrets, belonging to Gaussian, Inc.
  
 This software is provided under written license and may be
 used, copied, transmitted, or stored only in accord with that
 written license.
  
 The following legend is applicable only to US Government
 contracts under FAR:
  
                    RESTRICTED RIGHTS LEGEND
  
 Use, reproduction and disclosure by the US Government is
 subject to restrictions as set forth in subparagraphs (a)
 and (c) of the Commercial Computer Software - Restricted
 Rights clause in FAR 52.227-19.
  
 Gaussian, Inc.
 340 Quinnipiac St., Bldg. 40, Wallingford CT 06492
  
  
 ---------------------------------------------------------------
 Warning -- This program may not be used in any manner that
 competes with the business of Gaussian, Inc. or will provide
 assistance to any competitor of Gaussian, Inc.  The licensee
 of this program is prohibited from giving any competitor of
 Gaussian, Inc. access to this program.  By using this program,
 the user acknowledges that Gaussian, Inc. is engaged in the
 business of creating and licensing software in the field of
 computational chemistry and represents and warrants to the
 licensee that it is not a competitor of Gaussian, Inc. and that
 it will not use this program in any manner prohibited above.
 ---------------------------------------------------------------
  

 Cite this work as:
 Gaussian 16, Revision A.03,
 M. J. Frisch, G. W. Trucks, H. B. Schlegel, G. E. Scuseria, 
 M. A. Robb, J. R. Cheeseman, G. Scalmani, V. Barone, 
 G. A. Petersson, H. Nakatsuji, X. Li, M. Caricato, A. V. Marenich, 
 J. Bloino, B. G. Janesko, R. Gomperts, B. Mennucci, H. P. Hratchian, 
 J. V. Ortiz, A. F. Izmaylov, J. L. Sonnenberg, D. Williams-Young, 
 F. Ding, F. Lipparini, F. Egidi, J. Goings, B. Peng, A. Petrone, 
 T. Henderson, D. Ranasinghe, V. G. Zakrzewski, J. Gao, N. Rega, 
 G. Zheng, W. Liang, M. Hada, M. Ehara, K. Toyota, R. Fukuda, 
 J. Hasegawa, M. Ishida, T. Nakajima, Y. Honda, O. Kitao, H. Nakai, 
 T. Vreven, K. Throssell, J. A. Montgomery, Jr., J. E. Peralta, 
 F. Ogliaro, M. J. Bearpark, J. J. Heyd, E. N. Brothers, K. N. Kudin, 
 V. N. Staroverov, T. A. Keith, R. Kobayashi, J. Normand, 
 K. Raghavachari, A. P. Rendell, J. C. Burant, S. S. Iyengar, 
 J. Tomasi, M. Cossi, J. M. Millam, M. Klene, C. Adamo, R. Cammi, 
 J. W. Ochterski, R. L. Martin, K. Morokuma, O. Farkas, 
 J. B. Foresman, and D. J. Fox, Gaussian, Inc., Wallingford CT, 2016.
 
 ******************************************
 Gaussian 16:  ES64L-G16RevA.03 25-Dec-2016
                 6-May-2018 
 ******************************************
 %mem=160GB
 %cpu=0-31
 SetSPE:  set environment variable "MP_BIND" = "yes"
 SetSPE:  set environment variable "MP_BLIST" = "0,1,2,3,4,5,6,7,8,9,10,11,12,13,14,15,16,17,18,19,20,21,22,23,24,25,26,27,28,29,30,31"
 Will use up to   32 processors via shared memory.
 %chk=5z.chk
 %rwf=/scratch/04843/gwang18/cuh/
 ----------------------------------------------------------------------
 #P ROCCSD(T)=(MaxCyc=150, Full)/Gen SCF=(maxcycle=400) Pseudo=Read Int
 egral(NoXCTest) Pop=Regular MaxDisk=500GB Guess=Read IOp(5/15=2)
 ----------------------------------------------------------------------
 1/38=1,172=1/1;
 2/12=2,17=6,18=5,40=1/2;
 3/5=7,11=2,16=1,17=8,25=1,30=1,47=8,116=101/1,2,3;
 4/5=1/1;
 5/5=2,7=400,15=2,38=6/2;
 8/5=-1,6=4,9=120000,10=90/1,4;
 9/5=7,6=150,14=2/13;
 6//1;
 99/5=1,9=1/99;
 Leave Link    1 at Sun May  6 10:31:54 2018, MaxMem= 21474836480 cpu:               2.0 elap:               0.1
 (Enter /home1/apps/gaussian/16rA.03/g16/l101.exe)
 ---
 CuH
 ---
 Symbolic Z-matrix:
 Charge =  0 Multiplicity = 1
 Cu                    0.        0.        0. 
 H                     0.        0.        1. 
 
 ITRead=  0  0
 MicOpt= -1 -1
 NAtoms=      2 NQM=        2 NQMF=       0 NMMI=      0 NMMIF=      0
                NMic=       0 NMicF=      0.
                    Isotopes and Nuclear Properties:
 (Nuclear quadrupole moments (NQMom) in fm**2, nuclear magnetic moments (NMagM)
  in nuclear magnetons)

  Atom         1           2
 IAtWgt=          63           1
 AtmWgt=  62.9295992   1.0078250
 NucSpn=           3           1
 AtZEff=  -0.0000000  -0.0000000
 NQMom=  -22.0000000   0.0000000
 NMagM=    2.2233000   2.7928460
 AtZNuc=  29.0000000   1.0000000
 Leave Link  101 at Sun May  6 10:31:54 2018, MaxMem= 21474836480 cpu:               2.7 elap:               0.1
 (Enter /home1/apps/gaussian/16rA.03/g16/l202.exe)
                          Input orientation:                          
 ---------------------------------------------------------------------
 Center     Atomic      Atomic             Coordinates (Angstroms)
 Number     Number       Type             X           Y           Z
 ---------------------------------------------------------------------
      1         29           0        0.000000    0.000000    0.000000
      2          1           0        0.000000    0.000000    1.000000
 ---------------------------------------------------------------------
 Stoichiometry    CuH
 Framework group  C*V[C*(HCu)]
 Deg. of freedom     1
 Full point group                 C*V     NOp   4
 Largest Abelian subgroup         C2V     NOp   4
 Largest concise Abelian subgroup C1      NOp   1
                         Standard orientation:                         
 ---------------------------------------------------------------------
 Center     Atomic      Atomic             Coordinates (Angstroms)
 Number     Number       Type             X           Y           Z
 ---------------------------------------------------------------------
      1         29           0        0.000000    0.000000    0.033333
      2          1           0        0.000000    0.000000   -0.966667
 ---------------------------------------------------------------------
 Rotational constants (GHZ):           0.0000000         509.4859678         509.4859678
 Leave Link  202 at Sun May  6 10:31:54 2018, MaxMem= 21474836480 cpu:               0.5 elap:               0.0
 (Enter /home1/apps/gaussian/16rA.03/g16/l301.exe)
 General basis read from cards:  (5D, 7F)
 Centers:       1
 S 1 1.00
     Exponent=  1.9318800000D+08 Coefficients=  1.0000000000D+00
 S 1 1.00
     Exponent=  3.3945200000D+07 Coefficients=  1.0000000000D+00
 S 1 1.00
     Exponent=  7.5104600000D+06 Coefficients=  1.0000000000D+00
 S 1 1.00
     Exponent=  2.0019900000D+06 Coefficients=  1.0000000000D+00
 S 1 1.00
     Exponent=  6.1937800000D+05 Coefficients=  1.0000000000D+00
 S 1 1.00
     Exponent=  2.1560600000D+05 Coefficients=  1.0000000000D+00
 S 1 1.00
     Exponent=  8.2327100000D+04 Coefficients=  1.0000000000D+00
 S 1 1.00
     Exponent=  3.3788400000D+04 Coefficients=  1.0000000000D+00
 S 1 1.00
     Exponent=  1.4670000000D+04 Coefficients=  1.0000000000D+00
 S 1 1.00
     Exponent=  6.6574400000D+03 Coefficients=  1.0000000000D+00
 S 1 1.00
     Exponent=  3.1302600000D+03 Coefficients=  1.0000000000D+00
 S 1 1.00
     Exponent=  1.5156100000D+03 Coefficients=  1.0000000000D+00
 S 1 1.00
     Exponent=  7.5258800000D+02 Coefficients=  1.0000000000D+00
 S 1 1.00
     Exponent=  3.8224900000D+02 Coefficients=  1.0000000000D+00
 S 1 1.00
     Exponent=  1.9823700000D+02 Coefficients=  1.0000000000D+00
 S 1 1.00
     Exponent=  1.0481000000D+02 Coefficients=  1.0000000000D+00
 S 1 1.00
     Exponent=  5.6388500000D+01 Coefficients=  1.0000000000D+00
 S 1 1.00
     Exponent=  3.0783000000D+01 Coefficients=  1.0000000000D+00
 S 1 1.00
     Exponent=  1.6977000000D+01 Coefficients=  1.0000000000D+00
 S 1 1.00
     Exponent=  9.3972500000D+00 Coefficients=  1.0000000000D+00
 S 1 1.00
     Exponent=  5.1723800000D+00 Coefficients=  1.0000000000D+00
 S 1 1.00
     Exponent=  2.7953500000D+00 Coefficients=  1.0000000000D+00
 S 1 1.00
     Exponent=  1.4589000000D+00 Coefficients=  1.0000000000D+00
 S 1 1.00
     Exponent=  7.2871100000D-01 Coefficients=  1.0000000000D+00
 S 1 1.00
     Exponent=  2.3764200000D-01 Coefficients=  1.0000000000D+00
 S 1 1.00
     Exponent=  1.2782100000D-01 Coefficients=  1.0000000000D+00
 S 1 1.00
     Exponent=  6.1815000000D-02 Coefficients=  1.0000000000D+00
 S 1 1.00
     Exponent=  2.9303000000D-02 Coefficients=  1.0000000000D+00
 S 1 1.00
     Exponent=  9.3455000000D+00 Coefficients=  1.0000000000D+00
 S 1 1.00
     Exponent=  3.3051000000D+00 Coefficients=  1.0000000000D+00
 S 1 1.00
     Exponent=  1.3890000000D-02 Coefficients=  1.0000000000D+00
 P 1 1.00
     Exponent=  1.1029400000D+05 Coefficients=  1.0000000000D+00
 P 1 1.00
     Exponent=  2.6939100000D+04 Coefficients=  1.0000000000D+00
 P 1 1.00
     Exponent=  8.5507100000D+03 Coefficients=  1.0000000000D+00
 P 1 1.00
     Exponent=  3.2461900000D+03 Coefficients=  1.0000000000D+00
 P 1 1.00
     Exponent=  1.3884600000D+03 Coefficients=  1.0000000000D+00
 P 1 1.00
     Exponent=  6.4247400000D+02 Coefficients=  1.0000000000D+00
 P 1 1.00
     Exponent=  3.1357000000D+02 Coefficients=  1.0000000000D+00
 P 1 1.00
     Exponent=  1.5916100000D+02 Coefficients=  1.0000000000D+00
 P 1 1.00
     Exponent=  8.3441400000D+01 Coefficients=  1.0000000000D+00
 P 1 1.00
     Exponent=  4.5019600000D+01 Coefficients=  1.0000000000D+00
 P 1 1.00
     Exponent=  2.4889400000D+01 Coefficients=  1.0000000000D+00
 P 1 1.00
     Exponent=  1.3973100000D+01 Coefficients=  1.0000000000D+00
 P 1 1.00
     Exponent=  7.8257100000D+00 Coefficients=  1.0000000000D+00
 P 1 1.00
     Exponent=  4.2863200000D+00 Coefficients=  1.0000000000D+00
 P 1 1.00
     Exponent=  2.2903400000D+00 Coefficients=  1.0000000000D+00
 P 1 1.00
     Exponent=  1.1934200000D+00 Coefficients=  1.0000000000D+00
 P 1 1.00
     Exponent=  5.9376500000D-01 Coefficients=  1.0000000000D+00
 P 1 1.00
     Exponent=  2.2398700000D-01 Coefficients=  1.0000000000D+00
 P 1 1.00
     Exponent=  8.9026000000D-02 Coefficients=  1.0000000000D+00
 P 1 1.00
     Exponent=  3.5213000000D-02 Coefficients=  1.0000000000D+00
 P 1 1.00
     Exponent=  1.4003500000D+01 Coefficients=  1.0000000000D+00
 P 1 1.00
     Exponent=  4.5398000000D+00 Coefficients=  1.0000000000D+00
 P 1 1.00
     Exponent=  1.3930000000D-02 Coefficients=  1.0000000000D+00
 D 1 1.00
     Exponent=  7.3289300000D+02 Coefficients=  1.0000000000D+00
 D 1 1.00
     Exponent=  2.2075300000D+02 Coefficients=  1.0000000000D+00
 D 1 1.00
     Exponent=  8.5626800000D+01 Coefficients=  1.0000000000D+00
 D 1 1.00
     Exponent=  3.7717800000D+01 Coefficients=  1.0000000000D+00
 D 1 1.00
     Exponent=  1.7764700000D+01 Coefficients=  1.0000000000D+00
 D 1 1.00
     Exponent=  8.7641500000D+00 Coefficients=  1.0000000000D+00
 D 1 1.00
     Exponent=  4.4178660000D+00 Coefficients=  1.0000000000D+00
 D 1 1.00
     Exponent=  2.2180390000D+00 Coefficients=  1.0000000000D+00
 D 1 1.00
     Exponent=  1.0935310000D+00 Coefficients=  1.0000000000D+00
 D 1 1.00
     Exponent=  5.2309100000D-01 Coefficients=  1.0000000000D+00
 D 1 1.00
     Exponent=  2.3847500000D-01 Coefficients=  1.0000000000D+00
 D 1 1.00
     Exponent=  1.0002600000D-01 Coefficients=  1.0000000000D+00
 D 1 1.00
     Exponent=  1.0853400000D+01 Coefficients=  1.0000000000D+00
 D 1 1.00
     Exponent=  6.4396000000D+00 Coefficients=  1.0000000000D+00
 D 1 1.00
     Exponent=  4.1950000000D-02 Coefficients=  1.0000000000D+00
 F 1 1.00
     Exponent=  1.6409600000D+01 Coefficients=  1.0000000000D+00
 F 1 1.00
     Exponent=  7.3000000000D+00 Coefficients=  1.0000000000D+00
 F 1 1.00
     Exponent=  3.2475000000D+00 Coefficients=  1.0000000000D+00
 F 1 1.00
     Exponent=  1.4447000000D+00 Coefficients=  1.0000000000D+00
 F 1 1.00
     Exponent=  5.0050000000D-01 Coefficients=  1.0000000000D+00
 F 1 1.00
     Exponent=  1.7339000000D-01 Coefficients=  1.0000000000D+00
 G 1 1.00
     Exponent=  1.1598400000D+01 Coefficients=  1.0000000000D+00
 G 1 1.00
     Exponent=  5.7591000000D+00 Coefficients=  1.0000000000D+00
 G 1 1.00
     Exponent=  2.8596000000D+00 Coefficients=  1.0000000000D+00
 G 1 1.00
     Exponent=  1.1042000000D+00 Coefficients=  1.0000000000D+00
 G 1 1.00
     Exponent=  4.2637000000D-01 Coefficients=  1.0000000000D+00
 H 1 1.00
     Exponent=  1.0031900000D+01 Coefficients=  1.0000000000D+00
 H 1 1.00
     Exponent=  4.8836000000D+00 Coefficients=  1.0000000000D+00
 H 1 1.00
     Exponent=  2.1024000000D+00 Coefficients=  1.0000000000D+00
 H 1 1.00
     Exponent=  9.0509000000D-01 Coefficients=  1.0000000000D+00
 I 1 1.00
     Exponent=  9.9825000000D+00 Coefficients=  1.0000000000D+00
 I 1 1.00
     Exponent=  4.9428000000D+00 Coefficients=  1.0000000000D+00
 I 1 1.00
     Exponent=  2.4474100000D+00 Coefficients=  1.0000000000D+00
 ****
 Centers:       2
 S 1 1.00
     Exponent=  4.0200000000D+02 Coefficients=  1.0000000000D+00
 S 1 1.00
     Exponent=  6.0240000000D+01 Coefficients=  1.0000000000D+00
 S 1 1.00
     Exponent=  1.3730000000D+01 Coefficients=  1.0000000000D+00
 S 1 1.00
     Exponent=  3.9050000000D+00 Coefficients=  1.0000000000D+00
 S 1 1.00
     Exponent=  1.2830000000D+00 Coefficients=  1.0000000000D+00
 S 1 1.00
     Exponent=  4.6550000000D-01 Coefficients=  1.0000000000D+00
 S 1 1.00
     Exponent=  1.8110000000D-01 Coefficients=  1.0000000000D+00
 S 1 1.00
     Exponent=  7.2790000000D-02 Coefficients=  1.0000000000D+00
 S 1 1.00
     Exponent=  2.0700000000D-02 Coefficients=  1.0000000000D+00
 P 1 1.00
     Exponent=  4.5160000000D+00 Coefficients=  1.0000000000D+00
 P 1 1.00
     Exponent=  1.7120000000D+00 Coefficients=  1.0000000000D+00
 P 1 1.00
     Exponent=  6.4900000000D-01 Coefficients=  1.0000000000D+00
 P 1 1.00
     Exponent=  2.4600000000D-01 Coefficients=  1.0000000000D+00
 P 1 1.00
     Exponent=  7.4400000000D-02 Coefficients=  1.0000000000D+00
 D 1 1.00
     Exponent=  2.9500000000D+00 Coefficients=  1.0000000000D+00
 D 1 1.00
     Exponent=  1.2060000000D+00 Coefficients=  1.0000000000D+00
 D 1 1.00
     Exponent=  4.9300000000D-01 Coefficients=  1.0000000000D+00
 D 1 1.00
     Exponent=  1.5600000000D-01 Coefficients=  1.0000000000D+00
 F 1 1.00
     Exponent=  2.5060000000D+00 Coefficients=  1.0000000000D+00
 F 1 1.00
     Exponent=  8.7500000000D-01 Coefficients=  1.0000000000D+00
 F 1 1.00
     Exponent=  2.7400000000D-01 Coefficients=  1.0000000000D+00
 G 1 1.00
     Exponent=  2.3580000000D+00 Coefficients=  1.0000000000D+00
 G 1 1.00
     Exponent=  5.4300000000D-01 Coefficients=  1.0000000000D+00
 ****
 ======================================================================================================
                                       Pseudopotential Parameters
 ======================================================================================================
  Center     Atomic      Valence      Angular      Power
  Number     Number     Electrons     Momentum     of R      Exponent        Coefficient   SO-Coeffient
 ======================================================================================================
    1         29           19
                                      D and up 
                                                     1       36.5168770       19.00000000    0.00000000
                                                     3       54.8220139      693.82066249    0.00000000
                                                     2       32.4816959     -155.75952044    0.00000000
                                                     2       17.0147179        1.10887002    0.00000000
                                      S - D
                                                     2       14.8670251       94.86836555    0.00000000
                                                     2       29.4178044      376.04038354    0.00000000
                                      P - D
                                                     2       11.7570899       64.21861970    0.00000000
                                                     2       50.1191443      255.82988430    0.00000000
    2          1            1
                                      P and up 
                                                     2       21.7769666      -10.85192405    0.00000000
                                                     1       21.2435951        1.00000000    0.00000000
                                                     3       21.2435951       21.24359508    0.00000000
                                      S - P
                                                     2        1.0000000        0.00000000    0.00000000
 ======================================================================================================
 Ernie: Thresh=  0.10000D-02 Tol=  0.10000D-05 Strict=F.
 There are   248 symmetry adapted cartesian basis functions of A1  symmetry.
 There are    79 symmetry adapted cartesian basis functions of A2  symmetry.
 There are   137 symmetry adapted cartesian basis functions of B1  symmetry.
 There are   137 symmetry adapted cartesian basis functions of B2  symmetry.
 There are   169 symmetry adapted basis functions of A1  symmetry.
 There are    59 symmetry adapted basis functions of A2  symmetry.
 There are   100 symmetry adapted basis functions of B1  symmetry.
 There are   100 symmetry adapted basis functions of B2  symmetry.
   428 basis functions,   601 primitive gaussians,   601 cartesian basis functions
    10 alpha electrons       10 beta electrons
       nuclear repulsion energy        10.0543670075 Hartrees.
 IExCor=    0 DFT=F Ex=HF Corr=None ExCW=0 ScaHFX=  1.000000
 ScaDFX=  1.000000  1.000000  1.000000  1.000000 ScalE2=  1.000000  1.000000
 IRadAn=      5 IRanWt=     -1 IRanGd=            0 ICorTp=0 IEmpDi=  4
 NAtoms=    2 NActive=    2 NUniq=    2 SFac= 1.00D+00 NAtFMM=   60 NAOKFM=F Big=F
 Integral buffers will be    131072 words long.
 Raffenetti 2 integral format.
 Two-electron integral symmetry is turned on.
 Leave Link  301 at Sun May  6 10:31:55 2018, MaxMem= 21474836480 cpu:               3.4 elap:               0.1
 (Enter /home1/apps/gaussian/16rA.03/g16/l302.exe)
 NPDir=0 NMtPBC=     1 NCelOv=     1 NCel=       1 NClECP=     1 NCelD=      1
         NCelK=      1 NCelE2=     1 NClLst=     1 CellRange=     0.0.
 One-electron integrals computed using PRISM.
 One-electron integral symmetry used in STVInt
   4 Symmetry operations used in ECPInt.
 ECPInt:  NShTT=    6105 NPrTT=    6105 LenC2=    6042 LenP2D=    6041.
 LDataN:  DoStor=T MaxTD1=12 Len= 1566
 NBasis=   428 RedAO= T EigKep=  4.48D-06  NBF=   169    59   100   100
 NBsUse=   420 1.00D-06 EigRej=  6.94D-07 NBFU=   165    59    98    98
 Leave Link  302 at Sun May  6 10:31:56 2018, MaxMem= 21474836480 cpu:              40.2 elap:               1.3
 (Enter /home1/apps/gaussian/16rA.03/g16/l303.exe)
 DipDrv:  MaxL=1.
 Leave Link  303 at Sun May  6 10:31:57 2018, MaxMem= 21474836480 cpu:               1.8 elap:               0.1
 (Enter /home1/apps/gaussian/16rA.03/g16/l401.exe)
 Initial guess from the checkpoint file:  "5z.chk"
 B after Tr=     0.000000    0.000000    0.000000
         Rot=    1.000000    0.000000    0.000000    0.000000 Ang=   0.00 deg.
 Guess basis will be translated and rotated to current coordinates.
 JPrj=2 DoOrth=T DoCkMO=T.
 Initial guess orbital symmetries:
       Occupied  (SG) (SG) (PI) (PI) (SG) (PI) (PI) (DLTA) (DLTA)
                 (SG)
       Virtual   (SG) (PI) (PI) (SG) (SG) (PI) (PI) (SG) (PI) (PI)
                 (SG) (DLTA) (DLTA) (SG) (SG) (PI) (PI) (SG) (PI)
                 (PI) (SG) (DLTA) (DLTA) (PI) (PI) (SG) (SG) (SG)
                 (DLTA) (DLTA) (PI) (PI) (PI) (PI) (SG) (PHI) (PHI)
                 (SG) (PI) (PI) (DLTA) (DLTA) (PI) (PI) (DLTA)
                 (DLTA) (SG) (SG) (SG) (PI) (PI) (PHI) (PHI) (DLTA)
                 (DLTA) (PI) (PI) (SG) (SG) (PI) (PI) (SG) (DLTA)
                 (DLTA) (SG) (PI) (PI) (PHI) (PHI) (DLTA) (DLTA)
                 (PI) (PI) (SG) (SG) (DLTA) (DLTA) (PI) (PI) (?A)
                 (?A) (PHI) (PHI) (SG) (PI) (PI) (DLTA) (DLTA)
                 (SG) (PI) (PI) (SG) (PI) (PI) (SG) (PHI) (PHI)
                 (DLTA) (DLTA) (PI) (PI) (SG) (SG) (PI) (PI) (DLTA)
                 (DLTA) (PHI) (PHI) (SG) (DLTA) (DLTA) (PI) (PI)
                 (DLTA) (DLTA) (SG) (PI) (PI) (SG) (?A) (?A) (PHI)
                 (PHI) (?A) (?A) (?B) (?B) (PI) (PI) (PHI) (PHI)
                 (DLTA) (DLTA) (SG) (PI) (PI) (DLTA) (DLTA) (SG)
                 (SG) (SG) (PI) (PI) (PI) (PI) (DLTA) (DLTA) (SG)
                 (PI) (PI) (SG) (PHI) (PHI) (DLTA) (DLTA) (PI)
                 (PI) (SG) (?A) (?A) (PHI) (PHI) (DLTA) (DLTA)
                 (SG) (PI) (PI) (?A) (?A) (?B) (?B) (PHI) (PHI)
                 (DLTA) (DLTA) (SG) (PI) (PI) (SG) (PI) (PI) (DLTA)
                 (DLTA) (PI) (PI) (SG) (SG) (SG) (PHI) (PHI) (DLTA)
                 (DLTA) (PI) (PI) (SG) (DLTA) (DLTA) (SG) (PI)
                 (PI) (PI) (PI) (SG) (?A) (?A) (PHI) (PHI) (DLTA)
                 (DLTA) (PI) (PI) (SG) (?A) (?A) (?B) (?B) (PHI)
                 (PHI) (DLTA) (DLTA) (SG) (PI) (PI) (SG) (DLTA)
                 (DLTA) (PI) (PI) (SG) (PI) (PI) (SG) (SG) (DLTA)
                 (DLTA) (PI) (PI) (SG) (PI) (PI) (SG) (SG) (SG)
                 (PI) (PI) (SG) (DLTA) (DLTA) (PI) (PI) (SG) (SG)
                 (PI) (PI) (SG) (DLTA) (DLTA) (PI) (PI) (SG) (SG)
                 (PI) (PI) (SG) (SG) (PI) (PI) (SG) (DLTA) (DLTA)
                 (PI) (PI) (SG) (SG) (PI) (PI) (SG) (SG) (PI) (PI)
                 (SG) (SG) (PI) (PI) (SG) (SG) (PI) (PI) (SG) (SG)
                 (PI) (PI) (SG) (SG) (SG) (SG) (SG) (SG) (DLTA)
                 (SG) (DLTA) (SG) (SG) (SG) (DLTA) (SG) (SG) (DLTA)
                 (SG) (DLTA) (SG) (?A) (SG) (DLTA) (SG) (DLTA)
                 (SG) (?A) (SG) (DLTA) (SG) (?A) (SG) (DLTA) (SG)
                 (SG) (SG) (DLTA) (?A) (DLTA) (?A) (?A) (SG) (SG)
                 (?A) (SG) (SG) (SG) (DLTA) (DLTA) (DLTA) (DLTA)
                 (DLTA) (?A) (DLTA) (DLTA) (?A) (DLTA) (?A) (SG)
                 (DLTA) (DLTA) (?A) (DLTA) (?A) (?A) (SG) (?A)
                 (SG) (PI) (PI) (PI) (PI) (PHI) (PI) (PI) (PHI)
                 (PI) (PI) (PHI) (PI) (PHI) (?B) (PI) (PHI) (PI)
                 (?B) (PHI) (PHI) (PI) (PHI) (PHI) (?B) (?B) (PI)
                 (PI) (PI) (PI) (PHI) (PI) (PI) (PHI) (PI) (PI)
                 (PHI) (PI) (PHI) (?B) (PI) (PHI) (PI) (?B) (PHI)
                 (PHI) (PI) (PHI) (PHI) (?B) (?B)
 The electronic state of the initial guess is 1-SG.
 Leave Link  401 at Sun May  6 10:31:57 2018, MaxMem= 21474836480 cpu:              11.2 elap:               0.4
 (Enter /home1/apps/gaussian/16rA.03/g16/l502.exe)
 Keep R1 and R2 ints in memory in symmetry-blocked form, NReq=5277864979.
 FoFCou: FMM=F IPFlag=           8 FMFlag=           0 FMFlg1=           0
         NFxFlg=           0 DoJE=F BraDBF=F KetDBF=F FulRan=T
         wScrn=  0.000000 ICntrl=       600 IOpCl=  0 I1Cent=           0 NGrid=           0
         NMat0=    1 NMatS0=  91806 NMatT0=    0 NMatD0=    1 NMtDS0=    0 NMtDT0=    0
 Petite list used in FoFCou.
 Restricted open shell SCF:
 Using DIIS extrapolation, IDIIS=  1040.
 NGot= 21474836480 LenX= 19347000587 LenY= 19346638785
 Requested convergence on RMS density matrix=1.00D-08 within 400 cycles.
 Requested convergence on MAX density matrix=1.00D-06.
 Requested convergence on             energy=1.00D-06.
 No special actions if energy rises.

 Cycle   1  Pass 1  IDiag  1:
 E= -196.396171565871    
 DIIS: error= 5.38D-01 at cycle   1 NSaved=   1.
 NSaved= 1 IEnMin= 1 EnMin= -196.396171565871     IErMin= 1 ErrMin= 5.38D-01
 ErrMax= 5.38D-01  0.00D+00 EMaxC= 1.00D-01 BMatC= 3.99D+01 BMatP= 3.99D+01
 IDIUse=3 WtCom= 0.00D+00 WtEn= 1.00D+00
 Coeff-Com:  0.100D+01
 Coeff-En:   0.100D+01
 Coeff:      0.100D+01
 Gap=     0.335 Goal=   None    Shift=    0.000
 GapD=    0.335 DampG=1.000 DampE=0.125 DampFc=0.1250 IDamp=-1.
 Damping current iteration by 1.25D-01
 RMSDP=7.72D-04 MaxDP=5.48D-02              OVMax= 8.36D-04

 Cycle   2  Pass 1  IDiag  1:
 E= -196.396223287337     Delta-E=       -0.000051721466 Rises=F Damp=T
 DIIS: error= 4.70D-01 at cycle   2 NSaved=   2.
 NSaved= 2 IEnMin= 2 EnMin= -196.396223287337     IErMin= 2 ErrMin= 4.70D-01
 ErrMax= 4.70D-01  0.00D+00 EMaxC= 1.00D-01 BMatC= 3.06D+01 BMatP= 3.99D+01
 IDIUse=3 WtCom= 0.00D+00 WtEn= 1.00D+00
 Coeff-Com: -0.700D+01 0.800D+01
 Coeff-En:   0.000D+00 0.100D+01
 Coeff:      0.000D+00 0.100D+01
 Gap=     0.333 Goal=   None    Shift=    0.000
 RMSDP=6.78D-04 MaxDP=4.81D-02 DE=-5.17D-05 OVMax= 1.47D-05

 Cycle   3  Pass 1  IDiag  1:
 E= -196.396588206146     Delta-E=       -0.000364918809 Rises=F Damp=F
 DIIS: error= 1.27D-04 at cycle   3 NSaved=   3.
 NSaved= 3 IEnMin= 3 EnMin= -196.396588206146     IErMin= 3 ErrMin= 1.27D-04
 ErrMax= 1.27D-04  0.00D+00 EMaxC= 1.00D-01 BMatC= 8.02D-07 BMatP= 3.06D+01
 IDIUse=3 WtCom= 9.99D-01 WtEn= 1.27D-03
 Large coefficients: NSaved=  3 BigCof=   52.71 CofMax=   10.00 Det=-2.69D-10
 Inversion failed.  Reducing to  2 matrices.
 Coeff-Com: -0.563D-05 0.100D+01
 Coeff-En:   0.000D+00 0.100D+01
 Coeff:     -0.562D-05 0.100D+01
 Gap=     0.333 Goal=   None    Shift=    0.000
 RMSDP=2.56D-05 MaxDP=2.68D-03 DE=-3.65D-04 OVMax= 1.05D-04

 Cycle   4  Pass 1  IDiag  1:
 E= -196.396588326423     Delta-E=       -0.000000120277 Rises=F Damp=F
 DIIS: error= 1.59D-05 at cycle   4 NSaved=   3.
 NSaved= 3 IEnMin= 3 EnMin= -196.396588326423     IErMin= 3 ErrMin= 1.59D-05
 ErrMax= 1.59D-05  0.00D+00 EMaxC= 1.00D-01 BMatC= 1.71D-08 BMatP= 8.02D-07
 IDIUse=1 WtCom= 1.00D+00 WtEn= 0.00D+00
 Coeff-Com: -0.666D-07 0.813D-02 0.992D+00
 Coeff:     -0.666D-07 0.813D-02 0.992D+00
 Gap=     0.333 Goal=   None    Shift=    0.000
 RMSDP=3.02D-06 MaxDP=3.74D-04 DE=-1.20D-07 OVMax= 2.82D-05

 Cycle   5  Pass 1  IDiag  1:
 E= -196.396588324316     Delta-E=        0.000000002107 Rises=F Damp=F
 DIIS: error= 2.24D-05 at cycle   5 NSaved=   4.
 NSaved= 4 IEnMin= 3 EnMin= -196.396588326423     IErMin= 3 ErrMin= 1.59D-05
 ErrMax= 2.24D-05  0.00D+00 EMaxC= 1.00D-01 BMatC= 3.14D-08 BMatP= 1.71D-08
 IDIUse=1 WtCom= 1.00D+00 WtEn= 0.00D+00
 Coeff-Com:  0.856D-07-0.173D-01 0.586D+00 0.431D+00
 Coeff:      0.856D-07-0.173D-01 0.586D+00 0.431D+00
 Gap=     0.333 Goal=   None    Shift=    0.000
 RMSDP=2.72D-07 MaxDP=3.45D-05 DE= 2.11D-09 OVMax= 1.28D-05

 Cycle   6  Pass 1  IDiag  1:
 E= -196.396588332196     Delta-E=       -0.000000007880 Rises=F Damp=F
 DIIS: error= 8.49D-07 at cycle   6 NSaved=   5.
 NSaved= 5 IEnMin= 5 EnMin= -196.396588332196     IErMin= 5 ErrMin= 8.49D-07
 ErrMax= 8.49D-07  0.00D+00 EMaxC= 1.00D-01 BMatC= 2.54D-11 BMatP= 1.71D-08
 IDIUse=1 WtCom= 1.00D+00 WtEn= 0.00D+00
 Coeff-Com: -0.416D-08 0.999D-03-0.638D-01-0.372D-01 0.110D+01
 Coeff:     -0.416D-08 0.999D-03-0.638D-01-0.372D-01 0.110D+01
 Gap=     0.333 Goal=   None    Shift=    0.000
 RMSDP=2.90D-07 MaxDP=4.63D-05 DE=-7.88D-09 OVMax= 4.40D-06

 Cycle   7  Pass 1  IDiag  1:
 E= -196.396588332257     Delta-E=       -0.000000000061 Rises=F Damp=F
 DIIS: error= 3.99D-07 at cycle   7 NSaved=   6.
 NSaved= 6 IEnMin= 6 EnMin= -196.396588332257     IErMin= 6 ErrMin= 3.99D-07
 ErrMax= 3.99D-07  0.00D+00 EMaxC= 1.00D-01 BMatC= 7.95D-12 BMatP= 2.54D-11
 IDIUse=1 WtCom= 1.00D+00 WtEn= 0.00D+00
 Coeff-Com: -0.417D-08 0.845D-03-0.336D-01-0.290D-01 0.161D+00 0.900D+00
 Coeff:     -0.417D-08 0.845D-03-0.336D-01-0.290D-01 0.161D+00 0.900D+00
 Gap=     0.333 Goal=   None    Shift=    0.000
 RMSDP=3.16D-08 MaxDP=5.54D-06 DE=-6.12D-11 OVMax= 1.75D-06

 Cycle   8  Pass 1  IDiag  1:
 E= -196.396588332271     Delta-E=       -0.000000000014 Rises=F Damp=F
 DIIS: error= 2.76D-07 at cycle   8 NSaved=   7.
 NSaved= 7 IEnMin= 7 EnMin= -196.396588332271     IErMin= 7 ErrMin= 2.76D-07
 ErrMax= 2.76D-07  0.00D+00 EMaxC= 1.00D-01 BMatC= 2.44D-12 BMatP= 7.95D-12
 IDIUse=1 WtCom= 1.00D+00 WtEn= 0.00D+00
 Coeff-Com:  0.208D-08-0.460D-03 0.222D-01 0.107D-01-0.232D+00-0.586D+00
 Coeff-Com:  0.179D+01
 Coeff:      0.208D-08-0.460D-03 0.222D-01 0.107D-01-0.232D+00-0.586D+00
 Coeff:      0.179D+01
 Gap=     0.333 Goal=   None    Shift=    0.000
 RMSDP=1.12D-08 MaxDP=1.01D-06 DE=-1.41D-11 OVMax= 2.97D-06

 Cycle   9  Pass 1  IDiag  1:
 E= -196.396588332283     Delta-E=       -0.000000000012 Rises=F Damp=F
 DIIS: error= 9.99D-08 at cycle   9 NSaved=   8.
 NSaved= 8 IEnMin= 8 EnMin= -196.396588332283     IErMin= 8 ErrMin= 9.99D-08
 ErrMax= 9.99D-08  0.00D+00 EMaxC= 1.00D-01 BMatC= 4.71D-13 BMatP= 2.44D-12
 IDIUse=1 WtCom= 1.00D+00 WtEn= 0.00D+00
 Coeff-Com:  0.351D-09-0.436D-04 0.406D-03 0.158D-03 0.282D-01-0.164D+00
 Coeff-Com: -0.125D+00 0.126D+01
 Coeff:      0.351D-09-0.436D-04 0.406D-03 0.158D-03 0.282D-01-0.164D+00
 Coeff:     -0.125D+00 0.126D+01
 Gap=     0.333 Goal=   None    Shift=    0.000
 RMSDP=5.25D-09 MaxDP=4.75D-07 DE=-1.18D-11 OVMax= 1.35D-06

 SCF Done:  E(ROHF) =  -196.396588332     A.U. after    9 cycles
            NFock=  9  Conv=0.52D-08     -V/T= 2.5175
 <Sx>= 0.0000 <Sy>= 0.0000 <Sz>= 0.0000 <S**2>=-0.0000 S=-0.0000
 <L.S>=  0.00000000000    
 KE= 1.294252847479D+02 PE=-5.047319099438D+02 EE= 1.688556698562D+02
 Annihilation of the first spin contaminant:
 S**2 before annihilation    -0.0000,   after     0.0000
 Leave Link  502 at Sun May  6 10:32:42 2018, MaxMem= 21474836480 cpu:            1268.2 elap:              44.5
 (Enter /home1/apps/gaussian/16rA.03/g16/l801.exe)
 Windowed orbitals will be sorted by symmetry type.
 GenMOA:  NOpAll=  4 NOp2=4 NOpUse=  4 JSym2X=1
 FoFJK:  IHMeth= 1 ICntrl=       0 DoSepK=F KAlg= 0 I1Cent=           0 FoldK=F
 IRaf=         0 NMat=       1 IRICut=       1 DoRegI=T DoRafI=F ISym2E= 1 IDoP0=0 IntGTp=1.
 FoFCou: FMM=F IPFlag=           8 FMFlag=      100000 FMFlg1=           0
         NFxFlg=           0 DoJE=F BraDBF=F KetDBF=F FulRan=T
         wScrn=  0.000000 ICntrl=         0 IOpCl=  1 I1Cent=           0 NGrid=           0
         NMat0=    1 NMatS0=      1 NMatT0=    0 NMatD0=    1 NMtDS0=    0 NMtDT0=    0
 Petite list used in FoFCou.
 <Sx>= 0.0000 <Sy>= 0.0000 <Sz>= 0.0000 <S**2>=-0.0000 S=-0.0000
 Range of M.O.s used for correlation:     1   420
 NBasis=   428 NAE=    10 NBE=    10 NFC=     0 NFV=     0
 NROrb=    420 NOA=    10 NOB=    10 NVA=   410 NVB=   410

 **** Warning!!: The largest alpha MO coefficient is  0.18237587D+03


 **** Warning!!: The largest beta MO coefficient is  0.18237587D+03

 Singles contribution to E2=   -0.9889208108D-13
 Leave Link  801 at Sun May  6 10:33:02 2018, MaxMem= 21474836480 cpu:             588.9 elap:              18.5
 (Enter /home1/apps/gaussian/16rA.03/g16/l804.exe)
 Open-shell transformation, MDV= 21474836480 ITran=4 ISComp=2.
 Unit  1 TFree=       5559581 TCopy=       3937808.
 Semi-Direct transformation.
 ModeAB=           2 MOrb=            10 LenV=   21469447507
 LASXX=     92246279 LTotXX=    92246279 LenRXX=    92246279
 LTotAB=    93071561 MaxLAS=   759784200 LenRXY=   759784200
 NonZer=   773669400 LenScr=  1165056000 LnRSAI=           0
 LnScr1=           0 LExtra=    28413601 Total=   2045500080
 MaxDsk= 67108864000 SrtSym=           F ITran=            4
 DoSDTr:  NPSUse= 32
 JobTyp=1 Pass  1:  I=   1 to  10.
 (rs|ai) integrals will be sorted in core.
 Complete sort for first half transformation.
 First half transformation complete.
 Begin second half transformation for I=  10.
 Begin second half transformation for I=  10.
 Complete sort for second half transformation.
 Second half transformation complete.
 ModeAB=           2 MOrb=            10 LenV=   21469447507
 LASXX=     92246279 LTotXX=    92246279 LenRXX=   759784200
 LTotAB=    88666064 MaxLAS=   759784200 LenRXY=    88666064
 NonZer=   773669400 LenScr=  1165056000 LnRSAI=           0
 LnScr1=           0 LExtra=   880444080 Total=   2893950344
 MaxDsk= 67108864000 SrtSym=           F ITran=            4
 DoSDTr:  NPSUse= 32
 JobTyp=2 Pass  1:  I=   1 to  10.
 (rs|ai) integrals will be sorted in core.
 Complete sort for first half transformation.
 First half transformation complete.
 Begin second half transformation for I=  10.
 Begin second half transformation for I=  10.
 Complete sort for second half transformation.
 Second half transformation complete.
 Spin components of T(2) and E(2):
     alpha-alpha T2 =       0.2506394548D-01 E2=     -0.1819354497D+00
     alpha-beta  T2 =       0.1099588441D+00 E2=     -0.8349256435D+00
     beta-beta   T2 =       0.2506394548D-01 E2=     -0.1819354497D+00
 ANorm=    0.1077073226D+01
 E2 =    -0.1198796543D+01 EUMP2 =    -0.19759538487511D+03
 (S**2,0)=  0.00000D+00           (S**2,1)=  0.00000D+00
 E(PUHF)=      -0.19639658833D+03        E(PMP2)=      -0.19759538488D+03
 Leave Link  804 at Sun May  6 10:43:41 2018, MaxMem= 21474836480 cpu:           20316.6 elap:             637.0
 (Enter /home1/apps/gaussian/16rA.03/g16/l913.exe)
 CIDS:  MDV= 21474836480.
 IFCWin=0 IBDFC=1 NFBD=     0     0 NFCmp=     0     0 NFFFC=     0     0
 Using original routines for 1st iteration.
 Using DD4UQ or CC4UQ for 2nd and later iterations.
 Keep R2 and R3 ints in memory in symmetry-blocked form, NReq=5277887473.
 FoFCou: FMM=F IPFlag=           8 FMFlag=           0 FMFlg1=           0
         NFxFlg=           0 DoJE=F BraDBF=F KetDBF=F FulRan=T
         wScrn=  0.000000 ICntrl=       600 IOpCl=  0 I1Cent=           0 NGrid=           0
         NMat0=    1 NMatS0=  91806 NMatT0=    0 NMatD0=    1 NMtDS0=    0 NMtDT0=    0
 Petite list used in FoFCou.
 CIDS: In Core Option IDoMem=           1.
 CCSD(T)
 =======
 Iterations= 150 Convergence= 0.100D-06
 Produce multiple copies of IABC intergrals
 Iteration Nr.   1
 **********************
 DD1Dir will call FoFMem   1 times, MxPair=       290
 NAB=   100 NAA=    45 NBB=    45.
 DD1Dir will call FoFMem   1 times, MxPair=       290
 NAB=   100 NAA=    45 NBB=    45.
 MP4(R+Q)= -0.22446650D+00
 Maximum subspace dimension=  5
 A-vector RMS=  1.8205427D-05 Max=  3.7826946D-03 conv= 1.00D-05.
 RLE energy=       -1.2107862586
 E3=        0.21259551D+00        EROMP3=      -0.19738278936D+03
 E4(SDQ)=  -0.15203889D+00        ROMP4(SDQ)=  -0.19753482826D+03
 VARIATIONAL ENERGIES WITH THE FIRST-ORDER WAVEFUNCTION:
 DE(Corr)=  -1.2106675     E(Corr)=     -197.60725586    
 NORM(A)=   0.10781041D+01
 Iteration Nr.   2
 **********************
 DD1Dir will call FoFMem   1 times, MxPair=       290
 NAB=   100 NAA=    45 NBB=    45.
 A-vector RMS=  3.4272018D-03 Max=  3.2504542D-02 conv= 1.00D-05.
 RLE energy=       -1.1714168370
 DE(Corr)= -0.98580733     E(CORR)=     -197.38239566     Delta= 2.25D-01
 NORM(A)=   0.10710383D+01
 Iteration Nr.   3
 **********************
 DD1Dir will call FoFMem   1 times, MxPair=       290
 NAB=   100 NAA=    45 NBB=    45.
 A-vector RMS=  2.4474838D-03 Max=  2.2504665D-02 conv= 1.00D-05.
 RLE energy=       -1.1166599870
 DE(Corr)=  -1.0046637     E(CORR)=     -197.40125205     Delta=-1.89D-02
 NORM(A)=   0.10653410D+01
 Iteration Nr.   4
 **********************
 DD1Dir will call FoFMem   1 times, MxPair=       290
 NAB=   100 NAA=    45 NBB=    45.
 A-vector RMS=  1.6653573D-03 Max=  1.5503975D-02 conv= 1.00D-05.
 RLE energy=       -1.0278835288
 DE(Corr)=  -1.0332803     E(CORR)=     -197.42986866     Delta=-2.86D-02
 NORM(A)=   0.10668371D+01
 Iteration Nr.   5
 **********************
 DD1Dir will call FoFMem   1 times, MxPair=       290
 NAB=   100 NAA=    45 NBB=    45.
 A-vector RMS=  9.4404826D-04 Max=  9.0065251D-03 conv= 1.00D-05.
 RLE energy=       -1.0560418978
 DE(Corr)=  -1.0901739     E(CORR)=     -197.48676221     Delta=-5.69D-02
 NORM(A)=   0.10705135D+01
 Iteration Nr.   6
 **********************
 DD1Dir will call FoFMem   1 times, MxPair=       290
 NAB=   100 NAA=    45 NBB=    45.
 A-vector RMS=  2.5971736D-04 Max=  2.2363749D-03 conv= 1.00D-05.
 RLE energy=       -1.0685086108
 DE(Corr)=  -1.0744377     E(CORR)=     -197.47102606     Delta= 1.57D-02
 NORM(A)=   0.10698019D+01
 Iteration Nr.   7
 **********************
 DD1Dir will call FoFMem   1 times, MxPair=       290
 NAB=   100 NAA=    45 NBB=    45.
 A-vector RMS=  9.2282097D-05 Max=  1.5694662D-03 conv= 1.00D-05.
 RLE energy=       -1.0670648088
 DE(Corr)=  -1.0665321     E(CORR)=     -197.46312047     Delta= 7.91D-03
 NORM(A)=   0.10700463D+01
 Iteration Nr.   8
 **********************
 DD1Dir will call FoFMem   1 times, MxPair=       290
 NAB=   100 NAA=    45 NBB=    45.
 A-vector RMS=  6.9165788D-05 Max=  1.1061672D-03 conv= 1.00D-05.
 RLE energy=       -1.0670677888
 DE(Corr)=  -1.0672619     E(CORR)=     -197.46385022     Delta=-7.30D-04
 NORM(A)=   0.10703479D+01
 Iteration Nr.   9
 **********************
 DD1Dir will call FoFMem   1 times, MxPair=       290
 NAB=   100 NAA=    45 NBB=    45.
 A-vector RMS=  3.6761882D-05 Max=  5.6965510D-04 conv= 1.00D-05.
 RLE energy=       -1.0671645925
 DE(Corr)=  -1.0671448     E(CORR)=     -197.46373309     Delta= 1.17D-04
 NORM(A)=   0.10706492D+01
 Iteration Nr.  10
 **********************
 DD1Dir will call FoFMem   1 times, MxPair=       290
 NAB=   100 NAA=    45 NBB=    45.
 A-vector RMS=  1.3174574D-05 Max=  1.6332638D-04 conv= 1.00D-05.
 RLE energy=       -1.0671729365
 DE(Corr)=  -1.0671547     E(CORR)=     -197.46374305     Delta=-9.96D-06
 NORM(A)=   0.10707062D+01
 Iteration Nr.  11
 **********************
 DD1Dir will call FoFMem   1 times, MxPair=       290
 NAB=   100 NAA=    45 NBB=    45.
 A-vector RMS=  8.8072798D-06 Max=  1.6454081D-04 conv= 1.00D-05.
 RLE energy=       -1.0671128071
 DE(Corr)=  -1.0671414     E(CORR)=     -197.46372975     Delta= 1.33D-05
 NORM(A)=   0.10707041D+01
 Iteration Nr.  12
 **********************
 DD1Dir will call FoFMem   1 times, MxPair=       290
 NAB=   100 NAA=    45 NBB=    45.
 A-vector RMS=  4.5812600D-06 Max=  5.5924051D-05 conv= 1.00D-05.
 RLE energy=       -1.0671737833
 DE(Corr)=  -1.0671744     E(CORR)=     -197.46376272     Delta=-3.30D-05
 NORM(A)=   0.10706985D+01
 Iteration Nr.  13
 **********************
 DD1Dir will call FoFMem   1 times, MxPair=       290
 NAB=   100 NAA=    45 NBB=    45.
 A-vector RMS=  2.2102270D-06 Max=  2.7452396D-05 conv= 1.00D-05.
 RLE energy=       -1.0671447402
 DE(Corr)=  -1.0671325     E(CORR)=     -197.46372086     Delta= 4.19D-05
 NORM(A)=   0.10706936D+01
 Iteration Nr.  14
 **********************
 DD1Dir will call FoFMem   1 times, MxPair=       290
 NAB=   100 NAA=    45 NBB=    45.
 A-vector RMS=  8.7718744D-07 Max=  9.5554316D-06 conv= 1.00D-05.
 RLE energy=       -1.0671472651
 DE(Corr)=  -1.0671503     E(CORR)=     -197.46373863     Delta=-1.78D-05
 NORM(A)=   0.10706911D+01
 Iteration Nr.  15
 **********************
 DD1Dir will call FoFMem   1 times, MxPair=       290
 NAB=   100 NAA=    45 NBB=    45.
 A-vector RMS=  5.6173967D-07 Max=  8.2424329D-06 conv= 1.00D-05.
 RLE energy=       -1.0671462742
 DE(Corr)=  -1.0671461     E(CORR)=     -197.46373446     Delta= 4.17D-06
 NORM(A)=   0.10706898D+01
 Iteration Nr.  16
 **********************
 DD1Dir will call FoFMem   1 times, MxPair=       290
 NAB=   100 NAA=    45 NBB=    45.
 A-vector RMS=  2.5605412D-07 Max=  4.8853839D-06 conv= 1.00D-05.
 RLE energy=       -1.0671464095
 DE(Corr)=  -1.0671466     E(CORR)=     -197.46373494     Delta=-4.80D-07
 NORM(A)=   0.10706888D+01
 Iteration Nr.  17
 **********************
 DD1Dir will call FoFMem   1 times, MxPair=       290
 NAB=   100 NAA=    45 NBB=    45.
 A-vector RMS=  1.5721920D-07 Max=  2.7860308D-06 conv= 1.00D-05.
 RLE energy=       -1.0671460256
 DE(Corr)=  -1.0671462     E(CORR)=     -197.46373456     Delta= 3.77D-07
 NORM(A)=   0.10706879D+01
 Iteration Nr.  18
 **********************
 DD1Dir will call FoFMem   1 times, MxPair=       290
 NAB=   100 NAA=    45 NBB=    45.
 A-vector RMS=  1.2759843D-07 Max=  2.3364829D-06 conv= 1.00D-05.
 RLE energy=       -1.0671463296
 DE(Corr)=  -1.0671463     E(CORR)=     -197.46373466     Delta=-9.49D-08
 NORM(A)=   0.10706871D+01
 CI/CC converged in   18 iterations to DelEn=-9.49D-08 Conv= 1.00D-07 ErrA1= 1.28D-07 Conv= 1.00D-05
 Wavefunction amplitudes converged. E(Corr)=     -197.46373466    
 Largest amplitude= 4.05D-02
 Time for triples=   100243.47 seconds.
 T4(CCSD)= -0.46767257D-01
 T5(CCSD)=  0.55508054D-02
 CCSD(T)= -0.19750495111D+03
 Discarding MO integrals.
 Leave Link  913 at Sun May  6 11:44:30 2018, MaxMem= 21474836480 cpu:          115312.7 elap:            3646.8
 (Enter /home1/apps/gaussian/16rA.03/g16/l601.exe)
 Copying SCF densities to generalized density rwf, IOpCl= 0 IROHF=1.

 **********************************************************************

            Population analysis using the SCF density.

 **********************************************************************

 Orbital symmetries:
       Occupied  (SG) (SG) (PI) (PI) (SG) (PI) (PI) (DLTA) (DLTA)
                 (SG)
       Virtual   (SG) (SG) (PI) (PI) (SG) (SG) (PI) (PI) (PI) (PI)
                 (SG) (DLTA) (DLTA) (SG) (SG) (PI) (PI) (SG) (PI)
                 (PI) (SG) (SG) (DLTA) (DLTA) (PI) (PI) (SG) (DLTA)
                 (DLTA) (SG) (PI) (PI) (SG) (PHI) (PHI) (PI) (PI)
                 (PI) (PI) (DLTA) (DLTA) (SG) (SG) (PI) (PI) (SG)
                 (DLTA) (DLTA) (SG) (PI) (PI) (PHI) (PHI) (SG)
                 (DLTA) (DLTA) (SG) (PI) (PI) (SG) (DLTA) (DLTA)
                 (PI) (PI) (PHI) (PHI) (?A) (?A) (SG) (PI) (PI)
                 (DLTA) (DLTA) (PI) (PI) (SG) (PHI) (PHI) (DLTA)
                 (DLTA) (PI) (PI) (SG) (SG) (SG) (DLTA) (DLTA)
                 (PI) (PI) (?A) (?A) (SG) (PI) (PI) (PHI) (PHI)
                 (DLTA) (DLTA) (SG) (PI) (PI) (SG) (PHI) (PHI)
                 (SG) (PI) (PI) (DLTA) (DLTA) (?B) (?B) (SG) (PHI)
                 (PHI) (PI) (PI) (DLTA) (DLTA) (SG) (?A) (?A) (DLTA)
                 (DLTA) (SG) (PI) (PI) (?A) (?A) (PI) (PI) (DLTA)
                 (DLTA) (PHI) (PHI) (SG) (PI) (PI) (DLTA) (DLTA)
                 (PHI) (PHI) (SG) (SG) (PI) (PI) (DLTA) (DLTA)
                 (PI) (PI) (PI) (PI) (SG) (SG) (SG) (SG) (DLTA)
                 (DLTA) (PI) (PI) (SG) (PHI) (PHI) (DLTA) (DLTA)
                 (PHI) (PHI) (DLTA) (DLTA) (PI) (PI) (?A) (?A)
                 (SG) (?B) (?B) (PI) (PI) (PHI) (PHI) (?A) (?A)
                 (SG) (PI) (PI) (?A) (?A) (PHI) (PHI) (DLTA) (DLTA)
                 (DLTA) (DLTA) (PHI) (PHI) (PI) (PI) (SG) (DLTA)
                 (DLTA) (SG) (PI) (PI) (PI) (PI) (?B) (?B) (SG)
                 (SG) (?A) (?A) (DLTA) (DLTA) (SG) (SG) (PHI) (PHI)
                 (PI) (PI) (PI) (PI) (SG) (DLTA) (DLTA) (SG) (PI)
                 (PI) (SG) (DLTA) (DLTA) (PI) (PI) (SG) (SG) (PHI)
                 (PHI) (DLTA) (DLTA) (PI) (PI) (SG) (?B) (?B) (?A)
                 (?A) (PHI) (PHI) (?A) (?A) (PHI) (PHI) (DLTA)
                 (DLTA) (DLTA) (DLTA) (PI) (PI) (PI) (PI) (SG)
                 (SG) (PI) (PI) (SG) (?B) (?B) (SG) (SG) (?A) (?A)
                 (PHI) (PHI) (SG) (DLTA) (DLTA) (PI) (PI) (SG)
                 (DLTA) (DLTA) (PI) (PI) (SG) (SG) (?A) (?A) (PHI)
                 (PHI) (DLTA) (DLTA) (PI) (PI) (PHI) (PHI) (PI)
                 (PI) (?B) (?B) (?A) (?A) (DLTA) (DLTA) (SG) (PHI)
                 (PHI) (PI) (PI) (SG) (DLTA) (DLTA) (SG) (PI) (PI)
                 (SG) (DLTA) (DLTA) (PI) (PI) (SG) (?B) (?B) (SG)
                 (SG) (?A) (?A) (PHI) (PHI) (DLTA) (DLTA) (PI)
                 (PI) (SG) (DLTA) (DLTA) (SG) (PI) (PI) (SG) (PI)
                 (PI) (SG) (SG) (DLTA) (DLTA) (PI) (PI) (SG) (SG)
                 (PI) (PI) (SG) (SG) (DLTA) (DLTA) (PI) (PI) (SG)
                 (PI) (PI) (SG) (SG) (SG) (PI) (PI) (SG) (DLTA)
                 (DLTA) (PI) (PI) (SG) (SG) (PI) (PI) (SG) (SG)
                 (DLTA) (DLTA) (PI) (PI) (SG) (PI) (PI) (SG) (SG)
                 (SG) (PI) (PI) (SG) (SG) (PI) (PI) (SG) (SG) (PI)
                 (PI) (SG) (SG) (PI) (PI) (SG) (SG) (SG) (PI) (PI)
                 (SG) (SG) (SG) (SG) (SG) (SG) (SG)
 The electronic state is 1-SG.
 Alpha  occ. eigenvalues --   -5.31438  -3.45180  -3.41740  -3.41740  -0.63829
 Alpha  occ. eigenvalues --   -0.57250  -0.57250  -0.54458  -0.54458  -0.32420
 Alpha virt. eigenvalues --    0.00867   0.02564   0.02567   0.02567   0.04981
 Alpha virt. eigenvalues --    0.07884   0.08359   0.08359   0.11742   0.11742
 Alpha virt. eigenvalues --    0.11934   0.12628   0.12628   0.14828   0.18935
 Alpha virt. eigenvalues --    0.22631   0.22631   0.26477   0.29443   0.29443
 Alpha virt. eigenvalues --    0.34009   0.37446   0.38904   0.38904   0.40037
 Alpha virt. eigenvalues --    0.40037   0.45752   0.57550   0.57550   0.60812
 Alpha virt. eigenvalues --    0.61919   0.61919   0.65493   0.68735   0.68735
 Alpha virt. eigenvalues --    0.73037   0.73037   0.76611   0.76611   0.79453
 Alpha virt. eigenvalues --    0.79453   0.80786   0.93493   1.00920   1.00920
 Alpha virt. eigenvalues --    1.02763   1.03000   1.03000   1.18431   1.28066
 Alpha virt. eigenvalues --    1.28066   1.29298   1.29298   1.32989   1.43209
 Alpha virt. eigenvalues --    1.43209   1.49758   1.50417   1.50417   1.86309
 Alpha virt. eigenvalues --    1.91539   1.91539   1.98515   1.98515   2.07941
 Alpha virt. eigenvalues --    2.07941   2.08354   2.08354   2.16048   2.21104
 Alpha virt. eigenvalues --    2.21104   2.23174   2.23174   2.23391   2.23391
 Alpha virt. eigenvalues --    2.24818   2.35694   2.35694   2.43485   2.43485
 Alpha virt. eigenvalues --    2.50287   2.50287   2.51728   2.63991   2.93168
 Alpha virt. eigenvalues --    2.99075   2.99075   2.99086   2.99086   3.09059
 Alpha virt. eigenvalues --    3.09059   3.38653   3.39637   3.39637   3.43972
 Alpha virt. eigenvalues --    3.43972   3.47157   3.47157   3.62184   4.05595
 Alpha virt. eigenvalues --    4.05595   4.32905   4.41890   4.41890   4.71455
 Alpha virt. eigenvalues --    4.72590   4.72590   4.79539   4.79539   5.20848
 Alpha virt. eigenvalues --    5.20848   5.33260   5.35219   5.35219   5.41506
 Alpha virt. eigenvalues --    5.41506   5.43137   5.43137   5.46606   5.50070
 Alpha virt. eigenvalues --    5.50070   5.58536   5.58536   5.64785   5.65645
 Alpha virt. eigenvalues --    5.65645   5.79716   5.79716   5.80762   5.80762
 Alpha virt. eigenvalues --    5.80849   5.80849   5.84812   5.84812   5.95704
 Alpha virt. eigenvalues --    6.03549   6.03549   6.31279   6.31279   6.54637
 Alpha virt. eigenvalues --    6.54637   7.08862   7.26608   7.31770   7.31770
 Alpha virt. eigenvalues --    7.77464   7.77464   8.02309   8.02309   8.52048
 Alpha virt. eigenvalues --    8.52048   8.89125   9.14759  10.32314  11.11676
 Alpha virt. eigenvalues --   11.42988  11.42988  11.44255  11.44255  11.88529
 Alpha virt. eigenvalues --   12.24309  12.24309  12.41878  12.41878  12.50024
 Alpha virt. eigenvalues --   12.50024  12.54562  12.54562  12.74663  12.74663
 Alpha virt. eigenvalues --   12.97935  12.97935  13.11993  13.27658  13.27658
 Alpha virt. eigenvalues --   13.41780  13.41780  13.44385  13.44385  13.47210
 Alpha virt. eigenvalues --   13.47210  13.70325  14.03991  14.03991  14.04812
 Alpha virt. eigenvalues --   14.04812  14.15268  14.15268  14.19342  14.19342
 Alpha virt. eigenvalues --   14.25371  14.25371  14.31117  14.31117  14.60985
 Alpha virt. eigenvalues --   14.60985  14.89112  14.96499  14.96499  15.03303
 Alpha virt. eigenvalues --   15.27941  15.27941  15.50037  15.50037  15.83465
 Alpha virt. eigenvalues --   15.83465  15.84446  15.84446  16.01943  16.01943
 Alpha virt. eigenvalues --   16.06471  16.06471  16.16669  16.57669  17.33847
 Alpha virt. eigenvalues --   17.33847  17.36735  17.36735  19.25387  19.25387
 Alpha virt. eigenvalues --   19.29516  19.81478  19.81478  20.19775  21.35434
 Alpha virt. eigenvalues --   21.35434  21.80927  22.43083  22.43083  23.04989
 Alpha virt. eigenvalues --   23.04989  23.18254  25.70680  28.23454  28.23454
 Alpha virt. eigenvalues --   28.70780  28.70780  30.03489  30.03489  30.30199
 Alpha virt. eigenvalues --   30.38132  30.38132  30.45403  30.45403  30.64673
 Alpha virt. eigenvalues --   30.64673  30.65042  30.65042  30.76702  30.76702
 Alpha virt. eigenvalues --   30.98794  30.98794  31.29422  31.29422  31.36524
 Alpha virt. eigenvalues --   31.36524  31.51506  31.51506  31.97531  33.00560
 Alpha virt. eigenvalues --   33.11615  33.11615  34.75762  36.55505  36.55505
 Alpha virt. eigenvalues --   36.56107  36.56107  36.59429  36.59429  36.97054
 Alpha virt. eigenvalues --   36.97054  37.11781  37.64577  37.64577  37.87457
 Alpha virt. eigenvalues --   37.87457  38.74080  40.90633  40.90633  41.22906
 Alpha virt. eigenvalues --   41.22906  41.88726  54.59175  64.54863  64.54863
 Alpha virt. eigenvalues --   64.62263  64.62263  64.86873  64.86873  65.45027
 Alpha virt. eigenvalues --   65.45027  65.90017  65.90017  66.02707  66.02707
 Alpha virt. eigenvalues --   66.11715  66.11715  66.16377  66.16377  66.16399
 Alpha virt. eigenvalues --   66.16399  66.28653  66.29027  66.29027  66.49866
 Alpha virt. eigenvalues --   66.49866  66.63595  66.64951  66.64951  67.24541
 Alpha virt. eigenvalues --   67.98432  67.98432  69.62186  70.65424  70.65424
 Alpha virt. eigenvalues --   70.96270  70.96270  71.48776  77.95754  77.95754
 Alpha virt. eigenvalues --   77.95983  77.95983  77.97634  77.97634  78.18398
 Alpha virt. eigenvalues --   78.18398  78.57320  78.57320  78.69514  78.69514
 Alpha virt. eigenvalues --   78.71907 118.08386 118.08386 118.08952 118.33828
 Alpha virt. eigenvalues --  118.33828 119.92076 134.10809 134.10809 135.52450
 Alpha virt. eigenvalues --  141.70026 205.69387 205.69387 205.92992 205.92992
 Alpha virt. eigenvalues --  206.17405 236.36413 261.13921 261.13921 262.38313
 Alpha virt. eigenvalues --  401.17490 418.66164 418.66164 418.86310 418.86310
 Alpha virt. eigenvalues --  419.11295 488.36895 488.36895 489.49102 651.67744
 Alpha virt. eigenvalues --  818.96744 901.25432 901.25432 902.319451027.70062
 Alpha virt. eigenvalues -- 1027.700621027.860341027.860341028.039311098.17549
 Alpha virt. eigenvalues -- 1686.490771686.490771687.510411919.042943173.60981
 Alpha virt. eigenvalues -- 3173.609813173.717973173.717973173.843193262.28021
 Alpha virt. eigenvalues -- 3262.280213263.240003483.782986582.031146641.65096
 Alpha virt. eigenvalues -- 6641.650966642.53762******************************
 Alpha virt. eigenvalues -- **************************************************
 Alpha virt. eigenvalues -- **************************************************
 Alpha virt. eigenvalues -- **************************************************
 Alpha virt. eigenvalues -- **************************************************
     Molecular Orbital Coefficients:
                           6         7         8         9        10
                           O         O         O         O         O
     Eigenvalues --    -0.57250  -0.57250  -0.54458  -0.54458  -0.32420
   1 1   Cu 1S          0.00000   0.00000  -0.00000   0.00000   0.00000
   2        2S          0.00000   0.00000   0.00000   0.00000  -0.00000
   3        3S          0.00000   0.00000  -0.00000   0.00000   0.00000
   4        4S          0.00000   0.00000   0.00000   0.00000  -0.00000
   5        5S          0.00000   0.00000  -0.00000   0.00000   0.00000
   6        6S          0.00000   0.00000   0.00000   0.00000  -0.00000
   7        7S          0.00000   0.00000  -0.00000   0.00000   0.00000
   8        8S          0.00000   0.00000   0.00000   0.00000  -0.00000
   9        9S          0.00000   0.00000  -0.00000   0.00000   0.00000
  10       10S          0.00000   0.00000   0.00000   0.00000  -0.00000
  11       11S          0.00000   0.00000  -0.00000   0.00000   0.00001
  12       12S          0.00000   0.00000   0.00000   0.00000  -0.00002
  13       13S          0.00000   0.00000  -0.00000   0.00000   0.00005
  14       14S          0.00000   0.00000   0.00000   0.00000  -0.00011
  15       15S          0.00000   0.00000  -0.00000   0.00000   0.00025
  16       16S          0.00000   0.00000   0.00000   0.00000  -0.00055
  17       17S          0.00000   0.00000   0.00000   0.00000   0.00319
  18       18S          0.00000   0.00000  -0.00000   0.00000  -0.02405
  19       19S          0.00000   0.00000   0.00000   0.00000   0.03316
  20       20S          0.00000   0.00000   0.00000   0.00000   0.03891
  21       21S          0.00000   0.00000  -0.00000   0.00000   0.00341
  22       22S          0.00000   0.00000  -0.00000   0.00000  -0.06893
  23       23S          0.00000   0.00000  -0.00000   0.00000  -0.18856
  24       24S          0.00000   0.00000   0.00000   0.00000  -0.12780
  25       25S          0.00000   0.00000   0.00000   0.00000   0.06135
  26       26S          0.00000   0.00000  -0.00000   0.00000   0.27346
  27       27S          0.00000   0.00000   0.00000   0.00000   0.28183
  28       28S          0.00000   0.00000   0.00000   0.00000   0.05584
  29       29S          0.00000   0.00000   0.00000   0.00000   0.03879
  30       30S          0.00000   0.00000   0.00000   0.00000  -0.05032
  31       31S          0.00000   0.00000   0.00000   0.00000  -0.00310
  32       32PX         0.00000   0.00000   0.00000   0.00000   0.00000
  33       32PY         0.00000   0.00000   0.00000   0.00000   0.00000
  34       32PZ         0.00000   0.00000   0.00000   0.00000   0.00000
  35       33PX        -0.00000   0.00000   0.00000   0.00000   0.00000
  36       33PY         0.00000  -0.00000   0.00000   0.00000   0.00000
  37       33PZ         0.00000   0.00000  -0.00000   0.00000  -0.00000
  38       34PX         0.00000   0.00000   0.00000   0.00000   0.00000
  39       34PY         0.00000   0.00000   0.00000   0.00000   0.00000
  40       34PZ         0.00000   0.00000   0.00000   0.00000   0.00000
  41       35PX        -0.00000   0.00000   0.00000   0.00000   0.00000
  42       35PY         0.00000  -0.00000   0.00000   0.00000   0.00000
  43       35PZ         0.00000   0.00000  -0.00000   0.00000  -0.00000
  44       36PX         0.00000   0.00000   0.00000   0.00000   0.00000
  45       36PY         0.00000   0.00000   0.00000   0.00000   0.00000
  46       36PZ         0.00000   0.00000   0.00000   0.00000   0.00000
  47       37PX        -0.00000   0.00000   0.00000   0.00000   0.00000
  48       37PY         0.00000  -0.00000   0.00000   0.00000   0.00000
  49       37PZ         0.00000   0.00000  -0.00000   0.00000  -0.00001
  50       38PX         0.00000   0.00000   0.00000   0.00000   0.00000
  51       38PY         0.00000   0.00000   0.00000   0.00000   0.00000
  52       38PZ         0.00000   0.00000   0.00000   0.00000   0.00003
  53       39PX        -0.00001   0.00000   0.00000   0.00000   0.00000
  54       39PY         0.00000  -0.00001   0.00000   0.00000   0.00000
  55       39PZ         0.00000   0.00000  -0.00000   0.00000  -0.00010
  56       40PX         0.00004   0.00000   0.00000   0.00000   0.00000
  57       40PY         0.00000   0.00004   0.00000   0.00000   0.00000
  58       40PZ         0.00000   0.00000   0.00000   0.00000   0.00060
  59       41PX        -0.00010   0.00000   0.00000   0.00000   0.00000
  60       41PY         0.00000  -0.00010   0.00000   0.00000   0.00000
  61       41PZ         0.00000   0.00000  -0.00000   0.00000  -0.00250
  62       42PX         0.00016   0.00000   0.00000   0.00000   0.00000
  63       42PY         0.00000   0.00016   0.00000   0.00000   0.00000
  64       42PZ         0.00000   0.00000   0.00000   0.00000   0.00048
  65       43PX        -0.00012   0.00000   0.00000   0.00000   0.00000
  66       43PY         0.00000  -0.00012   0.00000   0.00000   0.00000
  67       43PZ         0.00000   0.00000  -0.00000   0.00000  -0.00144
  68       44PX         0.00056   0.00000   0.00000   0.00000   0.00000
  69       44PY         0.00000   0.00056   0.00000   0.00000   0.00000
  70       44PZ         0.00000   0.00000   0.00000   0.00000   0.00233
  71       45PX         0.00258   0.00000   0.00000   0.00000   0.00000
  72       45PY         0.00000   0.00258   0.00000   0.00000   0.00000
  73       45PZ         0.00000   0.00000   0.00000   0.00000   0.01363
  74       46PX         0.00132   0.00000   0.00000   0.00000   0.00000
  75       46PY         0.00000   0.00132   0.00000   0.00000   0.00000
  76       46PZ         0.00000   0.00000   0.00000   0.00000   0.03894
  77       47PX        -0.00100   0.00000   0.00000   0.00000   0.00000
  78       47PY         0.00000  -0.00100   0.00000   0.00000   0.00000
  79       47PZ         0.00000   0.00000   0.00000   0.00000   0.03190
  80       48PX         0.00592   0.00000   0.00000   0.00000   0.00000
  81       48PY         0.00000   0.00592   0.00000   0.00000   0.00000
  82       48PZ         0.00000   0.00000  -0.00000   0.00000   0.00528
  83       49PX         0.00633   0.00000   0.00000   0.00000   0.00000
  84       49PY         0.00000   0.00633   0.00000   0.00000   0.00000
  85       49PZ         0.00000   0.00000  -0.00000   0.00000  -0.01647
  86       50PX        -0.00250   0.00000   0.00000   0.00000   0.00000
  87       50PY         0.00000  -0.00250   0.00000   0.00000   0.00000
  88       50PZ         0.00000   0.00000  -0.00000   0.00000  -0.03170
  89       51PX        -0.00038   0.00000   0.00000   0.00000   0.00000
  90       51PY         0.00000  -0.00038   0.00000   0.00000   0.00000
  91       51PZ         0.00000   0.00000   0.00000   0.00000  -0.00786
  92       52PX        -0.00021   0.00000   0.00000   0.00000   0.00000
  93       52PY         0.00000  -0.00021   0.00000   0.00000   0.00000
  94       52PZ         0.00000   0.00000  -0.00000   0.00000  -0.00139
  95       53PX        -0.00300   0.00000   0.00000   0.00000   0.00000
  96       53PY         0.00000  -0.00300   0.00000   0.00000   0.00000
  97       53PZ         0.00000   0.00000   0.00000   0.00000   0.01417
  98       54PX        -0.00001   0.00000   0.00000   0.00000   0.00000
  99       54PY         0.00000  -0.00001   0.00000   0.00000   0.00000
 100       54PZ         0.00000   0.00000  -0.00000   0.00000   0.00073
 101       55D 0        0.00000   0.00000  -0.00000   0.00000   0.00001
 102       55D+1       -0.00003   0.00000   0.00000   0.00000   0.00000
 103       55D-1        0.00000  -0.00003   0.00000   0.00000   0.00000
 104       55D+2        0.00000   0.00000  -0.00003   0.00000  -0.00000
 105       55D-2        0.00000   0.00000   0.00000  -0.00003   0.00000
 106       56D 0        0.00000   0.00000   0.00000   0.00000  -0.00010
 107       56D+1        0.00025   0.00000   0.00000   0.00000   0.00000
 108       56D-1        0.00000   0.00025   0.00000   0.00000   0.00000
 109       56D+2        0.00000   0.00000   0.00025   0.00000   0.00000
 110       56D-2        0.00000   0.00000   0.00000   0.00025   0.00000
 111       57D 0        0.00000   0.00000  -0.00000   0.00000   0.00055
 112       57D+1       -0.00131   0.00000   0.00000   0.00000   0.00000
 113       57D-1        0.00000  -0.00131   0.00000   0.00000   0.00000
 114       57D+2        0.00000   0.00000  -0.00132   0.00000  -0.00000
 115       57D-2        0.00000   0.00000   0.00000  -0.00132   0.00000
 116       58D 0        0.00000   0.00000   0.00000   0.00000  -0.00545
 117       58D+1        0.01292   0.00000   0.00000   0.00000   0.00000
 118       58D-1        0.00000   0.01292   0.00000   0.00000   0.00000
 119       58D+2        0.00000   0.00000   0.01303   0.00000   0.00000
 120       58D-2        0.00000   0.00000   0.00000   0.01303   0.00000
 121       59D 0        0.00000   0.00000   0.00000   0.00000  -0.04308
 122       59D+1        0.10198   0.00000   0.00000   0.00000   0.00000
 123       59D-1        0.00000   0.10198   0.00000   0.00000   0.00000
 124       59D+2        0.00000   0.00000   0.10275   0.00000   0.00000
 125       59D-2        0.00000   0.00000   0.00000   0.10275   0.00000
 126       60D 0        0.00000   0.00000   0.00000   0.00000  -0.12843
 127       60D+1        0.30222   0.00000   0.00000   0.00000   0.00000
 128       60D-1        0.00000   0.30222   0.00000   0.00000   0.00000
 129       60D+2        0.00000   0.00000   0.30389   0.00000   0.00000
 130       60D-2        0.00000   0.00000   0.00000   0.30389   0.00000
 131       61D 0        0.00000   0.00000   0.00000   0.00000  -0.11447
 132       61D+1        0.26980   0.00000   0.00000   0.00000   0.00000
 133       61D-1        0.00000   0.26980   0.00000   0.00000   0.00000
 134       61D+2        0.00000   0.00000   0.27157   0.00000   0.00000
 135       61D-2        0.00000   0.00000   0.00000   0.27157   0.00000
 136       62D 0        0.00000   0.00000   0.00000   0.00000  -0.11653
 137       62D+1        0.27536   0.00000   0.00000   0.00000   0.00000
 138       62D-1        0.00000   0.27536   0.00000   0.00000   0.00000
 139       62D+2        0.00000   0.00000   0.27726   0.00000   0.00000
 140       62D-2        0.00000   0.00000   0.00000   0.27726   0.00000
 141       63D 0        0.00000   0.00000   0.00000   0.00000  -0.11400
 142       63D+1        0.26823   0.00000   0.00000   0.00000   0.00000
 143       63D-1        0.00000   0.26823   0.00000   0.00000   0.00000
 144       63D+2        0.00000   0.00000   0.26847   0.00000   0.00000
 145       63D-2        0.00000   0.00000   0.00000   0.26847   0.00000
 146       64D 0        0.00000   0.00000   0.00000   0.00000  -0.08990
 147       64D+1        0.19558   0.00000   0.00000   0.00000   0.00000
 148       64D-1        0.00000   0.19558   0.00000   0.00000   0.00000
 149       64D+2        0.00000   0.00000   0.19767   0.00000   0.00000
 150       64D-2        0.00000   0.00000   0.00000   0.19767   0.00000
 151       65D 0        0.00000   0.00000   0.00000   0.00000  -0.05988
 152       65D+1        0.10654   0.00000   0.00000   0.00000   0.00000
 153       65D-1        0.00000   0.10654   0.00000   0.00000   0.00000
 154       65D+2        0.00000   0.00000   0.10907   0.00000   0.00000
 155       65D-2        0.00000   0.00000   0.00000   0.10907   0.00000
 156       66D 0        0.00000   0.00000   0.00000   0.00000  -0.02196
 157       66D+1        0.02378   0.00000   0.00000   0.00000   0.00000
 158       66D-1        0.00000   0.02378   0.00000   0.00000   0.00000
 159       66D+2        0.00000   0.00000   0.02499   0.00000   0.00000
 160       66D-2        0.00000   0.00000   0.00000   0.02499   0.00000
 161       67D 0        0.00000   0.00000  -0.00000   0.00000   0.04471
 162       67D+1       -0.10492   0.00000   0.00000   0.00000   0.00000
 163       67D-1        0.00000  -0.10492   0.00000   0.00000   0.00000
 164       67D+2        0.00000   0.00000  -0.10533   0.00000  -0.00000
 165       67D-2        0.00000   0.00000   0.00000  -0.10533   0.00000
 166       68D 0        0.00000   0.00000  -0.00000   0.00000   0.03592
 167       68D+1       -0.08330   0.00000   0.00000   0.00000   0.00000
 168       68D-1        0.00000  -0.08330   0.00000   0.00000   0.00000
 169       68D+2        0.00000   0.00000  -0.08339   0.00000  -0.00000
 170       68D-2        0.00000   0.00000   0.00000  -0.08339   0.00000
 171       69D 0        0.00000   0.00000  -0.00000   0.00000  -0.00251
 172       69D+1        0.00055   0.00000   0.00000   0.00000   0.00000
 173       69D-1        0.00000   0.00055   0.00000   0.00000   0.00000
 174       69D+2        0.00000   0.00000   0.00033   0.00000  -0.00000
 175       69D-2        0.00000   0.00000   0.00000   0.00033   0.00000
 176       70F 0        0.00000   0.00000  -0.00000   0.00000  -0.00005
 177       70F+1       -0.00006   0.00000   0.00000   0.00000   0.00000
 178       70F-1        0.00000  -0.00006   0.00000   0.00000   0.00000
 179       70F+2        0.00000   0.00000  -0.00004   0.00000   0.00000
 180       70F-2        0.00000   0.00000   0.00000  -0.00004   0.00000
 181       70F+3        0.00000   0.00000   0.00000   0.00000   0.00000
 182       70F-3        0.00000  -0.00000   0.00000   0.00000   0.00000
 183       71F 0        0.00000   0.00000  -0.00000   0.00000  -0.00016
 184       71F+1       -0.00020   0.00000   0.00000   0.00000   0.00000
 185       71F-1        0.00000  -0.00020   0.00000   0.00000   0.00000
 186       71F+2        0.00000   0.00000  -0.00009   0.00000  -0.00000
 187       71F-2        0.00000   0.00000   0.00000  -0.00009   0.00000
 188       71F+3        0.00000   0.00000   0.00000   0.00000   0.00000
 189       71F-3        0.00000  -0.00000   0.00000   0.00000   0.00000
 190       72F 0        0.00000   0.00000  -0.00000   0.00000  -0.00048
 191       72F+1       -0.00047   0.00000   0.00000   0.00000   0.00000
 192       72F-1        0.00000  -0.00047   0.00000   0.00000   0.00000
 193       72F+2        0.00000   0.00000  -0.00021   0.00000   0.00000
 194       72F-2        0.00000   0.00000   0.00000  -0.00021   0.00000
 195       72F+3        0.00000   0.00000   0.00000   0.00000   0.00000
 196       72F-3        0.00000   0.00000   0.00000   0.00000   0.00000
 197       73F 0        0.00000   0.00000  -0.00000   0.00000  -0.00200
 198       73F+1       -0.00090   0.00000   0.00000   0.00000   0.00000
 199       73F-1        0.00000  -0.00090   0.00000   0.00000   0.00000
 200       73F+2        0.00000   0.00000   0.00045   0.00000   0.00000
 201       73F-2        0.00000   0.00000   0.00000   0.00045   0.00000
 202       73F+3        0.00000   0.00000   0.00000   0.00000   0.00000
 203       73F-3        0.00000   0.00000   0.00000   0.00000   0.00000
 204       74F 0        0.00000   0.00000   0.00000   0.00000  -0.00350
 205       74F+1        0.00292   0.00000   0.00000   0.00000   0.00000
 206       74F-1        0.00000   0.00292   0.00000   0.00000   0.00000
 207       74F+2        0.00000   0.00000   0.00361   0.00000  -0.00000
 208       74F-2        0.00000   0.00000   0.00000   0.00361   0.00000
 209       74F+3        0.00000   0.00000   0.00000   0.00000   0.00000
 210       74F-3        0.00000  -0.00000   0.00000   0.00000   0.00000
 211       75F 0        0.00000   0.00000   0.00000   0.00000  -0.00374
 212       75F+1        0.00250   0.00000   0.00000   0.00000   0.00000
 213       75F-1        0.00000   0.00250   0.00000   0.00000   0.00000
 214       75F+2        0.00000   0.00000   0.00301   0.00000   0.00000
 215       75F-2        0.00000   0.00000   0.00000   0.00301   0.00000
 216       75F+3        0.00000   0.00000   0.00000   0.00000   0.00000
 217       75F-3        0.00000  -0.00000   0.00000   0.00000   0.00000
 218       76G 0        0.00000   0.00000   0.00000   0.00000  -0.00002
 219       76G+1        0.00010   0.00000   0.00000   0.00000   0.00000
 220       76G-1        0.00000   0.00010   0.00000   0.00000   0.00000
 221       76G+2        0.00000   0.00000   0.00008   0.00000   0.00000
 222       76G-2        0.00000   0.00000   0.00000   0.00008   0.00000
 223       76G+3       -0.00000   0.00000   0.00000   0.00000   0.00000
 224       76G-3        0.00000  -0.00000   0.00000   0.00000   0.00000
 225       76G+4        0.00000   0.00000   0.00000   0.00000   0.00000
 226       76G-4        0.00000   0.00000   0.00000   0.00000   0.00000
 227       77G 0        0.00000   0.00000   0.00000   0.00000  -0.00007
 228       77G+1        0.00007   0.00000   0.00000   0.00000   0.00000
 229       77G-1        0.00000   0.00007   0.00000   0.00000   0.00000
 230       77G+2        0.00000   0.00000   0.00008   0.00000  -0.00000
 231       77G-2        0.00000   0.00000   0.00000   0.00008   0.00000
 232       77G+3        0.00000   0.00000   0.00000   0.00000   0.00000
 233       77G-3        0.00000  -0.00000   0.00000   0.00000   0.00000
 234       77G+4        0.00000   0.00000  -0.00000   0.00000  -0.00000
 235       77G-4        0.00000   0.00000   0.00000   0.00000   0.00000
 236       78G 0        0.00000   0.00000   0.00000   0.00000  -0.00017
 237       78G+1        0.00093   0.00000   0.00000   0.00000   0.00000
 238       78G-1        0.00000   0.00093   0.00000   0.00000   0.00000
 239       78G+2        0.00000   0.00000   0.00058   0.00000   0.00000
 240       78G-2        0.00000   0.00000   0.00000   0.00058   0.00000
 241       78G+3        0.00000   0.00000   0.00000   0.00000   0.00000
 242       78G-3        0.00000  -0.00000   0.00000   0.00000   0.00000
 243       78G+4        0.00000   0.00000   0.00000   0.00000  -0.00000
 244       78G-4        0.00000   0.00000   0.00000   0.00000   0.00000
 245       79G 0        0.00000   0.00000   0.00000   0.00000  -0.00075
 246       79G+1        0.00206   0.00000   0.00000   0.00000   0.00000
 247       79G-1        0.00000   0.00206   0.00000   0.00000   0.00000
 248       79G+2        0.00000   0.00000   0.00121   0.00000   0.00000
 249       79G-2        0.00000   0.00000   0.00000   0.00121   0.00000
 250       79G+3       -0.00000   0.00000   0.00000   0.00000   0.00000
 251       79G-3        0.00000   0.00000   0.00000   0.00000   0.00000
 252       79G+4        0.00000   0.00000  -0.00000   0.00000   0.00000
 253       79G-4        0.00000   0.00000   0.00000   0.00000   0.00000
 254       80G 0        0.00000   0.00000  -0.00000   0.00000  -0.00057
 255       80G+1        0.00107   0.00000   0.00000   0.00000   0.00000
 256       80G-1        0.00000   0.00107   0.00000   0.00000   0.00000
 257       80G+2        0.00000   0.00000   0.00069   0.00000   0.00000
 258       80G-2        0.00000   0.00000   0.00000   0.00069   0.00000
 259       80G+3       -0.00000   0.00000   0.00000   0.00000   0.00000
 260       80G-3        0.00000  -0.00000   0.00000   0.00000   0.00000
 261       80G+4        0.00000   0.00000  -0.00000   0.00000   0.00000
 262       80G-4        0.00000   0.00000   0.00000  -0.00000   0.00000
 263       81H 0        0.00000   0.00000  -0.00000   0.00000   0.00002
 264       81H+1       -0.00004   0.00000   0.00000   0.00000   0.00000
 265       81H-1        0.00000  -0.00004   0.00000   0.00000   0.00000
 266       81H+2        0.00000   0.00000  -0.00003   0.00000   0.00000
 267       81H-2        0.00000   0.00000   0.00000  -0.00003   0.00000
 268       81H+3       -0.00000   0.00000   0.00000   0.00000   0.00000
 269       81H-3        0.00000  -0.00000   0.00000   0.00000   0.00000
 270       81H+4        0.00000   0.00000  -0.00000   0.00000   0.00000
 271       81H-4        0.00000   0.00000   0.00000   0.00000   0.00000
 272       81H+5       -0.00000   0.00000   0.00000   0.00000   0.00000
 273       81H-5        0.00000  -0.00000   0.00000   0.00000   0.00000
 274       82H 0        0.00000   0.00000   0.00000   0.00000   0.00002
 275       82H+1       -0.00007   0.00000   0.00000   0.00000   0.00000
 276       82H-1        0.00000  -0.00007   0.00000   0.00000   0.00000
 277       82H+2        0.00000   0.00000  -0.00003   0.00000   0.00000
 278       82H-2        0.00000   0.00000   0.00000  -0.00003   0.00000
 279       82H+3        0.00000   0.00000   0.00000   0.00000   0.00000
 280       82H-3        0.00000   0.00000   0.00000   0.00000   0.00000
 281       82H+4        0.00000   0.00000   0.00000   0.00000  -0.00000
 282       82H-4        0.00000   0.00000   0.00000   0.00000   0.00000
 283       82H+5        0.00000   0.00000   0.00000   0.00000   0.00000
 284       82H-5        0.00000   0.00000   0.00000   0.00000   0.00000
 285       83H 0        0.00000   0.00000  -0.00000   0.00000   0.00011
 286       83H+1       -0.00033   0.00000   0.00000   0.00000   0.00000
 287       83H-1        0.00000  -0.00033   0.00000   0.00000   0.00000
 288       83H+2        0.00000   0.00000  -0.00018   0.00000   0.00000
 289       83H-2        0.00000   0.00000   0.00000  -0.00018   0.00000
 290       83H+3        0.00000   0.00000   0.00000   0.00000   0.00000
 291       83H-3        0.00000   0.00000   0.00000   0.00000   0.00000
 292       83H+4        0.00000   0.00000   0.00000   0.00000  -0.00000
 293       83H-4        0.00000   0.00000   0.00000   0.00000   0.00000
 294       83H+5        0.00000   0.00000   0.00000   0.00000   0.00000
 295       83H-5        0.00000   0.00000   0.00000   0.00000   0.00000
 296       84H 0        0.00000   0.00000   0.00000   0.00000   0.00013
 297       84H+1       -0.00024   0.00000   0.00000   0.00000   0.00000
 298       84H-1        0.00000  -0.00024   0.00000   0.00000   0.00000
 299       84H+2        0.00000   0.00000  -0.00006   0.00000  -0.00000
 300       84H-2        0.00000   0.00000   0.00000  -0.00006   0.00000
 301       84H+3        0.00000   0.00000   0.00000   0.00000   0.00000
 302       84H-3        0.00000   0.00000   0.00000   0.00000   0.00000
 303       84H+4        0.00000   0.00000  -0.00000   0.00000   0.00000
 304       84H-4        0.00000   0.00000   0.00000   0.00000   0.00000
 305       84H+5       -0.00000   0.00000   0.00000   0.00000   0.00000
 306       84H-5        0.00000   0.00000   0.00000   0.00000   0.00000
 307       85I 0        0.00000   0.00000   0.00000   0.00000  -0.00002
 308       85I+1        0.00003   0.00000   0.00000   0.00000   0.00000
 309       85I-1        0.00000   0.00003   0.00000   0.00000   0.00000
 310       85I+2        0.00000   0.00000   0.00002   0.00000  -0.00000
 311       85I-2        0.00000   0.00000   0.00000   0.00002   0.00000
 312       85I+3        0.00000   0.00000   0.00000   0.00000   0.00000
 313       85I-3        0.00000  -0.00000   0.00000   0.00000   0.00000
 314       85I+4        0.00000   0.00000  -0.00000   0.00000   0.00000
 315       85I-4        0.00000   0.00000   0.00000  -0.00000   0.00000
 316       85I+5        0.00000   0.00000   0.00000   0.00000   0.00000
 317       85I-5        0.00000   0.00000   0.00000   0.00000   0.00000
 318       85I+6        0.00000   0.00000  -0.00000   0.00000   0.00000
 319       85I-6        0.00000   0.00000   0.00000   0.00000   0.00000
 320       86I 0        0.00000   0.00000   0.00000   0.00000  -0.00000
 321       86I+1        0.00003   0.00000   0.00000   0.00000   0.00000
 322       86I-1        0.00000   0.00003   0.00000   0.00000   0.00000
 323       86I+2        0.00000   0.00000   0.00001   0.00000   0.00000
 324       86I-2        0.00000   0.00000   0.00000   0.00001   0.00000
 325       86I+3       -0.00000   0.00000   0.00000   0.00000   0.00000
 326       86I-3        0.00000   0.00000   0.00000   0.00000   0.00000
 327       86I+4        0.00000   0.00000   0.00000   0.00000  -0.00000
 328       86I-4        0.00000   0.00000   0.00000   0.00000   0.00000
 329       86I+5        0.00000   0.00000   0.00000   0.00000   0.00000
 330       86I-5        0.00000   0.00000   0.00000   0.00000   0.00000
 331       86I+6        0.00000   0.00000   0.00000   0.00000   0.00000
 332       86I-6        0.00000   0.00000   0.00000  -0.00000   0.00000
 333       87I 0        0.00000   0.00000   0.00000   0.00000  -0.00009
 334       87I+1        0.00021   0.00000   0.00000   0.00000   0.00000
 335       87I-1        0.00000   0.00021   0.00000   0.00000   0.00000
 336       87I+2        0.00000   0.00000   0.00013   0.00000   0.00000
 337       87I-2        0.00000   0.00000   0.00000   0.00013   0.00000
 338       87I+3       -0.00000   0.00000   0.00000   0.00000   0.00000
 339       87I-3        0.00000  -0.00000   0.00000   0.00000   0.00000
 340       87I+4        0.00000   0.00000  -0.00000   0.00000  -0.00000
 341       87I-4        0.00000   0.00000   0.00000  -0.00000   0.00000
 342       87I+5        0.00000   0.00000   0.00000   0.00000   0.00000
 343       87I-5        0.00000   0.00000   0.00000   0.00000   0.00000
 344       87I+6        0.00000   0.00000  -0.00000   0.00000  -0.00000
 345       87I-6        0.00000   0.00000   0.00000   0.00000   0.00000
 346 2   H  1S          0.00000   0.00000  -0.00000   0.00000  -0.00001
 347        2S          0.00000   0.00000   0.00000   0.00000   0.00025
 348        3S          0.00000   0.00000   0.00000   0.00000   0.00518
 349        4S          0.00000   0.00000   0.00000   0.00000   0.01783
 350        5S          0.00000   0.00000   0.00000   0.00000   0.05704
 351        6S          0.00000   0.00000   0.00000   0.00000   0.14187
 352        7S          0.00000   0.00000   0.00000   0.00000   0.19716
 353        8S          0.00000   0.00000  -0.00000   0.00000   0.09006
 354        9S          0.00000   0.00000  -0.00000   0.00000   0.00831
 355       10PX        -0.00146   0.00000   0.00000   0.00000   0.00000
 356       10PY         0.00000  -0.00146   0.00000   0.00000   0.00000
 357       10PZ         0.00000   0.00000   0.00000   0.00000  -0.00100
 358       11PX        -0.00580   0.00000   0.00000   0.00000   0.00000
 359       11PY         0.00000  -0.00580   0.00000   0.00000   0.00000
 360       11PZ         0.00000   0.00000   0.00000   0.00000  -0.00157
 361       12PX        -0.01267   0.00000   0.00000   0.00000   0.00000
 362       12PY         0.00000  -0.01267   0.00000   0.00000   0.00000
 363       12PZ         0.00000   0.00000  -0.00000   0.00000   0.00114
 364       13PX        -0.00581   0.00000   0.00000   0.00000   0.00000
 365       13PY         0.00000  -0.00581   0.00000   0.00000   0.00000
 366       13PZ         0.00000   0.00000  -0.00000   0.00000   0.00634
 367       14PX         0.00217   0.00000   0.00000   0.00000   0.00000
 368       14PY         0.00000   0.00217   0.00000   0.00000   0.00000
 369       14PZ         0.00000   0.00000  -0.00000   0.00000  -0.00849
 370       15D 0        0.00000   0.00000   0.00000   0.00000  -0.00065
 371       15D+1       -0.00113   0.00000   0.00000   0.00000   0.00000
 372       15D-1        0.00000  -0.00113   0.00000   0.00000   0.00000
 373       15D+2        0.00000   0.00000   0.00025   0.00000  -0.00000
 374       15D-2        0.00000   0.00000   0.00000   0.00025   0.00000
 375       16D 0        0.00000   0.00000  -0.00000   0.00000  -0.00089
 376       16D+1       -0.00254   0.00000   0.00000   0.00000   0.00000
 377       16D-1        0.00000  -0.00254   0.00000   0.00000   0.00000
 378       16D+2        0.00000   0.00000   0.00109   0.00000   0.00000
 379       16D-2        0.00000   0.00000   0.00000   0.00109   0.00000
 380       17D 0        0.00000   0.00000  -0.00000   0.00000  -0.00196
 381       17D+1       -0.00197   0.00000   0.00000   0.00000   0.00000
 382       17D-1        0.00000  -0.00197   0.00000   0.00000   0.00000
 383       17D+2        0.00000   0.00000   0.00108   0.00000  -0.00000
 384       17D-2        0.00000   0.00000   0.00000   0.00108   0.00000
 385       18D 0        0.00000   0.00000  -0.00000   0.00000  -0.00238
 386       18D+1        0.00179   0.00000   0.00000   0.00000   0.00000
 387       18D-1        0.00000   0.00179   0.00000   0.00000   0.00000
 388       18D+2        0.00000   0.00000   0.00103   0.00000  -0.00000
 389       18D-2        0.00000   0.00000   0.00000   0.00103   0.00000
 390       19F 0        0.00000   0.00000   0.00000   0.00000  -0.00038
 391       19F+1       -0.00063   0.00000   0.00000   0.00000   0.00000
 392       19F-1        0.00000  -0.00063   0.00000   0.00000   0.00000
[...]
 207       74F+2        0.00003   0.00001   0.00001   0.00000
 208       74F-2        0.00003   0.00001   0.00001   0.00000
 209       74F+3        0.00000   0.00000   0.00000   0.00000
 210       74F-3       -0.00000  -0.00000  -0.00000   0.00000
 211       75F 0        0.00053   0.00027   0.00027   0.00000
 212       75F+1       -0.00002  -0.00001  -0.00001   0.00000
 213       75F-1       -0.00002  -0.00001  -0.00001   0.00000
 214       75F+2        0.00002   0.00001   0.00001   0.00000
 215       75F-2        0.00002   0.00001   0.00001   0.00000
 216       75F+3       -0.00000  -0.00000  -0.00000   0.00000
 217       75F-3        0.00000   0.00000   0.00000   0.00000
 218       76G 0        0.00000   0.00000   0.00000   0.00000
 219       76G+1        0.00000   0.00000   0.00000   0.00000
 220       76G-1        0.00000   0.00000   0.00000   0.00000
 221       76G+2        0.00000   0.00000   0.00000   0.00000
 222       76G-2        0.00000   0.00000   0.00000   0.00000
 223       76G+3       -0.00000  -0.00000  -0.00000   0.00000
 224       76G-3        0.00000   0.00000   0.00000   0.00000
 225       76G+4        0.00000   0.00000   0.00000   0.00000
 226       76G-4        0.00000   0.00000   0.00000   0.00000
 227       77G 0        0.00000   0.00000   0.00000   0.00000
 228       77G+1        0.00000   0.00000   0.00000   0.00000
 229       77G-1        0.00000   0.00000   0.00000   0.00000
 230       77G+2        0.00000   0.00000   0.00000   0.00000
 231       77G-2        0.00000   0.00000   0.00000   0.00000
 232       77G+3        0.00000   0.00000   0.00000   0.00000
 233       77G-3        0.00000   0.00000   0.00000   0.00000
 234       77G+4       -0.00000  -0.00000  -0.00000   0.00000
 235       77G-4        0.00000   0.00000   0.00000   0.00000
 236       78G 0        0.00004   0.00002   0.00002   0.00000
 237       78G+1        0.00001   0.00000   0.00000   0.00000
 238       78G-1        0.00001   0.00000   0.00000   0.00000
 239       78G+2        0.00000   0.00000   0.00000   0.00000
 240       78G-2        0.00000   0.00000   0.00000   0.00000
 241       78G+3        0.00000   0.00000   0.00000   0.00000
 242       78G-3       -0.00000  -0.00000  -0.00000   0.00000
 243       78G+4        0.00000   0.00000   0.00000   0.00000
 244       78G-4        0.00000   0.00000   0.00000   0.00000
 245       79G 0        0.00019   0.00010   0.00010   0.00000
 246       79G+1        0.00004   0.00002   0.00002   0.00000
 247       79G-1        0.00004   0.00002   0.00002   0.00000
 248       79G+2        0.00001   0.00000   0.00000   0.00000
 249       79G-2        0.00001   0.00000   0.00000   0.00000
 250       79G+3        0.00000   0.00000   0.00000   0.00000
 251       79G-3       -0.00000  -0.00000  -0.00000   0.00000
 252       79G+4        0.00000   0.00000   0.00000   0.00000
 253       79G-4        0.00000   0.00000   0.00000   0.00000
 254       80G 0        0.00016   0.00008   0.00008   0.00000
 255       80G+1        0.00002   0.00001   0.00001   0.00000
 256       80G-1        0.00002   0.00001   0.00001   0.00000
 257       80G+2        0.00000   0.00000   0.00000   0.00000
 258       80G-2        0.00000   0.00000   0.00000   0.00000
 259       80G+3        0.00000   0.00000   0.00000   0.00000
 260       80G-3       -0.00000  -0.00000  -0.00000   0.00000
 261       80G+4        0.00000   0.00000   0.00000   0.00000
 262       80G-4        0.00000   0.00000   0.00000   0.00000
 263       81H 0        0.00000   0.00000   0.00000   0.00000
 264       81H+1        0.00000   0.00000   0.00000   0.00000
 265       81H-1        0.00000   0.00000   0.00000   0.00000
 266       81H+2        0.00000   0.00000   0.00000   0.00000
 267       81H-2        0.00000   0.00000   0.00000   0.00000
 268       81H+3        0.00000   0.00000   0.00000   0.00000
 269       81H-3        0.00000   0.00000   0.00000   0.00000
 270       81H+4        0.00000   0.00000   0.00000   0.00000
 271       81H-4        0.00000   0.00000   0.00000   0.00000
 272       81H+5        0.00000   0.00000   0.00000   0.00000
 273       81H-5        0.00000   0.00000   0.00000   0.00000
 274       82H 0        0.00000   0.00000   0.00000   0.00000
 275       82H+1        0.00000   0.00000   0.00000   0.00000
 276       82H-1        0.00000   0.00000   0.00000   0.00000
 277       82H+2        0.00000   0.00000   0.00000   0.00000
 278       82H-2        0.00000   0.00000   0.00000   0.00000
 279       82H+3        0.00000   0.00000   0.00000   0.00000
 280       82H-3        0.00000   0.00000   0.00000   0.00000
 281       82H+4        0.00000   0.00000   0.00000   0.00000
 282       82H-4        0.00000   0.00000   0.00000   0.00000
 283       82H+5        0.00000   0.00000   0.00000   0.00000
 284       82H-5        0.00000   0.00000   0.00000   0.00000
 285       83H 0        0.00001   0.00000   0.00000   0.00000
 286       83H+1        0.00000   0.00000   0.00000   0.00000
 287       83H-1        0.00000   0.00000   0.00000   0.00000
 288       83H+2        0.00000   0.00000   0.00000   0.00000
 289       83H-2        0.00000   0.00000   0.00000   0.00000
 290       83H+3        0.00000   0.00000   0.00000   0.00000
 291       83H-3        0.00000   0.00000   0.00000   0.00000
 292       83H+4        0.00000   0.00000   0.00000   0.00000
 293       83H-4        0.00000   0.00000   0.00000   0.00000
 294       83H+5        0.00000   0.00000   0.00000   0.00000
 295       83H-5       -0.00000  -0.00000  -0.00000   0.00000
 296       84H 0        0.00000   0.00000   0.00000   0.00000
 297       84H+1        0.00000   0.00000   0.00000   0.00000
 298       84H-1        0.00000   0.00000   0.00000   0.00000
 299       84H+2        0.00000   0.00000   0.00000   0.00000
 300       84H-2        0.00000   0.00000   0.00000   0.00000
 301       84H+3        0.00000   0.00000   0.00000   0.00000
 302       84H-3        0.00000   0.00000   0.00000   0.00000
 303       84H+4        0.00000   0.00000   0.00000   0.00000
 304       84H-4        0.00000   0.00000   0.00000   0.00000
 305       84H+5       -0.00000  -0.00000  -0.00000   0.00000
 306       84H-5        0.00000   0.00000   0.00000   0.00000
 307       85I 0        0.00000   0.00000   0.00000   0.00000
 308       85I+1        0.00000   0.00000   0.00000   0.00000
 309       85I-1        0.00000   0.00000   0.00000   0.00000
 310       85I+2        0.00000   0.00000   0.00000   0.00000
 311       85I-2        0.00000   0.00000   0.00000   0.00000
 312       85I+3       -0.00000  -0.00000  -0.00000   0.00000
 313       85I-3        0.00000   0.00000   0.00000   0.00000
 314       85I+4        0.00000   0.00000   0.00000   0.00000
 315       85I-4       -0.00000  -0.00000  -0.00000   0.00000
 316       85I+5        0.00000   0.00000   0.00000   0.00000
 317       85I-5        0.00000   0.00000   0.00000   0.00000
 318       85I+6        0.00000   0.00000   0.00000   0.00000
 319       85I-6        0.00000   0.00000   0.00000   0.00000
 320       86I 0        0.00000   0.00000   0.00000   0.00000
 321       86I+1        0.00000   0.00000   0.00000   0.00000
 322       86I-1        0.00000   0.00000   0.00000   0.00000
 323       86I+2        0.00000   0.00000   0.00000   0.00000
 324       86I-2        0.00000   0.00000   0.00000   0.00000
 325       86I+3        0.00000   0.00000   0.00000   0.00000
 326       86I-3        0.00000   0.00000   0.00000   0.00000
 327       86I+4       -0.00000  -0.00000  -0.00000   0.00000
 328       86I-4        0.00000   0.00000   0.00000   0.00000
 329       86I+5        0.00000   0.00000   0.00000   0.00000
 330       86I-5        0.00000   0.00000   0.00000   0.00000
 331       86I+6       -0.00000  -0.00000  -0.00000   0.00000
 332       86I-6       -0.00000  -0.00000  -0.00000   0.00000
 333       87I 0        0.00000   0.00000   0.00000   0.00000
 334       87I+1        0.00000   0.00000   0.00000   0.00000
 335       87I-1        0.00000   0.00000   0.00000   0.00000
 336       87I+2        0.00000   0.00000   0.00000   0.00000
 337       87I-2        0.00000   0.00000   0.00000   0.00000
 338       87I+3        0.00000   0.00000   0.00000   0.00000
 339       87I-3        0.00000   0.00000   0.00000   0.00000
 340       87I+4        0.00000   0.00000   0.00000   0.00000
 341       87I-4        0.00000   0.00000   0.00000   0.00000
 342       87I+5        0.00000   0.00000   0.00000   0.00000
 343       87I-5        0.00000   0.00000   0.00000   0.00000
 344       87I+6       -0.00000  -0.00000  -0.00000   0.00000
 345       87I-6        0.00000   0.00000   0.00000   0.00000
 346 2   H  1S         -0.00000  -0.00000  -0.00000   0.00000
 347        2S          0.00010   0.00005   0.00005   0.00000
 348        3S          0.00514   0.00257   0.00257   0.00000
 349        4S          0.03596   0.01798   0.01798   0.00000
 350        5S          0.17870   0.08935   0.08935   0.00000
 351        6S          0.37791   0.18896   0.18896   0.00000
 352        7S          0.42322   0.21161   0.21161   0.00000
 353        8S          0.15109   0.07555   0.07555   0.00000
 354        9S          0.00962   0.00481   0.00481   0.00000
 355       10PX         0.00022   0.00011   0.00011   0.00000
 356       10PY         0.00022   0.00011   0.00011   0.00000
 357       10PZ         0.00065   0.00033   0.00033   0.00000
 358       11PX         0.00236   0.00118   0.00118   0.00000
 359       11PY         0.00236   0.00118   0.00118   0.00000
 360       11PZ         0.00552   0.00276   0.00276   0.00000
 361       12PX         0.00874   0.00437   0.00437   0.00000
 362       12PY         0.00874   0.00437   0.00437   0.00000
 363       12PZ         0.01090   0.00545   0.00545   0.00000
 364       13PX         0.00302   0.00151   0.00151   0.00000
 365       13PY         0.00302   0.00151   0.00151   0.00000
 366       13PZ         0.00852   0.00426   0.00426   0.00000
 367       14PX        -0.00024  -0.00012  -0.00012   0.00000
 368       14PY        -0.00024  -0.00012  -0.00012   0.00000
 369       14PZ        -0.00123  -0.00061  -0.00061   0.00000
 370       15D 0        0.00057   0.00029   0.00029   0.00000
 371       15D+1        0.00028   0.00014   0.00014   0.00000
 372       15D-1        0.00028   0.00014   0.00014   0.00000
 373       15D+2        0.00002   0.00001   0.00001   0.00000
 374       15D-2        0.00002   0.00001   0.00001   0.00000
 375       16D 0        0.00205   0.00103   0.00103   0.00000
 376       16D+1        0.00165   0.00083   0.00083   0.00000
 377       16D-1        0.00165   0.00083   0.00083   0.00000
 378       16D+2        0.00025   0.00013   0.00013   0.00000
 379       16D-2        0.00025   0.00013   0.00013   0.00000
 380       17D 0        0.00396   0.00198   0.00198   0.00000
 381       17D+1        0.00146   0.00073   0.00073   0.00000
 382       17D-1        0.00146   0.00073   0.00073   0.00000
 383       17D+2        0.00050   0.00025   0.00025   0.00000
 384       17D-2        0.00050   0.00025   0.00025   0.00000
 385       18D 0        0.00076   0.00038   0.00038   0.00000
 386       18D+1        0.00024   0.00012   0.00012   0.00000
 387       18D-1        0.00024   0.00012   0.00012   0.00000
 388       18D+2        0.00045   0.00023   0.00023   0.00000
 389       18D-2        0.00045   0.00023   0.00023   0.00000
 390       19F 0        0.00031   0.00015   0.00015   0.00000
 391       19F+1        0.00020   0.00010   0.00010   0.00000
 392       19F-1        0.00020   0.00010   0.00010   0.00000
 393       19F+2        0.00003   0.00002   0.00002   0.00000
 394       19F-2        0.00003   0.00002   0.00002   0.00000
 395       19F+3        0.00000   0.00000   0.00000   0.00000
 396       19F-3       -0.00000  -0.00000  -0.00000   0.00000
 397       20F 0        0.00063   0.00032   0.00032   0.00000
 398       20F+1        0.00039   0.00020   0.00020   0.00000
 399       20F-1        0.00039   0.00020   0.00020   0.00000
 400       20F+2        0.00023   0.00011   0.00011   0.00000
 401       20F-2        0.00023   0.00011   0.00011   0.00000
 402       20F+3        0.00000   0.00000   0.00000   0.00000
 403       20F-3       -0.00000  -0.00000  -0.00000   0.00000
 404       21F 0        0.00056   0.00028   0.00028   0.00000
 405       21F+1        0.00016   0.00008   0.00008   0.00000
 406       21F-1        0.00016   0.00008   0.00008   0.00000
 407       21F+2        0.00004   0.00002   0.00002   0.00000
 408       21F-2        0.00004   0.00002   0.00002   0.00000
 409       21F+3       -0.00000  -0.00000  -0.00000   0.00000
 410       21F-3        0.00000   0.00000   0.00000   0.00000
 411       22G 0        0.00010   0.00005   0.00005   0.00000
 412       22G+1        0.00008   0.00004   0.00004   0.00000
 413       22G-1        0.00008   0.00004   0.00004   0.00000
 414       22G+2        0.00002   0.00001   0.00001   0.00000
 415       22G-2        0.00002   0.00001   0.00001   0.00000
 416       22G+3       -0.00000  -0.00000  -0.00000   0.00000
 417       22G-3       -0.00000  -0.00000  -0.00000   0.00000
 418       22G+4       -0.00000  -0.00000  -0.00000   0.00000
 419       22G-4        0.00000   0.00000   0.00000   0.00000
 420       23G 0       -0.00004  -0.00002  -0.00002   0.00000
 421       23G+1        0.00005   0.00003   0.00003   0.00000
 422       23G-1        0.00005   0.00003   0.00003   0.00000
 423       23G+2        0.00001   0.00000   0.00000   0.00000
 424       23G-2        0.00001   0.00000   0.00000   0.00000
 425       23G+3       -0.00000  -0.00000  -0.00000   0.00000
 426       23G-3        0.00000   0.00000   0.00000   0.00000
 427       23G+4        0.00000   0.00000   0.00000   0.00000
 428       23G-4        0.00000   0.00000   0.00000   0.00000
          Condensed to atoms (all electrons):
               1          2
     1  Cu  18.245183   0.499467
     2  H    0.499467   0.755883
          Atomic-Atomic Spin Densities.
               1          2
     1  Cu   0.000000   0.000000
     2  H    0.000000   0.000000
 Mulliken charges and spin densities:
               1          2
     1  Cu   0.255350   0.000000
     2  H   -0.255350   0.000000
 Sum of Mulliken charges =  -0.00000   0.00000
 Mulliken charges and spin densities with hydrogens summed into heavy atoms:
               1          2
     1  Cu  -0.000000   0.000000
 Electronic spatial extent (au):  <R**2>=             35.5611
 Charge=             -0.0000 electrons
 Dipole moment (field-independent basis, Debye):
    X=              0.0000    Y=              0.0000    Z=              2.8300  Tot=              2.8300
 Quadrupole moment (field-independent basis, Debye-Ang):
   XX=            -14.4893   YY=            -14.4893   ZZ=            -14.2626
   XY=              0.0000   XZ=              0.0000   YZ=              0.0000
 Traceless Quadrupole moment (field-independent basis, Debye-Ang):
   XX=             -0.0756   YY=             -0.0756   ZZ=              0.1511
   XY=              0.0000   XZ=              0.0000   YZ=              0.0000
 Octapole moment (field-independent basis, Debye-Ang**2):
  XXX=              0.0000  YYY=              0.0000  ZZZ=              7.9989  XYY=              0.0000
  XXY=              0.0000  XXZ=              2.3737  XZZ=              0.0000  YZZ=              0.0000
  YYZ=              2.3737  XYZ=              0.0000
 Hexadecapole moment (field-independent basis, Debye-Ang**3):
 XXXX=            -20.1432 YYYY=            -20.1432 ZZZZ=            -26.6174 XXXY=              0.0000
 XXXZ=              0.0000 YYYX=              0.0000 YYYZ=              0.0000 ZZZX=              0.0000
 ZZZY=              0.0000 XXYY=             -6.7144 XXZZ=             -7.8003 YYZZ=             -7.8003
 XXYZ=              0.0000 YYXZ=              0.0000 ZZXY=              0.0000
 N-N= 1.005436700748D+01 E-N=-5.047319075122D+02  KE= 1.294252847479D+02
 Symmetry A1   KE= 5.250930901606D+01
 Symmetry A2   KE= 1.887864719280D+01
 Symmetry B1   KE= 2.901866427029D+01
 Symmetry B2   KE= 2.901866426925D+01
 Symmetry A1   SP= 0.000000000000D+00
 Symmetry A2   SP= 0.000000000000D+00
 Symmetry B1   SP= 0.000000000000D+00
 Symmetry B2   SP= 0.000000000000D+00
 Orbital energies and kinetic energies (alpha):
                                 1                 2
   6         O                -0.572502          9.331219
   7         O                -0.572502          9.331219
   8         O                -0.544576          9.439324
   9         O                -0.544576          9.439324
  10         O                -0.324205          2.084608
  11         V                 0.008674          0.154420
  12         V                 0.025637          0.029597
  13         V                 0.025672          0.038674
  14         V                 0.025672          0.038674
  15         V                 0.049814          0.295547
 Total kinetic energy from orbitals= 1.294252847478D+02
                          Isotropic Fermi Contact Couplings
        Atom                 a.u.       MegaHertz       Gauss      10(-4) cm-1
     1  Cu(63)             0.00000       0.00000       0.00000       0.00000
     2  H(1)               0.00000       0.00000       0.00000       0.00000
 --------------------------------------------------------
       Center         ----  Spin Dipole Couplings  ----
                      3XX-RR        3YY-RR        3ZZ-RR
 --------------------------------------------------------
     1   Atom        0.000000      0.000000      0.000000
     2   Atom        0.000000      0.000000      0.000000
 --------------------------------------------------------
                        XY            XZ            YZ
 --------------------------------------------------------
     1   Atom        0.000000      0.000000      0.000000
     2   Atom        0.000000      0.000000      0.000000
 --------------------------------------------------------


 ---------------------------------------------------------------------------------
              Anisotropic Spin Dipole Couplings in Principal Axis System
 ---------------------------------------------------------------------------------

       Atom             a.u.   MegaHertz   Gauss  10(-4) cm-1        Axes

              Baa     0.0000     0.000     0.000     0.000  1.0000  0.0000  0.0000
     1 Cu(63) Bbb     0.0000     0.000     0.000     0.000 -0.0000  1.0000  0.0000
              Bcc     0.0000     0.000     0.000     0.000  0.0000  0.0000  1.0000
 
              Baa     0.0000     0.000     0.000     0.000  1.0000  0.0000  0.0000
     2 H(1)   Bbb     0.0000     0.000     0.000     0.000 -0.0000  1.0000  0.0000
              Bcc     0.0000     0.000     0.000     0.000  0.0000  0.0000  1.0000
 

 ---------------------------------------------------------------------------------

 No NMR shielding tensors so no spin-rotation constants.
 Leave Link  601 at Sun May  6 11:44:33 2018, MaxMem= 21474836480 cpu:              61.5 elap:               2.1
 (Enter /home1/apps/gaussian/16rA.03/g16/l9999.exe)

 Test job not archived.
 1\1\GINC-C476-041\SP\ROCCSD(T)-Full\Gen\Cu1H1\GWANG18\06-May-2018\0\\#
 P ROCCSD(T)=(MaxCyc=150, Full)/Gen SCF=(maxcycle=400) Pseudo=Read Inte
 gral(NoXCTest) Pop=Regular MaxDisk=500GB Guess=Read IOp(5/15=2)\\CuH\\
 0,1\Cu,0,0.,0.,0.\H,0,0.,0.,1.\\Version=ES64L-G16RevA.03\State=1-SG\HF
 =-196.3965883\MP2=-197.5953849\MP3=-197.3827894\PUHF=-196.3965883\PMP2
 -0=-197.5953849\MP4SDQ=-197.5348283\CCSD=-197.4637347\CCSD(T)=-197.504
 9511\RMSD=5.245e-09\PG=C*V [C*(H1Cu1)]\\@


 A true friend is someone who is there for
 you when he'd rather be anywhere else.
                               -- Len Wein
 Job cpu time:       1 days 14 hours 13 minutes 32.8 seconds.
 Elapsed time:       0 days  1 hours 12 minutes 31.2 seconds.
 File lengths (MBytes):  RWF=  27410 Int=      0 D2E=      0 Chk=     23 Scr=      1
 Normal termination of Gaussian 16 at Sun May  6 11:44:33 2018.
