 Entering Gaussian System, Link 0=g16
 Initial command:
 /home1/apps/gaussian/16rA.03/g16/l1.exe "/tmp/Gau-61521.inp" -scrdir="/tmp/"
 Entering Link 1 = /home1/apps/gaussian/16rA.03/g16/l1.exe PID=     61522.
  
 Copyright (c) 1988,1990,1992,1993,1995,1998,2003,2009,2016,
            Gaussian, Inc.  All Rights Reserved.
  
 This is part of the Gaussian(R) 16 program.  It is based on
 the Gaussian(R) 09 system (copyright 2009, Gaussian, Inc.),
 the Gaussian(R) 03 system (copyright 2003, Gaussian, Inc.),
 the Gaussian(R) 98 system (copyright 1998, Gaussian, Inc.),
 the Gaussian(R) 94 system (copyright 1995, Gaussian, Inc.),
 the Gaussian 92(TM) system (copyright 1992, Gaussian, Inc.),
 the Gaussian 90(TM) system (copyright 1990, Gaussian, Inc.),
 the Gaussian 88(TM) system (copyright 1988, Gaussian, Inc.),
 the Gaussian 86(TM) system (copyright 1986, Carnegie Mellon
 University), and the Gaussian 82(TM) system (copyright 1983,
 Carnegie Mellon University). Gaussian is a federally registered
 trademark of Gaussian, Inc.
  
 This software contains proprietary and confidential information,
 including trade secrets, belonging to Gaussian, Inc.
  
 This software is provided under written license and may be
 used, copied, transmitted, or stored only in accord with that
 written license.
  
 The following legend is applicable only to US Government
 contracts under FAR:
  
                    RESTRICTED RIGHTS LEGEND
  
 Use, reproduction and disclosure by the US Government is
 subject to restrictions as set forth in subparagraphs (a)
 and (c) of the Commercial Computer Software - Restricted
 Rights clause in FAR 52.227-19.
  
 Gaussian, Inc.
 340 Quinnipiac St., Bldg. 40, Wallingford CT 06492
  
  
 ---------------------------------------------------------------
 Warning -- This program may not be used in any manner that
 competes with the business of Gaussian, Inc. or will provide
 assistance to any competitor of Gaussian, Inc.  The licensee
 of this program is prohibited from giving any competitor of
 Gaussian, Inc. access to this program.  By using this program,
 the user acknowledges that Gaussian, Inc. is engaged in the
 business of creating and licensing software in the field of
 computational chemistry and represents and warrants to the
 licensee that it is not a competitor of Gaussian, Inc. and that
 it will not use this program in any manner prohibited above.
 ---------------------------------------------------------------
  

 Cite this work as:
 Gaussian 16, Revision A.03,
 M. J. Frisch, G. W. Trucks, H. B. Schlegel, G. E. Scuseria, 
 M. A. Robb, J. R. Cheeseman, G. Scalmani, V. Barone, 
 G. A. Petersson, H. Nakatsuji, X. Li, M. Caricato, A. V. Marenich, 
 J. Bloino, B. G. Janesko, R. Gomperts, B. Mennucci, H. P. Hratchian, 
 J. V. Ortiz, A. F. Izmaylov, J. L. Sonnenberg, D. Williams-Young, 
 F. Ding, F. Lipparini, F. Egidi, J. Goings, B. Peng, A. Petrone, 
 T. Henderson, D. Ranasinghe, V. G. Zakrzewski, J. Gao, N. Rega, 
 G. Zheng, W. Liang, M. Hada, M. Ehara, K. Toyota, R. Fukuda, 
 J. Hasegawa, M. Ishida, T. Nakajima, Y. Honda, O. Kitao, H. Nakai, 
 T. Vreven, K. Throssell, J. A. Montgomery, Jr., J. E. Peralta, 
 F. Ogliaro, M. J. Bearpark, J. J. Heyd, E. N. Brothers, K. N. Kudin, 
 V. N. Staroverov, T. A. Keith, R. Kobayashi, J. Normand, 
 K. Raghavachari, A. P. Rendell, J. C. Burant, S. S. Iyengar, 
 J. Tomasi, M. Cossi, J. M. Millam, M. Klene, C. Adamo, R. Cammi, 
 J. W. Ochterski, R. L. Martin, K. Morokuma, O. Farkas, 
 J. B. Foresman, and D. J. Fox, Gaussian, Inc., Wallingford CT, 2016.
 
 ******************************************
 Gaussian 16:  ES64L-G16RevA.03 25-Dec-2016
                21-Apr-2018 
 ******************************************
 %mem=80GB
 %cpu=0-31
 SetSPE:  set environment variable "MP_BIND" = "yes"
 SetSPE:  set environment variable "MP_BLIST" = "0,1,2,3,4,5,6,7,8,9,10,11,12,13,14,15,16,17,18,19,20,21,22,23,24,25,26,27,28,29,30,31"
 Will use up to   32 processors via shared memory.
 %chk=qz.chk
 %rwf=/scratch/04843/gwang18/znh/
 ----------------------------------------------------------------------
 #P ROCCSD(T)=(MaxCyc=150, Full)/Gen SCF=(maxcycle=400, vshift=200) Pse
 udo=Read Integral(NoXCTest) Pop=Regular MaxDisk=500GB Guess=Read IOp(5
 /15=2)
 ----------------------------------------------------------------------
 1/38=1,172=1/1;
 2/12=2,17=6,18=5,40=1/2;
 3/5=7,11=2,16=1,17=8,25=1,30=1,47=8,116=101/1,2,3;
 4/5=1/1;
 5/5=2,7=400,10=200,15=2,38=6/2;
 8/5=-1,6=4,9=120000,10=90/1,4;
 9/5=7,6=150,14=2/13;
 6//1;
 99/5=1,9=1/99;
 Leave Link    1 at Sat Apr 21 11:00:03 2018, MaxMem= 10737418240 cpu:               6.8 elap:               0.2
 (Enter /home1/apps/gaussian/16rA.03/g16/l101.exe)
 ---
 ZnH
 ---
 Symbolic Z-matrix:
 Charge =  0 Multiplicity = 2
 Zn                    0.        0.        0. 
 H                     0.        0.        1.6 
 
 ITRead=  0  0
 MicOpt= -1 -1
 NAtoms=      2 NQM=        2 NQMF=       0 NMMI=      0 NMMIF=      0
                NMic=       0 NMicF=      0.
                    Isotopes and Nuclear Properties:
 (Nuclear quadrupole moments (NQMom) in fm**2, nuclear magnetic moments (NMagM)
  in nuclear magnetons)

  Atom         1           2
 IAtWgt=          64           1
 AtmWgt=  63.9291454   1.0078250
 NucSpn=           0           1
 AtZEff=  -0.0000000  -0.0000000
 NQMom=    0.0000000   0.0000000
 NMagM=    0.0000000   2.7928460
 AtZNuc=  30.0000000   1.0000000
 Leave Link  101 at Sat Apr 21 11:00:03 2018, MaxMem= 10737418240 cpu:               3.0 elap:               0.1
 (Enter /home1/apps/gaussian/16rA.03/g16/l202.exe)
                          Input orientation:                          
 ---------------------------------------------------------------------
 Center     Atomic      Atomic             Coordinates (Angstroms)
 Number     Number       Type             X           Y           Z
 ---------------------------------------------------------------------
      1         30           0        0.000000    0.000000    0.000000
      2          1           0        0.000000    0.000000    1.600000
 ---------------------------------------------------------------------
 Stoichiometry    HZn(2)
 Framework group  C*V[C*(HZn)]
 Deg. of freedom     1
 Full point group                 C*V     NOp   4
 Largest Abelian subgroup         C2V     NOp   4
 Largest concise Abelian subgroup C1      NOp   1
                         Standard orientation:                         
 ---------------------------------------------------------------------
 Center     Atomic      Atomic             Coordinates (Angstroms)
 Number     Number       Type             X           Y           Z
 ---------------------------------------------------------------------
      1         30           0        0.000000    0.000000    0.051613
      2          1           0        0.000000    0.000000   -1.548387
 ---------------------------------------------------------------------
 Rotational constants (GHZ):           0.0000000         198.9689076         198.9689076
 Leave Link  202 at Sat Apr 21 11:00:03 2018, MaxMem= 10737418240 cpu:               0.7 elap:               0.1
 (Enter /home1/apps/gaussian/16rA.03/g16/l301.exe)
 General basis read from cards:  (5D, 7F)
 Centers:       1
 S 1 1.00
     Exponent=  1.7852930000D+07 Coefficients=  1.0000000000D+00
 S 1 1.00
     Exponent=  2.6730380000D+06 Coefficients=  1.0000000000D+00
 S 1 1.00
     Exponent=  6.0832440000D+05 Coefficients=  1.0000000000D+00
 S 1 1.00
     Exponent=  1.7231760000D+05 Coefficients=  1.0000000000D+00
 S 1 1.00
     Exponent=  5.6222690000D+04 Coefficients=  1.0000000000D+00
 S 1 1.00
     Exponent=  2.0299850000D+04 Coefficients=  1.0000000000D+00
 S 1 1.00
     Exponent=  7.9188710000D+03 Coefficients=  1.0000000000D+00
 S 1 1.00
     Exponent=  3.2853400000D+03 Coefficients=  1.0000000000D+00
 S 1 1.00
     Exponent=  1.4335240000D+03 Coefficients=  1.0000000000D+00
 S 1 1.00
     Exponent=  6.5228890000D+02 Coefficients=  1.0000000000D+00
 S 1 1.00
     Exponent=  3.0743600000D+02 Coefficients=  1.0000000000D+00
 S 1 1.00
     Exponent=  1.4914660000D+02 Coefficients=  1.0000000000D+00
 S 1 1.00
     Exponent=  7.3451080000D+01 Coefficients=  1.0000000000D+00
 S 1 1.00
     Exponent=  3.3925620000D+01 Coefficients=  1.0000000000D+00
 S 1 1.00
     Exponent=  1.7189470000D+01 Coefficients=  1.0000000000D+00
 S 1 1.00
     Exponent=  8.6665950000D+00 Coefficients=  1.0000000000D+00
 S 1 1.00
     Exponent=  3.9725050000D+00 Coefficients=  1.0000000000D+00
 S 1 1.00
     Exponent=  1.8946650000D+00 Coefficients=  1.0000000000D+00
 S 1 1.00
     Exponent=  8.5938500000D-01 Coefficients=  1.0000000000D+00
 S 1 1.00
     Exponent=  1.9525600000D-01 Coefficients=  1.0000000000D+00
 S 1 1.00
     Exponent=  8.5854000000D-02 Coefficients=  1.0000000000D+00
 S 1 1.00
     Exponent=  3.6781000000D-02 Coefficients=  1.0000000000D+00
 S 1 1.00
     Exponent=  8.3276000000D+00 Coefficients=  1.0000000000D+00
 S 1 1.00
     Exponent=  3.4194000000D+00 Coefficients=  1.0000000000D+00
 S 1 1.00
     Exponent=  1.5760000000D-02 Coefficients=  1.0000000000D+00
 P 1 1.00
     Exponent=  5.2867930000D+04 Coefficients=  1.0000000000D+00
 P 1 1.00
     Exponent=  1.2511790000D+04 Coefficients=  1.0000000000D+00
 P 1 1.00
     Exponent=  4.0652860000D+03 Coefficients=  1.0000000000D+00
 P 1 1.00
     Exponent=  1.5575950000D+03 Coefficients=  1.0000000000D+00
 P 1 1.00
     Exponent=  6.6328920000D+02 Coefficients=  1.0000000000D+00
 P 1 1.00
     Exponent=  3.0415610000D+02 Coefficients=  1.0000000000D+00
 P 1 1.00
     Exponent=  1.4736800000D+02 Coefficients=  1.0000000000D+00
 P 1 1.00
     Exponent=  7.4454690000D+01 Coefficients=  1.0000000000D+00
 P 1 1.00
     Exponent=  3.8714930000D+01 Coefficients=  1.0000000000D+00
 P 1 1.00
     Exponent=  2.0570220000D+01 Coefficients=  1.0000000000D+00
 P 1 1.00
     Exponent=  1.1054250000D+01 Coefficients=  1.0000000000D+00
 P 1 1.00
     Exponent=  5.8746610000D+00 Coefficients=  1.0000000000D+00
 P 1 1.00
     Exponent=  3.0529360000D+00 Coefficients=  1.0000000000D+00
 P 1 1.00
     Exponent=  1.5472250000D+00 Coefficients=  1.0000000000D+00
 P 1 1.00
     Exponent=  7.5415100000D-01 Coefficients=  1.0000000000D+00
 P 1 1.00
     Exponent=  2.6534900000D-01 Coefficients=  1.0000000000D+00
 P 1 1.00
     Exponent=  1.0206700000D-01 Coefficients=  1.0000000000D+00
 P 1 1.00
     Exponent=  3.8755000000D-02 Coefficients=  1.0000000000D+00
 P 1 1.00
     Exponent=  1.2535700000D+01 Coefficients=  1.0000000000D+00
 P 1 1.00
     Exponent=  3.4227000000D+00 Coefficients=  1.0000000000D+00
 P 1 1.00
     Exponent=  1.4720000000D-02 Coefficients=  1.0000000000D+00
 D 1 1.00
     Exponent=  6.3978060000D+02 Coefficients=  1.0000000000D+00
 D 1 1.00
     Exponent=  1.9267420000D+02 Coefficients=  1.0000000000D+00
 D 1 1.00
     Exponent=  7.4843680000D+01 Coefficients=  1.0000000000D+00
 D 1 1.00
     Exponent=  3.2860480000D+01 Coefficients=  1.0000000000D+00
 D 1 1.00
     Exponent=  1.5393530000D+01 Coefficients=  1.0000000000D+00
 D 1 1.00
     Exponent=  7.5255120000D+00 Coefficients=  1.0000000000D+00
 D 1 1.00
     Exponent=  3.7154290000D+00 Coefficients=  1.0000000000D+00
 D 1 1.00
     Exponent=  1.8064590000D+00 Coefficients=  1.0000000000D+00
 D 1 1.00
     Exponent=  8.5297300000D-01 Coefficients=  1.0000000000D+00
 D 1 1.00
     Exponent=  3.8478000000D-01 Coefficients=  1.0000000000D+00
 D 1 1.00
     Exponent=  1.5933700000D-01 Coefficients=  1.0000000000D+00
 D 1 1.00
     Exponent=  9.2094000000D+00 Coefficients=  1.0000000000D+00
 D 1 1.00
     Exponent=  5.2262000000D+00 Coefficients=  1.0000000000D+00
 D 1 1.00
     Exponent=  6.5980000000D-02 Coefficients=  1.0000000000D+00
 F 1 1.00
     Exponent=  1.3235500000D+01 Coefficients=  1.0000000000D+00
 F 1 1.00
     Exponent=  5.6706000000D+00 Coefficients=  1.0000000000D+00
 F 1 1.00
     Exponent=  2.4295000000D+00 Coefficients=  1.0000000000D+00
 F 1 1.00
     Exponent=  8.5300000000D-01 Coefficients=  1.0000000000D+00
 F 1 1.00
     Exponent=  2.9949000000D-01 Coefficients=  1.0000000000D+00
 G 1 1.00
     Exponent=  1.0790200000D+01 Coefficients=  1.0000000000D+00
 G 1 1.00
     Exponent=  4.9368000000D+00 Coefficients=  1.0000000000D+00
 G 1 1.00
     Exponent=  2.0693000000D+00 Coefficients=  1.0000000000D+00
 G 1 1.00
     Exponent=  8.6736000000D-01 Coefficients=  1.0000000000D+00
 H 1 1.00
     Exponent=  9.6086000000D+00 Coefficients=  1.0000000000D+00
 H 1 1.00
     Exponent=  4.4136000000D+00 Coefficients=  1.0000000000D+00
 H 1 1.00
     Exponent=  2.0273400000D+00 Coefficients=  1.0000000000D+00
 ****
 Centers:       2
 S 1 1.00
     Exponent=  8.2640000000D+01 Coefficients=  1.0000000000D+00
 S 1 1.00
     Exponent=  1.2410000000D+01 Coefficients=  1.0000000000D+00
 S 1 1.00
     Exponent=  2.8240000000D+00 Coefficients=  1.0000000000D+00
 S 1 1.00
     Exponent=  7.9770000000D-01 Coefficients=  1.0000000000D+00
 S 1 1.00
     Exponent=  2.5810000000D-01 Coefficients=  1.0000000000D+00
 S 1 1.00
     Exponent=  8.9890000000D-02 Coefficients=  1.0000000000D+00
 S 1 1.00
     Exponent=  2.3630000000D-02 Coefficients=  1.0000000000D+00
 P 1 1.00
     Exponent=  2.2920000000D+00 Coefficients=  1.0000000000D+00
 P 1 1.00
     Exponent=  8.3800000000D-01 Coefficients=  1.0000000000D+00
 P 1 1.00
     Exponent=  2.9200000000D-01 Coefficients=  1.0000000000D+00
 P 1 1.00
     Exponent=  8.4800000000D-02 Coefficients=  1.0000000000D+00
 D 1 1.00
     Exponent=  2.0620000000D+00 Coefficients=  1.0000000000D+00
 D 1 1.00
     Exponent=  6.6200000000D-01 Coefficients=  1.0000000000D+00
 D 1 1.00
     Exponent=  1.9000000000D-01 Coefficients=  1.0000000000D+00
 F 1 1.00
     Exponent=  1.3970000000D+00 Coefficients=  1.0000000000D+00
 F 1 1.00
     Exponent=  3.6000000000D-01 Coefficients=  1.0000000000D+00
 ****
 ======================================================================================================
                                       Pseudopotential Parameters
 ======================================================================================================
  Center     Atomic      Valence      Angular      Power
  Number     Number     Electrons     Momentum     of R      Exponent        Coefficient   SO-Coeffient
 ======================================================================================================
    1         30           20
                                      D and up 
                                                     1       35.8079762       20.00000000    0.00000000
                                                     3       34.5364608      716.15952324    0.00000000
                                                     2       28.6283018     -204.68393324    0.00000000
                                                     2        7.9623968        0.76026614    0.00000000
                                      S - D
                                                     2       14.6349869       95.87640437    0.00000000
                                                     2       35.0214136      431.70804303    0.00000000
                                      P - D
                                                     2       14.5742930       74.01270049    0.00000000
                                                     2       42.2297923      313.57770564    0.00000000
    2          1            1
                                      P and up 
                                                     2       21.7769666      -10.85192405    0.00000000
                                                     1       21.2435951        1.00000000    0.00000000
                                                     3       21.2435951       21.24359508    0.00000000
                                      S - P
                                                     2        1.0000000        0.00000000    0.00000000
 ======================================================================================================
 Ernie: Thresh=  0.10000D-02 Tol=  0.10000D-05 Strict=F.
 There are   171 symmetry adapted cartesian basis functions of A1  symmetry.
 There are    45 symmetry adapted cartesian basis functions of A2  symmetry.
 There are    93 symmetry adapted cartesian basis functions of B1  symmetry.
 There are    93 symmetry adapted cartesian basis functions of B2  symmetry.
 There are   126 symmetry adapted basis functions of A1  symmetry.
 There are    38 symmetry adapted basis functions of A2  symmetry.
 There are    73 symmetry adapted basis functions of B1  symmetry.
 There are    73 symmetry adapted basis functions of B2  symmetry.
   310 basis functions,   402 primitive gaussians,   402 cartesian basis functions
    11 alpha electrons       10 beta electrons
       nuclear repulsion energy         6.6147151365 Hartrees.
 IExCor=    0 DFT=F Ex=HF Corr=None ExCW=0 ScaHFX=  1.000000
 ScaDFX=  1.000000  1.000000  1.000000  1.000000 ScalE2=  1.000000  1.000000
 IRadAn=      5 IRanWt=     -1 IRanGd=            0 ICorTp=0 IEmpDi=  4
 NAtoms=    2 NActive=    2 NUniq=    2 SFac= 1.00D+00 NAtFMM=   60 NAOKFM=F Big=F
 Integral buffers will be    131072 words long.
 Raffenetti 2 integral format.
 Two-electron integral symmetry is turned on.
 Leave Link  301 at Sat Apr 21 11:00:04 2018, MaxMem= 10737418240 cpu:               8.2 elap:               0.3
 (Enter /home1/apps/gaussian/16rA.03/g16/l302.exe)
 NPDir=0 NMtPBC=     1 NCelOv=     1 NCel=       1 NClECP=     1 NCelD=      1
         NCelK=      1 NCelE2=     1 NClLst=     1 CellRange=     0.0.
 One-electron integrals computed using PRISM.
 One-electron integral symmetry used in STVInt
   4 Symmetry operations used in ECPInt.
 ECPInt:  NShTT=    3916 NPrTT=    3916 LenC2=    3856 LenP2D=    3855.
 LDataN:  DoStor=T MaxTD1=10 Len=  848
 NBasis=   310 RedAO= T EigKep=  6.31D-06  NBF=   126    38    73    73
 NBsUse=   306 1.00D-06 EigRej=  9.75D-07 NBFU=   124    38    72    72
 Leave Link  302 at Sat Apr 21 11:00:06 2018, MaxMem= 10737418240 cpu:              75.2 elap:               2.4
 (Enter /home1/apps/gaussian/16rA.03/g16/l303.exe)
 DipDrv:  MaxL=1.
 Leave Link  303 at Sat Apr 21 11:00:06 2018, MaxMem= 10737418240 cpu:               2.9 elap:               0.2
 (Enter /home1/apps/gaussian/16rA.03/g16/l401.exe)
 Initial guess from the checkpoint file:  "qz.chk"
 B after Tr=     0.000000    0.000000    0.000000
         Rot=    1.000000    0.000000    0.000000    0.000000 Ang=   0.00 deg.
 Guess basis will be translated and rotated to current coordinates.
 JPrj=2 DoOrth=T DoCkMO=T.
 Initial guess orbital symmetries:
       Occupied  (SG) (PI) (PI) (SG) (DLTA) (DLTA) (SG) (PI) (PI)
                 (SG) (SG)
       Virtual   (PI) (PI) (SG) (SG) (PI) (PI) (SG) (SG) (SG) (PI)
                 (PI) (DLTA) (DLTA) (SG) (PI) (PI) (SG) (PI) (PI)
                 (SG) (SG) (SG) (DLTA) (DLTA) (PI) (PI) (DLTA)
                 (DLTA) (SG) (PI) (PI) (PI) (PI) (SG) (PI) (PI)
                 (SG) (SG) (PHI) (PHI) (DLTA) (DLTA) (PI) (PI)
                 (SG) (SG) (SG) (DLTA) (DLTA) (PI) (PI) (SG) (PI)
                 (PI) (SG) (DLTA) (DLTA) (PI) (PI) (PI) (PI) (SG)
                 (SG) (PHI) (PHI) (DLTA) (DLTA) (PI) (PI) (SG)
                 (DLTA) (DLTA) (PI) (PI) (SG) (?A) (?A) (PHI) (PHI)
                 (DLTA) (DLTA) (PI) (PI) (SG) (SG) (PI) (PI) (SG)
                 (SG) (PHI) (PHI) (DLTA) (DLTA) (PI) (PI) (SG)
                 (DLTA) (DLTA) (PI) (PI) (SG) (PI) (PI) (SG) (SG)
                 (?A) (?A) (PHI) (PHI) (DLTA) (DLTA) (PI) (PI)
                 (SG) (DLTA) (DLTA) (PI) (PI) (SG) (PHI) (PHI)
                 (DLTA) (DLTA) (PI) (PI) (SG) (PI) (PI) (SG) (SG)
                 (?A) (?A) (PHI) (PHI) (DLTA) (DLTA) (PI) (PI)
                 (SG) (DLTA) (DLTA) (PI) (PI) (SG) (SG) (PI) (PI)
                 (SG) (SG) (DLTA) (DLTA) (PI) (PI) (SG) (PI) (PI)
                 (SG) (SG) (PI) (PI) (SG) (DLTA) (DLTA) (PI) (PI)
                 (SG) (SG) (PI) (PI) (SG) (SG) (DLTA) (DLTA) (PI)
                 (PI) (SG) (PI) (PI) (SG) (SG) (PI) (PI) (SG) (SG)
                 (PI) (PI) (SG) (SG) (PI) (PI) (SG) (SG) (PI) (PI)
                 (SG) (SG) (SG) (PI) (PI) (SG) (SG) (SG) (SG) (SG)
                 (DLTA) (SG) (SG) (SG) (SG) (DLTA) (SG) (SG) (DLTA)
                 (SG) (DLTA) (?A) (SG) (SG) (SG) (DLTA) (?A) (SG)
                 (DLTA) (SG) (DLTA) (DLTA) (SG) (SG) (DLTA) (DLTA)
                 (SG) (?A) (DLTA) (?A) (DLTA) (DLTA) (DLTA) (DLTA)
                 (?A) (DLTA) (?A) (DLTA) (DLTA) (DLTA) (DLTA) (DLTA)
                 (?A) (DLTA) (?A) (PI) (PI) (PI) (PI) (PHI) (PI)
                 (PI) (PHI) (PI) (PI) (PHI) (?B) (PI) (PI) (PHI)
                 (PHI) (PI) (PI) (?B) (PHI) (PI) (?B) (PHI) (PI)
                 (PI) (PI) (PI) (PHI) (PI) (PI) (PHI) (PI) (PI)
                 (PHI) (?B) (PI) (PI) (PHI) (PHI) (PI) (PI) (?B)
                 (PHI) (PI) (?B) (PHI)
 The electronic state of the initial guess is 2-SG.
 Leave Link  401 at Sat Apr 21 11:00:07 2018, MaxMem= 10737418240 cpu:              16.7 elap:               0.6
 (Enter /home1/apps/gaussian/16rA.03/g16/l502.exe)
 Keep R1 and R2 ints in memory in symmetry-blocked form, NReq=1456552531.
 FoFCou: FMM=F IPFlag=           8 FMFlag=           0 FMFlg1=           0
         NFxFlg=           0 DoJE=F BraDBF=F KetDBF=F FulRan=T
         wScrn=  0.000000 ICntrl=       600 IOpCl=  0 I1Cent=           0 NGrid=           0
         NMat0=    1 NMatS0=  48205 NMatT0=    0 NMatD0=    1 NMtDS0=    0 NMtDT0=    0
 Petite list used in FoFCou.
 Restricted open shell SCF:
 Using DIIS extrapolation, IDIIS=  1040.
 NGot= 10737418240 LenX= 10147857266 LenY= 10147695221
 Requested convergence on RMS density matrix=1.00D-08 within 400 cycles.
 Requested convergence on MAX density matrix=1.00D-06.
 Requested convergence on             energy=1.00D-06.
 Virtual orbitals will be shifted by   0.200 hartree.
 No special actions if energy rises.

 Cycle   1  Pass 1  IDiag  1:
 E= -225.802082814121    
 DIIS: error= 3.05D-01 at cycle   1 NSaved=   1.
 NSaved= 1 IEnMin= 1 EnMin= -225.802082814121     IErMin= 1 ErrMin= 3.05D-01
 ErrMax= 3.05D-01  0.00D+00 EMaxC= 1.00D-01 BMatC= 2.30D+01 BMatP= 2.30D+01
 IDIUse=3 WtCom= 0.00D+00 WtEn= 1.00D+00
 Coeff-Com:  0.100D+01
 Coeff-En:   0.100D+01
 Coeff:      0.100D+01
 Gap=     0.101 Goal=   None    Shift=    0.200
 GapD=    0.101 DampG=1.000 DampE=0.125 DampFc=0.1250 IDamp=-1.
 Damping current iteration by 1.25D-01
 RMSDP=6.66D-04 MaxDP=4.43D-02              OVMax= 1.60D-03

 Cycle   2  Pass 1  IDiag  1:
 E= -225.802136136095     Delta-E=       -0.000053321974 Rises=F Damp=T
 DIIS: error= 2.67D-01 at cycle   2 NSaved=   2.
 NSaved= 2 IEnMin= 2 EnMin= -225.802136136095     IErMin= 2 ErrMin= 2.67D-01
 ErrMax= 2.67D-01  0.00D+00 EMaxC= 1.00D-01 BMatC= 1.76D+01 BMatP= 2.30D+01
 IDIUse=3 WtCom= 0.00D+00 WtEn= 1.00D+00
 Coeff-Com: -0.700D+01 0.800D+01
 Coeff-En:   0.000D+00 0.100D+01
 Coeff:      0.000D+00 0.100D+01
 Gap=     0.099 Goal=   None    Shift=    0.200
 RMSDP=5.87D-04 MaxDP=3.88D-02 DE=-5.33D-05 OVMax= 1.90D-04

 Cycle   3  Pass 1  IDiag  1:
 E= -225.802517954249     Delta-E=       -0.000381818154 Rises=F Damp=F
 DIIS: error= 1.03D-04 at cycle   3 NSaved=   3.
 NSaved= 3 IEnMin= 3 EnMin= -225.802517954249     IErMin= 3 ErrMin= 1.03D-04
 ErrMax= 1.03D-04  0.00D+00 EMaxC= 1.00D-01 BMatC= 1.47D-06 BMatP= 1.76D+01
 IDIUse=3 WtCom= 9.99D-01 WtEn= 1.03D-03
 Coeff-Com:  0.494D+00-0.565D+00 0.107D+01
 Coeff-En:   0.000D+00 0.000D+00 0.100D+01
 Coeff:      0.494D+00-0.564D+00 0.107D+01
 Gap=     0.099 Goal=   None    Shift=    0.200
 RMSDP=3.12D-05 MaxDP=4.89D-03 DE=-3.82D-04 OVMax= 3.59D-04

 Cycle   4  Pass 1  IDiag  1:
 E= -225.802518872342     Delta-E=       -0.000000918093 Rises=F Damp=F
 DIIS: error= 1.64D-05 at cycle   4 NSaved=   4.
 NSaved= 4 IEnMin= 4 EnMin= -225.802518872342     IErMin= 4 ErrMin= 1.64D-05
 ErrMax= 1.64D-05  0.00D+00 EMaxC= 1.00D-01 BMatC= 4.27D-08 BMatP= 1.47D-06
 IDIUse=1 WtCom= 1.00D+00 WtEn= 0.00D+00
 Coeff-Com:  0.473D+00-0.541D+00-0.154D-01 0.108D+01
 Coeff:      0.473D+00-0.541D+00-0.154D-01 0.108D+01
 Gap=     0.099 Goal=   None    Shift=    0.200
 RMSDP=3.91D-06 MaxDP=5.10D-04 DE=-9.18D-07 OVMax= 7.36D-05

 Cycle   5  Pass 1  IDiag  1:
 E= -225.802518907987     Delta-E=       -0.000000035645 Rises=F Damp=F
 DIIS: error= 1.52D-05 at cycle   5 NSaved=   5.
 NSaved= 5 IEnMin= 5 EnMin= -225.802518907987     IErMin= 5 ErrMin= 1.52D-05
 ErrMax= 1.52D-05  0.00D+00 EMaxC= 1.00D-01 BMatC= 1.74D-08 BMatP= 4.27D-08
 IDIUse=1 WtCom= 1.00D+00 WtEn= 0.00D+00
 Coeff-Com:  0.419D+00-0.478D+00 0.978D-01-0.179D+00 0.114D+01
 Coeff:      0.419D+00-0.478D+00 0.978D-01-0.179D+00 0.114D+01
 Gap=     0.099 Goal=   None    Shift=    0.200
 RMSDP=8.24D-07 MaxDP=1.35D-04 DE=-3.56D-08 OVMax= 2.50D-05

 Cycle   6  Pass 1  IDiag  1:
 E= -225.802518911275     Delta-E=       -0.000000003288 Rises=F Damp=F
 DIIS: error= 1.41D-05 at cycle   6 NSaved=   6.
 NSaved= 6 IEnMin= 6 EnMin= -225.802518911275     IErMin= 6 ErrMin= 1.41D-05
 ErrMax= 1.41D-05  0.00D+00 EMaxC= 1.00D-01 BMatC= 1.45D-08 BMatP= 1.74D-08
 IDIUse=1 WtCom= 1.00D+00 WtEn= 0.00D+00
 Coeff-Com:  0.386D+00-0.441D+00 0.817D-01 0.296D-01-0.640D-01 0.101D+01
 Coeff:      0.386D+00-0.441D+00 0.817D-01 0.296D-01-0.640D-01 0.101D+01
 Gap=     0.099 Goal=   None    Shift=    0.200
 RMSDP=8.51D-07 MaxDP=1.62D-04 DE=-3.29D-09 OVMax= 1.68D-05

 Cycle   7  Pass 1  IDiag  1:
 E= -225.802518913717     Delta-E=       -0.000000002442 Rises=F Damp=F
 DIIS: error= 1.31D-05 at cycle   7 NSaved=   7.
 NSaved= 7 IEnMin= 7 EnMin= -225.802518913717     IErMin= 7 ErrMin= 1.31D-05
 ErrMax= 1.31D-05  0.00D+00 EMaxC= 1.00D-01 BMatC= 1.25D-08 BMatP= 1.45D-08
 IDIUse=1 WtCom= 1.00D+00 WtEn= 0.00D+00
 Coeff-Com:  0.346D+00-0.396D+00 0.652D-01 0.165D+00-0.565D+00 0.324D+00
 Coeff-Com:  0.106D+01
 Coeff:      0.346D+00-0.396D+00 0.652D-01 0.165D+00-0.565D+00 0.324D+00
 Coeff:      0.106D+01
 Gap=     0.099 Goal=   None    Shift=    0.200
 RMSDP=1.07D-06 MaxDP=1.98D-04 DE=-2.44D-09 OVMax= 1.83D-05

 Cycle   8  Pass 1  IDiag  1:
 E= -225.802518916646     Delta-E=       -0.000000002929 Rises=F Damp=F
 DIIS: error= 1.18D-05 at cycle   8 NSaved=   8.
 NSaved= 8 IEnMin= 8 EnMin= -225.802518916646     IErMin= 8 ErrMin= 1.18D-05
 ErrMax= 1.18D-05  0.00D+00 EMaxC= 1.00D-01 BMatC= 1.02D-08 BMatP= 1.25D-08
 IDIUse=1 WtCom= 1.00D+00 WtEn= 0.00D+00
 Coeff-Com:  0.274D+00-0.313D+00 0.533D-01 0.657D-01 0.742D-01-0.789D+00
 Coeff-Com: -0.538D+00 0.217D+01
 Coeff:      0.274D+00-0.313D+00 0.533D-01 0.657D-01 0.742D-01-0.789D+00
 Coeff:     -0.538D+00 0.217D+01
 Gap=     0.099 Goal=   None    Shift=    0.200
 RMSDP=1.83D-06 MaxDP=3.40D-04 DE=-2.93D-09 OVMax= 2.83D-05

 Cycle   9  Pass 1  IDiag  1:
 E= -225.802518920898     Delta-E=       -0.000000004251 Rises=F Damp=F
 DIIS: error= 9.63D-06 at cycle   9 NSaved=   9.
 NSaved= 9 IEnMin= 9 EnMin= -225.802518920898     IErMin= 9 ErrMin= 9.63D-06
 ErrMax= 9.63D-06  0.00D+00 EMaxC= 1.00D-01 BMatC= 6.88D-09 BMatP= 1.02D-08
 IDIUse=1 WtCom= 1.00D+00 WtEn= 0.00D+00
 Coeff-Com:  0.183D+00-0.210D+00 0.366D-01 0.126D-01 0.226D+00-0.465D+00
 Coeff-Com: -0.588D+00-0.207D+00 0.201D+01
 Coeff:      0.183D+00-0.210D+00 0.366D-01 0.126D-01 0.226D+00-0.465D+00
 Coeff:     -0.588D+00-0.207D+00 0.201D+01
 Gap=     0.099 Goal=   None    Shift=    0.200
 RMSDP=2.44D-06 MaxDP=4.51D-04 DE=-4.25D-09 OVMax= 3.86D-05

 Cycle  10  Pass 1  IDiag  1:
 E= -225.802518925486     Delta-E=       -0.000000004589 Rises=F Damp=F
 DIIS: error= 6.75D-06 at cycle  10 NSaved=  10.
 NSaved=10 IEnMin=10 EnMin= -225.802518925486     IErMin=10 ErrMin= 6.75D-06
 ErrMax= 6.75D-06  0.00D+00 EMaxC= 1.00D-01 BMatC= 3.48D-09 BMatP= 6.88D-09
 IDIUse=1 WtCom= 1.00D+00 WtEn= 0.00D+00
 Coeff-Com:  0.116D+00-0.133D+00 0.208D-01 0.537D-01-0.123D+00-0.257D-01
 Coeff-Com:  0.209D+00 0.860D+00-0.267D+01 0.269D+01
 Coeff:      0.116D+00-0.133D+00 0.208D-01 0.537D-01-0.123D+00-0.257D-01
 Coeff:      0.209D+00 0.860D+00-0.267D+01 0.269D+01
 Gap=     0.099 Goal=   None    Shift=    0.200
 RMSDP=2.08D-06 MaxDP=3.80D-04 DE=-4.59D-09 OVMax= 3.51D-05

 Cycle  11  Pass 1  IDiag  1:
 E= -225.802518928389     Delta-E=       -0.000000002903 Rises=F Damp=F
 DIIS: error= 4.40D-06 at cycle  11 NSaved=  11.
 NSaved=11 IEnMin=11 EnMin= -225.802518928389     IErMin=11 ErrMin= 4.40D-06
 ErrMax= 4.40D-06  0.00D+00 EMaxC= 1.00D-01 BMatC= 1.53D-09 BMatP= 3.48D-09
 IDIUse=1 WtCom= 1.00D+00 WtEn= 0.00D+00
 Coeff-Com: -0.938D-02 0.107D-01-0.774D-03-0.420D-01 0.313D+00-0.710D+00
 Coeff-Com: -0.546D+00 0.128D+01 0.118D+01-0.503D+01 0.456D+01
 Coeff:     -0.938D-02 0.107D-01-0.774D-03-0.420D-01 0.313D+00-0.710D+00
 Coeff:     -0.546D+00 0.128D+01 0.118D+01-0.503D+01 0.456D+01
 Gap=     0.099 Goal=   None    Shift=    0.200
 RMSDP=3.23D-06 MaxDP=6.01D-04 DE=-2.90D-09 OVMax= 4.88D-05

 Cycle  12  Pass 1  IDiag  1:
 E= -225.802518930549     Delta-E=       -0.000000002160 Rises=F Damp=F
 DIIS: error= 8.89D-07 at cycle  12 NSaved=  12.
 NSaved=12 IEnMin=12 EnMin= -225.802518930549     IErMin=12 ErrMin= 8.89D-07
 ErrMax= 8.89D-07  0.00D+00 EMaxC= 1.00D-01 BMatC= 1.08D-10 BMatP= 1.53D-09
 IDIUse=1 WtCom= 1.00D+00 WtEn= 0.00D+00
 Coeff-Com: -0.372D-02 0.425D-02 0.206D-03-0.312D-01 0.232D+00-0.566D+00
 Coeff-Com: -0.398D+00 0.115D+01 0.592D-01-0.390D+01 0.510D+01-0.648D+00
 Coeff:     -0.372D-02 0.425D-02 0.206D-03-0.312D-01 0.232D+00-0.566D+00
 Coeff:     -0.398D+00 0.115D+01 0.592D-01-0.390D+01 0.510D+01-0.648D+00
 Gap=     0.099 Goal=   None    Shift=    0.200
 RMSDP=6.70D-07 MaxDP=1.11D-04 DE=-2.16D-09 OVMax= 1.76D-05

 Cycle  13  Pass 1  IDiag  1:
 E= -225.802518930802     Delta-E=       -0.000000000253 Rises=F Damp=F
 DIIS: error= 3.66D-07 at cycle  13 NSaved=  13.
 NSaved=13 IEnMin=13 EnMin= -225.802518930802     IErMin=13 ErrMin= 3.66D-07
 ErrMax= 3.66D-07  0.00D+00 EMaxC= 1.00D-01 BMatC= 1.92D-11 BMatP= 1.08D-10
 IDIUse=1 WtCom= 1.00D+00 WtEn= 0.00D+00
 Coeff-Com: -0.302D-02 0.345D-02-0.172D-03-0.938D-02 0.595D-01-0.193D+00
 Coeff-Com: -0.601D-01 0.265D+00-0.136D+00-0.154D+01 0.265D+01-0.101D+01
 Coeff-Com:  0.972D+00
 Coeff:     -0.302D-02 0.345D-02-0.172D-03-0.938D-02 0.595D-01-0.193D+00
 Coeff:     -0.601D-01 0.265D+00-0.136D+00-0.154D+01 0.265D+01-0.101D+01
 Coeff:      0.972D+00
 Gap=     0.099 Goal=   None    Shift=    0.200
 RMSDP=1.97D-07 MaxDP=2.26D-05 DE=-2.53D-10 OVMax= 8.52D-06

 Cycle  14  Pass 1  IDiag  1:
 E= -225.802518930854     Delta-E=       -0.000000000051 Rises=F Damp=F
 DIIS: error= 1.65D-07 at cycle  14 NSaved=  14.
 NSaved=14 IEnMin=14 EnMin= -225.802518930854     IErMin=14 ErrMin= 1.65D-07
 ErrMax= 1.65D-07  0.00D+00 EMaxC= 1.00D-01 BMatC= 3.86D-12 BMatP= 1.92D-11
 IDIUse=1 WtCom= 1.00D+00 WtEn= 0.00D+00
 Coeff-Com: -0.155D-02 0.178D-02-0.171D-03-0.587D-02 0.475D-01-0.112D+00
 Coeff-Com: -0.892D-01 0.267D+00 0.127D+00-0.543D+00 0.307D+00 0.376D+00
 Coeff-Com: -0.165D+01 0.227D+01
 Coeff:     -0.155D-02 0.178D-02-0.171D-03-0.587D-02 0.475D-01-0.112D+00
 Coeff:     -0.892D-01 0.267D+00 0.127D+00-0.543D+00 0.307D+00 0.376D+00
 Coeff:     -0.165D+01 0.227D+01
 Gap=     0.099 Goal=   None    Shift=    0.200
 RMSDP=5.49D-08 MaxDP=6.32D-06 DE=-5.14D-11 OVMax= 3.49D-06

 Cycle  15  Pass 1  IDiag  1:
 E= -225.802518930863     Delta-E=       -0.000000000009 Rises=F Damp=F
 DIIS: error= 7.72D-08 at cycle  15 NSaved=  15.
 NSaved=15 IEnMin=15 EnMin= -225.802518930863     IErMin=15 ErrMin= 7.72D-08
 ErrMax= 7.72D-08  0.00D+00 EMaxC= 1.00D-01 BMatC= 8.86D-13 BMatP= 3.86D-12
 IDIUse=1 WtCom= 1.00D+00 WtEn= 0.00D+00
 Coeff-Com:  0.467D-04-0.534D-04 0.103D-03-0.321D-02 0.250D-01-0.513D-01
 Coeff-Com: -0.717D-01 0.197D+00-0.680D-01-0.203D+00 0.237D+00 0.150D+00
 Coeff-Com: -0.718D+00 0.302D+00 0.120D+01
 Coeff:      0.467D-04-0.534D-04 0.103D-03-0.321D-02 0.250D-01-0.513D-01
 Coeff:     -0.717D-01 0.197D+00-0.680D-01-0.203D+00 0.237D+00 0.150D+00
 Coeff:     -0.718D+00 0.302D+00 0.120D+01
 Gap=     0.099 Goal=   None    Shift=    0.200
 RMSDP=3.02D-08 MaxDP=6.32D-06 DE=-9.04D-12 OVMax= 1.68D-06

 Cycle  16  Pass 1  IDiag  1:
 E= -225.802518930865     Delta-E=       -0.000000000002 Rises=F Damp=F
 DIIS: error= 3.68D-08 at cycle  16 NSaved=  16.
 NSaved=16 IEnMin=16 EnMin= -225.802518930865     IErMin=16 ErrMin= 3.68D-08
 ErrMax= 3.68D-08  0.00D+00 EMaxC= 1.00D-01 BMatC= 2.13D-13 BMatP= 8.86D-13
 IDIUse=1 WtCom= 1.00D+00 WtEn= 0.00D+00
 Large coefficients: NSaved= 16 BigCof=    0.00 CofMax=   10.00 Det=-5.55D-15
 Inversion failed.  Reducing to 15 matrices.
 Coeff-Com:  0.850D-10-0.102D-04 0.204D-03-0.772D-03-0.185D-02 0.833D-02
 Coeff-Com: -0.660D-02-0.681D-02-0.213D-01 0.337D-01 0.235D-01-0.506D-01
 Coeff-Com:  0.399D+00-0.193D+01 0.255D+01
 Coeff:      0.850D-10-0.102D-04 0.204D-03-0.772D-03-0.185D-02 0.833D-02
 Coeff:     -0.660D-02-0.681D-02-0.213D-01 0.337D-01 0.235D-01-0.506D-01
 Coeff:      0.399D+00-0.193D+01 0.255D+01
 Gap=     0.099 Goal=   None    Shift=    0.200
 RMSDP=9.26D-09 MaxDP=1.14D-06 DE=-2.36D-12 OVMax= 8.26D-07

 Cycle  17  Pass 1  IDiag  1:
 E= -225.802518930866     Delta-E=       -0.000000000001 Rises=F Damp=F
 DIIS: error= 1.94D-08 at cycle  17 NSaved=  16.
 NSaved=16 IEnMin=16 EnMin= -225.802518930866     IErMin=16 ErrMin= 1.94D-08
 ErrMax= 1.94D-08  0.00D+00 EMaxC= 1.00D-01 BMatC= 6.76D-14 BMatP= 2.13D-13
 IDIUse=1 WtCom= 1.00D+00 WtEn= 0.00D+00
 Large coefficients: NSaved= 16 BigCof=    0.00 CofMax=   10.00 Det=-4.55D-16
 Inversion failed.  Reducing to 15 matrices.
 Coeff-Com: -0.497D-05 0.387D-04 0.533D-03-0.502D-02 0.794D-02-0.295D-02
 Coeff-Com:  0.806D-02-0.300D-01 0.202D-01 0.103D-01-0.206D-01 0.238D+00
 Coeff-Com: -0.880D+00 0.188D+00 0.147D+01
 Coeff:     -0.497D-05 0.387D-04 0.533D-03-0.502D-02 0.794D-02-0.295D-02
 Coeff:      0.806D-02-0.300D-01 0.202D-01 0.103D-01-0.206D-01 0.238D+00
 Coeff:     -0.880D+00 0.188D+00 0.147D+01
 Gap=     0.099 Goal=   None    Shift=    0.200
 RMSDP=4.85D-09 MaxDP=5.66D-07 DE=-7.96D-13 OVMax= 4.80D-07

 SCF Done:  E(ROHF) =  -225.802518931     A.U. after   17 cycles
            NFock= 17  Conv=0.49D-08     -V/T= 2.4983
 <Sx>= 0.0000 <Sy>= 0.0000 <Sz>= 0.5000 <S**2>= 0.7500 S= 0.5000
 <L.S>=  0.00000000000    
 KE= 1.507059108737D+02 PE=-5.709682408556D+02 EE= 1.878450959145D+02
 Annihilation of the first spin contaminant:
 S**2 before annihilation     0.7500,   after     0.7500
 Leave Link  502 at Sat Apr 21 11:00:56 2018, MaxMem= 10737418240 cpu:            1358.8 elap:              48.9
 (Enter /home1/apps/gaussian/16rA.03/g16/l801.exe)
 Windowed orbitals will be sorted by symmetry type.
 GenMOA:  NOpAll=  4 NOp2=4 NOpUse=  4 JSym2X=1
 FoFJK:  IHMeth= 1 ICntrl=       0 DoSepK=F KAlg= 0 I1Cent=           0 FoldK=F
 IRaf=         0 NMat=       1 IRICut=       1 DoRegI=T DoRafI=F ISym2E= 1 IDoP0=0 IntGTp=1.
 FoFCou: FMM=F IPFlag=           8 FMFlag=      100000 FMFlg1=           0
         NFxFlg=           0 DoJE=F BraDBF=F KetDBF=F FulRan=T
         wScrn=  0.000000 ICntrl=         0 IOpCl=  1 I1Cent=           0 NGrid=           0
         NMat0=    1 NMatS0=      1 NMatT0=    0 NMatD0=    1 NMtDS0=    0 NMtDT0=    0
 Petite list used in FoFCou.
 <Sx>= 0.0000 <Sy>= 0.0000 <Sz>= 0.5000 <S**2>= 0.7500 S= 0.5000
 Range of M.O.s used for correlation:     1   306
 NBasis=   310 NAE=    11 NBE=    10 NFC=     0 NFV=     0
 NROrb=    306 NOA=    11 NOB=    10 NVA=   295 NVB=   296

 **** Warning!!: The largest alpha MO coefficient is  0.15516804D+03


 **** Warning!!: The largest beta MO coefficient is  0.15516773D+03

 Singles contribution to E2=   -0.1066885008D-02
 Leave Link  801 at Sat Apr 21 11:01:09 2018, MaxMem= 10737418240 cpu:             422.6 elap:              13.2
 (Enter /home1/apps/gaussian/16rA.03/g16/l804.exe)
 Open-shell transformation, MDV= 10737418240 ITran=4 ISComp=2.
 Unit  1 TFree=       2912892 TCopy=       2133986.
 Semi-Direct transformation.
 ModeAB=           2 MOrb=            11 LenV=   10734514817
 LASXX=     39182606 LTotXX=    39182606 LenRXX=    39182606
 LTotAB=    39699063 MaxLAS=   272656098 LenRXY=   272656098
 NonZer=   277570458 LenScr=   417988608 LnRSAI=           0
 LnScr1=           0 LExtra=    16204701 Total=    746032013
 MaxDsk= 67108864000 SrtSym=           F ITran=            4
 DoSDTr:  NPSUse= 32
 JobTyp=1 Pass  1:  I=   1 to  11.
 (rs|ai) integrals will be sorted in core.
 Complete sort for first half transformation.
 First half transformation complete.
 Begin second half transformation for I=  10.
 Begin second half transformation for I=  10.
 Complete sort for second half transformation.
 Second half transformation complete.
 ModeAB=           2 MOrb=            10 LenV=   10734514817
 LASXX=     35609842 LTotXX=    35609842 LenRXX=   247869180
 LTotAB=    33495734 MaxLAS=   247869180 LenRXY=    33495734
 NonZer=   252336780 LenScr=   379990016 LnRSAI=           0
 LnScr1=           0 LExtra=   328043405 Total=    989398335
 MaxDsk= 67108864000 SrtSym=           F ITran=            4
 DoSDTr:  NPSUse= 32
 JobTyp=2 Pass  1:  I=   1 to  10.
 (rs|ai) integrals will be sorted in core.
 Complete sort for first half transformation.
 First half transformation complete.
 Begin second half transformation for I=  10.
 Begin second half transformation for I=  10.
 Complete sort for second half transformation.
 Second half transformation complete.
 Spin components of T(2) and E(2):
     alpha-alpha T2 =       0.1836152449D-01 E2=     -0.1670394408D+00
     alpha-beta  T2 =       0.7921410696D-01 E2=     -0.7596086179D+00
     beta-beta   T2 =       0.1565952135D-01 E2=     -0.1580207192D+00
 ANorm=    0.1055644213D+01
 E2 =    -0.1085735663D+01 EUMP2 =    -0.22688825459374D+03
 (S**2,0)=  0.75000D+00           (S**2,1)=  0.75000D+00
 E(PUHF)=      -0.22580251893D+03        E(PMP2)=      -0.22688825459D+03
 Leave Link  804 at Sat Apr 21 11:10:38 2018, MaxMem= 10737418240 cpu:           18182.8 elap:             568.7
 (Enter /home1/apps/gaussian/16rA.03/g16/l913.exe)
 CIDS:  MDV= 10737418240.
 IFCWin=0 IBDFC=1 NFBD=     0     0 NFCmp=     0     0 NFFFC=     0     0
 Using original routines for 1st iteration.
 Using DD4UQ or CC4UQ for 2nd and later iterations.
 Keep R2 and R3 ints in memory in symmetry-blocked form, NReq=1456570172.
 FoFCou: FMM=F IPFlag=           8 FMFlag=           0 FMFlg1=           0
         NFxFlg=           0 DoJE=F BraDBF=F KetDBF=F FulRan=T
         wScrn=  0.000000 ICntrl=       600 IOpCl=  0 I1Cent=           0 NGrid=           0
         NMat0=    1 NMatS0=  48205 NMatT0=    0 NMatD0=    1 NMtDS0=    0 NMtDT0=    0
 Petite list used in FoFCou.
 CIDS: In Core Option IDoMem=           1.
 CCSD(T)
 =======
 Iterations= 150 Convergence= 0.100D-06
 Produce multiple copies of IABC intergrals
 Iteration Nr.   1
 **********************
 DD1Dir will call FoFMem   1 times, MxPair=       320
 NAB=   110 NAA=    55 NBB=    45.
 DD1Dir will call FoFMem   1 times, MxPair=       320
 NAB=   110 NAA=    55 NBB=    45.
 MP4(R+Q)= -0.13034624D+00
 Maximum subspace dimension=  5
 A-vector RMS=  9.4809482D-05 Max=  1.0483106D-03 conv= 1.00D-05.
 RLE energy=       -1.0906573924
 E3=        0.12540270D+00        EROMP3=      -0.22676285190D+03
 E4(SDQ)=  -0.77446904D-01        ROMP4(SDQ)=  -0.22684029880D+03
 VARIATIONAL ENERGIES WITH THE FIRST-ORDER WAVEFUNCTION:
 DE(Corr)=  -1.0906355     E(Corr)=     -226.89315445    
 NORM(A)=   0.10555975D+01
 Iteration Nr.   2
 **********************
 DD1Dir will call FoFMem   1 times, MxPair=       320
 NAB=   110 NAA=    55 NBB=    45.
 A-vector RMS=  2.7573458D-03 Max=  2.6064675D-02 conv= 1.00D-05.
 RLE energy=       -1.0716203177
 DE(Corr)= -0.95988021     E(CORR)=     -226.76239914     Delta= 1.31D-01
 NORM(A)=   0.10534026D+01
 Iteration Nr.   3
 **********************
 DD1Dir will call FoFMem   1 times, MxPair=       320
 NAB=   110 NAA=    55 NBB=    45.
 A-vector RMS=  2.2669961D-03 Max=  2.3905176D-02 conv= 1.00D-05.
 RLE energy=       -1.0317453053
 DE(Corr)= -0.96826705     E(CORR)=     -226.77078598     Delta=-8.39D-03
 NORM(A)=   0.10534514D+01
 Iteration Nr.   4
 **********************
 DD1Dir will call FoFMem   1 times, MxPair=       320
 NAB=   110 NAA=    55 NBB=    45.
 A-vector RMS=  1.3156899D-03 Max=  1.6122652D-02 conv= 1.00D-05.
 RLE energy=       -0.9309296598
 DE(Corr)= -0.99020123     E(CORR)=     -226.79272017     Delta=-2.19D-02
 NORM(A)=   0.10870839D+01
 Iteration Nr.   5
 **********************
 DD1Dir will call FoFMem   1 times, MxPair=       320
 NAB=   110 NAA=    55 NBB=    45.
 A-vector RMS=  2.5892629D-03 Max=  2.0709907D-02 conv= 1.00D-05.
 RLE energy=       -1.0095643391
 DE(Corr)=  -1.0595952     E(CORR)=     -226.86211412     Delta=-6.94D-02
 NORM(A)=   0.10664439D+01
 Iteration Nr.   6
 **********************
 DD1Dir will call FoFMem   1 times, MxPair=       320
 NAB=   110 NAA=    55 NBB=    45.
 A-vector RMS=  1.6590655D-04 Max=  2.9398645D-03 conv= 1.00D-05.
 RLE energy=       -1.0097166234
 DE(Corr)=  -1.0099657     E(CORR)=     -226.81248459     Delta= 4.96D-02
 NORM(A)=   0.10661250D+01
 Iteration Nr.   7
 **********************
 DD1Dir will call FoFMem   1 times, MxPair=       320
 NAB=   110 NAA=    55 NBB=    45.
 A-vector RMS=  8.4287681D-05 Max=  1.8547917D-03 conv= 1.00D-05.
 RLE energy=       -1.0092188453
 DE(Corr)=  -1.0092904     E(CORR)=     -226.81180929     Delta= 6.75D-04
 NORM(A)=   0.10671987D+01
 Iteration Nr.   8
 **********************
 DD1Dir will call FoFMem   1 times, MxPair=       320
 NAB=   110 NAA=    55 NBB=    45.
 A-vector RMS=  4.5977126D-05 Max=  7.0052814D-04 conv= 1.00D-05.
 RLE energy=       -1.0094685888
 DE(Corr)=  -1.0096419     E(CORR)=     -226.81216082     Delta=-3.52D-04
 NORM(A)=   0.10674225D+01
 Iteration Nr.   9
 **********************
 DD1Dir will call FoFMem   1 times, MxPair=       320
 NAB=   110 NAA=    55 NBB=    45.
 A-vector RMS=  1.9250748D-05 Max=  2.0143881D-04 conv= 1.00D-05.
 RLE energy=       -1.0095247457
 DE(Corr)=  -1.0094941     E(CORR)=     -226.81201298     Delta= 1.48D-04
 NORM(A)=   0.10675873D+01
 Iteration Nr.  10
 **********************
 DD1Dir will call FoFMem   1 times, MxPair=       320
 NAB=   110 NAA=    55 NBB=    45.
 A-vector RMS=  7.6574454D-06 Max=  1.2408511D-04 conv= 1.00D-05.
 RLE energy=       -1.0095187541
 DE(Corr)=  -1.0095315     E(CORR)=     -226.81205038     Delta=-3.74D-05
 NORM(A)=   0.10675596D+01
 Iteration Nr.  11
 **********************
 DD1Dir will call FoFMem   1 times, MxPair=       320
 NAB=   110 NAA=    55 NBB=    45.
 A-vector RMS=  3.4681377D-06 Max=  5.4618760D-05 conv= 1.00D-05.
 RLE energy=       -1.0095132662
 DE(Corr)=  -1.0095212     E(CORR)=     -226.81204009     Delta= 1.03D-05
 NORM(A)=   0.10675327D+01
 Iteration Nr.  12
 **********************
 DD1Dir will call FoFMem   1 times, MxPair=       320
 NAB=   110 NAA=    55 NBB=    45.
 A-vector RMS=  1.3859171D-06 Max=  3.8156656D-05 conv= 1.00D-05.
 RLE energy=       -1.0095145601
 DE(Corr)=  -1.0095154     E(CORR)=     -226.81203431     Delta= 5.79D-06
 NORM(A)=   0.10675275D+01
 Iteration Nr.  13
 **********************
 DD1Dir will call FoFMem   1 times, MxPair=       320
 NAB=   110 NAA=    55 NBB=    45.
 A-vector RMS=  6.4559536D-07 Max=  1.2925755D-05 conv= 1.00D-05.
 RLE energy=       -1.0095131225
 DE(Corr)=  -1.0095137     E(CORR)=     -226.81203266     Delta= 1.64D-06
 NORM(A)=   0.10675258D+01
 Iteration Nr.  14
 **********************
 DD1Dir will call FoFMem   1 times, MxPair=       320
 NAB=   110 NAA=    55 NBB=    45.
 A-vector RMS=  4.2888334D-07 Max=  1.0135435D-05 conv= 1.00D-05.
 RLE energy=       -1.0095123876
 DE(Corr)=  -1.0095128     E(CORR)=     -226.81203175     Delta= 9.15D-07
 NORM(A)=   0.10675259D+01
 Iteration Nr.  15
 **********************
 DD1Dir will call FoFMem   1 times, MxPair=       320
 NAB=   110 NAA=    55 NBB=    45.
 A-vector RMS=  1.4400399D-07 Max=  2.3594092D-06 conv= 1.00D-05.
 RLE energy=       -1.0095133451
 DE(Corr)=  -1.0095134     E(CORR)=     -226.81203237     Delta=-6.25D-07
 NORM(A)=   0.10675270D+01
 Iteration Nr.  16
 **********************
 DD1Dir will call FoFMem   1 times, MxPair=       320
 NAB=   110 NAA=    55 NBB=    45.
 A-vector RMS=  1.0418182D-07 Max=  1.9095298D-06 conv= 1.00D-05.
 RLE energy=       -1.0095134470
 DE(Corr)=  -1.0095134     E(CORR)=     -226.81203231     Delta= 6.67D-08
 NORM(A)=   0.10675277D+01
 CI/CC converged in   16 iterations to DelEn= 6.67D-08 Conv= 1.00D-07 ErrA1= 1.04D-07 Conv= 1.00D-05
 Wavefunction amplitudes converged. E(Corr)=     -226.81203231    
 Largest amplitude= 7.73D-02
 Time for triples=   116920.90 seconds.
 T4(CCSD)= -0.31295091D-01
 T5(CCSD)=  0.30047752D-02
 CCSD(T)= -0.22684032262D+03
 Discarding MO integrals.
 Leave Link  913 at Sat Apr 21 12:23:43 2018, MaxMem= 10737418240 cpu:          138230.1 elap:            4384.9
 (Enter /home1/apps/gaussian/16rA.03/g16/l601.exe)
 Copying SCF densities to generalized density rwf, IOpCl= 0 IROHF=1.

 **********************************************************************

            Population analysis using the SCF density.

 **********************************************************************

 Orbital symmetries:
       Occupied  (SG) (PI) (PI) (SG) (DLTA) (DLTA) (SG) (PI) (PI)
                 (SG) (SG)
       Virtual   (PI) (PI) (SG) (SG) (PI) (PI) (SG) (SG) (SG) (DLTA)
                 (DLTA) (PI) (PI) (SG) (PI) (PI) (SG) (PI) (PI)
                 (SG) (SG) (PI) (PI) (DLTA) (DLTA) (SG) (DLTA)
                 (DLTA) (SG) (SG) (PI) (PI) (PI) (PI) (SG) (PI)
                 (PI) (PHI) (PHI) (DLTA) (DLTA) (SG) (PI) (PI)
                 (SG) (DLTA) (DLTA) (PI) (PI) (PHI) (PHI) (SG)
                 (DLTA) (DLTA) (SG) (SG) (PI) (PI) (DLTA) (DLTA)
                 (PI) (PI) (SG) (PI) (PI) (SG) (PI) (PI) (PHI)
                 (PHI) (SG) (DLTA) (DLTA) (SG) (PI) (PI) (DLTA)
                 (DLTA) (PI) (PI) (?A) (?A) (SG) (PHI) (PHI) (DLTA)
                 (DLTA) (SG) (PI) (PI) (SG) (SG) (PHI) (PHI) (DLTA)
                 (DLTA) (PI) (PI) (SG) (PI) (PI) (SG) (PI) (PI)
                 (PHI) (PHI) (DLTA) (DLTA) (SG) (DLTA) (DLTA) (PI)
                 (PI) (DLTA) (DLTA) (SG) (PI) (PI) (PI) (PI) (SG)
                 (SG) (SG) (?A) (?A) (PHI) (PHI) (DLTA) (DLTA)
                 (PI) (PI) (?B) (?B) (?A) (?A) (PHI) (PHI) (DLTA)
                 (DLTA) (SG) (PI) (PI) (SG) (PI) (PI) (SG) (DLTA)
                 (DLTA) (PI) (PI) (SG) (PHI) (PHI) (DLTA) (DLTA)
                 (PI) (PI) (SG) (SG) (?A) (?A) (PHI) (PHI) (DLTA)
                 (DLTA) (PI) (PI) (SG) (SG) (?B) (?B) (?A) (?A)
                 (PHI) (PHI) (DLTA) (DLTA) (PI) (PI) (SG) (DLTA)
                 (DLTA) (PI) (PI) (SG) (PI) (PI) (SG) (PHI) (PHI)
                 (DLTA) (DLTA) (PI) (PI) (SG) (SG) (?A) (?A) (PHI)
                 (PHI) (DLTA) (DLTA) (PI) (PI) (SG) (DLTA) (DLTA)
                 (PI) (PI) (SG) (?B) (?B) (?A) (?A) (PHI) (PHI)
                 (DLTA) (DLTA) (PI) (PI) (SG) (PI) (PI) (SG) (DLTA)
                 (DLTA) (PI) (PI) (SG) (SG) (PI) (PI) (SG) (SG)
                 (DLTA) (DLTA) (PI) (PI) (SG) (PI) (PI) (SG) (SG)
                 (DLTA) (DLTA) (PI) (PI) (SG) (SG) (PI) (PI) (SG)
                 (SG) (PI) (PI) (SG) (DLTA) (DLTA) (PI) (PI) (SG)
                 (SG) (PI) (PI) (SG) (DLTA) (DLTA) (PI) (PI) (SG)
                 (SG) (PI) (PI) (SG) (SG) (PI) (PI) (SG) (SG) (PI)
                 (PI) (SG) (SG) (PI) (PI) (SG) (SG) (PI) (PI) (SG)
                 (SG) (SG) (SG) (SG) (SG)
 The electronic state is 2-SG.
 Alpha  occ. eigenvalues --   -5.87755  -3.95708  -3.95708  -3.95518  -0.80061
 Alpha  occ. eigenvalues --   -0.80061  -0.79975  -0.79558  -0.79558  -0.45658
 Alpha  occ. eigenvalues --   -0.27852
 Alpha virt. eigenvalues --    0.01940   0.01940   0.02783   0.03538   0.06690
 Alpha virt. eigenvalues --    0.06690   0.07836   0.14167   0.16902   0.17923
 Alpha virt. eigenvalues --    0.17923   0.18084   0.18084   0.21122   0.23407
 Alpha virt. eigenvalues --    0.23407   0.27759   0.30599   0.30599   0.40786
 Alpha virt. eigenvalues --    0.50890   0.54564   0.54564   0.57158   0.57158
 Alpha virt. eigenvalues --    0.63784   0.68054   0.68054   0.71992   0.74683
 Alpha virt. eigenvalues --    0.76333   0.76333   0.82167   0.82167   0.93628
 Alpha virt. eigenvalues --    0.97707   0.97707   1.07742   1.07742   1.22061
 Alpha virt. eigenvalues --    1.22061   1.31191   1.45648   1.45648   1.51731
 Alpha virt. eigenvalues --    1.54530   1.54530   1.62024   1.62024   1.62546
 Alpha virt. eigenvalues --    1.62546   1.79952   1.92322   1.92322   1.93614
 Alpha virt. eigenvalues --    1.97210   2.02792   2.02792   2.51249   2.51249
 Alpha virt. eigenvalues --    2.60375   2.60375   2.60689   2.63702   2.63702
 Alpha virt. eigenvalues --    2.88776   3.09691   3.09691   3.25244   3.25244
 Alpha virt. eigenvalues --    3.27015   3.31811   3.31811   3.46984   3.58689
 Alpha virt. eigenvalues --    3.58689   3.82105   3.82105   3.82994   3.82994
 Alpha virt. eigenvalues --    3.89574   3.89574   3.94541   3.94795   3.94795
 Alpha virt. eigenvalues --    4.21344   4.21344   4.36460   4.74520   4.74520
 Alpha virt. eigenvalues --    5.09356   6.46934   6.63461   6.63461   6.70889
 Alpha virt. eigenvalues --    6.70889   6.90132   6.90132   7.08714   7.35539
 Alpha virt. eigenvalues --    7.35539   7.65317   8.18279   8.18279   8.36184
 Alpha virt. eigenvalues --    8.36184   8.40149   8.40149   8.41766   8.53692
 Alpha virt. eigenvalues --    8.53692   8.54898   8.54898   8.55946   8.55946
 Alpha virt. eigenvalues --    8.65426   8.79369   8.79369   9.00565   9.00565
 Alpha virt. eigenvalues --    9.30092   9.62671  10.36323  10.43044  10.43044
 Alpha virt. eigenvalues --   10.45711  10.45711  10.59974  10.59974  10.75947
 Alpha virt. eigenvalues --   10.75947  10.96185  10.96185  10.96744  10.96744
 Alpha virt. eigenvalues --   10.97452  10.97452  11.01866  11.01866  11.05101
 Alpha virt. eigenvalues --   11.43580  11.43580  12.11087  17.22555  17.22555
 Alpha virt. eigenvalues --   17.40804  17.44517  17.44517  17.51785  17.51785
 Alpha virt. eigenvalues --   18.07622  20.51152  20.51152  20.54945  20.54945
 Alpha virt. eigenvalues --   20.68911  20.68911  21.13534  23.25716  24.62729
 Alpha virt. eigenvalues --   24.62729  24.64451  24.64451  24.73440  24.73440
 Alpha virt. eigenvalues --   24.92457  24.92457  25.02812  26.54462  27.21968
 Alpha virt. eigenvalues --   27.21968  27.22352  27.22352  27.22783  27.22783
 Alpha virt. eigenvalues --   27.24223  27.24223  27.33403  27.33403  27.62254
 Alpha virt. eigenvalues --   32.51758  32.51758  32.57413  32.57413  32.79137
 Alpha virt. eigenvalues --   35.40821  35.40821  36.08174  49.73540  49.73540
 Alpha virt. eigenvalues --   49.76414  49.76414  49.85910  49.85910  50.17102
 Alpha virt. eigenvalues --   52.34820  55.84263  55.84263  55.85578  55.85578
 Alpha virt. eigenvalues --   55.91543  55.91543  56.04409  56.04409  56.13941
 Alpha virt. eigenvalues --   56.79991  56.79991  56.85448  56.85448  57.08083
 Alpha virt. eigenvalues --   61.53693  61.53693  61.54151  61.54151  61.54560
 Alpha virt. eigenvalues --   61.54560  61.55408  61.55408  61.59925  61.59925
 Alpha virt. eigenvalues --   61.67350  68.16799  68.16799  68.98390  95.66193
 Alpha virt. eigenvalues --   95.66193  95.71203  95.71203  95.92015 121.50288
 Alpha virt. eigenvalues --  130.11934 130.11934 131.03761 162.84443 167.15055
 Alpha virt. eigenvalues --  167.15055 167.19620 167.19620 167.39338 247.57515
 Alpha virt. eigenvalues --  247.57515 248.41965 258.02753 341.02190 341.02190
 Alpha virt. eigenvalues --  341.05902 341.05902 341.21773 457.69473 459.77410
 Alpha virt. eigenvalues --  459.77410 460.67337 796.94996 850.31215 850.31215
 Alpha virt. eigenvalues --  851.09170 854.62954 854.62954 854.65704 854.65704
 Alpha virt. eigenvalues --  854.809461460.070241617.913421617.913421618.69546
 Alpha virt. eigenvalues -- 2713.407372713.407372713.424842713.424842713.50454
 Alpha virt. eigenvalues -- 2811.896383246.124473246.124473246.857315713.92778
 Alpha virt. eigenvalues -- 7027.203087027.203087027.86679********************
 Alpha virt. eigenvalues -- **************************************************
 Alpha virt. eigenvalues -- **************************************************
 Alpha virt. eigenvalues -- **************************************************
     Molecular Orbital Coefficients:
                           6         7         8         9        10
                           O         O         O         O         O
     Eigenvalues --    -0.80061  -0.79975  -0.79558  -0.79558  -0.45658
   1 1   Zn 1S          0.00000   0.00000   0.00000   0.00000  -0.00000
   2        2S         -0.00000  -0.00000   0.00000   0.00000   0.00000
   3        3S          0.00000   0.00000   0.00000   0.00000  -0.00000
   4        4S          0.00000  -0.00000   0.00000   0.00000   0.00000
   5        5S         -0.00000   0.00000   0.00000   0.00000  -0.00000
   6        6S          0.00000  -0.00000   0.00000   0.00000   0.00000
   7        7S          0.00000   0.00000   0.00000   0.00000  -0.00000
   8        8S         -0.00000  -0.00000   0.00000   0.00000   0.00000
   9        9S          0.00000   0.00000   0.00000   0.00000  -0.00001
  10       10S         -0.00000  -0.00001   0.00000   0.00000   0.00004
  11       11S          0.00000   0.00002   0.00000   0.00000  -0.00011
  12       12S         -0.00000  -0.00004   0.00000   0.00000   0.00025
  13       13S          0.00000   0.00007   0.00000   0.00000   0.00031
  14       14S         -0.00000   0.00014   0.00000   0.00000  -0.01326
  15       15S          0.00000  -0.00028   0.00000   0.00000   0.03098
  16       16S          0.00000  -0.00538   0.00000   0.00000   0.05657
  17       17S         -0.00000   0.01797   0.00000   0.00000  -0.12304
  18       18S         -0.00000   0.01411   0.00000   0.00000  -0.17583
  19       19S          0.00000  -0.00509   0.00000   0.00000  -0.11202
  20       20S          0.00000  -0.02277   0.00000   0.00000   0.24762
  21       21S         -0.00000   0.00222   0.00000   0.00000   0.22192
  22       22S         -0.00000  -0.00679   0.00000   0.00000   0.03055
  23       23S         -0.00000   0.00251   0.00000   0.00000   0.00617
  24       24S          0.00000  -0.02001   0.00000   0.00000   0.07188
  25       25S          0.00000  -0.00002   0.00000   0.00000  -0.00771
  26       26PX         0.00000   0.00000   0.00000   0.00000   0.00000
  27       26PY         0.00000   0.00000   0.00000   0.00000   0.00000
  28       26PZ        -0.00000   0.00000   0.00000   0.00000  -0.00000
  29       27PX         0.00000   0.00000   0.00000  -0.00000   0.00000
  30       27PY         0.00000   0.00000  -0.00000   0.00000   0.00000
  31       27PZ         0.00000  -0.00000   0.00000   0.00000   0.00000
  32       28PX         0.00000   0.00000   0.00000   0.00000   0.00000
  33       28PY         0.00000   0.00000   0.00000   0.00000   0.00000
  34       28PZ        -0.00000   0.00000   0.00000   0.00000  -0.00000
  35       29PX         0.00000   0.00000   0.00000  -0.00000   0.00000
  36       29PY         0.00000   0.00000  -0.00000   0.00000   0.00000
  37       29PZ         0.00000  -0.00000   0.00000   0.00000   0.00000
  38       30PX         0.00000   0.00000   0.00000   0.00000   0.00000
  39       30PY         0.00000   0.00000   0.00000   0.00000   0.00000
  40       30PZ        -0.00000   0.00000   0.00000   0.00000  -0.00001
  41       31PX         0.00000   0.00000   0.00000  -0.00000   0.00000
  42       31PY         0.00000   0.00000  -0.00000   0.00000   0.00000
  43       31PZ         0.00000  -0.00000   0.00000   0.00000   0.00003
  44       32PX         0.00000   0.00000   0.00000   0.00000   0.00000
  45       32PY         0.00000   0.00000   0.00000   0.00000   0.00000
  46       32PZ        -0.00000   0.00001   0.00000   0.00000  -0.00010
  47       33PX         0.00000   0.00000   0.00000  -0.00001   0.00000
  48       33PY         0.00000   0.00000  -0.00001   0.00000   0.00000
  49       33PZ         0.00000  -0.00000   0.00000   0.00000   0.00053
  50       34PX         0.00000   0.00000   0.00000   0.00002   0.00000
  51       34PY         0.00000   0.00000   0.00002   0.00000   0.00000
  52       34PZ        -0.00000   0.00002   0.00000   0.00000  -0.00137
  53       35PX         0.00000   0.00000   0.00000   0.00012   0.00000
  54       35PY         0.00000   0.00000   0.00012   0.00000   0.00000
  55       35PZ         0.00000  -0.00083   0.00000   0.00000  -0.00396
  56       36PX         0.00000   0.00000   0.00000   0.00012   0.00000
  57       36PY         0.00000   0.00000   0.00012   0.00000   0.00000
  58       36PZ         0.00000  -0.00328   0.00000   0.00000   0.00095
  59       37PX         0.00000   0.00000   0.00000  -0.00032   0.00000
  60       37PY         0.00000   0.00000  -0.00032   0.00000   0.00000
  61       37PZ         0.00000   0.00216   0.00000   0.00000   0.01734
  62       38PX         0.00000   0.00000   0.00000   0.00016   0.00000
  63       38PY         0.00000   0.00000   0.00016   0.00000   0.00000
  64       38PZ         0.00000   0.00001   0.00000   0.00000   0.02444
  65       39PX         0.00000   0.00000   0.00000  -0.00141   0.00000
  66       39PY         0.00000   0.00000  -0.00141   0.00000   0.00000
  67       39PZ        -0.00000   0.00441   0.00000   0.00000   0.04176
  68       40PX         0.00000   0.00000   0.00000   0.00060   0.00000
  69       40PY         0.00000   0.00000   0.00060   0.00000   0.00000
  70       40PZ        -0.00000   0.00094   0.00000   0.00000   0.00597
  71       41PX         0.00000   0.00000   0.00000   0.00074   0.00000
  72       41PY         0.00000   0.00000   0.00074   0.00000   0.00000
  73       41PZ         0.00000  -0.00249   0.00000   0.00000  -0.08181
  74       42PX         0.00000   0.00000   0.00000   0.00031   0.00000
  75       42PY         0.00000   0.00000   0.00031   0.00000   0.00000
  76       42PZ         0.00000  -0.00751   0.00000   0.00000  -0.08154
  77       43PX         0.00000   0.00000   0.00000   0.00035   0.00000
  78       43PY         0.00000   0.00000   0.00035   0.00000   0.00000
  79       43PZ         0.00000  -0.00114   0.00000   0.00000  -0.01024
  80       44PX         0.00000   0.00000   0.00000  -0.00005   0.00000
  81       44PY         0.00000   0.00000  -0.00005   0.00000   0.00000
  82       44PZ        -0.00000   0.00300   0.00000   0.00000  -0.00357
  83       45PX         0.00000   0.00000   0.00000  -0.00100   0.00000
  84       45PY         0.00000   0.00000  -0.00100   0.00000   0.00000
  85       45PZ        -0.00000   0.00186   0.00000   0.00000   0.01266
  86       46PX         0.00000   0.00000   0.00000  -0.00006   0.00000
  87       46PY         0.00000   0.00000  -0.00006   0.00000   0.00000
  88       46PZ         0.00000   0.00030   0.00000   0.00000   0.00101
  89       47D 0       -0.00000  -0.00000   0.00000   0.00000   0.00000
  90       47D+1        0.00000   0.00000   0.00000  -0.00000   0.00000
  91       47D-1        0.00000   0.00000  -0.00000   0.00000   0.00000
  92       47D+2       -0.00000  -0.00000   0.00000   0.00000   0.00000
  93       47D-2        0.00000   0.00000   0.00000   0.00000   0.00000
  94       48D 0        0.00000   0.00001   0.00000   0.00000  -0.00000
  95       48D+1        0.00000   0.00000   0.00000   0.00001   0.00000
  96       48D-1        0.00000   0.00000   0.00001   0.00000   0.00000
  97       48D+2        0.00001   0.00000   0.00000   0.00000  -0.00000
  98       48D-2        0.00000   0.00000   0.00000   0.00000   0.00000
  99       49D 0       -0.00000   0.00222   0.00000   0.00000  -0.00032
 100       49D+1        0.00000   0.00000   0.00000   0.00225   0.00000
 101       49D-1        0.00000   0.00000   0.00225   0.00000   0.00000
 102       49D+2        0.00225   0.00000   0.00000   0.00000   0.00000
 103       49D-2        0.00000   0.00000   0.00000   0.00000   0.00000
 104       50D 0       -0.00000   0.03053   0.00000   0.00000  -0.00440
 105       50D+1        0.00000   0.00000   0.00000   0.03104   0.00000
 106       50D-1        0.00000   0.00000   0.03104   0.00000   0.00000
 107       50D+2        0.03104   0.00000   0.00000   0.00000   0.00000
 108       50D-2        0.00000   0.00000   0.00000   0.00000   0.00000
 109       51D 0       -0.00000   0.11610   0.00000   0.00000  -0.01665
 110       51D+1        0.00000   0.00000   0.00000   0.11783   0.00000
 111       51D-1        0.00000   0.00000   0.11783   0.00000   0.00000
 112       51D+2        0.11781   0.00000   0.00000   0.00000   0.00000
 113       51D-2        0.00000   0.00000   0.00000   0.00000   0.00000
 114       52D 0       -0.00000   0.25353   0.00000   0.00000  -0.03530
 115       52D+1        0.00000   0.00000   0.00000   0.25509   0.00000
 116       52D-1        0.00000   0.00000   0.25509   0.00000   0.00000
 117       52D+2        0.25508  -0.00000   0.00000   0.00000   0.00000
 118       52D-2        0.00000   0.00000   0.00000   0.00000   0.00000
 119       53D 0       -0.00000   0.29201   0.00000   0.00000  -0.04108
 120       53D+1        0.00000   0.00000   0.00000   0.29514   0.00000
 121       53D-1        0.00000   0.00000   0.29514   0.00000   0.00000
 122       53D+2        0.29512   0.00000   0.00000   0.00000   0.00000
 123       53D-2        0.00000   0.00000   0.00000   0.00000   0.00000
 124       54D 0       -0.00000   0.29467   0.00000   0.00000  -0.04262
 125       54D+1        0.00000   0.00000   0.00000   0.30007   0.00000
 126       54D-1        0.00000   0.00000   0.30007   0.00000   0.00000
 127       54D+2        0.30000   0.00000   0.00000   0.00000  -0.00000
 128       54D-2        0.00000   0.00000   0.00000   0.00000   0.00000
 129       55D 0       -0.00000   0.24535   0.00000   0.00000  -0.03222
 130       55D+1        0.00000   0.00000   0.00000   0.24783   0.00000
 131       55D-1        0.00000   0.00000   0.24783   0.00000   0.00000
 132       55D+2        0.24880   0.00000   0.00000   0.00000   0.00000
 133       55D-2        0.00000   0.00000   0.00000   0.00000   0.00000
 134       56D 0       -0.00000   0.13899   0.00000   0.00000  -0.00985
 135       56D+1        0.00000   0.00000   0.00000   0.14000   0.00000
 136       56D-1        0.00000   0.00000   0.14000   0.00000   0.00000
 137       56D+2        0.14067   0.00000   0.00000   0.00000  -0.00000
 138       56D-2        0.00000   0.00000   0.00000   0.00000   0.00000
 139       57D 0       -0.00000   0.03846   0.00000   0.00000   0.00750
 140       57D+1        0.00000   0.00000   0.00000   0.03699   0.00000
 141       57D-1        0.00000   0.00000   0.03699   0.00000   0.00000
 142       57D+2        0.03541  -0.00000   0.00000   0.00000   0.00000
 143       57D-2        0.00000   0.00000   0.00000   0.00000   0.00000
 144       58D 0        0.00000  -0.04248   0.00000   0.00000   0.00540
 145       58D+1        0.00000   0.00000   0.00000  -0.04169   0.00000
 146       58D-1        0.00000   0.00000  -0.04169   0.00000   0.00000
 147       58D+2       -0.04168   0.00000   0.00000   0.00000  -0.00000
 148       58D-2        0.00000   0.00000   0.00000   0.00000   0.00000
 149       59D 0        0.00000  -0.02878   0.00000   0.00000   0.00300
 150       59D+1        0.00000   0.00000   0.00000  -0.02690   0.00000
 151       59D-1        0.00000   0.00000  -0.02690   0.00000   0.00000
 152       59D+2       -0.02690   0.00000   0.00000   0.00000  -0.00000
 153       59D-2        0.00000   0.00000   0.00000   0.00000   0.00000
 154       60D 0       -0.00000   0.00099   0.00000   0.00000   0.00496
 155       60D+1        0.00000   0.00000   0.00000   0.00055   0.00000
 156       60D-1        0.00000   0.00000   0.00055   0.00000   0.00000
 157       60D+2        0.00015   0.00000   0.00000   0.00000  -0.00000
 158       60D-2        0.00000   0.00000   0.00000   0.00000   0.00000
 159       61F 0       -0.00000   0.00007   0.00000   0.00000  -0.00005
 160       61F+1        0.00000   0.00000   0.00000   0.00008   0.00000
 161       61F-1        0.00000   0.00000   0.00008   0.00000   0.00000
 162       61F+2        0.00006   0.00000   0.00000   0.00000  -0.00000
 163       61F-2        0.00000   0.00000   0.00000   0.00000   0.00000
 164       61F+3        0.00000   0.00000   0.00000   0.00000   0.00000
 165       61F-3        0.00000   0.00000   0.00000   0.00000   0.00000
 166       62F 0       -0.00000   0.00012   0.00000   0.00000  -0.00022
 167       62F+1        0.00000   0.00000   0.00000   0.00016   0.00000
 168       62F-1        0.00000   0.00000   0.00016   0.00000   0.00000
 169       62F+2        0.00014  -0.00000   0.00000   0.00000   0.00000
 170       62F-2        0.00000   0.00000   0.00000   0.00000   0.00000
 171       62F+3        0.00000   0.00000   0.00000   0.00000   0.00000
 172       62F-3        0.00000   0.00000   0.00000   0.00000   0.00000
 173       63F 0       -0.00000   0.00046   0.00000   0.00000  -0.00049
 174       63F+1        0.00000   0.00000   0.00000   0.00048   0.00000
 175       63F-1        0.00000   0.00000   0.00048   0.00000   0.00000
 176       63F+2        0.00033   0.00000   0.00000   0.00000  -0.00000
 177       63F-2        0.00000   0.00000   0.00000   0.00000   0.00000
 178       63F+3        0.00000   0.00000   0.00000   0.00000   0.00000
 179       63F-3        0.00000   0.00000   0.00000   0.00000   0.00000
 180       64F 0        0.00000   0.00032   0.00000   0.00000  -0.00341
 181       64F+1        0.00000   0.00000   0.00000   0.00101   0.00000
 182       64F-1        0.00000   0.00000   0.00101   0.00000   0.00000
 183       64F+2        0.00085  -0.00000   0.00000   0.00000   0.00000
 184       64F-2        0.00000   0.00000   0.00000   0.00000   0.00000
 185       64F+3        0.00000   0.00000   0.00000   0.00000   0.00000
 186       64F-3        0.00000   0.00000  -0.00000   0.00000   0.00000
 187       65F 0        0.00000  -0.00046   0.00000   0.00000  -0.00396
 188       65F+1        0.00000   0.00000   0.00000  -0.00008   0.00000
 189       65F-1        0.00000   0.00000  -0.00008   0.00000   0.00000
 190       65F+2        0.00038   0.00000   0.00000   0.00000  -0.00000
 191       65F-2        0.00000   0.00000   0.00000   0.00000   0.00000
 192       65F+3        0.00000   0.00000   0.00000   0.00000   0.00000
 193       65F-3        0.00000   0.00000  -0.00000   0.00000   0.00000
 194       66G 0        0.00000  -0.00004   0.00000   0.00000   0.00000
 195       66G+1        0.00000   0.00000   0.00000  -0.00004   0.00000
 196       66G-1        0.00000   0.00000  -0.00004   0.00000   0.00000
 197       66G+2       -0.00002  -0.00000   0.00000   0.00000   0.00000
 198       66G-2        0.00000   0.00000   0.00000   0.00000   0.00000
 199       66G+3        0.00000   0.00000   0.00000  -0.00000   0.00000
 200       66G-3        0.00000   0.00000   0.00000   0.00000   0.00000
 201       66G+4        0.00000  -0.00000   0.00000   0.00000   0.00000
 202       66G-4        0.00000   0.00000   0.00000   0.00000   0.00000
 203       67G 0        0.00000  -0.00011   0.00000   0.00000   0.00005
 204       67G+1        0.00000   0.00000   0.00000  -0.00010   0.00000
 205       67G-1        0.00000   0.00000  -0.00010   0.00000   0.00000
 206       67G+2       -0.00008  -0.00000   0.00000   0.00000   0.00000
 207       67G-2        0.00000   0.00000   0.00000   0.00000   0.00000
 208       67G+3        0.00000   0.00000   0.00000  -0.00000   0.00000
 209       67G-3        0.00000   0.00000  -0.00000   0.00000   0.00000
 210       67G+4        0.00000  -0.00000   0.00000   0.00000   0.00000
 211       67G-4        0.00000   0.00000   0.00000   0.00000   0.00000
 212       68G 0        0.00000  -0.00016   0.00000   0.00000   0.00006
 213       68G+1        0.00000   0.00000   0.00000  -0.00017   0.00000
 214       68G-1        0.00000   0.00000  -0.00017   0.00000   0.00000
 215       68G+2       -0.00007  -0.00000   0.00000   0.00000   0.00000
 216       68G-2        0.00000   0.00000   0.00000   0.00000   0.00000
 217       68G+3        0.00000   0.00000   0.00000  -0.00000   0.00000
 218       68G-3        0.00000   0.00000  -0.00000   0.00000   0.00000
 219       68G+4       -0.00000  -0.00000   0.00000   0.00000   0.00000
 220       68G-4        0.00000   0.00000   0.00000   0.00000   0.00000
 221       69G 0        0.00000  -0.00075   0.00000   0.00000   0.00103
 222       69G+1        0.00000   0.00000   0.00000  -0.00087   0.00000
 223       69G-1        0.00000   0.00000  -0.00087   0.00000   0.00000
 224       69G+2       -0.00081   0.00000   0.00000   0.00000  -0.00000
 225       69G-2        0.00000   0.00000   0.00000   0.00000   0.00000
 226       69G+3        0.00000   0.00000   0.00000  -0.00000   0.00000
 227       69G-3        0.00000   0.00000  -0.00000   0.00000   0.00000
 228       69G+4        0.00000   0.00000   0.00000   0.00000  -0.00000
 229       69G-4        0.00000   0.00000   0.00000   0.00000   0.00000
 230       70H 0        0.00000  -0.00000   0.00000   0.00000  -0.00000
 231       70H+1        0.00000   0.00000   0.00000   0.00000   0.00000
 232       70H-1        0.00000   0.00000   0.00000   0.00000   0.00000
 233       70H+2        0.00000  -0.00000   0.00000   0.00000   0.00000
 234       70H-2        0.00000   0.00000   0.00000   0.00000   0.00000
 235       70H+3        0.00000   0.00000   0.00000  -0.00000   0.00000
 236       70H-3        0.00000   0.00000  -0.00000   0.00000   0.00000
 237       70H+4       -0.00000   0.00000   0.00000   0.00000  -0.00000
 238       70H-4        0.00000   0.00000   0.00000   0.00000   0.00000
 239       70H+5        0.00000   0.00000   0.00000   0.00000   0.00000
 240       70H-5        0.00000   0.00000   0.00000   0.00000   0.00000
 241       71H 0       -0.00000   0.00004   0.00000   0.00000  -0.00000
 242       71H+1        0.00000   0.00000   0.00000   0.00003   0.00000
 243       71H-1        0.00000   0.00000   0.00003   0.00000   0.00000
 244       71H+2        0.00001   0.00000   0.00000   0.00000  -0.00000
 245       71H-2        0.00000   0.00000   0.00000   0.00000   0.00000
 246       71H+3        0.00000   0.00000   0.00000   0.00000   0.00000
 247       71H-3        0.00000   0.00000   0.00000   0.00000   0.00000
 248       71H+4       -0.00000  -0.00000   0.00000   0.00000   0.00000
 249       71H-4        0.00000   0.00000   0.00000   0.00000   0.00000
 250       71H+5        0.00000   0.00000   0.00000  -0.00000   0.00000
 251       71H-5        0.00000   0.00000  -0.00000   0.00000   0.00000
 252       72H 0       -0.00000  -0.00007   0.00000   0.00000  -0.00005
 253       72H+1        0.00000   0.00000   0.00000  -0.00004   0.00000
 254       72H-1        0.00000   0.00000  -0.00004   0.00000   0.00000
 255       72H+2        0.00001  -0.00000   0.00000   0.00000   0.00000
 256       72H-2        0.00000   0.00000   0.00000   0.00000   0.00000
 257       72H+3        0.00000   0.00000   0.00000   0.00000   0.00000
 258       72H-3        0.00000   0.00000  -0.00000   0.00000   0.00000
 259       72H+4        0.00000   0.00000   0.00000   0.00000  -0.00000
 260       72H-4        0.00000   0.00000   0.00000   0.00000   0.00000
 261       72H+5        0.00000   0.00000   0.00000   0.00000   0.00000
 262       72H-5        0.00000   0.00000   0.00000   0.00000   0.00000
 263 2   H  1S         -0.00000   0.00007   0.00000   0.00000   0.00032
 264        2S         -0.00000   0.00247   0.00000   0.00000   0.01162
 265        3S         -0.00000   0.01062   0.00000   0.00000   0.05183
 266        4S         -0.00000   0.03311   0.00000   0.00000   0.16018
 267        5S         -0.00000   0.04393   0.00000   0.00000   0.30089
 268        6S          0.00000   0.01119   0.00000   0.00000   0.20491
 269        7S          0.00000   0.00154   0.00000   0.00000   0.01614
 270        8PX         0.00000   0.00000   0.00000  -0.00039   0.00000
 271        8PY         0.00000   0.00000  -0.00039   0.00000   0.00000
 272        8PZ        -0.00000   0.00129   0.00000   0.00000   0.00122
 273        9PX         0.00000   0.00000   0.00000  -0.00214   0.00000
 274        9PY         0.00000   0.00000  -0.00214   0.00000   0.00000
 275        9PZ        -0.00000   0.00428   0.00000   0.00000   0.00854
 276       10PX         0.00000   0.00000   0.00000  -0.00179   0.00000
 277       10PY         0.00000   0.00000  -0.00179   0.00000   0.00000
 278       10PZ        -0.00000   0.00692   0.00000   0.00000   0.02279
 279       11PX         0.00000   0.00000   0.00000  -0.00056   0.00000
 280       11PY         0.00000   0.00000  -0.00056   0.00000   0.00000
 281       11PZ         0.00000  -0.00056   0.00000   0.00000   0.00722
 282       12D 0       -0.00000   0.00056   0.00000   0.00000   0.00029
 283       12D+1        0.00000   0.00000   0.00000  -0.00031   0.00000
 284       12D-1        0.00000   0.00000  -0.00031   0.00000   0.00000
 285       12D+2        0.00004  -0.00000   0.00000   0.00000   0.00000
 286       12D-2        0.00000   0.00000   0.00000   0.00000   0.00000
 287       13D 0       -0.00000   0.00143   0.00000   0.00000   0.00289
 288       13D+1        0.00000   0.00000   0.00000  -0.00074   0.00000
 289       13D-1        0.00000   0.00000  -0.00074   0.00000   0.00000
 290       13D+2        0.00024   0.00000   0.00000   0.00000  -0.00000
 291       13D-2        0.00000   0.00000   0.00000   0.00000   0.00000
 292       14D 0       -0.00000   0.00087   0.00000   0.00000  -0.00044
 293       14D+1        0.00000   0.00000   0.00000   0.00010   0.00000
 294       14D-1        0.00000   0.00000   0.00010   0.00000   0.00000
 295       14D+2       -0.00039   0.00000   0.00000   0.00000  -0.00000
 296       14D-2        0.00000   0.00000   0.00000   0.00000   0.00000
 297       15F 0       -0.00000   0.00036   0.00000   0.00000   0.00032
 298       15F+1        0.00000   0.00000   0.00000  -0.00028   0.00000
 299       15F-1        0.00000   0.00000  -0.00028   0.00000   0.00000
 300       15F+2        0.00010  -0.00000   0.00000   0.00000   0.00000
 301       15F-2        0.00000   0.00000   0.00000   0.00000   0.00000
 302       15F+3        0.00000   0.00000   0.00000  -0.00000   0.00000
 303       15F-3        0.00000   0.00000   0.00000   0.00000   0.00000
 304       16F 0        0.00000  -0.00005   0.00000   0.00000   0.00005
 305       16F+1        0.00000   0.00000   0.00000   0.00010   0.00000
 306       16F-1        0.00000   0.00000   0.00010   0.00000   0.00000
 307       16F+2       -0.00026   0.00000   0.00000   0.00000  -0.00000
 308       16F-2        0.00000   0.00000   0.00000   0.00000   0.00000
 309       16F+3        0.00000   0.00000   0.00000   0.00000   0.00000
 310       16F-3        0.00000   0.00000  -0.00000   0.00000   0.00000
                          11        12        13        14        15
                           O         V         V         V         V
     Eigenvalues --    -0.27852   0.01940   0.01940   0.02783   0.03538
   1 1   Zn 1S         -0.00000   0.00000   0.00000  -0.00000  -0.00000
   2        2S          0.00000   0.00000   0.00000   0.00000   0.00000
   3        3S         -0.00000   0.00000   0.00000  -0.00000  -0.00000
   4        4S          0.00000   0.00000   0.00000   0.00000   0.00000
   5        5S         -0.00000   0.00000   0.00000  -0.00000  -0.00000
   6        6S          0.00000   0.00000   0.00000   0.00000   0.00000
   7        7S         -0.00000   0.00000   0.00000  -0.00000  -0.00000
   8        8S          0.00000   0.00000   0.00000   0.00001   0.00001
   9        9S         -0.00001   0.00000   0.00000  -0.00002  -0.00002
  10       10S          0.00002   0.00000   0.00000   0.00004   0.00005
  11       11S         -0.00006   0.00000   0.00000  -0.00011  -0.00014
  12       12S          0.00013   0.00000   0.00000   0.00027   0.00033
  13       13S          0.00056   0.00000   0.00000  -0.00079  -0.00088
  14       14S         -0.01376   0.00000   0.00000   0.00485   0.00453
  15       15S          0.03250   0.00000   0.00000  -0.01209  -0.01147
  16       16S          0.04201   0.00000   0.00000   0.02297   0.03157
  17       17S         -0.07556   0.00000   0.00000  -0.09125  -0.11638
  18       18S         -0.15055   0.00000   0.00000  -0.01426  -0.03414
  19       19S         -0.13570   0.00000   0.00000   0.05919   0.06575
  20       20S          0.23720   0.00000   0.00000  -0.20174  -0.18193
  21       21S          0.51628   0.00000   0.00000   0.83308   0.18704
  22       22S          0.20799   0.00000   0.00000  -0.77625  -1.52343
  23       23S          0.01583   0.00000   0.00000  -0.02556  -0.02979
  24       24S          0.01315   0.00000   0.00000   0.12935   0.15781
  25       25S          0.00783   0.00000   0.00000   3.57203  -0.39777
  26       26PX         0.00000   0.00000  -0.00000   0.00000   0.00000
  27       26PY         0.00000  -0.00000   0.00000   0.00000   0.00000
  28       26PZ         0.00000   0.00000   0.00000  -0.00000  -0.00000
  29       27PX         0.00000   0.00000   0.00000   0.00000   0.00000
  30       27PY         0.00000   0.00000   0.00000   0.00000   0.00000
  31       27PZ        -0.00000   0.00000   0.00000   0.00000   0.00000
  32       28PX         0.00000   0.00000  -0.00000   0.00000   0.00000
  33       28PY         0.00000  -0.00000   0.00000   0.00000   0.00000
  34       28PZ         0.00000   0.00000   0.00000  -0.00000  -0.00000
  35       29PX         0.00000   0.00000   0.00000   0.00000   0.00000
  36       29PY         0.00000   0.00000   0.00000   0.00000   0.00000
  37       29PZ        -0.00000   0.00000   0.00000   0.00000   0.00001
  38       30PX         0.00000   0.00000  -0.00001   0.00000   0.00000
  39       30PY         0.00000  -0.00001   0.00000   0.00000   0.00000
  40       30PZ         0.00001   0.00000   0.00000  -0.00001  -0.00003
  41       31PX         0.00000   0.00000   0.00004   0.00000   0.00000
  42       31PY         0.00000   0.00004   0.00000   0.00000   0.00000
  43       31PZ        -0.00005   0.00000   0.00000   0.00003   0.00009
  44       32PX         0.00000   0.00000  -0.00009   0.00000   0.00000
  45       32PY         0.00000  -0.00009   0.00000   0.00000   0.00000
  46       32PZ         0.00017   0.00000   0.00000  -0.00010  -0.00028
  47       33PX         0.00000   0.00000   0.00013   0.00000   0.00000
  48       33PY         0.00000   0.00013   0.00000   0.00000   0.00000
  49       33PZ        -0.00085   0.00000   0.00000   0.00029   0.00087
  50       34PX         0.00000   0.00000  -0.00053   0.00000   0.00000
  51       34PY         0.00000  -0.00053   0.00000   0.00000   0.00000
  52       34PZ         0.00223   0.00000   0.00000  -0.00087  -0.00257
  53       35PX         0.00000   0.00000   0.00760   0.00000   0.00000
  54       35PY         0.00000   0.00760   0.00000   0.00000   0.00000
  55       35PZ         0.00495   0.00000   0.00000   0.00320   0.00803
  56       36PX         0.00000   0.00000   0.02839   0.00000   0.00000
  57       36PY         0.00000   0.02839   0.00000   0.00000   0.00000
  58       36PZ        -0.00761   0.00000   0.00000   0.01847   0.05027
  59       37PX         0.00000   0.00000  -0.01331   0.00000   0.00000
  60       37PY         0.00000  -0.01331   0.00000   0.00000   0.00000
  61       37PZ        -0.02396   0.00000   0.00000  -0.00153  -0.00212
  62       38PX         0.00000   0.00000   0.03526   0.00000   0.00000
  63       38PY         0.00000   0.03526   0.00000   0.00000   0.00000
  64       38PZ        -0.03714   0.00000   0.00000   0.03499   0.08650
  65       39PX         0.00000   0.00000  -0.04389   0.00000   0.00000
  66       39PY         0.00000  -0.04389   0.00000   0.00000   0.00000
  67       39PZ        -0.05988   0.00000   0.00000  -0.01403  -0.02365
[...]
  90       47D+1       -0.00000  -0.00000  -0.00000  -0.00000
  91       47D-1       -0.00000  -0.00000  -0.00000  -0.00000
  92       47D+2       -0.00000  -0.00000  -0.00000  -0.00000
  93       47D-2       -0.00000  -0.00000  -0.00000  -0.00000
  94       48D 0        0.00000   0.00000   0.00000   0.00000
  95       48D+1        0.00000   0.00000   0.00000   0.00000
  96       48D-1        0.00000   0.00000   0.00000   0.00000
  97       48D+2        0.00000   0.00000   0.00000   0.00000
  98       48D-2        0.00000   0.00000   0.00000   0.00000
  99       49D 0        0.00052   0.00026   0.00026   0.00000
 100       49D+1        0.00052   0.00026   0.00026   0.00000
 101       49D-1        0.00052   0.00026   0.00026   0.00000
 102       49D+2        0.00052   0.00026   0.00026   0.00000
 103       49D-2        0.00052   0.00026   0.00026   0.00000
 104       50D 0        0.01695   0.00850   0.00845   0.00005
 105       50D+1        0.01711   0.00856   0.00856   0.00000
 106       50D-1        0.01711   0.00856   0.00856   0.00000
 107       50D+2        0.01711   0.00855   0.00855   0.00000
 108       50D-2        0.01711   0.00855   0.00855   0.00000
 109       51D 0        0.11590   0.05811   0.05780   0.00031
 110       51D+1        0.11678   0.05839   0.05839   0.00000
 111       51D-1        0.11678   0.05839   0.05839   0.00000
 112       51D+2        0.11676   0.05838   0.05838   0.00000
 113       51D-2        0.11676   0.05838   0.05838   0.00000
 114       52D 0        0.36600   0.18347   0.18254   0.00093
 115       52D+1        0.36583   0.18292   0.18292   0.00000
 116       52D-1        0.36583   0.18292   0.18292   0.00000
 117       52D+2        0.36585   0.18293   0.18293   0.00000
 118       52D-2        0.36585   0.18293   0.18293   0.00000
 119       53D 0        0.51173   0.25651   0.25522   0.00129
 120       53D+1        0.51358   0.25679   0.25679   0.00000
 121       53D-1        0.51358   0.25679   0.25679   0.00000
 122       53D+2        0.51371   0.25685   0.25685   0.00000
 123       53D-2        0.51371   0.25685   0.25685   0.00000
 124       54D 0        0.53061   0.26594   0.26468   0.00126
 125       54D+1        0.53603   0.26802   0.26802   0.00000
 126       54D-1        0.53603   0.26802   0.26802   0.00000
 127       54D+2        0.53623   0.26812   0.26812   0.00000
 128       54D-2        0.53623   0.26812   0.26812   0.00000
 129       55D 0        0.37853   0.18949   0.18903   0.00046
 130       55D+1        0.37927   0.18963   0.18963   0.00000
 131       55D-1        0.37927   0.18963   0.18963   0.00000
 132       55D+2        0.38088   0.19044   0.19044   0.00000
 133       55D-2        0.38088   0.19044   0.19044   0.00000
 134       56D 0        0.15066   0.07509   0.07557  -0.00048
 135       56D+1        0.14804   0.07402   0.07402   0.00000
 136       56D-1        0.14804   0.07402   0.07402   0.00000
 137       56D+2        0.14835   0.07418   0.07418   0.00000
 138       56D-2        0.14835   0.07418   0.07418   0.00000
 139       57D 0        0.02615   0.01214   0.01401  -0.00188
 140       57D+1        0.02013   0.01007   0.01007   0.00000
 141       57D-1        0.02013   0.01007   0.01007   0.00000
 142       57D+2        0.01904   0.00952   0.00952   0.00000
 143       57D-2        0.01904   0.00952   0.00952   0.00000
 144       58D 0       -0.05614  -0.02813  -0.02801  -0.00012
 145       58D+1       -0.05483  -0.02742  -0.02742  -0.00000
 146       58D-1       -0.05483  -0.02742  -0.02742  -0.00000
 147       58D+2       -0.05484  -0.02742  -0.02742   0.00000
 148       58D-2       -0.05484  -0.02742  -0.02742  -0.00000
 149       59D 0       -0.04662  -0.02334  -0.02328  -0.00007
 150       59D+1       -0.04354  -0.02177  -0.02177  -0.00000
 151       59D-1       -0.04354  -0.02177  -0.02177  -0.00000
 152       59D+2       -0.04355  -0.02177  -0.02177  -0.00000
 153       59D-2       -0.04355  -0.02177  -0.02177  -0.00000
 154       60D 0        0.00116  -0.00010   0.00126  -0.00136
 155       60D+1        0.00012   0.00006   0.00006   0.00000
 156       60D-1        0.00012   0.00006   0.00006   0.00000
 157       60D+2        0.00003   0.00002   0.00002   0.00000
 158       60D-2        0.00003   0.00002   0.00002   0.00000
 159       61F 0        0.00000   0.00000   0.00000   0.00000
 160       61F+1        0.00000   0.00000   0.00000   0.00000
 161       61F-1        0.00000   0.00000   0.00000   0.00000
 162       61F+2        0.00000   0.00000   0.00000   0.00000
 163       61F-2        0.00000   0.00000   0.00000   0.00000
 164       61F+3        0.00000   0.00000   0.00000   0.00000
 165       61F-3       -0.00000  -0.00000  -0.00000  -0.00000
 166       62F 0        0.00000   0.00000   0.00000   0.00000
 167       62F+1        0.00000   0.00000   0.00000   0.00000
 168       62F-1        0.00000   0.00000   0.00000   0.00000
 169       62F+2        0.00000   0.00000   0.00000   0.00000
 170       62F-2        0.00000   0.00000   0.00000   0.00000
 171       62F+3       -0.00000  -0.00000  -0.00000  -0.00000
 172       62F-3       -0.00000  -0.00000  -0.00000  -0.00000
 173       63F 0        0.00001   0.00001   0.00000   0.00000
 174       63F+1        0.00000   0.00000   0.00000   0.00000
 175       63F-1        0.00000   0.00000   0.00000   0.00000
 176       63F+2        0.00000   0.00000   0.00000   0.00000
 177       63F-2        0.00000   0.00000   0.00000   0.00000
 178       63F+3       -0.00000  -0.00000  -0.00000  -0.00000
 179       63F-3       -0.00000  -0.00000  -0.00000  -0.00000
 180       64F 0        0.00041   0.00023   0.00018   0.00005
 181       64F+1        0.00000   0.00000   0.00000  -0.00000
 182       64F-1        0.00000   0.00000   0.00000   0.00000
 183       64F+2        0.00000   0.00000   0.00000   0.00000
 184       64F-2        0.00000   0.00000   0.00000   0.00000
 185       64F+3       -0.00000  -0.00000  -0.00000  -0.00000
 186       64F-3       -0.00000  -0.00000  -0.00000  -0.00000
 187       65F 0        0.00160   0.00089   0.00070   0.00019
 188       65F+1        0.00000   0.00000   0.00000   0.00000
 189       65F-1        0.00000   0.00000   0.00000   0.00000
 190       65F+2        0.00000   0.00000   0.00000   0.00000
 191       65F-2        0.00000   0.00000   0.00000   0.00000
 192       65F+3        0.00000   0.00000   0.00000   0.00000
 193       65F-3       -0.00000  -0.00000  -0.00000  -0.00000
 194       66G 0        0.00000   0.00000   0.00000   0.00000
 195       66G+1        0.00000   0.00000   0.00000   0.00000
 196       66G-1        0.00000   0.00000   0.00000   0.00000
 197       66G+2        0.00000   0.00000   0.00000   0.00000
 198       66G-2        0.00000   0.00000   0.00000   0.00000
 199       66G+3        0.00000   0.00000   0.00000   0.00000
 200       66G-3       -0.00000  -0.00000  -0.00000  -0.00000
 201       66G+4        0.00000   0.00000   0.00000   0.00000
 202       66G-4       -0.00000  -0.00000  -0.00000  -0.00000
 203       67G 0        0.00000   0.00000   0.00000   0.00000
 204       67G+1        0.00000   0.00000   0.00000   0.00000
 205       67G-1        0.00000   0.00000   0.00000   0.00000
 206       67G+2        0.00000   0.00000   0.00000   0.00000
 207       67G-2        0.00000   0.00000   0.00000   0.00000
 208       67G+3        0.00000   0.00000   0.00000   0.00000
 209       67G-3        0.00000   0.00000   0.00000   0.00000
 210       67G+4        0.00000   0.00000   0.00000   0.00000
 211       67G-4       -0.00000  -0.00000  -0.00000  -0.00000
 212       68G 0        0.00000   0.00000   0.00000   0.00000
 213       68G+1        0.00000   0.00000   0.00000  -0.00000
 214       68G-1        0.00000   0.00000   0.00000   0.00000
 215       68G+2        0.00000   0.00000   0.00000   0.00000
 216       68G-2        0.00000   0.00000   0.00000   0.00000
 217       68G+3        0.00000   0.00000   0.00000   0.00000
 218       68G-3        0.00000   0.00000   0.00000   0.00000
 219       68G+4        0.00000   0.00000   0.00000  -0.00000
 220       68G-4       -0.00000  -0.00000  -0.00000  -0.00000
 221       69G 0        0.00007   0.00004   0.00003   0.00000
 222       69G+1        0.00000   0.00000   0.00000   0.00000
 223       69G-1        0.00000   0.00000   0.00000   0.00000
 224       69G+2        0.00000   0.00000   0.00000  -0.00000
 225       69G-2        0.00000   0.00000   0.00000   0.00000
 226       69G+3        0.00000   0.00000   0.00000   0.00000
 227       69G-3       -0.00000  -0.00000  -0.00000  -0.00000
 228       69G+4       -0.00000  -0.00000  -0.00000   0.00000
 229       69G-4        0.00000   0.00000   0.00000   0.00000
 230       70H 0        0.00000   0.00000   0.00000  -0.00000
 231       70H+1        0.00000   0.00000   0.00000   0.00000
 232       70H-1        0.00000   0.00000   0.00000   0.00000
 233       70H+2        0.00000   0.00000   0.00000   0.00000
 234       70H-2        0.00000   0.00000   0.00000   0.00000
 235       70H+3        0.00000   0.00000   0.00000   0.00000
 236       70H-3        0.00000   0.00000   0.00000  -0.00000
 237       70H+4       -0.00000  -0.00000  -0.00000  -0.00000
 238       70H-4        0.00000   0.00000   0.00000   0.00000
 239       70H+5        0.00000   0.00000   0.00000   0.00000
 240       70H-5        0.00000   0.00000   0.00000   0.00000
 241       71H 0       -0.00000  -0.00000  -0.00000   0.00000
 242       71H+1       -0.00000  -0.00000  -0.00000   0.00000
 243       71H-1       -0.00000  -0.00000  -0.00000  -0.00000
 244       71H+2        0.00000   0.00000   0.00000  -0.00000
 245       71H-2        0.00000   0.00000   0.00000   0.00000
 246       71H+3        0.00000   0.00000   0.00000   0.00000
 247       71H-3        0.00000   0.00000   0.00000   0.00000
 248       71H+4        0.00000   0.00000   0.00000   0.00000
 249       71H-4        0.00000   0.00000   0.00000   0.00000
 250       71H+5        0.00000   0.00000   0.00000   0.00000
 251       71H-5        0.00000   0.00000   0.00000  -0.00000
 252       72H 0        0.00000   0.00000   0.00000   0.00000
 253       72H+1        0.00000   0.00000   0.00000   0.00000
 254       72H-1        0.00000   0.00000   0.00000   0.00000
 255       72H+2        0.00000   0.00000   0.00000   0.00000
 256       72H-2        0.00000   0.00000   0.00000   0.00000
 257       72H+3        0.00000   0.00000   0.00000   0.00000
 258       72H-3       -0.00000  -0.00000  -0.00000  -0.00000
 259       72H+4       -0.00000  -0.00000  -0.00000  -0.00000
 260       72H-4        0.00000   0.00000   0.00000   0.00000
 261       72H+5        0.00000   0.00000   0.00000   0.00000
 262       72H-5       -0.00000  -0.00000  -0.00000  -0.00000
 263 2   H  1S          0.00004   0.00002   0.00002   0.00000
 264        2S          0.00485   0.00264   0.00221   0.00043
 265        3S          0.04910   0.02673   0.02237   0.00436
 266        4S          0.25432   0.13783   0.11649   0.02134
 267        5S          0.59071   0.31729   0.27342   0.04386
 268        6S          0.37303   0.19260   0.18043   0.01217
 269        7S          0.01450   0.00507   0.00943  -0.00436
 270        8PX         0.00001   0.00001   0.00001   0.00000
 271        8PY         0.00001   0.00001   0.00001   0.00000
 272        8PZ         0.00022   0.00011   0.00011   0.00000
 273        9PX         0.00026   0.00013   0.00013   0.00000
 274        9PY         0.00026   0.00013   0.00013   0.00000
 275        9PZ         0.00284   0.00142   0.00143  -0.00001
 276       10PX         0.00041   0.00021   0.00021   0.00000
 277       10PY         0.00041   0.00021   0.00021   0.00000
 278       10PZ         0.00853   0.00378   0.00475  -0.00097
 279       11PX         0.00006   0.00003   0.00003   0.00000
 280       11PY         0.00006   0.00003   0.00003   0.00000
 281       11PZ         0.00372   0.00185   0.00187  -0.00002
 282       12D 0        0.00004   0.00002   0.00002  -0.00000
 283       12D+1        0.00001   0.00001   0.00001   0.00000
 284       12D-1        0.00001   0.00001   0.00001   0.00000
 285       12D+2        0.00000   0.00000   0.00000   0.00000
 286       12D-2        0.00000   0.00000   0.00000   0.00000
 287       13D 0        0.00053   0.00025   0.00028  -0.00003
 288       13D+1        0.00019   0.00010   0.00010   0.00000
 289       13D-1        0.00019   0.00010   0.00010   0.00000
 290       13D+2        0.00001   0.00001   0.00001   0.00000
 291       13D-2        0.00001   0.00001   0.00001   0.00000
 292       14D 0        0.00020   0.00013   0.00007   0.00006
 293       14D+1       -0.00016  -0.00008  -0.00008  -0.00000
 294       14D-1       -0.00016  -0.00008  -0.00008  -0.00000
 295       14D+2       -0.00007  -0.00003  -0.00003  -0.00000
 296       14D-2       -0.00007  -0.00003  -0.00003  -0.00000
 297       15F 0        0.00004   0.00002   0.00002  -0.00000
 298       15F+1        0.00003   0.00001   0.00001   0.00000
 299       15F-1        0.00003   0.00001   0.00001   0.00000
 300       15F+2        0.00000   0.00000   0.00000   0.00000
 301       15F-2        0.00000   0.00000   0.00000   0.00000
 302       15F+3        0.00000   0.00000   0.00000   0.00000
 303       15F-3       -0.00000  -0.00000  -0.00000  -0.00000
 304       16F 0        0.00023   0.00012   0.00011   0.00001
 305       16F+1       -0.00007  -0.00003  -0.00003  -0.00000
 306       16F-1       -0.00007  -0.00003  -0.00003  -0.00000
 307       16F+2       -0.00007  -0.00003  -0.00003   0.00000
 308       16F-2       -0.00007  -0.00003  -0.00003   0.00000
 309       16F+3       -0.00000  -0.00000  -0.00000  -0.00000
 310       16F-3       -0.00000  -0.00000  -0.00000  -0.00000
          Condensed to atoms (all electrons):
               1          2
     1  Zn  19.384331   0.311497
     2  H    0.311497   0.992675
          Atomic-Atomic Spin Densities.
               1          2
     1  Zn   0.994285  -0.071131
     2  H   -0.071131   0.147977
 Mulliken charges and spin densities:
               1          2
     1  Zn   0.304172   0.923154
     2  H   -0.304172   0.076846
 Sum of Mulliken charges =  -0.00000   1.00000
 Mulliken charges and spin densities with hydrogens summed into heavy atoms:
               1          2
     1  Zn  -0.000000   1.000000
 Electronic spatial extent (au):  <R**2>=             46.2978
 Charge=             -0.0000 electrons
 Dipole moment (field-independent basis, Debye):
    X=              0.0000    Y=              0.0000    Z=              0.7839  Tot=              0.7839
 Quadrupole moment (field-independent basis, Debye-Ang):
   XX=            -14.6315   YY=            -14.6315   ZZ=            -21.2376
   XY=              0.0000   XZ=              0.0000   YZ=              0.0000
 Traceless Quadrupole moment (field-independent basis, Debye-Ang):
   XX=              2.2020   YY=              2.2020   ZZ=             -4.4041
   XY=              0.0000   XZ=              0.0000   YZ=              0.0000
 Octapole moment (field-independent basis, Debye-Ang**2):
  XXX=              0.0000  YYY=              0.0000  ZZZ=              4.3776  XYY=              0.0000
  XXY=              0.0000  XXZ=              0.4971  XZZ=              0.0000  YZZ=              0.0000
  YYZ=              0.4971  XYZ=              0.0000
 Hexadecapole moment (field-independent basis, Debye-Ang**3):
 XXXX=            -20.2493 YYYY=            -20.2493 ZZZZ=            -69.8729 XXXY=              0.0000
 XXXZ=              0.0000 YYYX=              0.0000 YYYZ=              0.0000 ZZZX=              0.0000
 ZZZY=              0.0000 XXYY=             -6.7498 XXZZ=            -14.5174 YYZZ=            -14.5174
 XXYZ=              0.0000 YYXZ=              0.0000 ZZXY=              0.0000
 N-N= 6.614715136500D+00 E-N=-5.709682410358D+02  KE= 1.507059108737D+02
 Symmetry A1   KE= 6.277620469288D+01
 Symmetry A2   KE= 2.174845471435D+01
 Symmetry B1   KE= 3.309062573396D+01
 Symmetry B2   KE= 3.309062573418D+01
 Symmetry A1   SP= 1.000000000000D+00
 Symmetry A2   SP= 1.752304123185D-16
 Symmetry B1   SP= 3.554438776814D-16
 Symmetry B2   SP= 4.167734519074D-16
 Orbital energies and kinetic energies (alpha):
                                 1                 2
   6         O                -0.800609         10.874227
   7         O                -0.799746         10.555961
   8         O                -0.795581         10.871407
   9         O                -0.795581         10.871407
  10         O                -0.456581          0.710989
  11         O                -0.278520          0.527241
  12         V                 0.019403          0.062952
  13         V                 0.019403          0.062952
  14         V                 0.027828          0.042200
  15         V                 0.035380          0.052845
  16         V                 0.066902          0.199762
 Total kinetic energy from orbitals= 1.512331519003D+02
                          Isotropic Fermi Contact Couplings
        Atom                 a.u.       MegaHertz       Gauss      10(-4) cm-1
     1  Zn(67)             0.00002       0.00434       0.00155       0.00145
     2  H(1)               0.02923     130.64317      46.61673      43.57787
 --------------------------------------------------------
       Center         ----  Spin Dipole Couplings  ----
                      3XX-RR        3YY-RR        3ZZ-RR
 --------------------------------------------------------
     1   Atom       -0.003622     -0.003622      0.007245
     2   Atom       -0.004302     -0.004302      0.008604
 --------------------------------------------------------
                        XY            XZ            YZ
 --------------------------------------------------------
     1   Atom        0.000000      0.000000      0.000000
     2   Atom        0.000000      0.000000      0.000000
 --------------------------------------------------------


 ---------------------------------------------------------------------------------
              Anisotropic Spin Dipole Couplings in Principal Axis System
 ---------------------------------------------------------------------------------

       Atom             a.u.   MegaHertz   Gauss  10(-4) cm-1        Axes

              Baa    -0.0036    -0.121    -0.043    -0.040  1.0000  0.0000  0.0000
     1 Zn(67) Bbb    -0.0036    -0.121    -0.043    -0.040 -0.0000  1.0000  0.0000
              Bcc     0.0072     0.242     0.086     0.081  0.0000  0.0000  1.0000
 
              Baa    -0.0043    -2.295    -0.819    -0.766  1.0000  0.0000  0.0000
     2 H(1)   Bbb    -0.0043    -2.295    -0.819    -0.766 -0.0000  1.0000  0.0000
              Bcc     0.0086     4.591     1.638     1.531  0.0000  0.0000  1.0000
 

 ---------------------------------------------------------------------------------

 No NMR shielding tensors so no spin-rotation constants.
 Leave Link  601 at Sat Apr 21 12:23:52 2018, MaxMem= 10737418240 cpu:             257.8 elap:               8.4
 (Enter /home1/apps/gaussian/16rA.03/g16/l9999.exe)

 Test job not archived.
 1\1\GINC-C427-091\SP\ROCCSD(T)-Full\Gen\H1Zn1(2)\GWANG18\21-Apr-2018\0
 \\#P ROCCSD(T)=(MaxCyc=150, Full)/Gen SCF=(maxcycle=400, vshift=200) P
 seudo=Read Integral(NoXCTest) Pop=Regular MaxDisk=500GB Guess=Read IOp
 (5/15=2)\\ZnH\\0,2\Zn,0,0.,0.,0.\H,0,0.,0.,1.6\\Version=ES64L-G16RevA.
 03\State=2-SG\HF=-225.8025189\MP2=-226.8882546\MP3=-226.7628519\PUHF=-
 225.8025189\PMP2-0=-226.8882546\MP4SDQ=-226.8402988\CCSD=-226.8120323\
 CCSD(T)=-226.8403226\RMSD=4.851e-09\PG=C*V [C*(H1Zn1)]\\@


 LEARN FROM YESTERDAY,
 LIVE FOR TODAY,
 LOOK TO TOMORROW,
 REST THIS AFTERNOON.

           -- SNOOPY
 Job cpu time:       1 days 20 hours  2 minutes 49.7 seconds.
 Elapsed time:       0 days  1 hours 23 minutes 48.0 seconds.
 File lengths (MBytes):  RWF=  10433 Int=      0 D2E=      0 Chk=     12 Scr=      1
 Normal termination of Gaussian 16 at Sat Apr 21 12:23:53 2018.
