 Entering Gaussian System, Link 0=g16
 Initial command:
 /home1/apps/gaussian/16rA.03/g16/l1.exe "/tmp/Gau-131977.inp" -scrdir="/tmp/"
 Entering Link 1 = /home1/apps/gaussian/16rA.03/g16/l1.exe PID=    131978.
  
 Copyright (c) 1988,1990,1992,1993,1995,1998,2003,2009,2016,
            Gaussian, Inc.  All Rights Reserved.
  
 This is part of the Gaussian(R) 16 program.  It is based on
 the Gaussian(R) 09 system (copyright 2009, Gaussian, Inc.),
 the Gaussian(R) 03 system (copyright 2003, Gaussian, Inc.),
 the Gaussian(R) 98 system (copyright 1998, Gaussian, Inc.),
 the Gaussian(R) 94 system (copyright 1995, Gaussian, Inc.),
 the Gaussian 92(TM) system (copyright 1992, Gaussian, Inc.),
 the Gaussian 90(TM) system (copyright 1990, Gaussian, Inc.),
 the Gaussian 88(TM) system (copyright 1988, Gaussian, Inc.),
 the Gaussian 86(TM) system (copyright 1986, Carnegie Mellon
 University), and the Gaussian 82(TM) system (copyright 1983,
 Carnegie Mellon University). Gaussian is a federally registered
 trademark of Gaussian, Inc.
  
 This software contains proprietary and confidential information,
 including trade secrets, belonging to Gaussian, Inc.
  
 This software is provided under written license and may be
 used, copied, transmitted, or stored only in accord with that
 written license.
  
 The following legend is applicable only to US Government
 contracts under FAR:
  
                    RESTRICTED RIGHTS LEGEND
  
 Use, reproduction and disclosure by the US Government is
 subject to restrictions as set forth in subparagraphs (a)
 and (c) of the Commercial Computer Software - Restricted
 Rights clause in FAR 52.227-19.
  
 Gaussian, Inc.
 340 Quinnipiac St., Bldg. 40, Wallingford CT 06492
  
  
 ---------------------------------------------------------------
 Warning -- This program may not be used in any manner that
 competes with the business of Gaussian, Inc. or will provide
 assistance to any competitor of Gaussian, Inc.  The licensee
 of this program is prohibited from giving any competitor of
 Gaussian, Inc. access to this program.  By using this program,
 the user acknowledges that Gaussian, Inc. is engaged in the
 business of creating and licensing software in the field of
 computational chemistry and represents and warrants to the
 licensee that it is not a competitor of Gaussian, Inc. and that
 it will not use this program in any manner prohibited above.
 ---------------------------------------------------------------
  

 Cite this work as:
 Gaussian 16, Revision A.03,
 M. J. Frisch, G. W. Trucks, H. B. Schlegel, G. E. Scuseria, 
 M. A. Robb, J. R. Cheeseman, G. Scalmani, V. Barone, 
 G. A. Petersson, H. Nakatsuji, X. Li, M. Caricato, A. V. Marenich, 
 J. Bloino, B. G. Janesko, R. Gomperts, B. Mennucci, H. P. Hratchian, 
 J. V. Ortiz, A. F. Izmaylov, J. L. Sonnenberg, D. Williams-Young, 
 F. Ding, F. Lipparini, F. Egidi, J. Goings, B. Peng, A. Petrone, 
 T. Henderson, D. Ranasinghe, V. G. Zakrzewski, J. Gao, N. Rega, 
 G. Zheng, W. Liang, M. Hada, M. Ehara, K. Toyota, R. Fukuda, 
 J. Hasegawa, M. Ishida, T. Nakajima, Y. Honda, O. Kitao, H. Nakai, 
 T. Vreven, K. Throssell, J. A. Montgomery, Jr., J. E. Peralta, 
 F. Ogliaro, M. J. Bearpark, J. J. Heyd, E. N. Brothers, K. N. Kudin, 
 V. N. Staroverov, T. A. Keith, R. Kobayashi, J. Normand, 
 K. Raghavachari, A. P. Rendell, J. C. Burant, S. S. Iyengar, 
 J. Tomasi, M. Cossi, J. M. Millam, M. Klene, C. Adamo, R. Cammi, 
 J. W. Ochterski, R. L. Martin, K. Morokuma, O. Farkas, 
 J. B. Foresman, and D. J. Fox, Gaussian, Inc., Wallingford CT, 2016.
 
 ******************************************
 Gaussian 16:  ES64L-G16RevA.03 25-Dec-2016
                26-Feb-2018 
 ******************************************
 %MEM=64GB
 %CPU=0-15
 SetSPE:  set environment variable "MP_BIND" = "yes"
 SetSPE:  set environment variable "MP_BLIST" = "0,1,2,3,4,5,6,7,8,9,10,11,12,13,14,15"
 Will use up to   16 processors via shared memory.
 %RWF=/scratch/04843/aannabe/gaussian/
 %Int=/scratch/04843/aannabe/gaussian/
 %D2E=/scratch/04843/aannabe/gaussian/
 %NoSave
 %CHK=CrH
 ----------------------------------------------------------------------
 #P ROCCSD(T)=(maxcyc=150, Full, SaveAmplitudes, ReadAmplitudes)/Gen 5d
  7f SCF=(maxcycles=300) Integral(NoXCTest) MaxDisk=500GB Pop=Regular P
 seudo=Read Guess=Read IOp(5/15=2)
 ----------------------------------------------------------------------
 1/38=1,172=1/1;
 2/12=2,17=6,18=5,40=1/2;
 3/5=7,8=11,11=2,16=1,17=8,25=1,30=1,47=8,116=101/1,2,3;
 4/5=1/1;
 5/5=2,7=300,15=2,38=6/2;
 8/5=-1,6=4,9=120000,10=90,24=1/1,4;
 9/5=7,6=150,14=2,77=1/13;
 6//1;
 99/5=1,9=1/99;
 Leave Link    1 at Mon Feb 26 17:57:55 2018, MaxMem=  8589934592 cpu:               4.9 elap:               0.3
 (Enter /home1/apps/gaussian/16rA.03/g16/l101.exe)
 ---
 CrH
 ---
 Symbolic Z-matrix:
 Charge =  0 Multiplicity = 6
 Cr                    0.        0.        0. 
 H                     0.        0.        2. 
 
 ITRead=  0  0
 MicOpt= -1 -1
 NAtoms=      2 NQM=        2 NQMF=       0 NMMI=      0 NMMIF=      0
                NMic=       0 NMicF=      0.
                    Isotopes and Nuclear Properties:
 (Nuclear quadrupole moments (NQMom) in fm**2, nuclear magnetic moments (NMagM)
  in nuclear magnetons)

  Atom         1           2
 IAtWgt=          52           1
 AtmWgt=  51.9405097   1.0078250
 NucSpn=           0           1
 AtZEff=  -0.0000000  -0.0000000
 NQMom=    0.0000000   0.0000000
 NMagM=    0.0000000   2.7928460
 AtZNuc=  24.0000000   1.0000000
 Leave Link  101 at Mon Feb 26 17:57:55 2018, MaxMem=  8589934592 cpu:               1.5 elap:               0.1
 (Enter /home1/apps/gaussian/16rA.03/g16/l202.exe)
                          Input orientation:                          
 ---------------------------------------------------------------------
 Center     Atomic      Atomic             Coordinates (Angstroms)
 Number     Number       Type             X           Y           Z
 ---------------------------------------------------------------------
      1         24           0        0.000000    0.000000    0.000000
      2          1           0        0.000000    0.000000    2.000000
 ---------------------------------------------------------------------
 Stoichiometry    CrH(6)
 Framework group  C*V[C*(HCr)]
 Deg. of freedom     1
 Full point group                 C*V     NOp   4
 Largest Abelian subgroup         C2V     NOp   4
 Largest concise Abelian subgroup C1      NOp   1
                         Standard orientation:                         
 ---------------------------------------------------------------------
 Center     Atomic      Atomic             Coordinates (Angstroms)
 Number     Number       Type             X           Y           Z
 ---------------------------------------------------------------------
      1         24           0        0.000000    0.000000    0.080000
      2          1           0        0.000000    0.000000   -1.920000
 ---------------------------------------------------------------------
 Rotational constants (GHZ):           0.0000000         127.7962658         127.7962658
 Leave Link  202 at Mon Feb 26 17:57:56 2018, MaxMem=  8589934592 cpu:               0.4 elap:               0.1
 (Enter /home1/apps/gaussian/16rA.03/g16/l301.exe)
 General basis read from cards:  (5D, 7F)
 Centers:       1
 S 1 1.00
     Exponent=  6.1771940000D+06 Coefficients=  1.0000000000D+00
 S 1 1.00
     Exponent=  9.2492950000D+05 Coefficients=  1.0000000000D+00
 S 1 1.00
     Exponent=  2.1048650000D+05 Coefficients=  1.0000000000D+00
 S 1 1.00
     Exponent=  5.9620050000D+04 Coefficients=  1.0000000000D+00
 S 1 1.00
     Exponent=  1.9450760000D+04 Coefficients=  1.0000000000D+00
 S 1 1.00
     Exponent=  7.0220560000D+03 Coefficients=  1.0000000000D+00
 S 1 1.00
     Exponent=  2.7387630000D+03 Coefficients=  1.0000000000D+00
 S 1 1.00
     Exponent=  1.1358140000D+03 Coefficients=  1.0000000000D+00
 S 1 1.00
     Exponent=  4.9509230000D+02 Coefficients=  1.0000000000D+00
 S 1 1.00
     Exponent=  2.2474870000D+02 Coefficients=  1.0000000000D+00
 S 1 1.00
     Exponent=  1.0538360000D+02 Coefficients=  1.0000000000D+00
 S 1 1.00
     Exponent=  5.0193590000D+01 Coefficients=  1.0000000000D+00
 S 1 1.00
     Exponent=  2.2249570000D+01 Coefficients=  1.0000000000D+00
 S 1 1.00
     Exponent=  1.0982650000D+01 Coefficients=  1.0000000000D+00
 S 1 1.00
     Exponent=  5.3836650000D+00 Coefficients=  1.0000000000D+00
 S 1 1.00
     Exponent=  2.3436850000D+00 Coefficients=  1.0000000000D+00
 S 1 1.00
     Exponent=  1.1052020000D+00 Coefficients=  1.0000000000D+00
 S 1 1.00
     Exponent=  4.8784800000D-01 Coefficients=  1.0000000000D+00
 S 1 1.00
     Exponent=  8.9599000000D-02 Coefficients=  1.0000000000D+00
 S 1 1.00
     Exponent=  3.3423000000D-02 Coefficients=  1.0000000000D+00
 S 1 1.00
     Exponent=  4.8281000000D+00 Coefficients=  1.0000000000D+00
 S 1 1.00
     Exponent=  1.1499000000D+00 Coefficients=  1.0000000000D+00
 S 1 1.00
     Exponent=  1.2470000000D-02 Coefficients=  1.0000000000D+00
 P 1 1.00
     Exponent=  1.4454200000D+04 Coefficients=  1.0000000000D+00
 P 1 1.00
     Exponent=  3.4216760000D+03 Coefficients=  1.0000000000D+00
 P 1 1.00
     Exponent=  1.1113870000D+03 Coefficients=  1.0000000000D+00
 P 1 1.00
     Exponent=  4.2519180000D+02 Coefficients=  1.0000000000D+00
 P 1 1.00
     Exponent=  1.8026230000D+02 Coefficients=  1.0000000000D+00
 P 1 1.00
     Exponent=  8.2061170000D+01 Coefficients=  1.0000000000D+00
 P 1 1.00
     Exponent=  3.9297260000D+01 Coefficients=  1.0000000000D+00
 P 1 1.00
     Exponent=  1.9419590000D+01 Coefficients=  1.0000000000D+00
 P 1 1.00
     Exponent=  9.8288990000D+00 Coefficients=  1.0000000000D+00
 P 1 1.00
     Exponent=  5.0168100000D+00 Coefficients=  1.0000000000D+00
 P 1 1.00
     Exponent=  2.4870910000D+00 Coefficients=  1.0000000000D+00
 P 1 1.00
     Exponent=  1.1987800000D+00 Coefficients=  1.0000000000D+00
 P 1 1.00
     Exponent=  5.5869500000D-01 Coefficients=  1.0000000000D+00
 P 1 1.00
     Exponent=  2.0936600000D-01 Coefficients=  1.0000000000D+00
 P 1 1.00
     Exponent=  8.4722000000D-02 Coefficients=  1.0000000000D+00
 P 1 1.00
     Exponent=  3.3278000000D-02 Coefficients=  1.0000000000D+00
 P 1 1.00
     Exponent=  5.2718000000D+00 Coefficients=  1.0000000000D+00
 P 1 1.00
     Exponent=  1.2083000000D+00 Coefficients=  1.0000000000D+00
 P 1 1.00
     Exponent=  1.3070000000D-02 Coefficients=  1.0000000000D+00
 D 1 1.00
     Exponent=  8.9474500000D+01 Coefficients=  1.0000000000D+00
 D 1 1.00
     Exponent=  2.6336800000D+01 Coefficients=  1.0000000000D+00
 D 1 1.00
     Exponent=  9.5342900000D+00 Coefficients=  1.0000000000D+00
 D 1 1.00
     Exponent=  3.8211800000D+00 Coefficients=  1.0000000000D+00
 D 1 1.00
     Exponent=  1.5716900000D+00 Coefficients=  1.0000000000D+00
 D 1 1.00
     Exponent=  6.2642200000D-01 Coefficients=  1.0000000000D+00
 D 1 1.00
     Exponent=  2.3305500000D-01 Coefficients=  1.0000000000D+00
 D 1 1.00
     Exponent=  7.6303000000D-02 Coefficients=  1.0000000000D+00
 D 1 1.00
     Exponent=  3.4093000000D+00 Coefficients=  1.0000000000D+00
 D 1 1.00
     Exponent=  1.5874000000D+00 Coefficients=  1.0000000000D+00
 D 1 1.00
     Exponent=  2.4980000000D-02 Coefficients=  1.0000000000D+00
 F 1 1.00
     Exponent=  4.3629000000D+00 Coefficients=  1.0000000000D+00
 F 1 1.00
     Exponent=  1.5864000000D+00 Coefficients=  1.0000000000D+00
 F 1 1.00
     Exponent=  5.2310000000D-01 Coefficients=  1.0000000000D+00
 F 1 1.00
     Exponent=  1.7249000000D-01 Coefficients=  1.0000000000D+00
 G 1 1.00
     Exponent=  4.0406000000D+00 Coefficients=  1.0000000000D+00
 G 1 1.00
     Exponent=  1.4199000000D+00 Coefficients=  1.0000000000D+00
 G 1 1.00
     Exponent=  4.9896000000D-01 Coefficients=  1.0000000000D+00
 ****
 Centers:       2
 S 1 1.00
     Exponent=  3.3870000000D+01 Coefficients=  1.0000000000D+00
 S 1 1.00
     Exponent=  5.0950000000D+00 Coefficients=  1.0000000000D+00
 S 1 1.00
     Exponent=  1.1590000000D+00 Coefficients=  1.0000000000D+00
 S 1 1.00
     Exponent=  3.2580000000D-01 Coefficients=  1.0000000000D+00
 S 1 1.00
     Exponent=  1.0270000000D-01 Coefficients=  1.0000000000D+00
 S 1 1.00
     Exponent=  2.5260000000D-02 Coefficients=  1.0000000000D+00
 P 1 1.00
     Exponent=  1.4070000000D+00 Coefficients=  1.0000000000D+00
 P 1 1.00
     Exponent=  3.8800000000D-01 Coefficients=  1.0000000000D+00
 P 1 1.00
     Exponent=  1.0200000000D-01 Coefficients=  1.0000000000D+00
 D 1 1.00
     Exponent=  1.0570000000D+00 Coefficients=  1.0000000000D+00
 D 1 1.00
     Exponent=  2.4700000000D-01 Coefficients=  1.0000000000D+00
 ****
 ======================================================================================================
                                       Pseudopotential Parameters
 ======================================================================================================
  Center     Atomic      Valence      Angular      Power
  Number     Number     Electrons     Momentum     of R      Exponent        Coefficient   SO-Coeffient
 ======================================================================================================
    1         24           14
                                      D and up 
                                                     1       13.0767520       14.00000000    0.00000000
                                                     2       15.1580758     1258.15550380    0.00000000
                                                     2        4.6278569      -98.60998187    0.00000000
                                                     2       15.4113660    -6552.46055066    0.00000000
                                                     2       15.3869064     5353.09061557    0.00000000
                                                     3        5.2489731      183.07452839    0.00000000
                                      S - D
                                                     2        9.7768084    **************    0.00000000
                                                     2        9.9598011    96320.14803227    0.00000000
                                                     2        8.6227521     3928.31359170    0.00000000
                                                     2       12.2928814    **************    0.00000000
                                                     2       18.4131659    -1741.60409682    0.00000000
                                                     2       16.3854196     4413.26493033    0.00000000
                                      P - D
                                                     2       12.0010000    **************    0.00000000
                                                     2       11.4652444    21551.07876111    0.00000000
                                                     2       16.2385223     3703.78784703    0.00000000
                                                     2       18.4386111    -1424.18632323    0.00000000
                                                     2        8.8887794    -1964.93568469    0.00000000
                                                     2        7.5264478      317.50498882    0.00000000
    2          1
                                   No pseudopotential on this center.
 ======================================================================================================
 Ernie: Thresh=  0.10000D-02 Tol=  0.10000D-05 Strict=F.
 There are   120 symmetry adapted cartesian basis functions of A1  symmetry.
 There are    26 symmetry adapted cartesian basis functions of A2  symmetry.
 There are    56 symmetry adapted cartesian basis functions of B1  symmetry.
 There are    56 symmetry adapted cartesian basis functions of B2  symmetry.
 There are    94 symmetry adapted basis functions of A1  symmetry.
 There are    23 symmetry adapted basis functions of A2  symmetry.
 There are    49 symmetry adapted basis functions of B1  symmetry.
 There are    49 symmetry adapted basis functions of B2  symmetry.
   215 basis functions,   258 primitive gaussians,   258 cartesian basis functions
    10 alpha electrons        5 beta electrons
       nuclear repulsion energy         3.7042404764 Hartrees.
 IExCor=    0 DFT=F Ex=HF Corr=None ExCW=0 ScaHFX=  1.000000
 ScaDFX=  1.000000  1.000000  1.000000  1.000000 ScalE2=  1.000000  1.000000
 IRadAn=      5 IRanWt=     -1 IRanGd=            0 ICorTp=0 IEmpDi=  4
 NAtoms=    2 NActive=    2 NUniq=    2 SFac= 1.00D+00 NAtFMM=   60 NAOKFM=F Big=F
 Integral buffers will be    131072 words long.
 Raffenetti 2 integral format.
 Two-electron integral symmetry is turned on.
 Leave Link  301 at Mon Feb 26 17:57:56 2018, MaxMem=  8589934592 cpu:               3.6 elap:               0.3
 (Enter /home1/apps/gaussian/16rA.03/g16/l302.exe)
 NPDir=0 NMtPBC=     1 NCelOv=     1 NCel=       1 NClECP=     1 NCelD=      1
         NCelK=      1 NCelE2=     1 NClLst=     1 CellRange=     0.0.
 One-electron integrals computed using PRISM.
 One-electron integral symmetry used in STVInt
   4 Symmetry operations used in ECPInt.
 ECPInt:  NShTT=    2556 NPrTT=    2556 LenC2=    2517 LenP2D=    2516.
 LDataN:  DoStor=T MaxTD1= 8 Len=  415
 NBasis=   215 RedAO= T EigKep=  1.86D-06  NBF=    94    23    49    49
 NBsUse=   206 1.00D-06 EigRej=  4.95D-07 NBFU=    90    22    47    47
 Leave Link  302 at Mon Feb 26 17:57:58 2018, MaxMem=  8589934592 cpu:              13.6 elap:               0.9
 (Enter /home1/apps/gaussian/16rA.03/g16/l303.exe)
 DipDrv:  MaxL=1.
 Leave Link  303 at Mon Feb 26 17:57:58 2018, MaxMem=  8589934592 cpu:               1.0 elap:               0.1
 (Enter /home1/apps/gaussian/16rA.03/g16/l401.exe)
 Initial guess from the checkpoint file:  "CrH.chk"
 B after Tr=     0.000000    0.000000    0.000000
         Rot=    1.000000    0.000000    0.000000    0.000000 Ang=   0.00 deg.
 Guess basis will be translated and rotated to current coordinates.
 JPrj=2 DoOrth=T DoCkMO=T.
 Initial guess orbital symmetries:
       Occupied  (SG) (SG) (PI) (PI) (SG) (PI) (PI) (SG) (DLTA)
                 (DLTA)
       Virtual   (PI) (PI) (SG) (SG) (PI) (PI) (SG) (DLTA) (DLTA)
                 (PI) (PI) (SG) (SG) (SG) (PI) (PI) (SG) (SG) (DLTA)
                 (DLTA) (PI) (PI) (PI) (PI) (SG) (SG) (PHI) (PHI)
                 (DLTA) (DLTA) (SG) (PI) (PI) (SG) (PI) (PI) (SG)
                 (PI) (PI) (DLTA) (DLTA) (DLTA) (DLTA) (SG) (PI)
                 (PI) (SG) (PI) (PI) (SG) (SG) (PHI) (PHI) (DLTA)
                 (DLTA) (PI) (PI) (SG) (PI) (PI) (?A) (?A) (PHI)
                 (PHI) (SG) (DLTA) (DLTA) (PI) (PI) (SG) (SG) (DLTA)
                 (DLTA) (PI) (PI) (SG) (DLTA) (DLTA) (PI) (PI)
                 (PI) (PI) (SG) (SG) (DLTA) (DLTA) (PHI) (PHI)
                 (PI) (PI) (SG) (SG) (PI) (PI) (SG) (PHI) (PHI)
                 (?A) (?A) (DLTA) (DLTA) (PI) (PI) (SG) (DLTA)
                 (DLTA) (PI) (PI) (SG) (SG) (DLTA) (DLTA) (PHI)
                 (PHI) (PI) (PI) (SG) (PI) (PI) (SG) (SG) (DLTA)
                 (DLTA) (PI) (PI) (SG) (PHI) (PHI) (?A) (?A) (DLTA)
                 (DLTA) (PI) (PI) (SG) (PI) (PI) (SG) (SG) (DLTA)
                 (DLTA) (PI) (PI) (SG) (PI) (PI) (SG) (SG) (SG)
                 (DLTA) (DLTA) (PI) (PI) (SG) (PI) (PI) (SG) (SG)
                 (PI) (PI) (SG) (SG) (DLTA) (DLTA) (PI) (PI) (SG)
                 (PI) (PI) (SG) (SG) (PI) (PI) (SG) (SG) (PI) (PI)
                 (SG) (SG) (SG) (PI) (PI) (SG) (SG) (PI) (PI) (SG)
                 (SG) (PI) (PI) (SG) (SG) (SG) (SG) (SG) (SG)
 The electronic state of the initial guess is 6-SG.
 Leave Link  401 at Mon Feb 26 17:57:59 2018, MaxMem=  8589934592 cpu:               4.8 elap:               0.4
 (Enter /home1/apps/gaussian/16rA.03/g16/l502.exe)
 Keep R1 and R2 ints in memory in symmetry-blocked form, NReq=338797193.
 FoFCou: FMM=F IPFlag=           8 FMFlag=           0 FMFlg1=           0
         NFxFlg=           0 DoJE=F BraDBF=F KetDBF=F FulRan=T
         wScrn=  0.000000 ICntrl=       600 IOpCl=  0 I1Cent=           0 NGrid=           0
         NMat0=    1 NMatS0=  23220 NMatT0=    0 NMatD0=    1 NMtDS0=    0 NMtDT0=    0
 Petite list used in FoFCou.
 Restricted open shell SCF:
 Using DIIS extrapolation, IDIIS=  1040.
 NGot=  8589934592 LenX=  8451450423 LenY=  8451383418
 Requested convergence on RMS density matrix=1.00D-08 within 300 cycles.
 Requested convergence on MAX density matrix=1.00D-06.
 Requested convergence on             energy=1.00D-06.
 No special actions if energy rises.

 Cycle   1  Pass 1  IDiag  1:
 E= -86.0338014352639    
 DIIS: error= 1.90D-01 at cycle   1 NSaved=   1.
 NSaved= 1 IEnMin= 1 EnMin= -86.0338014352639     IErMin= 1 ErrMin= 1.90D-01
 ErrMax= 1.90D-01  0.00D+00 EMaxC= 1.00D-01 BMatC= 5.56D+00 BMatP= 5.56D+00
 IDIUse=3 WtCom= 0.00D+00 WtEn= 1.00D+00
 Coeff-Com:  0.100D+01
 Coeff-En:   0.100D+01
 Coeff:      0.100D+01
 Gap=    -0.017 Goal=   None    Shift=    0.000
 GapD=   -0.017 DampG=0.250 DampE=0.125 DampFc=0.1250 IDamp=-1.
 Damping current iteration by 1.25D-01
 RMSDP=3.82D-02 MaxDP=3.53D+00              OVMax= 2.19D-01

 Cycle   2  Pass 1  IDiag  1:
 E= -86.0724937028905     Delta-E=       -0.038692267627 Rises=F Damp=T
 DIIS: error= 1.68D-01 at cycle   2 NSaved=   2.
 NSaved= 2 IEnMin= 2 EnMin= -86.0724937028905     IErMin= 2 ErrMin= 1.68D-01
 ErrMax= 1.68D-01  0.00D+00 EMaxC= 1.00D-01 BMatC= 4.15D+00 BMatP= 5.56D+00
 IDIUse=3 WtCom= 0.00D+00 WtEn= 1.00D+00
 Coeff-Com: -0.502D+01 0.602D+01
 Coeff-En:   0.000D+00 0.100D+01
 Coeff:      0.000D+00 0.100D+01
 Gap=     0.039 Goal=   None    Shift=    0.000
 RMSDP=3.42D-02 MaxDP=3.17D+00 DE=-3.87D-02 OVMax= 5.58D-01

 Cycle   3  Pass 1  IDiag  1:
 E= -86.1714737428687     Delta-E=       -0.098980039978 Rises=F Damp=F
 DIIS: error= 5.49D-02 at cycle   3 NSaved=   3.
 NSaved= 3 IEnMin= 3 EnMin= -86.1714737428687     IErMin= 3 ErrMin= 5.49D-02
 ErrMax= 5.49D-02  0.00D+00 EMaxC= 1.00D-01 BMatC= 1.59D-01 BMatP= 4.15D+00
 IDIUse=3 WtCom= 4.51D-01 WtEn= 5.49D-01
 Coeff-Com: -0.924D+00 0.111D+01 0.813D+00
 Coeff-En:   0.000D+00 0.381D+00 0.619D+00
 Coeff:     -0.417D+00 0.710D+00 0.707D+00
 Gap=     0.177 Goal=   None    Shift=    0.000
 RMSDP=6.15D-03 MaxDP=5.22D-01 DE=-9.90D-02 OVMax= 4.45D-01

 Cycle   4  Pass 1  IDiag  1:
 E= -86.3112854540828     Delta-E=       -0.139811711214 Rises=F Damp=F
 DIIS: error= 3.58D-02 at cycle   4 NSaved=   4.
 NSaved= 4 IEnMin= 4 EnMin= -86.3112854540828     IErMin= 4 ErrMin= 3.58D-02
 ErrMax= 3.58D-02  0.00D+00 EMaxC= 1.00D-01 BMatC= 6.58D-02 BMatP= 1.59D-01
 IDIUse=3 WtCom= 6.42D-01 WtEn= 3.58D-01
 Coeff-Com: -0.666D+00 0.755D+00 0.300D+00 0.611D+00
 Coeff-En:   0.000D+00 0.000D+00 0.344D+00 0.656D+00
 Coeff:     -0.428D+00 0.485D+00 0.316D+00 0.627D+00
 Gap=     0.125 Goal=   None    Shift=    0.000
 RMSDP=3.07D-03 MaxDP=2.26D-01 DE=-1.40D-01 OVMax= 1.74D-01

 Cycle   5  Pass 1  IDiag  1:
 E= -86.3532421909714     Delta-E=       -0.041956736889 Rises=F Damp=F
 DIIS: error= 9.69D-03 at cycle   5 NSaved=   5.
 NSaved= 5 IEnMin= 5 EnMin= -86.3532421909714     IErMin= 5 ErrMin= 9.69D-03
 ErrMax= 9.69D-03  0.00D+00 EMaxC= 1.00D-01 BMatC= 4.54D-03 BMatP= 6.58D-02
 IDIUse=3 WtCom= 9.03D-01 WtEn= 9.69D-02
 EnCoef did     4 forward-backward iterations
 Coeff-Com: -0.505D+00 0.573D+00 0.146D+00 0.354D+00 0.432D+00
 Coeff-En:   0.000D+00 0.000D+00 0.265D+00 0.527D+00 0.209D+00
 Coeff:     -0.456D+00 0.518D+00 0.158D+00 0.370D+00 0.410D+00
 Gap=     0.089 Goal=   None    Shift=    0.000
 RMSDP=7.14D-04 MaxDP=3.63D-02 DE=-4.20D-02 OVMax= 5.50D-02

 Cycle   6  Pass 1  IDiag  1:
 E= -86.3526137145730     Delta-E=        0.000628476398 Rises=F Damp=F
 DIIS: error= 1.16D-02 at cycle   6 NSaved=   6.
 NSaved= 6 IEnMin= 5 EnMin= -86.3532421909714     IErMin= 5 ErrMin= 9.69D-03
 ErrMax= 1.16D-02  0.00D+00 EMaxC= 1.00D-01 BMatC= 4.84D-03 BMatP= 4.54D-03
 IDIUse=3 WtCom= 9.03D-01 WtEn= 9.69D-02
 Rare condition: small coef for last iteration:  0.111D-15
 Coeff-Com: -0.420D+00 0.479D+00 0.223D-01 0.110D+00 0.482D-01 0.761D+00
 Coeff-En:   0.000D+00 0.000D+00 0.102D+00 0.189D+00 0.412D+00 0.298D+00
 Coeff:     -0.420D+00 0.479D+00 0.223D-01 0.110D+00 0.482D-01 0.761D+00
 Gap=     0.078 Goal=   None    Shift=    0.000
 RMSDP=5.45D-04 MaxDP=3.27D-02 DE= 6.28D-04 OVMax= 3.72D-02

 Cycle   7  Pass 1  IDiag  1:
 E= -86.3579720489953     Delta-E=       -0.005358334422 Rises=F Damp=F
 DIIS: error= 9.09D-03 at cycle   7 NSaved=   7.
 NSaved= 7 IEnMin= 7 EnMin= -86.3579720489953     IErMin= 7 ErrMin= 9.09D-03
 ErrMax= 9.09D-03  0.00D+00 EMaxC= 1.00D-01 BMatC= 2.75D-03 BMatP= 4.54D-03
 IDIUse=3 WtCom= 9.09D-01 WtEn= 9.09D-02
 EnCoef did   100 forward-backward iterations
 Coeff-Com: -0.337D+00 0.385D+00-0.904D-02 0.286D-01-0.999D-01 0.425D+00
 Coeff-Com:  0.607D+00
 Coeff-En:   0.000D+00 0.000D+00 0.260D+00 0.506D+00 0.161D+00 0.000D+00
 Coeff-En:   0.737D-01
 Coeff:     -0.306D+00 0.350D+00 0.154D-01 0.719D-01-0.762D-01 0.386D+00
 Coeff:      0.559D+00
 Gap=     0.075 Goal=   None    Shift=    0.000
 RMSDP=3.02D-04 MaxDP=1.69D-02 DE=-5.36D-03 OVMax= 4.73D-02

 Cycle   8  Pass 1  IDiag  1:
 E= -86.3625303214270     Delta-E=       -0.004558272432 Rises=F Damp=F
 DIIS: error= 5.02D-03 at cycle   8 NSaved=   8.
 NSaved= 8 IEnMin= 8 EnMin= -86.3625303214270     IErMin= 8 ErrMin= 5.02D-03
 ErrMax= 5.02D-03  0.00D+00 EMaxC= 1.00D-01 BMatC= 6.89D-04 BMatP= 2.75D-03
 IDIUse=3 WtCom= 9.50D-01 WtEn= 5.02D-02
 EnCoef did     8 forward-backward iterations
 Coeff-Com: -0.303D+00 0.346D+00-0.772D-02 0.279D-01-0.736D-01 0.359D+00
 Coeff-Com:  0.474D+00 0.177D+00
 Coeff-En:   0.000D+00 0.000D+00 0.199D+00 0.279D+00 0.000D+00 0.000D+00
 Coeff-En:   0.000D+00 0.521D+00
 Coeff:     -0.288D+00 0.328D+00 0.267D-02 0.405D-01-0.699D-01 0.341D+00
 Coeff:      0.451D+00 0.194D+00
 Gap=     0.076 Goal=   None    Shift=    0.000
 RMSDP=7.23D-05 MaxDP=4.31D-03 DE=-4.56D-03 OVMax= 1.22D-02

 Cycle   9  Pass 1  IDiag  1:
 E= -86.3621240101392     Delta-E=        0.000406311288 Rises=F Damp=F
 DIIS: error= 5.28D-03 at cycle   9 NSaved=   9.
 NSaved= 9 IEnMin= 8 EnMin= -86.3625303214270     IErMin= 8 ErrMin= 5.02D-03
 ErrMax= 5.28D-03  0.00D+00 EMaxC= 1.00D-01 BMatC= 8.74D-04 BMatP= 6.89D-04
 IDIUse=3 WtCom= 9.50D-01 WtEn= 5.02D-02
 Rare condition: small coef for last iteration:  0.444D-15
 Coeff-Com: -0.195D+00 0.222D+00-0.854D-02 0.230D-01 0.892D-03 0.107D+00
 Coeff-Com: -0.275D+00-0.112D+01 0.224D+01
 Coeff-En:   0.000D+00 0.000D+00 0.987D-01 0.000D+00 0.000D+00 0.000D+00
 Coeff-En:   0.000D+00 0.000D+00 0.901D+00
 Coeff:     -0.195D+00 0.222D+00-0.854D-02 0.230D-01 0.892D-03 0.107D+00
 Coeff:     -0.275D+00-0.112D+01 0.224D+01
 Gap=     0.075 Goal=   None    Shift=    0.000
 RMSDP=2.10D-04 MaxDP=1.37D-02 DE= 4.06D-04 OVMax= 2.12D-02

 Cycle  10  Pass 1  IDiag  1:
 E= -86.3628105730559     Delta-E=       -0.000686562917 Rises=F Damp=F
 DIIS: error= 4.68D-03 at cycle  10 NSaved=  10.
 NSaved=10 IEnMin=10 EnMin= -86.3628105730559     IErMin=10 ErrMin= 4.68D-03
 ErrMax= 4.68D-03  0.00D+00 EMaxC= 1.00D-01 BMatC= 6.07D-04 BMatP= 6.89D-04
 IDIUse=3 WtCom= 9.53D-01 WtEn= 4.68D-02
 EnCoef did   100 forward-backward iterations
 Coeff-Com: -0.157D+00 0.180D+00-0.220D-02 0.310D-01 0.108D-01-0.117D-01
 Coeff-Com: -0.393D+00-0.181D+01 0.242D+01 0.730D+00
 Coeff-En:   0.000D+00 0.000D+00 0.199D+00 0.279D+00 0.000D+00 0.000D+00
 Coeff-En:   0.000D+00 0.500D+00 0.000D+00 0.221D-01
 Coeff:     -0.150D+00 0.171D+00 0.722D-02 0.426D-01 0.103D-01-0.111D-01
 Coeff:     -0.374D+00-0.170D+01 0.231D+01 0.697D+00
 Gap=     0.077 Goal=   None    Shift=    0.000
 RMSDP=1.98D-04 MaxDP=1.20D-02 DE=-6.87D-04 OVMax= 1.69D-02

 Cycle  11  Pass 1  IDiag  1:
 E= -86.3636121676215     Delta-E=       -0.000801594566 Rises=F Damp=F
 DIIS: error= 2.82D-03 at cycle  11 NSaved=  11.
 NSaved=11 IEnMin=11 EnMin= -86.3636121676215     IErMin=11 ErrMin= 2.82D-03
 ErrMax= 2.82D-03  0.00D+00 EMaxC= 1.00D-01 BMatC= 2.75D-04 BMatP= 6.07D-04
 IDIUse=3 WtCom= 9.72D-01 WtEn= 2.82D-02
 EnCoef did   100 forward-backward iterations
 Coeff-Com: -0.105D+00 0.120D+00-0.216D-02 0.165D-01 0.229D-01 0.233D-01
 Coeff-Com: -0.215D+00-0.106D+01 0.844D+00 0.473D+00 0.879D+00
 Coeff-En:   0.000D+00 0.000D+00 0.183D+00 0.227D+00 0.000D+00 0.000D+00
 Coeff-En:   0.000D+00 0.360D-01 0.000D+00 0.554D-02 0.548D+00
 Coeff:     -0.102D+00 0.117D+00 0.307D-02 0.224D-01 0.223D-01 0.227D-01
 Coeff:     -0.209D+00-0.103D+01 0.821D+00 0.460D+00 0.870D+00
 Gap=     0.077 Goal=   None    Shift=    0.000
 RMSDP=1.83D-04 MaxDP=1.14D-02 DE=-8.02D-04 OVMax= 1.64D-02

 Cycle  12  Pass 1  IDiag  1:
 E= -86.3639421074831     Delta-E=       -0.000329939862 Rises=F Damp=F
 DIIS: error= 2.00D-03 at cycle  12 NSaved=  12.
 NSaved=12 IEnMin=12 EnMin= -86.3639421074831     IErMin=12 ErrMin= 2.00D-03
 ErrMax= 2.00D-03  0.00D+00 EMaxC= 1.00D-01 BMatC= 1.37D-04 BMatP= 2.75D-04
 IDIUse=3 WtCom= 9.80D-01 WtEn= 2.00D-02
 EnCoef did   100 forward-backward iterations
 Coeff-Com: -0.451D-01 0.516D-01-0.397D-02 0.562D-03 0.457D-01 0.280D-01
 Coeff-Com: -0.129D+00-0.262D+00-0.114D+00 0.817D-01 0.538D+00 0.810D+00
 Coeff-En:   0.000D+00 0.000D+00 0.178D+00 0.202D+00 0.000D+00 0.000D+00
 Coeff-En:   0.000D+00 0.238D-01 0.000D+00 0.367D-02 0.377D-02 0.589D+00
 Coeff:     -0.442D-01 0.506D-01-0.336D-03 0.460D-02 0.447D-01 0.274D-01
 Coeff:     -0.127D+00-0.257D+00-0.112D+00 0.802D-01 0.527D+00 0.805D+00
 Gap=     0.076 Goal=   None    Shift=    0.000
 RMSDP=1.35D-04 MaxDP=9.21D-03 DE=-3.30D-04 OVMax= 1.41D-02

 Cycle  13  Pass 1  IDiag  1:
 E= -86.3642131695912     Delta-E=       -0.000271062108 Rises=F Damp=F
 DIIS: error= 8.11D-04 at cycle  13 NSaved=  13.
 NSaved=13 IEnMin=13 EnMin= -86.3642131695912     IErMin=13 ErrMin= 8.11D-04
 ErrMax= 8.11D-04  0.00D+00 EMaxC= 1.00D-01 BMatC= 1.92D-05 BMatP= 1.37D-04
 IDIUse=3 WtCom= 9.92D-01 WtEn= 8.11D-03
 EnCoef did     9 forward-backward iterations
 Coeff-Com: -0.181D-01 0.208D-01-0.120D-02-0.156D-02 0.238D-01 0.323D-01
 Coeff-Com: -0.219D-01-0.129D+00-0.259D-01-0.302D-01-0.659D-01 0.246D+00
 Coeff-Com:  0.971D+00
 Coeff-En:   0.000D+00 0.000D+00 0.175D+00 0.176D+00 0.000D+00 0.000D+00
 Coeff-En:   0.000D+00 0.000D+00 0.000D+00 0.000D+00 0.000D+00 0.000D+00
 Coeff-En:   0.649D+00
 Coeff:     -0.180D-01 0.206D-01 0.231D-03-0.117D-03 0.236D-01 0.320D-01
 Coeff:     -0.217D-01-0.128D+00-0.257D-01-0.300D-01-0.654D-01 0.244D+00
 Coeff:      0.968D+00
 Gap=     0.077 Goal=   None    Shift=    0.000
 RMSDP=7.70D-05 MaxDP=4.41D-03 DE=-2.71D-04 OVMax= 6.90D-03

 Cycle  14  Pass 1  IDiag  1:
 E= -86.3642432460222     Delta-E=       -0.000030076431 Rises=F Damp=F
 DIIS: error= 3.33D-04 at cycle  14 NSaved=  14.
 NSaved=14 IEnMin=14 EnMin= -86.3642432460222     IErMin=14 ErrMin= 3.33D-04
 ErrMax= 3.33D-04  0.00D+00 EMaxC= 1.00D-01 BMatC= 3.95D-06 BMatP= 1.92D-05
 IDIUse=3 WtCom= 9.97D-01 WtEn= 3.33D-03
 EnCoef did    77 forward-backward iterations
 Coeff-Com: -0.103D-01 0.118D-01-0.190D-03-0.265D-03 0.907D-02 0.103D-01
 Coeff-Com: -0.806D-02-0.143D+00 0.157D+00 0.150D-01-0.126D+00-0.140D+00
 Coeff-Com:  0.473D+00 0.750D+00
 Coeff-En:   0.000D+00 0.000D+00 0.175D+00 0.173D+00 0.000D+00 0.000D+00
 Coeff-En:   0.000D+00 0.000D+00 0.000D+00 0.000D+00 0.000D+00 0.000D+00
 Coeff-En:   0.626D-02 0.646D+00
 Coeff:     -0.103D-01 0.118D-01 0.394D-03 0.312D-03 0.904D-02 0.103D-01
 Coeff:     -0.804D-02-0.143D+00 0.157D+00 0.150D-01-0.125D+00-0.139D+00
 Coeff:      0.472D+00 0.750D+00
 Gap=     0.077 Goal=   None    Shift=    0.000
 RMSDP=6.52D-05 MaxDP=5.03D-03 DE=-3.01D-05 OVMax= 3.09D-03

 Cycle  15  Pass 1  IDiag  1:
 E= -86.3642462311629     Delta-E=       -0.000002985141 Rises=F Damp=F
 DIIS: error= 2.33D-04 at cycle  15 NSaved=  15.
 NSaved=15 IEnMin=15 EnMin= -86.3642462311629     IErMin=15 ErrMin= 2.33D-04
 ErrMax= 2.33D-04  0.00D+00 EMaxC= 1.00D-01 BMatC= 2.53D-06 BMatP= 3.95D-06
 IDIUse=3 WtCom= 9.98D-01 WtEn= 2.33D-03
 EnCoef did   100 forward-backward iterations
 Coeff-Com: -0.814D-02 0.928D-02 0.624D-05 0.175D-03 0.414D-02 0.214D-02
 Coeff-Com: -0.734D-02-0.129D+00 0.179D+00 0.295D-01-0.997D-01-0.199D+00
 Coeff-Com:  0.225D+00 0.705D+00 0.289D+00
 Coeff-En:   0.000D+00 0.000D+00 0.175D+00 0.175D+00 0.000D+00 0.000D+00
 Coeff-En:   0.000D+00 0.000D+00 0.000D+00 0.000D+00 0.000D+00 0.000D+00
 Coeff-En:   0.653D-02 0.273D+00 0.371D+00
 Coeff:     -0.812D-02 0.926D-02 0.416D-03 0.582D-03 0.413D-02 0.214D-02
 Coeff:     -0.732D-02-0.129D+00 0.179D+00 0.294D-01-0.994D-01-0.199D+00
 Coeff:      0.225D+00 0.704D+00 0.289D+00
 Gap=     0.077 Goal=   None    Shift=    0.000
 RMSDP=4.69D-05 MaxDP=4.04D-03 DE=-2.99D-06 OVMax= 2.49D-03

 Cycle  16  Pass 1  IDiag  1:
 E= -86.3642492555039     Delta-E=       -0.000003024341 Rises=F Damp=F
 DIIS: error= 1.97D-04 at cycle  16 NSaved=  16.
 NSaved=16 IEnMin=16 EnMin= -86.3642492555039     IErMin=16 ErrMin= 1.97D-04
 ErrMax= 1.97D-04  0.00D+00 EMaxC= 1.00D-01 BMatC= 1.14D-06 BMatP= 2.53D-06
 IDIUse=3 WtCom= 9.98D-01 WtEn= 1.97D-03
 EnCoef did   100 forward-backward iterations
 Coeff-Com: -0.634D-02 0.724D-02-0.640D-04 0.356D-03-0.151D-03-0.260D-02
 Coeff-Com: -0.860D-02-0.638D-01 0.879D-01 0.266D-01-0.728D-02-0.809D-01
 Coeff-Com: -0.400D-01 0.104D+00 0.156D+00 0.827D+00
 Coeff-En:   0.000D+00 0.000D+00 0.176D+00 0.175D+00 0.000D+00 0.000D+00
 Coeff-En:   0.000D+00 0.000D+00 0.000D+00 0.000D+00 0.000D+00 0.000D+00
 Coeff-En:   0.717D-02 0.385D-03 0.387D+00 0.255D+00
 Coeff:     -0.633D-02 0.723D-02 0.282D-03 0.700D-03-0.151D-03-0.259D-02
 Coeff:     -0.858D-02-0.637D-01 0.877D-01 0.266D-01-0.727D-02-0.807D-01
 Coeff:     -0.399D-01 0.104D+00 0.157D+00 0.826D+00
 Gap=     0.077 Goal=   None    Shift=    0.000
 RMSDP=1.70D-05 MaxDP=1.15D-03 DE=-3.02D-06 OVMax= 4.79D-04

 Cycle  17  Pass 1  IDiag  1:
 E= -86.3642500972756     Delta-E=       -0.000000841772 Rises=F Damp=F
 DIIS: error= 1.42D-04 at cycle  17 NSaved=  17.
 NSaved=17 IEnMin=17 EnMin= -86.3642500972756     IErMin=17 ErrMin= 1.42D-04
 ErrMax= 1.42D-04  0.00D+00 EMaxC= 1.00D-01 BMatC= 6.28D-07 BMatP= 1.14D-06
 IDIUse=3 WtCom= 9.99D-01 WtEn= 1.42D-03
 EnCoef did   100 forward-backward iterations
 Coeff-Com: -0.484D-02 0.553D-02-0.157D-03 0.311D-03-0.765D-03-0.154D-02
 Coeff-Com: -0.630D-02-0.321D-01 0.400D-01 0.176D-01 0.118D-01-0.308D-01
 Coeff-Com: -0.682D-01-0.599D-01 0.360D-01 0.418D+00 0.676D+00
 Coeff-En:   0.000D+00 0.000D+00 0.176D+00 0.177D+00 0.000D+00 0.000D+00
 Coeff-En:   0.000D+00 0.000D+00 0.000D+00 0.000D+00 0.000D+00 0.000D+00
 Coeff-En:   0.787D-02 0.423D-03 0.115D+00 0.180D+00 0.344D+00
 Coeff:     -0.483D-02 0.552D-02 0.937D-04 0.562D-03-0.764D-03-0.154D-02
 Coeff:     -0.629D-02-0.321D-01 0.400D-01 0.176D-01 0.118D-01-0.307D-01
 Coeff:     -0.681D-01-0.598D-01 0.361D-01 0.417D+00 0.675D+00
 Gap=     0.077 Goal=   None    Shift=    0.000
 RMSDP=7.98D-06 MaxDP=5.12D-04 DE=-8.42D-07 OVMax= 3.79D-04

 Cycle  18  Pass 1  IDiag  1:
 E= -86.3642506181190     Delta-E=       -0.000000520843 Rises=F Damp=F
 DIIS: error= 1.04D-04 at cycle  18 NSaved=  18.
 NSaved=18 IEnMin=18 EnMin= -86.3642506181190     IErMin=18 ErrMin= 1.04D-04
 ErrMax= 1.04D-04  0.00D+00 EMaxC= 1.00D-01 BMatC= 3.51D-07 BMatP= 6.28D-07
 IDIUse=3 WtCom= 9.99D-01 WtEn= 1.04D-03
 EnCoef did   100 forward-backward iterations
 Coeff-Com: -0.381D-02 0.435D-02-0.204D-03 0.253D-03-0.676D-03-0.447D-03
 Coeff-Com: -0.454D-02-0.184D-01 0.194D-01 0.120D-01 0.148D-01-0.120D-01
 Coeff-Com: -0.618D-01-0.955D-01-0.168D-01 0.133D+00 0.655D+00 0.375D+00
 Coeff-En:   0.000D+00 0.000D+00 0.176D+00 0.176D+00 0.000D+00 0.000D+00
 Coeff-En:   0.000D+00 0.000D+00 0.000D+00 0.000D+00 0.000D+00 0.000D+00
 Coeff-En:   0.902D-02 0.485D-03 0.724D-03 0.238D-02 0.285D+00 0.350D+00
 Coeff:     -0.380D-02 0.435D-02-0.206D-04 0.436D-03-0.676D-03-0.447D-03
 Coeff:     -0.453D-02-0.184D-01 0.193D-01 0.120D-01 0.148D-01-0.120D-01
 Coeff:     -0.617D-01-0.954D-01-0.168D-01 0.133D+00 0.655D+00 0.375D+00
 Gap=     0.077 Goal=   None    Shift=    0.000
 RMSDP=4.04D-06 MaxDP=1.98D-04 DE=-5.21D-07 OVMax= 3.34D-04

 Cycle  19  Pass 1  IDiag  1:
 E= -86.3642509214079     Delta-E=       -0.000000303289 Rises=F Damp=F
 DIIS: error= 7.93D-05 at cycle  19 NSaved=  19.
 NSaved=19 IEnMin=19 EnMin= -86.3642509214079     IErMin=19 ErrMin= 7.93D-05
 ErrMax= 7.93D-05  0.00D+00 EMaxC= 1.00D-01 BMatC= 1.98D-07 BMatP= 3.51D-07
 IDIUse=1 WtCom= 1.00D+00 WtEn= 0.00D+00
 Coeff-Com: -0.143D-02 0.164D-02-0.227D-03 0.614D-04 0.612D-03 0.214D-02
 Coeff-Com: -0.901D-03-0.865D-02 0.485D-02 0.237D-02 0.233D-02-0.508D-02
 Coeff-Com: -0.241D-02-0.839D-02-0.437D-01-0.307D+00-0.245D+00 0.347D+00
 Coeff-Com:  0.126D+01
 Coeff:     -0.143D-02 0.164D-02-0.227D-03 0.614D-04 0.612D-03 0.214D-02
 Coeff:     -0.901D-03-0.865D-02 0.485D-02 0.237D-02 0.233D-02-0.508D-02
 Coeff:     -0.241D-02-0.839D-02-0.437D-01-0.307D+00-0.245D+00 0.347D+00
 Coeff:      0.126D+01
 Gap=     0.077 Goal=   None    Shift=    0.000
 RMSDP=6.77D-06 MaxDP=4.29D-04 DE=-3.03D-07 OVMax= 4.64D-04

 Cycle  20  Pass 1  IDiag  1:
 E= -86.3642512778225     Delta-E=       -0.000000356415 Rises=F Damp=F
 DIIS: error= 2.70D-05 at cycle  20 NSaved=  20.
 NSaved=20 IEnMin=20 EnMin= -86.3642512778225     IErMin=20 ErrMin= 2.70D-05
 ErrMax= 2.70D-05  0.00D+00 EMaxC= 1.00D-01 BMatC= 2.20D-08 BMatP= 1.98D-07
 IDIUse=1 WtCom= 1.00D+00 WtEn= 0.00D+00
 Coeff-Com: -0.301D-03 0.343D-03-0.296D-04-0.140D-04 0.121D-02 0.716D-03
 Coeff-Com: -0.162D-02-0.152D-01 0.169D-01 0.163D-02-0.162D-02-0.663D-02
 Coeff-Com:  0.103D-01 0.538D-01 0.268D-01 0.354D-01-0.370D+00-0.255D+00
 Coeff-Com: -0.583D-02 0.151D+01
 Coeff:     -0.301D-03 0.343D-03-0.296D-04-0.140D-04 0.121D-02 0.716D-03
 Coeff:     -0.162D-02-0.152D-01 0.169D-01 0.163D-02-0.162D-02-0.663D-02
 Coeff:      0.103D-01 0.538D-01 0.268D-01 0.354D-01-0.370D+00-0.255D+00
 Coeff:     -0.583D-02 0.151D+01
 Gap=     0.077 Goal=   None    Shift=    0.000
 RMSDP=6.45D-06 MaxDP=4.17D-04 DE=-3.56D-07 OVMax= 2.73D-04

 Cycle  21  Pass 1  IDiag  1:
 E= -86.3642513225467     Delta-E=       -0.000000044724 Rises=F Damp=F
 DIIS: error= 7.25D-06 at cycle  21 NSaved=  20.
 NSaved=20 IEnMin=20 EnMin= -86.3642513225467     IErMin=20 ErrMin= 7.25D-06
 ErrMax= 7.25D-06  0.00D+00 EMaxC= 1.00D-01 BMatC= 1.66D-09 BMatP= 2.20D-08
 IDIUse=1 WtCom= 1.00D+00 WtEn= 0.00D+00
 Coeff-Com: -0.334D-06 0.210D-04-0.643D-04 0.515D-03-0.360D-03-0.129D-02
 Coeff-Com: -0.805D-02 0.100D-01 0.103D-02 0.422D-03-0.161D-02 0.733D-03
 Coeff-Com:  0.224D-01 0.247D-01 0.113D+00-0.964D-01-0.214D+00-0.349D+00
 Coeff-Com:  0.749D+00 0.749D+00
 Coeff:     -0.334D-06 0.210D-04-0.643D-04 0.515D-03-0.360D-03-0.129D-02
 Coeff:     -0.805D-02 0.100D-01 0.103D-02 0.422D-03-0.161D-02 0.733D-03
 Coeff:      0.224D-01 0.247D-01 0.113D+00-0.964D-01-0.214D+00-0.349D+00
 Coeff:      0.749D+00 0.749D+00
 Gap=     0.077 Goal=   None    Shift=    0.000
 RMSDP=3.12D-06 MaxDP=2.46D-04 DE=-4.47D-08 OVMax= 1.01D-04

 Cycle  22  Pass 1  IDiag  1:
 E= -86.3642513256750     Delta-E=       -0.000000003128 Rises=F Damp=F
 DIIS: error= 9.44D-07 at cycle  22 NSaved=  20.
 NSaved=20 IEnMin=20 EnMin= -86.3642513256750     IErMin=20 ErrMin= 9.44D-07
 ErrMax= 9.44D-07  0.00D+00 EMaxC= 1.00D-01 BMatC= 7.76D-11 BMatP= 1.66D-09
 IDIUse=1 WtCom= 1.00D+00 WtEn= 0.00D+00
 Coeff-Com:  0.735D-05-0.351D-04 0.852D-04-0.320D-03-0.454D-03-0.181D-02
 Coeff-Com:  0.259D-02 0.382D-03 0.569D-03-0.591D-04-0.137D-02 0.286D-02
 Coeff-Com:  0.711D-02 0.429D-01 0.595D-03-0.559D-01-0.130D+00 0.144D+00
 Coeff-Com:  0.277D+00 0.712D+00
 Coeff:      0.735D-05-0.351D-04 0.852D-04-0.320D-03-0.454D-03-0.181D-02
 Coeff:      0.259D-02 0.382D-03 0.569D-03-0.591D-04-0.137D-02 0.286D-02
 Coeff:      0.711D-02 0.429D-01 0.595D-03-0.559D-01-0.130D+00 0.144D+00
 Coeff:      0.277D+00 0.712D+00
 Gap=     0.076 Goal=   None    Shift=    0.000
 RMSDP=6.42D-07 MaxDP=4.75D-05 DE=-3.13D-09 OVMax= 1.65D-05

 Cycle  23  Pass 1  IDiag  1:
 E= -86.3642513257751     Delta-E=       -0.000000000100 Rises=F Damp=F
 DIIS: error= 6.12D-07 at cycle  23 NSaved=  20.
 NSaved=20 IEnMin=20 EnMin= -86.3642513257751     IErMin=20 ErrMin= 6.12D-07
 ErrMax= 6.12D-07  0.00D+00 EMaxC= 1.00D-01 BMatC= 2.16D-11 BMatP= 7.76D-11
 IDIUse=1 WtCom= 1.00D+00 WtEn= 0.00D+00
 Coeff-Com: -0.159D-04-0.346D-05-0.169D-03-0.107D-03-0.854D-04 0.361D-03
 Coeff-Com:  0.103D-03 0.211D-03 0.429D-04-0.829D-03-0.532D-03 0.163D-02
 Coeff-Com:  0.132D-01 0.982D-02-0.900D-02-0.350D-01 0.198D-02 0.774D-01
 Coeff-Com:  0.440D+00 0.501D+00
 Coeff:     -0.159D-04-0.346D-05-0.169D-03-0.107D-03-0.854D-04 0.361D-03
 Coeff:      0.103D-03 0.211D-03 0.429D-04-0.829D-03-0.532D-03 0.163D-02
 Coeff:      0.132D-01 0.982D-02-0.900D-02-0.350D-01 0.198D-02 0.774D-01
 Coeff:      0.440D+00 0.501D+00
 Gap=     0.076 Goal=   None    Shift=    0.000
 RMSDP=1.35D-07 MaxDP=6.48D-06 DE=-1.00D-10 OVMax= 9.38D-06

 Cycle  24  Pass 1  IDiag  1:
 E= -86.3642513258067     Delta-E=       -0.000000000032 Rises=F Damp=F
 DIIS: error= 3.81D-07 at cycle  24 NSaved=  20.
 NSaved=20 IEnMin=20 EnMin= -86.3642513258067     IErMin=20 ErrMin= 3.81D-07
 ErrMax= 3.81D-07  0.00D+00 EMaxC= 1.00D-01 BMatC= 8.35D-12 BMatP= 2.16D-11
 IDIUse=1 WtCom= 1.00D+00 WtEn= 0.00D+00
 Coeff-Com: -0.187D-04-0.582D-04 0.473D-04 0.394D-03-0.355D-03-0.177D-04
 Coeff-Com: -0.577D-04-0.726D-04-0.242D-03-0.741D-03-0.713D-04 0.165D-02
 Coeff-Com:  0.691D-02 0.498D-02 0.160D-02-0.303D-01-0.949D-02 0.141D+00
 Coeff-Com:  0.410D+00 0.475D+00
 Coeff:     -0.187D-04-0.582D-04 0.473D-04 0.394D-03-0.355D-03-0.177D-04
 Coeff:     -0.577D-04-0.726D-04-0.242D-03-0.741D-03-0.713D-04 0.165D-02
 Coeff:      0.691D-02 0.498D-02 0.160D-02-0.303D-01-0.949D-02 0.141D+00
 Coeff:      0.410D+00 0.475D+00
 Gap=     0.076 Goal=   None    Shift=    0.000
 RMSDP=9.16D-08 MaxDP=6.02D-06 DE=-3.16D-11 OVMax= 5.90D-06

 Cycle  25  Pass 1  IDiag  1:
 E= -86.3642513258183     Delta-E=       -0.000000000012 Rises=F Damp=F
 DIIS: error= 2.65D-07 at cycle  25 NSaved=  20.
 NSaved=20 IEnMin=20 EnMin= -86.3642513258183     IErMin=20 ErrMin= 2.65D-07
 ErrMax= 2.65D-07  0.00D+00 EMaxC= 1.00D-01 BMatC= 3.14D-12 BMatP= 8.35D-12
 IDIUse=1 WtCom= 1.00D+00 WtEn= 0.00D+00
 Coeff-Com: -0.300D-05 0.628D-04 0.209D-03-0.225D-03-0.517D-04-0.176D-03
 Coeff-Com: -0.133D-03 0.340D-03 0.381D-03 0.258D-03 0.106D-02 0.645D-03
 Coeff-Com:  0.902D-03 0.942D-03-0.952D-02-0.833D-02 0.344D-01 0.226D+00
 Coeff-Com:  0.383D+00 0.370D+00
 Coeff:     -0.300D-05 0.628D-04 0.209D-03-0.225D-03-0.517D-04-0.176D-03
 Coeff:     -0.133D-03 0.340D-03 0.381D-03 0.258D-03 0.106D-02 0.645D-03
 Coeff:      0.902D-03 0.942D-03-0.952D-02-0.833D-02 0.344D-01 0.226D+00
 Coeff:      0.383D+00 0.370D+00
 Gap=     0.077 Goal=   None    Shift=    0.000
 RMSDP=4.66D-08 MaxDP=2.09D-06 DE=-1.16D-11 OVMax= 3.77D-06

 Cycle  26  Pass 1  IDiag  1:
 E= -86.3642513258248     Delta-E=       -0.000000000006 Rises=F Damp=F
 DIIS: error= 6.35D-08 at cycle  26 NSaved=  20.
 NSaved=20 IEnMin=20 EnMin= -86.3642513258248     IErMin=20 ErrMin= 6.35D-08
 ErrMax= 6.35D-08  0.00D+00 EMaxC= 1.00D-01 BMatC= 3.71D-13 BMatP= 3.14D-12
 IDIUse=1 WtCom= 1.00D+00 WtEn= 0.00D+00
 Coeff-Com: -0.145D-04-0.298D-04 0.442D-04 0.112D-04 0.168D-04-0.348D-06
 Coeff-Com: -0.489D-04-0.549D-04 0.219D-03 0.180D-02 0.351D-03-0.171D-02
 Coeff-Com: -0.411D-02 0.362D-02 0.288D-02-0.201D-01-0.281D-01 0.335D-01
 Coeff-Com:  0.261D+00 0.751D+00
 Coeff:     -0.145D-04-0.298D-04 0.442D-04 0.112D-04 0.168D-04-0.348D-06
 Coeff:     -0.489D-04-0.549D-04 0.219D-03 0.180D-02 0.351D-03-0.171D-02
 Coeff:     -0.411D-02 0.362D-02 0.288D-02-0.201D-01-0.281D-01 0.335D-01
 Coeff:      0.261D+00 0.751D+00
 Gap=     0.077 Goal=   None    Shift=    0.000
 RMSDP=2.84D-08 MaxDP=1.84D-06 DE=-6.48D-12 OVMax= 9.67D-07

 Cycle  27  Pass 1  IDiag  1:
 E= -86.3642513258252     Delta-E=       -0.000000000000 Rises=F Damp=F
 DIIS: error= 4.18D-08 at cycle  27 NSaved=  20.
 NSaved=20 IEnMin=20 EnMin= -86.3642513258252     IErMin=20 ErrMin= 4.18D-08
 ErrMax= 4.18D-08  0.00D+00 EMaxC= 1.00D-01 BMatC= 4.16D-14 BMatP= 3.71D-13
 IDIUse=1 WtCom= 1.00D+00 WtEn= 0.00D+00
 Coeff-Com: -0.335D-05 0.319D-05 0.278D-05 0.903D-05 0.393D-05-0.306D-04
 Coeff-Com: -0.411D-04 0.625D-04 0.537D-03 0.669D-04-0.469D-03-0.110D-02
 Coeff-Com:  0.792D-03 0.189D-03-0.114D-01-0.219D-01-0.391D-02 0.895D-01
 Coeff-Com:  0.315D+00 0.633D+00
 Coeff:     -0.335D-05 0.319D-05 0.278D-05 0.903D-05 0.393D-05-0.306D-04
 Coeff:     -0.411D-04 0.625D-04 0.537D-03 0.669D-04-0.469D-03-0.110D-02
 Coeff:      0.792D-03 0.189D-03-0.114D-01-0.219D-01-0.391D-02 0.895D-01
 Coeff:      0.315D+00 0.633D+00
 Gap=     0.077 Goal=   None    Shift=    0.000
 RMSDP=2.59D-08 MaxDP=2.45D-06 DE=-4.26D-13 OVMax= 6.87D-07

 Cycle  28  Pass 1  IDiag  1:
 E= -86.3642513258246     Delta-E=        0.000000000001 Rises=F Damp=F
 DIIS: error= 3.78D-08 at cycle  28 NSaved=  20.
 NSaved=20 IEnMin=19 EnMin= -86.3642513258252     IErMin=20 ErrMin= 3.78D-08
 ErrMax= 3.78D-08  0.00D+00 EMaxC= 1.00D-01 BMatC= 3.21D-14 BMatP= 4.16D-14
 IDIUse=1 WtCom= 1.00D+00 WtEn= 0.00D+00
 Coeff-Com: -0.551D-05 0.246D-05 0.184D-04 0.219D-04-0.432D-04-0.793D-04
 Coeff-Com: -0.371D-04-0.774D-04-0.112D-04 0.187D-04 0.522D-04 0.112D-03
 Coeff-Com: -0.493D-04-0.673D-02-0.248D-01-0.329D-01-0.110D-01 0.482D-01
 Coeff-Com:  0.508D+00 0.519D+00
 Coeff:     -0.551D-05 0.246D-05 0.184D-04 0.219D-04-0.432D-04-0.793D-04
 Coeff:     -0.371D-04-0.774D-04-0.112D-04 0.187D-04 0.522D-04 0.112D-03
 Coeff:     -0.493D-04-0.673D-02-0.248D-01-0.329D-01-0.110D-01 0.482D-01
 Coeff:      0.508D+00 0.519D+00
 Gap=     0.076 Goal=   None    Shift=    0.000
 RMSDP=1.27D-08 MaxDP=1.17D-06 DE= 6.25D-13 OVMax= 3.29D-07

 Cycle  29  Pass 1  IDiag  1:
 E= -86.3642513258256     Delta-E=       -0.000000000001 Rises=F Damp=F
 DIIS: error= 2.45D-09 at cycle  29 NSaved=  20.
 NSaved=20 IEnMin=20 EnMin= -86.3642513258256     IErMin=20 ErrMin= 2.45D-09
 ErrMax= 2.45D-09  0.00D+00 EMaxC= 1.00D-01 BMatC= 7.89D-16 BMatP= 3.21D-14
 IDIUse=1 WtCom= 1.00D+00 WtEn= 0.00D+00
 Large coefficients: NSaved= 20 BigCof=    0.00 CofMax=   10.00 Det=-9.02D-15
 Inversion failed.  Reducing to 19 matrices.
 Large coefficients: NSaved= 19 BigCof=    0.00 CofMax=   10.00 Det=-9.03D-15
 Inversion failed.  Reducing to 18 matrices.
 Coeff-Com:  0.483D-06-0.923D-06 0.563D-06-0.190D-04-0.146D-03-0.698D-04
 Coeff-Com:  0.153D-03 0.418D-03-0.346D-03-0.206D-03 0.137D-02 0.762D-03
 Coeff-Com: -0.385D-02-0.149D-01-0.324D-01 0.803D-01 0.129D+00 0.840D+00
 Coeff:      0.483D-06-0.923D-06 0.563D-06-0.190D-04-0.146D-03-0.698D-04
 Coeff:      0.153D-03 0.418D-03-0.346D-03-0.206D-03 0.137D-02 0.762D-03
 Coeff:     -0.385D-02-0.149D-01-0.324D-01 0.803D-01 0.129D+00 0.840D+00
 Gap=     0.076 Goal=   None    Shift=    0.000
 RMSDP=7.49D-10 MaxDP=4.51D-08 DE=-1.05D-12 OVMax= 4.58D-08

 SCF Done:  E(ROHF) =  -86.3642513258     A.U. after   29 cycles
            NFock= 29  Conv=0.75D-09     -V/T= 3.1041
 <Sx>= 0.0000 <Sy>= 0.0000 <Sz>= 2.5000 <S**2>= 8.7500 S= 2.5000
 <L.S>=  0.00000000000    
 KE= 4.104650937251D+01 PE=-1.962992771114D+02 EE= 6.518427593664D+01
 Annihilation of the first spin contaminant:
 S**2 before annihilation     8.7500,   after     8.7500
 Leave Link  502 at Mon Feb 26 17:58:18 2018, MaxMem=  8589934592 cpu:             265.9 elap:              19.3
 (Enter /home1/apps/gaussian/16rA.03/g16/l801.exe)
 Windowed orbitals will be sorted by symmetry type.
 GenMOA:  NOpAll=  4 NOp2=4 NOpUse=  4 JSym2X=1
 FoFJK:  IHMeth= 1 ICntrl=       0 DoSepK=F KAlg= 0 I1Cent=           0 FoldK=F
 IRaf=         0 NMat=       1 IRICut=       1 DoRegI=T DoRafI=F ISym2E= 1 IDoP0=0 IntGTp=1.
 FoFCou: FMM=F IPFlag=           8 FMFlag=      100000 FMFlg1=           0
         NFxFlg=           0 DoJE=F BraDBF=F KetDBF=F FulRan=T
         wScrn=  0.000000 ICntrl=         0 IOpCl=  1 I1Cent=           0 NGrid=           0
         NMat0=    1 NMatS0=      1 NMatT0=    0 NMatD0=    1 NMtDS0=    0 NMtDT0=    0
 Petite list used in FoFCou.
 <Sx>= 0.0000 <Sy>= 0.0000 <Sz>= 2.5000 <S**2>= 8.7500 S= 2.5000
 Range of M.O.s used for correlation:     1   206
 NBasis=   215 NAE=    10 NBE=     5 NFC=     0 NFV=     0
 NROrb=    206 NOA=    10 NOB=     5 NVA=   196 NVB=   201

 **** Warning!!: The largest alpha MO coefficient is  0.27696604D+03


 **** Warning!!: The largest beta MO coefficient is  0.27693149D+03

 Singles contribution to E2=   -0.2806850219D-02
 Leave Link  801 at Mon Feb 26 17:58:23 2018, MaxMem=  8589934592 cpu:              64.5 elap:               4.1
 (Enter /home1/apps/gaussian/16rA.03/g16/l804.exe)
 Open-shell transformation, MDV=  8589934592 ITran=4 ISComp=2.
 Unit  1 TFree=       1402778 TCopy=       1172105.
 Semi-Direct transformation.
 ModeAB=           2 MOrb=            10 LenV=    8588504386
 LASXX=     10847743 LTotXX=    10847743 LenRXX=    10847743
 LTotAB=    11067855 MaxLAS=    68826660 LenRXY=    68826660
 NonZer=    70079140 LenScr=   105891840 LnRSAI=           0
 LnScr1=           0 LExtra=     4209721 Total=    189775964
 MaxDsk= 67108864000 SrtSym=           F ITran=            4
 DoSDTr:  NPSUse= 16
 JobTyp=1 Pass  1:  I=   1 to  10.
 (rs|ai) integrals will be sorted in core.
 Complete sort for first half transformation.
 First half transformation complete.
 Begin second half transformation for I=  10.
 Begin second half transformation for I=  10.
 Complete sort for second half transformation.
 Second half transformation complete.
 ModeAB=           2 MOrb=             5 LenV=    8588504386
 LASXX=      5573031 LTotXX=     5573031 LenRXX=    34413330
 LTotAB=     5140906 MaxLAS=    34413330 LenRXY=     5140906
 NonZer=    35039570 LenScr=    53338112 LnRSAI=           0
 LnScr1=           0 LExtra=    83884124 Total=    176776472
 MaxDsk= 67108864000 SrtSym=           F ITran=            4
 DoSDTr:  NPSUse= 16
 JobTyp=2 Pass  1:  I=   1 to   5.
 (rs|ai) integrals will be sorted in core.
 Complete sort for first half transformation.
 First half transformation complete.
 Complete sort for second half transformation.
 Second half transformation complete.
 Spin components of T(2) and E(2):
     alpha-alpha T2 =       0.2468762900D-01 E2=     -0.1217965727D+00
     alpha-beta  T2 =       0.5534624184D-01 E2=     -0.3478336380D+00
     beta-beta   T2 =       0.5918306307D-02 E2=     -0.3821903148D-01
 ANorm=    0.1042622543D+01
 E2 =    -0.5106560924D+00 EUMP2 =    -0.86874907418264D+02
 (S**2,0)=  0.87500D+01           (S**2,1)=  0.87500D+01
 E(PUHF)=      -0.86364251326D+02        E(PMP2)=      -0.86874907418D+02
 Leave Link  804 at Mon Feb 26 17:59:49 2018, MaxMem=  8589934592 cpu:            1369.4 elap:              85.7
 (Enter /home1/apps/gaussian/16rA.03/g16/l913.exe)
 CIDS:  MDV=  8589934592.
 IFCWin=0 IBDFC=1 NFBD=     0     0 NFCmp=     0     0 NFFFC=     0     0
 Using original routines for 1st iteration.
 Using DD4UQ or CC4UQ for 2nd and later iterations.
 Keep R2 and R3 ints in memory in symmetry-blocked form, NReq=338807128.
 FoFCou: FMM=F IPFlag=           8 FMFlag=           0 FMFlg1=           0
         NFxFlg=           0 DoJE=F BraDBF=F KetDBF=F FulRan=T
         wScrn=  0.000000 ICntrl=       600 IOpCl=  0 I1Cent=           0 NGrid=           0
         NMat0=    1 NMatS0=  23220 NMatT0=    0 NMatD0=    1 NMtDS0=    0 NMtDT0=    0
 Petite list used in FoFCou.
 CIDS: In Core Option IDoMem=           1.
 CCSD(T)
 =======
 Iterations= 150 Convergence= 0.100D-06
 Produce multiple copies of IABC intergrals
 Iteration Nr.   1
 **********************
 DD1Dir will call FoFMem   1 times, MxPair=       156
 NAB=    50 NAA=    45 NBB=    10.
 DD1Dir will call FoFMem   1 times, MxPair=       156
 NAB=    50 NAA=    45 NBB=    10.
 MP4(R+Q)=  0.19871807D-01
 Maximum subspace dimension=  5
 A-vector RMS=  1.3738325D-04 Max=  1.2696304D-03 conv= 1.00D-05.
 RLE energy=       -0.5029968726
 E3=       -0.12152199D-01        EROMP3=      -0.86887059618D+02
 E4(SDQ)=  -0.36650323D-02        ROMP4(SDQ)=  -0.86890724650D+02
 VARIATIONAL ENERGIES WITH THE FIRST-ORDER WAVEFUNCTION:
 DE(Corr)= -0.50287959     E(Corr)=     -86.867130918    
 NORM(A)=   0.10404950D+01
 Iteration Nr.   2
 **********************
 DD1Dir will call FoFMem   1 times, MxPair=       156
 NAB=    50 NAA=    45 NBB=    10.
 A-vector RMS=  2.7748022D-03 Max=  3.0895981D-02 conv= 1.00D-05.
 RLE energy=       -0.5054620881
 DE(Corr)= -0.51476934     E(CORR)=     -86.879020666     Delta=-1.19D-02
 NORM(A)=   0.10415932D+01
 Iteration Nr.   3
 **********************
 DD1Dir will call FoFMem   1 times, MxPair=       156
 NAB=    50 NAA=    45 NBB=    10.
 A-vector RMS=  2.3889368D-03 Max=  2.8480457D-02 conv= 1.00D-05.
 RLE energy=       -0.5124082056
 DE(Corr)= -0.51680596     E(CORR)=     -86.881057289     Delta=-2.04D-03
 NORM(A)=   0.10454948D+01
 Iteration Nr.   4
 **********************
 DD1Dir will call FoFMem   1 times, MxPair=       156
 NAB=    50 NAA=    45 NBB=    10.
 A-vector RMS=  2.1544403D-03 Max=  2.7654139D-02 conv= 1.00D-05.
 RLE energy=       -0.4158886937
 DE(Corr)= -0.51954679     E(CORR)=     -86.883798113     Delta=-2.74D-03
 NORM(A)=   0.12741301D+01
 Iteration Nr.   5
 **********************
 DD1Dir will call FoFMem   1 times, MxPair=       156
 NAB=    50 NAA=    45 NBB=    10.
 A-vector RMS=  9.4538293D-03 Max=  7.3319342D-02 conv= 1.00D-05.
 RLE energy=       -0.4858290537
 DE(Corr)= -0.46299232     E(CORR)=     -86.827243641     Delta= 5.66D-02
 NORM(A)=   0.11420856D+01
 Iteration Nr.   6
 **********************
 DD1Dir will call FoFMem   1 times, MxPair=       156
 NAB=    50 NAA=    45 NBB=    10.
 A-vector RMS=  4.9850728D-03 Max=  4.4392142D-02 conv= 1.00D-05.
 RLE energy=       -0.5505227848
 DE(Corr)= -0.50024832     E(CORR)=     -86.864499641     Delta=-3.73D-02
 NORM(A)=   0.13910248D+01
 Iteration Nr.   7
 **********************
 DD1Dir will call FoFMem   1 times, MxPair=       156
 NAB=    50 NAA=    45 NBB=    10.
 A-vector RMS=  3.1490391D-03 Max=  4.2329949D-02 conv= 1.00D-05.
 RLE energy=       -0.5314181054
 DE(Corr)= -0.54586916     E(CORR)=     -86.910120488     Delta=-4.56D-02
 NORM(A)=   0.11094721D+01
 Iteration Nr.   8
 **********************
 DD1Dir will call FoFMem   1 times, MxPair=       156
 NAB=    50 NAA=    45 NBB=    10.
 A-vector RMS=  7.7195156D-04 Max=  1.6683264D-02 conv= 1.00D-05.
 RLE energy=       -0.5328060978
 DE(Corr)= -0.53249450     E(CORR)=     -86.896745826     Delta= 1.34D-02
 NORM(A)=   0.11347141D+01
 Iteration Nr.   9
 **********************
 DD1Dir will call FoFMem   1 times, MxPair=       156
 NAB=    50 NAA=    45 NBB=    10.
 A-vector RMS=  5.9903815D-04 Max=  1.4435805D-02 conv= 1.00D-05.
 RLE energy=       -0.5443900162
 DE(Corr)= -0.53368640     E(CORR)=     -86.897937722     Delta=-1.19D-03
 NORM(A)=   0.13742235D+01
 Iteration Nr.  10
 **********************
 DD1Dir will call FoFMem   1 times, MxPair=       156
 NAB=    50 NAA=    45 NBB=    10.
 A-vector RMS=  1.1161435D-03 Max=  1.9575165D-02 conv= 1.00D-05.
 RLE energy=       -0.5366728437
 DE(Corr)= -0.54292976     E(CORR)=     -86.907181089     Delta=-9.24D-03
 NORM(A)=   0.12154773D+01
 Iteration Nr.  11
 **********************
 DD1Dir will call FoFMem   1 times, MxPair=       156
 NAB=    50 NAA=    45 NBB=    10.
 A-vector RMS=  2.0283721D-04 Max=  4.0731591D-03 conv= 1.00D-05.
 RLE energy=       -0.5386077056
 DE(Corr)= -0.53708738     E(CORR)=     -86.901338704     Delta= 5.84D-03
 NORM(A)=   0.12595277D+01
 Iteration Nr.  12
 **********************
 DD1Dir will call FoFMem   1 times, MxPair=       156
 NAB=    50 NAA=    45 NBB=    10.
 A-vector RMS=  8.7943027D-05 Max=  1.6158654D-03 conv= 1.00D-05.
 RLE energy=       -0.5382180584
 DE(Corr)= -0.53848549     E(CORR)=     -86.902736817     Delta=-1.40D-03
 NORM(A)=   0.12547759D+01
 Iteration Nr.  13
 **********************
 DD1Dir will call FoFMem   1 times, MxPair=       156
 NAB=    50 NAA=    45 NBB=    10.
 A-vector RMS=  6.3450288D-05 Max=  8.9493862D-04 conv= 1.00D-05.
 RLE energy=       -0.5380850873
 DE(Corr)= -0.53824849     E(CORR)=     -86.902499817     Delta= 2.37D-04
 NORM(A)=   0.12511789D+01
 Iteration Nr.  14
 **********************
 DD1Dir will call FoFMem   1 times, MxPair=       156
 NAB=    50 NAA=    45 NBB=    10.
 A-vector RMS=  3.8219549D-05 Max=  4.7926969D-04 conv= 1.00D-05.
 RLE energy=       -0.5382092072
 DE(Corr)= -0.53811741     E(CORR)=     -86.902368731     Delta= 1.31D-04
 NORM(A)=   0.12536582D+01
 Iteration Nr.  15
 **********************
 DD1Dir will call FoFMem   1 times, MxPair=       156
 NAB=    50 NAA=    45 NBB=    10.
 A-vector RMS=  1.9995390D-05 Max=  2.4878248D-04 conv= 1.00D-05.
 RLE energy=       -0.5382454216
 DE(Corr)= -0.53820881     E(CORR)=     -86.902460140     Delta=-9.14D-05
 NORM(A)=   0.12546136D+01
 Iteration Nr.  16
 **********************
 DD1Dir will call FoFMem   1 times, MxPair=       156
 NAB=    50 NAA=    45 NBB=    10.
 A-vector RMS=  8.9951036D-06 Max=  1.2292403D-04 conv= 1.00D-05.
 RLE energy=       -0.5382455708
 DE(Corr)= -0.53824078     E(CORR)=     -86.902492107     Delta=-3.20D-05
 NORM(A)=   0.12548539D+01
 Iteration Nr.  17
 **********************
 DD1Dir will call FoFMem   1 times, MxPair=       156
 NAB=    50 NAA=    45 NBB=    10.
 A-vector RMS=  4.0448439D-06 Max=  4.6842630D-05 conv= 1.00D-05.
 RLE energy=       -0.5382335947
 DE(Corr)= -0.53824099     E(CORR)=     -86.902492316     Delta=-2.10D-07
 NORM(A)=   0.12547471D+01
 Iteration Nr.  18
 **********************
 DD1Dir will call FoFMem   1 times, MxPair=       156
 NAB=    50 NAA=    45 NBB=    10.
 A-vector RMS=  1.5644256D-06 Max=  1.5094334D-05 conv= 1.00D-05.
 RLE energy=       -0.5382328834
 DE(Corr)= -0.53823521     E(CORR)=     -86.902486535     Delta= 5.78D-06
 NORM(A)=   0.12547009D+01
 Iteration Nr.  19
 **********************
 DD1Dir will call FoFMem   1 times, MxPair=       156
 NAB=    50 NAA=    45 NBB=    10.
 A-vector RMS=  6.8298666D-07 Max=  7.0157144D-06 conv= 1.00D-05.
 RLE energy=       -0.5382314653
 DE(Corr)= -0.53823278     E(CORR)=     -86.902484101     Delta= 2.43D-06
 NORM(A)=   0.12546637D+01
 Iteration Nr.  20
 **********************
 DD1Dir will call FoFMem   1 times, MxPair=       156
 NAB=    50 NAA=    45 NBB=    10.
 A-vector RMS=  4.6851843D-07 Max=  4.6884859D-06 conv= 1.00D-05.
 RLE energy=       -0.5382312790
 DE(Corr)= -0.53823211     E(CORR)=     -86.902483433     Delta= 6.68D-07
 NORM(A)=   0.12546360D+01
 Iteration Nr.  21
 **********************
 DD1Dir will call FoFMem   1 times, MxPair=       156
 NAB=    50 NAA=    45 NBB=    10.
 A-vector RMS=  2.6251568D-07 Max=  3.0272877D-06 conv= 1.00D-05.
 RLE energy=       -0.5382313319
 DE(Corr)= -0.53823134     E(CORR)=     -86.902482670     Delta= 7.63D-07
 NORM(A)=   0.12546307D+01
 Iteration Nr.  22
 **********************
 DD1Dir will call FoFMem   1 times, MxPair=       156
 NAB=    50 NAA=    45 NBB=    10.
 A-vector RMS=  1.3402047D-07 Max=  1.4071215D-06 conv= 1.00D-05.
 RLE energy=       -0.5382315131
 DE(Corr)= -0.53823145     E(CORR)=     -86.902482779     Delta=-1.09D-07
 NORM(A)=   0.12546299D+01
 Iteration Nr.  23
 **********************
 DD1Dir will call FoFMem   1 times, MxPair=       156
 NAB=    50 NAA=    45 NBB=    10.
 A-vector RMS=  1.0373860D-07 Max=  1.1922692D-06 conv= 1.00D-05.
 RLE energy=       -0.5382315830
 DE(Corr)= -0.53823150     E(CORR)=     -86.902482830     Delta=-5.13D-08
 NORM(A)=   0.12546319D+01
 CI/CC converged in   23 iterations to DelEn=-5.13D-08 Conv= 1.00D-07 ErrA1= 1.04D-07 Conv= 1.00D-05
 Wavefunction amplitudes converged. E(Corr)=     -86.902482830    
 Dominant configurations:
 ***********************
 Spin Case        I    J    A    B          Value
    AA           10        13           -0.110875D+00
    AA           10        14           -0.204026D+00
    AA           10        17            0.395910D+00
    AA           10        22            0.295499D+00
    AA           10        23           -0.159911D+00
    AA           10        24            0.210014D+00
    AA           10        27           -0.118351D+00
    AA           10        28           -0.140575D+00
 Largest amplitude= 3.96D-01
 Time for triples=     4933.79 seconds.
 T4(CCSD)= -0.23074433D-01
 T5(CCSD)=  0.68623130D-02
 CCSD(T)= -0.86918694950D+02
 Discarding MO integrals.
 Leave Link  913 at Mon Feb 26 18:07:47 2018, MaxMem=  8589934592 cpu:            7636.7 elap:             478.4
 (Enter /home1/apps/gaussian/16rA.03/g16/l601.exe)
 Copying SCF densities to generalized density rwf, IOpCl= 0 IROHF=1.

 **********************************************************************

            Population analysis using the SCF density.

 **********************************************************************

 Orbital symmetries:
       Occupied  (SG) (SG) (PI) (PI) (SG) (SG) (PI) (PI) (DLTA)
                 (DLTA)
       Virtual   (PI) (PI) (SG) (SG) (PI) (PI) (SG) (DLTA) (DLTA)
                 (PI) (PI) (SG) (SG) (SG) (PI) (PI) (SG) (SG) (DLTA)
                 (DLTA) (PI) (PI) (PI) (PI) (SG) (SG) (PHI) (PHI)
                 (DLTA) (DLTA) (SG) (PI) (PI) (SG) (PI) (PI) (SG)
                 (PI) (PI) (DLTA) (DLTA) (DLTA) (DLTA) (SG) (PI)
                 (PI) (SG) (PI) (PI) (SG) (SG) (PHI) (PHI) (DLTA)
                 (DLTA) (PI) (PI) (SG) (PI) (PI) (?A) (?A) (SG)
                 (PHI) (PHI) (DLTA) (DLTA) (SG) (PI) (PI) (SG)
                 (DLTA) (DLTA) (PI) (PI) (SG) (DLTA) (DLTA) (PI)
                 (PI) (PI) (PI) (SG) (SG) (DLTA) (DLTA) (PHI) (PHI)
                 (PI) (PI) (SG) (SG) (PI) (PI) (SG) (PHI) (PHI)
                 (?A) (?A) (DLTA) (DLTA) (PI) (PI) (SG) (DLTA)
                 (DLTA) (PI) (PI) (SG) (SG) (DLTA) (DLTA) (PHI)
                 (PHI) (PI) (PI) (SG) (SG) (PI) (PI) (SG) (DLTA)
                 (DLTA) (PI) (PI) (SG) (PHI) (PHI) (DLTA) (DLTA)
                 (?A) (?A) (PI) (PI) (SG) (SG) (PI) (PI) (SG) (DLTA)
                 (DLTA) (PI) (PI) (SG) (SG) (PI) (PI) (SG) (SG)
                 (PI) (PI) (SG) (SG) (DLTA) (DLTA) (PI) (PI) (SG)
                 (PI) (PI) (SG) (SG) (DLTA) (DLTA) (PI) (PI) (SG)
                 (PI) (PI) (SG) (SG) (PI) (PI) (SG) (SG) (PI) (PI)
                 (SG) (SG) (SG) (PI) (PI) (SG) (SG) (PI) (PI) (SG)
                 (SG) (PI) (PI) (SG) (SG) (SG) (SG) (SG) (SG)
 The electronic state is 6-SG.
 Alpha  occ. eigenvalues --   -3.88159  -2.60071  -2.60071  -2.55247  -0.53017
 Alpha  occ. eigenvalues --   -0.53017  -0.49887  -0.49887  -0.38625  -0.27622
 Alpha virt. eigenvalues --    0.00974   0.00974   0.02209   0.02660   0.05115
 Alpha virt. eigenvalues --    0.05115   0.05434   0.07550   0.07550   0.08001
 Alpha virt. eigenvalues --    0.08001   0.09174   0.10413   0.16605   0.20099
 Alpha virt. eigenvalues --    0.20099   0.21009   0.24483   0.26842   0.26842
 Alpha virt. eigenvalues --    0.26884   0.26884   0.34387   0.34419   0.34419
 Alpha virt. eigenvalues --    0.42104   0.61521   0.61521   0.62043   0.62043
 Alpha virt. eigenvalues --    0.67614   0.67823   0.67823   0.69533   0.72129
 Alpha virt. eigenvalues --    0.72129   0.77739   0.88436   0.88436   0.90575
 Alpha virt. eigenvalues --    0.90575   0.98862   0.98862   1.00072   1.12936
 Alpha virt. eigenvalues --    1.12936   1.16111   1.34760   1.34760   1.58377
 Alpha virt. eigenvalues --    1.67499   1.87901   1.87901   1.88911   1.88911
 Alpha virt. eigenvalues --    1.95936   1.95936   2.10159   2.23505   2.23505
 Alpha virt. eigenvalues --    2.26503   2.26503   2.26727   2.27272   2.27272
 Alpha virt. eigenvalues --    2.33672   2.33672   2.47599   2.51062   2.51062
 Alpha virt. eigenvalues --    2.80764   2.86765   2.86765   2.93809   2.93809
 Alpha virt. eigenvalues --    3.21505   4.00992   4.00992   4.13255   4.13255
 Alpha virt. eigenvalues --    4.34583   4.34583   4.35843   4.81265   5.19871
 Alpha virt. eigenvalues --    5.19871   5.20895   5.20895   5.28232   5.28232
 Alpha virt. eigenvalues --    5.59644   6.01704   6.43915   6.43915   6.50014
 Alpha virt. eigenvalues --    6.76540   6.76540   6.77098   6.77098   6.79116
 Alpha virt. eigenvalues --    6.79116   6.91134   6.91134   7.09670   7.93867
 Alpha virt. eigenvalues --    7.93867   7.96825   7.96825   8.10098  10.29345
 Alpha virt. eigenvalues --   14.28643  14.28643  14.29952  14.29952  14.31702
 Alpha virt. eigenvalues --   14.31702  14.46465  15.29972  15.32752  15.32752
 Alpha virt. eigenvalues --   15.36746  18.35598  18.35598  18.35884  18.35884
 Alpha virt. eigenvalues --   18.41670  18.46083  18.46083  18.46716  18.46716
 Alpha virt. eigenvalues --   18.47222  18.47222  18.53427  18.53427  18.63982
 Alpha virt. eigenvalues --   30.29050  30.60555  30.60555  30.63612  40.46842
 Alpha virt. eigenvalues --   40.46842  40.48212  40.48212  40.54144  56.04394
 Alpha virt. eigenvalues --   56.88901  56.88901  56.92108  62.04170 105.45799
 Alpha virt. eigenvalues --  105.45799 105.48830 106.37741 109.02419 109.02419
 Alpha virt. eigenvalues --  109.03644 109.03644 109.08863 200.65749 200.65749
 Alpha virt. eigenvalues --  200.69666 207.19522 370.54263 370.54263 370.55272
 Alpha virt. eigenvalues --  370.55272 370.58410 397.93530 397.93530 397.97725
 Alpha virt. eigenvalues --  417.61733 831.49799 831.49799 831.53955 868.26916
 Alpha virt. eigenvalues -- 1856.701301856.701301856.740111859.545074121.71349
 Alpha virt. eigenvalues -- 4542.029114542.029114542.063919534.74287**********
 Alpha virt. eigenvalues -- **************************************************
 Alpha virt. eigenvalues -- **************************************************
 Alpha virt. eigenvalues -- **********
     Molecular Orbital Coefficients:
                           1         2         3         4         5
                           O         O         O         O         O
     Eigenvalues --    -3.88159  -2.60071  -2.60071  -2.55247  -0.53017
   1 1   Cr 1S         -0.00000   0.00000   0.00000   0.00000  -0.00000
   2        2S          0.00000  -0.00000   0.00000   0.00000   0.00000
   3        3S         -0.00000   0.00000   0.00000   0.00000  -0.00000
   4        4S          0.00000  -0.00000   0.00000   0.00000   0.00000
   5        5S         -0.00000   0.00000   0.00000   0.00000  -0.00000
   6        6S          0.00001  -0.00000   0.00000   0.00000   0.00000
   7        7S         -0.00004   0.00000   0.00000   0.00000  -0.00000
   8        8S          0.00012  -0.00000   0.00000   0.00000   0.00000
   9        9S         -0.00036   0.00000   0.00000   0.00000  -0.00001
  10       10S          0.00093  -0.00000   0.00000   0.00000   0.00001
  11       11S         -0.00195   0.00001   0.00000   0.00000   0.00001
  12       12S          0.00167  -0.00001   0.00000   0.00000  -0.00034
  13       13S          0.02785  -0.00013   0.00000   0.00000   0.00494
  14       14S         -0.30023   0.00148   0.00000   0.00000  -0.04439
  15       15S          2.39771  -0.01293   0.00000   0.00000   0.43817
  16       16S         -0.20223   0.00098   0.00000   0.00000   0.01189
  17       17S         -1.37012   0.01329   0.00000   0.00000  -0.28705
  18       18S         -0.22525  -0.00326   0.00000   0.00000  -0.05025
  19       19S         -0.01481  -0.00208   0.00000   0.00000   0.32931
  20       20S          0.00378   0.00172   0.00000   0.00000   0.01291
  21       21S         -1.79634   0.01004   0.00000   0.00000  -0.37737
  22       22S          0.59043  -0.00680   0.00000   0.00000   0.10385
  23       23S          0.00093   0.00139   0.00000   0.00000  -0.02149
  24       24PX         0.00000   0.00000   0.00000   0.00000   0.00000
  25       24PY         0.00000   0.00000   0.00000   0.00000   0.00000
  26       24PZ        -0.00000   0.00000   0.00000   0.00000  -0.00000
  27       25PX         0.00000   0.00000  -0.00001   0.00000   0.00000
  28       25PY         0.00000   0.00000   0.00000  -0.00001   0.00000
  29       25PZ         0.00000  -0.00001   0.00000   0.00000   0.00000
  30       26PX         0.00000   0.00000   0.00005   0.00000   0.00000
  31       26PY         0.00000   0.00000   0.00000   0.00005   0.00000
  32       26PZ        -0.00000   0.00005   0.00000   0.00000  -0.00000
  33       27PX         0.00000   0.00000  -0.00020   0.00000   0.00000
  34       27PY         0.00000   0.00000   0.00000  -0.00020   0.00000
  35       27PZ         0.00000  -0.00020   0.00000   0.00000   0.00002
  36       28PX         0.00000   0.00000   0.00075   0.00000   0.00000
  37       28PY         0.00000   0.00000   0.00000   0.00075   0.00000
  38       28PZ        -0.00000   0.00075   0.00000   0.00000  -0.00007
  39       29PX         0.00000   0.00000  -0.00255   0.00000   0.00000
  40       29PY         0.00000   0.00000   0.00000  -0.00255   0.00000
  41       29PZ         0.00000  -0.00255   0.00000   0.00000   0.00023
  42       30PX         0.00000   0.00000   0.00819   0.00000   0.00000
  43       30PY         0.00000   0.00000   0.00000   0.00819   0.00000
  44       30PZ        -0.00000   0.00820   0.00000   0.00000  -0.00074
  45       31PX         0.00000   0.00000  -0.02526   0.00000   0.00000
  46       31PY         0.00000   0.00000   0.00000  -0.02526   0.00000
  47       31PZ         0.00001  -0.02531   0.00000   0.00000   0.00239
  48       32PX         0.00000   0.00000   0.03767   0.00000   0.00000
  49       32PY         0.00000   0.00000   0.00000   0.03767   0.00000
  50       32PZ        -0.00021   0.03754   0.00000   0.00000  -0.00385
  51       33PX         0.00000   0.00000  -1.13556   0.00000   0.00000
  52       33PY         0.00000   0.00000   0.00000  -1.13556   0.00000
  53       33PZ        -0.00906  -1.14302   0.00000   0.00000   0.12332
  54       34PX         0.00000   0.00000  -0.30455   0.00000   0.00000
  55       34PY         0.00000   0.00000   0.00000  -0.30455   0.00000
  56       34PZ         0.00029  -0.30575   0.00000   0.00000   0.03121
  57       35PX         0.00000   0.00000  -0.45853   0.00000   0.00000
  58       35PY         0.00000   0.00000   0.00000  -0.45853   0.00000
  59       35PZ        -0.00215  -0.45876   0.00000   0.00000   0.05247
  60       36PX         0.00000   0.00000  -0.24895   0.00000   0.00000
  61       36PY         0.00000   0.00000   0.00000  -0.24895   0.00000
  62       36PZ        -0.00163  -0.24309   0.00000   0.00000   0.02999
  63       37PX         0.00000   0.00000  -0.03539   0.00000   0.00000
  64       37PY         0.00000   0.00000   0.00000  -0.03539   0.00000
  65       37PZ        -0.00159  -0.03279   0.00000   0.00000  -0.06895
  66       38PX         0.00000   0.00000   0.00567   0.00000   0.00000
  67       38PY         0.00000   0.00000   0.00000   0.00567   0.00000
  68       38PZ         0.00965   0.00643   0.00000   0.00000  -0.13367
  69       39PX         0.00000   0.00000  -0.00268   0.00000   0.00000
  70       39PY         0.00000   0.00000   0.00000  -0.00268   0.00000
  71       39PZ        -0.00196  -0.00385   0.00000   0.00000  -0.00699
  72       40PX         0.00000   0.00000   1.13646   0.00000   0.00000
  73       40PY         0.00000   0.00000   0.00000   1.13646   0.00000
  74       40PZ         0.00889   1.14428   0.00000   0.00000  -0.12131
  75       41PX         0.00000   0.00000  -0.03595   0.00000   0.00000
  76       41PY         0.00000   0.00000   0.00000  -0.03595   0.00000
  77       41PZ         0.00029  -0.04047   0.00000   0.00000   0.00745
  78       42PX         0.00000   0.00000   0.00083   0.00000   0.00000
  79       42PY         0.00000   0.00000   0.00000   0.00083   0.00000
  80       42PZ        -0.00065   0.00004   0.00000   0.00000   0.01302
  81       43D 0       -0.00000  -0.00000   0.00000   0.00000   0.00008
  82       43D+1        0.00000   0.00000   0.00000   0.00000   0.00000
  83       43D-1        0.00000   0.00000   0.00000   0.00000   0.00000
  84       43D+2       -0.00000   0.00000   0.00000   0.00000  -0.00000
  85       43D-2        0.00000   0.00000   0.00000   0.00000   0.00000
  86       44D 0        0.00002   0.00004   0.00000   0.00000  -0.00071
  87       44D+1        0.00000   0.00000  -0.00001   0.00000   0.00000
  88       44D-1        0.00000   0.00000   0.00000  -0.00001   0.00000
  89       44D+2        0.00000  -0.00000   0.00000   0.00000   0.00000
  90       44D-2        0.00000   0.00000   0.00000   0.00000   0.00000
  91       45D 0       -0.00016  -0.00032   0.00000   0.00000   0.00531
  92       45D+1        0.00000   0.00000   0.00006   0.00000   0.00000
  93       45D-1        0.00000   0.00000   0.00000   0.00006   0.00000
  94       45D+2       -0.00000   0.00000   0.00000   0.00000  -0.00000
  95       45D-2        0.00000   0.00000   0.00000   0.00000   0.00000
  96       46D 0       -0.00325  -0.00303   0.00000   0.00000   0.05122
  97       46D+1        0.00000   0.00000   0.00097   0.00000   0.00000
  98       46D-1        0.00000   0.00000   0.00000   0.00097   0.00000
  99       46D+2       -0.00000   0.00000   0.00000   0.00000  -0.00000
 100       46D-2        0.00000   0.00000   0.00000   0.00000   0.00000
 101       47D 0        0.02587  -0.01744   0.00000   0.00000   0.03413
 102       47D+1        0.00000   0.00000  -0.00323   0.00000   0.00000
 103       47D-1        0.00000   0.00000   0.00000  -0.00323   0.00000
 104       47D+2       -0.00000   0.00000   0.00000   0.00000  -0.00000
 105       47D-2        0.00000   0.00000   0.00000   0.00000   0.00000
 106       48D 0        0.00090  -0.00323   0.00000   0.00000   0.05368
 107       48D+1        0.00000   0.00000  -0.00134   0.00000   0.00000
 108       48D-1        0.00000   0.00000   0.00000  -0.00134   0.00000
 109       48D+2       -0.00000   0.00000   0.00000   0.00000  -0.00000
 110       48D-2        0.00000   0.00000   0.00000   0.00000   0.00000
 111       49D 0       -0.00057   0.00067   0.00000   0.00000   0.07517
 112       49D+1        0.00000   0.00000  -0.00103   0.00000   0.00000
 113       49D-1        0.00000   0.00000   0.00000  -0.00103   0.00000
 114       49D+2       -0.00000  -0.00000   0.00000   0.00000  -0.00000
 115       49D-2        0.00000   0.00000   0.00000   0.00000   0.00000
 116       50D 0       -0.00379  -0.00032   0.00000   0.00000   0.05040
 117       50D+1        0.00000   0.00000  -0.00019   0.00000   0.00000
 118       50D-1        0.00000   0.00000   0.00000  -0.00019   0.00000
 119       50D+2       -0.00000  -0.00000   0.00000   0.00000  -0.00000
 120       50D-2        0.00000   0.00000   0.00000   0.00000   0.00000
 121       51D 0        0.00175   0.00143   0.00000   0.00000  -0.02366
 122       51D+1        0.00000   0.00000  -0.00064   0.00000   0.00000
 123       51D-1        0.00000   0.00000   0.00000  -0.00064   0.00000
 124       51D+2        0.00000  -0.00000   0.00000   0.00000   0.00000
 125       51D-2        0.00000   0.00000   0.00000   0.00000   0.00000
 126       52D 0       -0.02961   0.01443   0.00000   0.00000   0.01426
 127       52D+1        0.00000   0.00000   0.00387   0.00000   0.00000
 128       52D-1        0.00000   0.00000   0.00000   0.00387   0.00000
 129       52D+2       -0.00000   0.00000   0.00000   0.00000  -0.00000
 130       52D-2        0.00000   0.00000   0.00000   0.00000   0.00000
 131       53D 0        0.00129   0.00064   0.00000   0.00000  -0.00911
 132       53D+1        0.00000   0.00000  -0.00002   0.00000   0.00000
 133       53D-1        0.00000   0.00000   0.00000  -0.00002   0.00000
 134       53D+2        0.00000   0.00000   0.00000   0.00000  -0.00000
 135       53D-2        0.00000   0.00000   0.00000   0.00000   0.00000
 136       54F 0       -0.00008   0.00073   0.00000   0.00000  -0.00033
 137       54F+1        0.00000   0.00000  -0.00153   0.00000   0.00000
 138       54F-1        0.00000   0.00000   0.00000  -0.00153   0.00000
 139       54F+2        0.00000  -0.00000   0.00000   0.00000   0.00000
 140       54F-2        0.00000   0.00000   0.00000   0.00000   0.00000
 141       54F+3        0.00000   0.00000  -0.00000   0.00000   0.00000
 142       54F-3        0.00000   0.00000   0.00000  -0.00000   0.00000
 143       55F 0       -0.00039   0.00199   0.00000   0.00000  -0.00099
 144       55F+1        0.00000   0.00000  -0.00357   0.00000   0.00000
 145       55F-1        0.00000   0.00000   0.00000  -0.00357   0.00000
 146       55F+2        0.00000  -0.00000   0.00000   0.00000   0.00000
 147       55F-2        0.00000   0.00000   0.00000   0.00000   0.00000
 148       55F+3        0.00000   0.00000  -0.00000   0.00000   0.00000
 149       55F-3        0.00000   0.00000   0.00000  -0.00000   0.00000
 150       56F 0       -0.00041   0.00400   0.00000   0.00000  -0.00672
 151       56F+1        0.00000   0.00000  -0.00141   0.00000   0.00000
 152       56F-1        0.00000   0.00000   0.00000  -0.00141   0.00000
 153       56F+2       -0.00000  -0.00000   0.00000   0.00000   0.00000
 154       56F-2        0.00000   0.00000   0.00000   0.00000   0.00000
 155       56F+3        0.00000   0.00000  -0.00000   0.00000   0.00000
 156       56F-3        0.00000   0.00000   0.00000  -0.00000   0.00000
 157       57F 0        0.00143   0.00006   0.00000   0.00000  -0.01505
 158       57F+1        0.00000   0.00000  -0.00015   0.00000   0.00000
 159       57F-1        0.00000   0.00000   0.00000  -0.00015   0.00000
 160       57F+2       -0.00000   0.00000   0.00000   0.00000  -0.00000
 161       57F-2        0.00000   0.00000   0.00000   0.00000   0.00000
 162       57F+3        0.00000   0.00000   0.00000   0.00000   0.00000
 163       57F-3        0.00000   0.00000   0.00000   0.00000   0.00000
 164       58G 0        0.00020   0.00007   0.00000   0.00000   0.00007
 165       58G+1        0.00000   0.00000   0.00006   0.00000   0.00000
 166       58G-1        0.00000   0.00000   0.00000   0.00006   0.00000
 167       58G+2       -0.00000  -0.00000   0.00000   0.00000   0.00000
 168       58G-2        0.00000   0.00000   0.00000   0.00000   0.00000
 169       58G+3        0.00000   0.00000  -0.00000   0.00000   0.00000
 170       58G-3        0.00000   0.00000   0.00000  -0.00000   0.00000
 171       58G+4        0.00000  -0.00000   0.00000   0.00000   0.00000
 172       58G-4        0.00000   0.00000   0.00000   0.00000   0.00000
 173       59G 0        0.00068  -0.00026   0.00000   0.00000   0.00020
 174       59G+1        0.00000   0.00000  -0.00023   0.00000   0.00000
 175       59G-1        0.00000   0.00000   0.00000  -0.00023   0.00000
 176       59G+2       -0.00000   0.00000   0.00000   0.00000   0.00000
 177       59G-2        0.00000   0.00000   0.00000   0.00000   0.00000
 178       59G+3        0.00000   0.00000   0.00000   0.00000   0.00000
 179       59G-3        0.00000   0.00000   0.00000   0.00000   0.00000
 180       59G+4        0.00000   0.00000   0.00000   0.00000  -0.00000
 181       59G-4        0.00000   0.00000   0.00000   0.00000   0.00000
 182       60G 0        0.00032   0.00016   0.00000   0.00000   0.00231
 183       60G+1        0.00000   0.00000  -0.00008   0.00000   0.00000
 184       60G-1        0.00000   0.00000   0.00000  -0.00008   0.00000
 185       60G+2       -0.00000  -0.00000   0.00000   0.00000   0.00000
 186       60G-2        0.00000   0.00000   0.00000   0.00000   0.00000
 187       60G+3        0.00000   0.00000   0.00000   0.00000   0.00000
 188       60G-3        0.00000   0.00000   0.00000   0.00000   0.00000
 189       60G+4       -0.00000  -0.00000   0.00000   0.00000   0.00000
 190       60G-4        0.00000   0.00000   0.00000   0.00000   0.00000
 191 2   H  1S         -0.00001   0.00006   0.00000   0.00000   0.00446
 192        2S         -0.00011   0.00039   0.00000   0.00000   0.03293
 193        3S         -0.00013   0.00151   0.00000   0.00000   0.13137
 194        4S         -0.00075   0.00307   0.00000   0.00000   0.30804
 195        5S          0.01058   0.00281   0.00000   0.00000   0.26996
 196        6S         -0.00374  -0.00350   0.00000   0.00000   0.07767
 197        7PX         0.00000   0.00000  -0.00007   0.00000   0.00000
 198        7PY         0.00000   0.00000   0.00000  -0.00007   0.00000
[...]
 215       11D-2        0.00000   0.00000   0.00000   0.00000   0.00000
     Gross orbital populations:
                         Total     Alpha     Beta      Spin
   1 1   Cr 1S          0.00000   0.00000   0.00000   0.00000
   2        2S         -0.00000  -0.00000  -0.00000  -0.00000
   3        3S          0.00000   0.00000   0.00000   0.00000
   4        4S         -0.00000  -0.00000  -0.00000  -0.00000
   5        5S          0.00000   0.00000   0.00000   0.00000
   6        6S         -0.00000  -0.00000  -0.00000  -0.00000
   7        7S          0.00000   0.00000   0.00000   0.00000
   8        8S         -0.00000  -0.00000  -0.00000  -0.00000
   9        9S          0.00000   0.00000   0.00000   0.00000
  10       10S         -0.00002  -0.00001  -0.00001  -0.00000
  11       11S          0.00009   0.00004   0.00004   0.00000
  12       12S         -0.00014  -0.00007  -0.00007   0.00000
  13       13S         -0.00566  -0.00292  -0.00274  -0.00018
  14       14S          0.12943   0.06640   0.06303   0.00338
  15       15S         -2.12146  -1.09181  -1.02965  -0.06216
  16       16S          0.30152   0.14969   0.15183  -0.00213
  17       17S          2.67817   1.35310   1.32507   0.02803
  18       18S          0.39866   0.19241   0.20625  -0.01384
  19       19S          0.89440   0.71772   0.17668   0.54105
  20       20S          0.16953   0.16348   0.00605   0.15743
  21       21S          1.75756   0.90750   0.85006   0.05744
  22       22S         -1.14505  -0.57776  -0.56729  -0.01048
  23       23S         -0.02058  -0.01219  -0.00839  -0.00379
  24       24PX        -0.00000  -0.00000  -0.00000  -0.00000
  25       24PY        -0.00000  -0.00000  -0.00000  -0.00000
  26       24PZ        -0.00000  -0.00000  -0.00000  -0.00000
  27       25PX         0.00000   0.00000   0.00000   0.00000
  28       25PY         0.00000   0.00000   0.00000   0.00000
  29       25PZ         0.00000   0.00000   0.00000   0.00000
  30       26PX        -0.00000  -0.00000  -0.00000  -0.00000
  31       26PY        -0.00000  -0.00000  -0.00000  -0.00000
  32       26PZ        -0.00000  -0.00000  -0.00000  -0.00000
  33       27PX         0.00000   0.00000   0.00000   0.00000
  34       27PY         0.00000   0.00000   0.00000   0.00000
  35       27PZ         0.00000   0.00000   0.00000   0.00000
  36       28PX        -0.00001  -0.00001  -0.00001  -0.00000
  37       28PY        -0.00001  -0.00001  -0.00001  -0.00000
  38       28PZ        -0.00001  -0.00001  -0.00001  -0.00000
  39       29PX         0.00013   0.00006   0.00006   0.00000
  40       29PY         0.00013   0.00006   0.00006   0.00000
  41       29PZ         0.00013   0.00007   0.00006   0.00000
  42       30PX        -0.00103  -0.00051  -0.00051  -0.00000
  43       30PY        -0.00103  -0.00051  -0.00051  -0.00000
  44       30PZ        -0.00105  -0.00053  -0.00052  -0.00001
  45       31PX         0.00757   0.00379   0.00378   0.00000
  46       31PY         0.00757   0.00379   0.00378   0.00000
  47       31PZ         0.00774   0.00390   0.00384   0.00007
  48       32PX        -0.02433  -0.01216  -0.01216  -0.00000
  49       32PY        -0.02433  -0.01216  -0.01216  -0.00000
  50       32PZ        -0.02481  -0.01254  -0.01227  -0.00027
  51       33PX         1.33598   0.66815   0.66783   0.00031
  52       33PY         1.33598   0.66815   0.66783   0.00031
  53       33PZ         1.36798   0.68747   0.68051   0.00696
  54       34PX         0.52902   0.26455   0.26448   0.00007
  55       34PY         0.52902   0.26455   0.26448   0.00007
  56       34PZ         0.53947   0.27148   0.26800   0.00348
  57       35PX         0.90882   0.45444   0.45438   0.00006
  58       35PY         0.90882   0.45444   0.45438   0.00006
  59       35PZ         0.91411   0.45789   0.45622   0.00167
  60       36PX         0.42786   0.21392   0.21395  -0.00003
  61       36PY         0.42786   0.21392   0.21395  -0.00003
  62       36PZ         0.40589   0.20019   0.20570  -0.00551
  63       37PX         0.03652   0.01889   0.01762   0.00127
  64       37PY         0.03652   0.01889   0.01762   0.00127
  65       37PZ         0.13578   0.09444   0.04134   0.05310
  66       38PX        -0.00160  -0.00031  -0.00129   0.00099
  67       38PY        -0.00160  -0.00031  -0.00129   0.00099
  68       38PZ         0.27174   0.20090   0.07084   0.13006
  69       39PX         0.00047   0.00024   0.00023   0.00002
  70       39PY         0.00047   0.00024   0.00023   0.00002
  71       39PZ         0.06271   0.05927   0.00344   0.05583
  72       40PX        -1.28827  -0.64428  -0.64399  -0.00030
  73       40PY        -1.28827  -0.64428  -0.64399  -0.00030
  74       40PZ        -1.31945  -0.66307  -0.65638  -0.00669
  75       41PX         0.07126   0.03563   0.03563   0.00001
  76       41PY         0.07126   0.03563   0.03563   0.00001
  77       41PZ         0.08117   0.04084   0.04033   0.00051
  78       42PX        -0.00004  -0.00002  -0.00002   0.00000
  79       42PY        -0.00004  -0.00002  -0.00002   0.00000
  80       42PZ        -0.00645  -0.00339  -0.00306  -0.00032
  81       43D 0        0.00000   0.00000   0.00000   0.00000
  82       43D+1        0.00001   0.00001   0.00000   0.00001
  83       43D-1        0.00001   0.00001   0.00000   0.00001
  84       43D+2        0.00001   0.00001   0.00000   0.00001
  85       43D-2        0.00001   0.00001   0.00000   0.00001
  86       44D 0       -0.00004  -0.00003  -0.00001  -0.00002
  87       44D+1       -0.00066  -0.00066  -0.00000  -0.00066
  88       44D-1       -0.00066  -0.00066  -0.00000  -0.00066
  89       44D+2       -0.00064  -0.00064  -0.00000  -0.00064
  90       44D-2       -0.00064  -0.00064  -0.00000  -0.00064
  91       45D 0        0.00089   0.00065   0.00024   0.00041
  92       45D+1        0.01532   0.01532   0.00000   0.01532
  93       45D-1        0.01532   0.01532   0.00000   0.01532
  94       45D+2        0.01499   0.01499   0.00000   0.01499
  95       45D-2        0.01499   0.01499   0.00000   0.01499
  96       46D 0        0.01635   0.01175   0.00460   0.00714
  97       46D+1        0.27324   0.27324   0.00000   0.27324
  98       46D-1        0.27324   0.27324   0.00000   0.27324
  99       46D+2        0.26531   0.26531   0.00000   0.26531
 100       46D-2        0.26531   0.26531   0.00000   0.26531
 101       47D 0        0.01390   0.00916   0.00474   0.00442
 102       47D+1        0.19442   0.19441   0.00000   0.19441
 103       47D-1        0.19442   0.19441   0.00000   0.19441
 104       47D+2        0.18988   0.18988   0.00000   0.18988
 105       47D-2        0.18988   0.18988   0.00000   0.18988
 106       48D 0        0.03561   0.02420   0.01141   0.01278
 107       48D+1        0.33469   0.33469   0.00000   0.33469
 108       48D-1        0.33469   0.33469   0.00000   0.33469
 109       48D+2        0.33779   0.33779   0.00000   0.33779
 110       48D-2        0.33779   0.33779   0.00000   0.33779
 111       49D 0        0.06792   0.04025   0.02768   0.01257
 112       49D+1        0.14798   0.14798   0.00000   0.14798
 113       49D-1        0.14798   0.14798   0.00000   0.14798
 114       49D+2        0.15806   0.15806   0.00000   0.15806
 115       49D-2        0.15806   0.15806   0.00000   0.15806
 116       50D 0        0.04105   0.02033   0.02072  -0.00039
 117       50D+1        0.01092   0.01092   0.00000   0.01092
 118       50D-1        0.01092   0.01092   0.00000   0.01092
 119       50D+2        0.01160   0.01160   0.00000   0.01160
 120       50D-2        0.01160   0.01160   0.00000   0.01160
 121       51D 0       -0.00781  -0.00553  -0.00227  -0.00326
 122       51D+1       -0.13095  -0.13095  -0.00000  -0.13095
 123       51D-1       -0.13095  -0.13095  -0.00000  -0.13095
 124       51D+2       -0.12624  -0.12624  -0.00000  -0.12624
 125       51D-2       -0.12624  -0.12624  -0.00000  -0.12624
 126       52D 0        0.00953   0.00752   0.00201   0.00551
 127       52D+1        0.15316   0.15316  -0.00000   0.15316
 128       52D-1        0.15316   0.15316  -0.00000   0.15316
 129       52D+2        0.14928   0.14928   0.00000   0.14928
 130       52D-2        0.14928   0.14928   0.00000   0.14928
 131       53D 0       -0.00257  -0.00081  -0.00176   0.00095
 132       53D+1       -0.00013  -0.00013   0.00000  -0.00013
 133       53D-1       -0.00013  -0.00013   0.00000  -0.00013
 134       53D+2       -0.00016  -0.00016   0.00000  -0.00016
 135       53D-2       -0.00016  -0.00016   0.00000  -0.00016
 136       54F 0        0.00001   0.00000   0.00000  -0.00000
 137       54F+1        0.00001   0.00001   0.00001   0.00000
 138       54F-1        0.00001   0.00001   0.00001   0.00000
 139       54F+2        0.00000   0.00000   0.00000   0.00000
 140       54F-2        0.00000   0.00000   0.00000   0.00000
 141       54F+3        0.00000   0.00000   0.00000  -0.00000
 142       54F-3        0.00000   0.00000   0.00000  -0.00000
 143       55F 0        0.00005   0.00002   0.00002   0.00000
 144       55F+1        0.00004   0.00002   0.00002   0.00000
 145       55F-1        0.00004   0.00002   0.00002   0.00000
 146       55F+2        0.00000   0.00000   0.00000   0.00000
 147       55F-2        0.00000   0.00000   0.00000   0.00000
 148       55F+3        0.00000   0.00000   0.00000  -0.00000
 149       55F-3        0.00000   0.00000   0.00000  -0.00000
 150       56F 0        0.00107   0.00053   0.00055  -0.00002
 151       56F+1        0.00006   0.00005   0.00000   0.00005
 152       56F-1        0.00006   0.00005   0.00000   0.00005
 153       56F+2        0.00004   0.00004   0.00000   0.00004
 154       56F-2        0.00004   0.00004   0.00000   0.00004
 155       56F+3        0.00000   0.00000   0.00000   0.00000
 156       56F-3        0.00000   0.00000   0.00000   0.00000
 157       57F 0        0.00655   0.00293   0.00362  -0.00068
 158       57F+1        0.00003   0.00003   0.00000   0.00003
 159       57F-1        0.00003   0.00003   0.00000   0.00003
 160       57F+2        0.00009   0.00009   0.00000   0.00009
 161       57F-2        0.00009   0.00009   0.00000   0.00009
 162       57F+3        0.00000   0.00000  -0.00000   0.00000
 163       57F-3        0.00000   0.00000  -0.00000   0.00000
 164       58G 0        0.00000   0.00000   0.00000  -0.00000
 165       58G+1       -0.00000   0.00000  -0.00000   0.00000
 166       58G-1       -0.00000   0.00000  -0.00000   0.00000
 167       58G+2        0.00000   0.00000   0.00000   0.00000
 168       58G-2        0.00000   0.00000   0.00000   0.00000
 169       58G+3        0.00000   0.00000   0.00000   0.00000
 170       58G-3        0.00000   0.00000   0.00000   0.00000
 171       58G+4        0.00000   0.00000   0.00000   0.00000
 172       58G-4        0.00000   0.00000   0.00000   0.00000
 173       59G 0        0.00000   0.00000   0.00000   0.00000
 174       59G+1        0.00000   0.00000   0.00000   0.00000
 175       59G-1        0.00000   0.00000   0.00000   0.00000
 176       59G+2        0.00001   0.00001   0.00000   0.00001
 177       59G-2        0.00001   0.00001   0.00000   0.00001
 178       59G+3        0.00000   0.00000   0.00000   0.00000
 179       59G-3        0.00000   0.00000   0.00000   0.00000
 180       59G+4        0.00000   0.00000  -0.00000   0.00000
 181       59G-4        0.00000   0.00000  -0.00000   0.00000
 182       60G 0        0.00030   0.00016   0.00014   0.00002
 183       60G+1        0.00000   0.00000   0.00000   0.00000
 184       60G-1        0.00000   0.00000   0.00000   0.00000
 185       60G+2        0.00000   0.00000   0.00000   0.00000
 186       60G-2        0.00000   0.00000   0.00000   0.00000
 187       60G+3        0.00000   0.00000   0.00000   0.00000
 188       60G-3        0.00000   0.00000   0.00000   0.00000
 189       60G+4        0.00000   0.00000   0.00000   0.00000
 190       60G-4        0.00000   0.00000   0.00000   0.00000
 191 2   H  1S          0.00091   0.00047   0.00044   0.00003
 192        2S          0.02120   0.01100   0.01020   0.00079
 193        3S          0.16995   0.08821   0.08174   0.00647
 194        4S          0.56621   0.29211   0.27409   0.01802
 195        5S          0.49339   0.25052   0.24287   0.00766
 196        6S          0.09715   0.04974   0.04741   0.00233
 197        7PX         0.00003   0.00003   0.00000   0.00003
 198        7PY         0.00003   0.00003   0.00000   0.00003
 199        7PZ         0.00041   0.00020   0.00020  -0.00000
 200        8PX         0.00022   0.00022   0.00000   0.00022
 201        8PY         0.00022   0.00022   0.00000   0.00022
 202        8PZ         0.00637   0.00315   0.00323  -0.00008
 203        9PX        -0.00023  -0.00024   0.00001  -0.00025
 204        9PY        -0.00023  -0.00024   0.00001  -0.00025
 205        9PZ        -0.01047  -0.00947  -0.00100  -0.00847
 206       10D 0        0.00012   0.00006   0.00006   0.00000
 207       10D+1        0.00003   0.00003   0.00000   0.00002
 208       10D-1        0.00003   0.00003   0.00000   0.00002
 209       10D+2        0.00000   0.00000  -0.00000   0.00000
 210       10D-2        0.00000   0.00000  -0.00000   0.00000
 211       11D 0        0.00055   0.00037   0.00018   0.00019
 212       11D+1       -0.00054  -0.00052  -0.00002  -0.00050
 213       11D-1       -0.00054  -0.00052  -0.00002  -0.00050
 214       11D+2       -0.00002  -0.00002   0.00000  -0.00002
 215       11D-2       -0.00002  -0.00002   0.00000  -0.00002
          Condensed to atoms (all electrons):
               1          2
     1  Cr  13.341650   0.313600
     2  H    0.313600   1.031150
          Atomic-Atomic Spin Densities.
               1          2
     1  Cr   5.018146  -0.044082
     2  H   -0.044082   0.070018
 Mulliken charges and spin densities:
               1          2
     1  Cr   0.344750   4.974064
     2  H   -0.344750   0.025936
 Sum of Mulliken charges =  -0.00000   5.00000
 Mulliken charges and spin densities with hydrogens summed into heavy atoms:
               1          2
     1  Cr  -0.000000   5.000000
 Electronic spatial extent (au):  <R**2>=             59.3452
 Charge=             -0.0000 electrons
 Dipole moment (field-independent basis, Debye):
    X=              0.0000    Y=              0.0000    Z=              2.8450  Tot=              2.8450
 Quadrupole moment (field-independent basis, Debye-Ang):
   XX=            -17.4425   YY=            -17.4425   ZZ=            -26.7994
   XY=              0.0000   XZ=              0.0000   YZ=              0.0000
 Traceless Quadrupole moment (field-independent basis, Debye-Ang):
   XX=              3.1190   YY=              3.1190   ZZ=             -6.2380
   XY=              0.0000   XZ=              0.0000   YZ=              0.0000
 Octapole moment (field-independent basis, Debye-Ang**2):
  XXX=              0.0000  YYY=              0.0000  ZZZ=             16.4317  XYY=              0.0000
  XXY=              0.0000  XXZ=              1.2624  XZZ=              0.0000  YZZ=              0.0000
  YYZ=              1.2624  XYZ=              0.0000
 Hexadecapole moment (field-independent basis, Debye-Ang**3):
 XXXX=            -30.5925 YYYY=            -30.5925 ZZZZ=           -116.7106 XXXY=              0.0000
 XXXZ=              0.0000 YYYX=              0.0000 YYYZ=              0.0000 ZZZX=              0.0000
 ZZZY=              0.0000 XXYY=            -10.1975 XXZZ=            -22.4267 YYZZ=            -22.4267
 XXYZ=              0.0000 YYXZ=              0.0000 ZZXY=              0.0000
 N-N= 3.704240476440D+00 E-N=-1.962992771306D+02  KE= 4.104650937251D+01
 Symmetry A1   KE= 1.546445601352D+01
 Symmetry A2   KE= 4.328284286495D+00
 Symmetry B1   KE= 1.062688454409D+01
 Symmetry B2   KE= 1.062688452608D+01
 Symmetry A1   SP= 2.000000000000D+00
 Symmetry A2   SP= 1.000000000000D+00
 Symmetry B1   SP= 1.000000000000D+00
 Symmetry B2   SP= 1.000000000000D+00
 Orbital energies and kinetic energies (alpha):
                                 1                 2
   1         O                -3.881585          1.721233
   2         O                -2.600706          3.124400
   3         O                -2.600706          3.106987
   4         O                -2.552469          3.106987
   5         O                -0.530172          0.474096
   6         O                -0.530172          0.496716
   7         O                -0.498868          4.412911
   8         O                -0.498868          4.412911
   9         O                -0.386253          4.328284
  10         O                -0.276223          4.328284
  11         V                 0.009741          0.067210
  12         V                 0.009741          0.067210
  13         V                 0.022090          0.042274
  14         V                 0.026600          0.074670
  15         V                 0.051154          0.173091
 Total kinetic energy from orbitals= 5.902561521349D+01
                          Isotropic Fermi Contact Couplings
        Atom                 a.u.       MegaHertz       Gauss      10(-4) cm-1
     1  Cr(53)             0.00177      -0.08938      -0.03189      -0.02981
     2  H(1)               0.01245      11.13088       3.97177       3.71286
 --------------------------------------------------------
       Center         ----  Spin Dipole Couplings  ----
                      3XX-RR        3YY-RR        3ZZ-RR
 --------------------------------------------------------
     1   Atom        0.442949      0.442949     -0.885898
     2   Atom       -0.068626     -0.068626      0.137253
 --------------------------------------------------------
                        XY            XZ            YZ
 --------------------------------------------------------
     1   Atom        0.000000      0.000000      0.000000
     2   Atom        0.000000      0.000000      0.000000
 --------------------------------------------------------


 ---------------------------------------------------------------------------------
              Anisotropic Spin Dipole Couplings in Principal Axis System
 ---------------------------------------------------------------------------------

       Atom             a.u.   MegaHertz   Gauss  10(-4) cm-1        Axes

              Baa    -0.8859    26.771     9.553     8.930  0.0000  0.0000  1.0000
     1 Cr(53) Bbb     0.4429   -13.386    -4.776    -4.465  1.0000  0.0000  0.0000
              Bcc     0.4429   -13.386    -4.776    -4.465 -0.0000  1.0000  0.0000
 
              Baa    -0.0686   -36.616   -13.065   -12.214  1.0000  0.0000  0.0000
     2 H(1)   Bbb    -0.0686   -36.616   -13.065   -12.214 -0.0000  1.0000  0.0000
              Bcc     0.1373    73.232    26.131    24.427  0.0000  0.0000  1.0000
 

 ---------------------------------------------------------------------------------

 No NMR shielding tensors so no spin-rotation constants.
 Leave Link  601 at Mon Feb 26 18:07:50 2018, MaxMem=  8589934592 cpu:              44.0 elap:               2.9
 (Enter /home1/apps/gaussian/16rA.03/g16/l9999.exe)

 Test job not archived.
 1\1\GINC-C422-131\SP\ROCCSD(T)-Full\Gen\Cr1H1(6)\AANNABE\26-Feb-2018\0
 \\#P ROCCSD(T)=(maxcyc=150, Full, SaveAmplitudes, ReadAmplitudes)/Gen 
 5d 7f SCF=(maxcycles=300) Integral(NoXCTest) MaxDisk=500GB Pop=Regular
  Pseudo=Read Guess=Read IOp(5/15=2)\\CrH\\0,6\Cr,0,0.,0.,0.\H,0,0.,0.,
 2.\\Version=ES64L-G16RevA.03\State=6-SG\HF=-86.3642513\MP2=-86.8749074
 \MP3=-86.8870596\PUHF=-86.3642513\PMP2-0=-86.8749074\MP4SDQ=-86.890724
 6\CCSD=-86.9024828\CCSD(T)=-86.918695\RMSD=7.493e-10\PG=C*V [C*(H1Cr1)
 ]\\@


 FROM THE ASHES OF OUR DESPAIR GROW THE FLOWERS OF TOMORROW.
 Job cpu time:       0 days  2 hours 36 minutes 54.3 seconds.
 Elapsed time:       0 days  0 hours  9 minutes 52.7 seconds.
 File lengths (MBytes):  RWF=   2232 Int=      0 D2E=      0 Chk=     12 Scr=      1
 Normal termination of Gaussian 16 at Mon Feb 26 18:07:51 2018.
