 Entering Gaussian System, Link 0=g16
 Initial command:
 /home1/apps/gaussian/16rA.03/g16/l1.exe "/tmp/Gau-250834.inp" -scrdir="/tmp/"
 Entering Link 1 = /home1/apps/gaussian/16rA.03/g16/l1.exe PID=    250835.
  
 Copyright (c) 1988,1990,1992,1993,1995,1998,2003,2009,2016,
            Gaussian, Inc.  All Rights Reserved.
  
 This is part of the Gaussian(R) 16 program.  It is based on
 the Gaussian(R) 09 system (copyright 2009, Gaussian, Inc.),
 the Gaussian(R) 03 system (copyright 2003, Gaussian, Inc.),
 the Gaussian(R) 98 system (copyright 1998, Gaussian, Inc.),
 the Gaussian(R) 94 system (copyright 1995, Gaussian, Inc.),
 the Gaussian 92(TM) system (copyright 1992, Gaussian, Inc.),
 the Gaussian 90(TM) system (copyright 1990, Gaussian, Inc.),
 the Gaussian 88(TM) system (copyright 1988, Gaussian, Inc.),
 the Gaussian 86(TM) system (copyright 1986, Carnegie Mellon
 University), and the Gaussian 82(TM) system (copyright 1983,
 Carnegie Mellon University). Gaussian is a federally registered
 trademark of Gaussian, Inc.
  
 This software contains proprietary and confidential information,
 including trade secrets, belonging to Gaussian, Inc.
  
 This software is provided under written license and may be
 used, copied, transmitted, or stored only in accord with that
 written license.
  
 The following legend is applicable only to US Government
 contracts under FAR:
  
                    RESTRICTED RIGHTS LEGEND
  
 Use, reproduction and disclosure by the US Government is
 subject to restrictions as set forth in subparagraphs (a)
 and (c) of the Commercial Computer Software - Restricted
 Rights clause in FAR 52.227-19.
  
 Gaussian, Inc.
 340 Quinnipiac St., Bldg. 40, Wallingford CT 06492
  
  
 ---------------------------------------------------------------
 Warning -- This program may not be used in any manner that
 competes with the business of Gaussian, Inc. or will provide
 assistance to any competitor of Gaussian, Inc.  The licensee
 of this program is prohibited from giving any competitor of
 Gaussian, Inc. access to this program.  By using this program,
 the user acknowledges that Gaussian, Inc. is engaged in the
 business of creating and licensing software in the field of
 computational chemistry and represents and warrants to the
 licensee that it is not a competitor of Gaussian, Inc. and that
 it will not use this program in any manner prohibited above.
 ---------------------------------------------------------------
  

 Cite this work as:
 Gaussian 16, Revision A.03,
 M. J. Frisch, G. W. Trucks, H. B. Schlegel, G. E. Scuseria, 
 M. A. Robb, J. R. Cheeseman, G. Scalmani, V. Barone, 
 G. A. Petersson, H. Nakatsuji, X. Li, M. Caricato, A. V. Marenich, 
 J. Bloino, B. G. Janesko, R. Gomperts, B. Mennucci, H. P. Hratchian, 
 J. V. Ortiz, A. F. Izmaylov, J. L. Sonnenberg, D. Williams-Young, 
 F. Ding, F. Lipparini, F. Egidi, J. Goings, B. Peng, A. Petrone, 
 T. Henderson, D. Ranasinghe, V. G. Zakrzewski, J. Gao, N. Rega, 
 G. Zheng, W. Liang, M. Hada, M. Ehara, K. Toyota, R. Fukuda, 
 J. Hasegawa, M. Ishida, T. Nakajima, Y. Honda, O. Kitao, H. Nakai, 
 T. Vreven, K. Throssell, J. A. Montgomery, Jr., J. E. Peralta, 
 F. Ogliaro, M. J. Bearpark, J. J. Heyd, E. N. Brothers, K. N. Kudin, 
 V. N. Staroverov, T. A. Keith, R. Kobayashi, J. Normand, 
 K. Raghavachari, A. P. Rendell, J. C. Burant, S. S. Iyengar, 
 J. Tomasi, M. Cossi, J. M. Millam, M. Klene, C. Adamo, R. Cammi, 
 J. W. Ochterski, R. L. Martin, K. Morokuma, O. Farkas, 
 J. B. Foresman, and D. J. Fox, Gaussian, Inc., Wallingford CT, 2016.
 
 ******************************************
 Gaussian 16:  ES64L-G16RevA.03 25-Dec-2016
                 5-May-2018 
 ******************************************
 %mem=80GB
 %chk=5z.chk
 %cpu=0-31
 SetSPE:  set environment variable "MP_BIND" = "yes"
 SetSPE:  set environment variable "MP_BLIST" = "0,1,2,3,4,5,6,7,8,9,10,11,12,13,14,15,16,17,18,19,20,21,22,23,24,25,26,27,28,29,30,31"
 Will use up to   32 processors via shared memory.
 ----------------------------------------------------------------------
 #P ROCCSD(T)=(MaxCyc=150, Full)/Gen SCF=(maxcycle=400) Pseudo=Read Int
 egral(NoXCTest) Pop=Regular MaxDisk=500GB Guess=Read IOp(5/15=2)
 ----------------------------------------------------------------------
 1/38=1,172=1/1;
 2/12=2,17=6,18=5,40=1/2;
 3/5=7,11=2,16=1,17=8,25=1,30=1,47=8,116=101/1,2,3;
 4/5=1/1;
 5/5=2,7=400,15=2,38=6/2;
 8/5=-1,6=4,9=120000,10=90/1,4;
 9/5=7,6=150,14=2/13;
 6//1;
 99/5=1,9=1/99;
 Leave Link    1 at Sat May  5 20:50:34 2018, MaxMem= 10737418240 cpu:               7.3 elap:               0.2
 (Enter /home1/apps/gaussian/16rA.03/g16/l101.exe)
 --
 Cu
 --
 Symbolic Z-matrix:
 Charge =  0 Multiplicity = 2
 Cu                    0.        0.        0. 
 
 ITRead=  0
 MicOpt= -1
 NAtoms=      1 NQM=        1 NQMF=       0 NMMI=      0 NMMIF=      0
                NMic=       0 NMicF=      0.
                    Isotopes and Nuclear Properties:
 (Nuclear quadrupole moments (NQMom) in fm**2, nuclear magnetic moments (NMagM)
  in nuclear magnetons)

  Atom         1
 IAtWgt=          63
 AtmWgt=  62.9295992
 NucSpn=           3
 AtZEff=  -0.0000000
 NQMom=  -22.0000000
 NMagM=    2.2233000
 AtZNuc=  29.0000000
 Leave Link  101 at Sat May  5 20:50:35 2018, MaxMem= 10737418240 cpu:               2.9 elap:               0.1
 (Enter /home1/apps/gaussian/16rA.03/g16/l202.exe)
                          Input orientation:                          
 ---------------------------------------------------------------------
 Center     Atomic      Atomic             Coordinates (Angstroms)
 Number     Number       Type             X           Y           Z
 ---------------------------------------------------------------------
      1         29           0        0.000000    0.000000    0.000000
 ---------------------------------------------------------------------
 Stoichiometry    Cu(2)
 Framework group  OH[O(Cu)]
 Deg. of freedom     0
 Full point group                 OH      NOp  48
 Largest Abelian subgroup         D2H     NOp   8
 Largest concise Abelian subgroup C1      NOp   1
                         Standard orientation:                         
 ---------------------------------------------------------------------
 Center     Atomic      Atomic             Coordinates (Angstroms)
 Number     Number       Type             X           Y           Z
 ---------------------------------------------------------------------
      1         29           0        0.000000    0.000000    0.000000
 ---------------------------------------------------------------------
 Leave Link  202 at Sat May  5 20:50:35 2018, MaxMem= 10737418240 cpu:               1.2 elap:               0.1
 (Enter /home1/apps/gaussian/16rA.03/g16/l301.exe)
 General basis read from cards:  (5D, 7F)
 Centers:       1
 S 1 1.00
     Exponent=  1.9318800000D+08 Coefficients=  1.0000000000D+00
 S 1 1.00
     Exponent=  3.3945200000D+07 Coefficients=  1.0000000000D+00
 S 1 1.00
     Exponent=  7.5104600000D+06 Coefficients=  1.0000000000D+00
 S 1 1.00
     Exponent=  2.0019900000D+06 Coefficients=  1.0000000000D+00
 S 1 1.00
     Exponent=  6.1937800000D+05 Coefficients=  1.0000000000D+00
 S 1 1.00
     Exponent=  2.1560600000D+05 Coefficients=  1.0000000000D+00
 S 1 1.00
     Exponent=  8.2327100000D+04 Coefficients=  1.0000000000D+00
 S 1 1.00
     Exponent=  3.3788400000D+04 Coefficients=  1.0000000000D+00
 S 1 1.00
     Exponent=  1.4670000000D+04 Coefficients=  1.0000000000D+00
 S 1 1.00
     Exponent=  6.6574400000D+03 Coefficients=  1.0000000000D+00
 S 1 1.00
     Exponent=  3.1302600000D+03 Coefficients=  1.0000000000D+00
 S 1 1.00
     Exponent=  1.5156100000D+03 Coefficients=  1.0000000000D+00
 S 1 1.00
     Exponent=  7.5258800000D+02 Coefficients=  1.0000000000D+00
 S 1 1.00
     Exponent=  3.8224900000D+02 Coefficients=  1.0000000000D+00
 S 1 1.00
     Exponent=  1.9823700000D+02 Coefficients=  1.0000000000D+00
 S 1 1.00
     Exponent=  1.0481000000D+02 Coefficients=  1.0000000000D+00
 S 1 1.00
     Exponent=  5.6388500000D+01 Coefficients=  1.0000000000D+00
 S 1 1.00
     Exponent=  3.0783000000D+01 Coefficients=  1.0000000000D+00
 S 1 1.00
     Exponent=  1.6977000000D+01 Coefficients=  1.0000000000D+00
 S 1 1.00
     Exponent=  9.3972500000D+00 Coefficients=  1.0000000000D+00
 S 1 1.00
     Exponent=  5.1723800000D+00 Coefficients=  1.0000000000D+00
 S 1 1.00
     Exponent=  2.7953500000D+00 Coefficients=  1.0000000000D+00
 S 1 1.00
     Exponent=  1.4589000000D+00 Coefficients=  1.0000000000D+00
 S 1 1.00
     Exponent=  7.2871100000D-01 Coefficients=  1.0000000000D+00
 S 1 1.00
     Exponent=  2.3764200000D-01 Coefficients=  1.0000000000D+00
 S 1 1.00
     Exponent=  1.2782100000D-01 Coefficients=  1.0000000000D+00
 S 1 1.00
     Exponent=  6.1815000000D-02 Coefficients=  1.0000000000D+00
 S 1 1.00
     Exponent=  2.9303000000D-02 Coefficients=  1.0000000000D+00
 S 1 1.00
     Exponent=  9.3455000000D+00 Coefficients=  1.0000000000D+00
 S 1 1.00
     Exponent=  3.3051000000D+00 Coefficients=  1.0000000000D+00
 S 1 1.00
     Exponent=  1.3890000000D-02 Coefficients=  1.0000000000D+00
 P 1 1.00
     Exponent=  1.1029400000D+05 Coefficients=  1.0000000000D+00
 P 1 1.00
     Exponent=  2.6939100000D+04 Coefficients=  1.0000000000D+00
 P 1 1.00
     Exponent=  8.5507100000D+03 Coefficients=  1.0000000000D+00
 P 1 1.00
     Exponent=  3.2461900000D+03 Coefficients=  1.0000000000D+00
 P 1 1.00
     Exponent=  1.3884600000D+03 Coefficients=  1.0000000000D+00
 P 1 1.00
     Exponent=  6.4247400000D+02 Coefficients=  1.0000000000D+00
 P 1 1.00
     Exponent=  3.1357000000D+02 Coefficients=  1.0000000000D+00
 P 1 1.00
     Exponent=  1.5916100000D+02 Coefficients=  1.0000000000D+00
 P 1 1.00
     Exponent=  8.3441400000D+01 Coefficients=  1.0000000000D+00
 P 1 1.00
     Exponent=  4.5019600000D+01 Coefficients=  1.0000000000D+00
 P 1 1.00
     Exponent=  2.4889400000D+01 Coefficients=  1.0000000000D+00
 P 1 1.00
     Exponent=  1.3973100000D+01 Coefficients=  1.0000000000D+00
 P 1 1.00
     Exponent=  7.8257100000D+00 Coefficients=  1.0000000000D+00
 P 1 1.00
     Exponent=  4.2863200000D+00 Coefficients=  1.0000000000D+00
 P 1 1.00
     Exponent=  2.2903400000D+00 Coefficients=  1.0000000000D+00
 P 1 1.00
     Exponent=  1.1934200000D+00 Coefficients=  1.0000000000D+00
 P 1 1.00
     Exponent=  5.9376500000D-01 Coefficients=  1.0000000000D+00
 P 1 1.00
     Exponent=  2.2398700000D-01 Coefficients=  1.0000000000D+00
 P 1 1.00
     Exponent=  8.9026000000D-02 Coefficients=  1.0000000000D+00
 P 1 1.00
     Exponent=  3.5213000000D-02 Coefficients=  1.0000000000D+00
 P 1 1.00
     Exponent=  1.4003500000D+01 Coefficients=  1.0000000000D+00
 P 1 1.00
     Exponent=  4.5398000000D+00 Coefficients=  1.0000000000D+00
 P 1 1.00
     Exponent=  1.3930000000D-02 Coefficients=  1.0000000000D+00
 D 1 1.00
     Exponent=  7.3289300000D+02 Coefficients=  1.0000000000D+00
 D 1 1.00
     Exponent=  2.2075300000D+02 Coefficients=  1.0000000000D+00
 D 1 1.00
     Exponent=  8.5626800000D+01 Coefficients=  1.0000000000D+00
 D 1 1.00
     Exponent=  3.7717800000D+01 Coefficients=  1.0000000000D+00
 D 1 1.00
     Exponent=  1.7764700000D+01 Coefficients=  1.0000000000D+00
 D 1 1.00
     Exponent=  8.7641500000D+00 Coefficients=  1.0000000000D+00
 D 1 1.00
     Exponent=  4.4178660000D+00 Coefficients=  1.0000000000D+00
 D 1 1.00
     Exponent=  2.2180390000D+00 Coefficients=  1.0000000000D+00
 D 1 1.00
     Exponent=  1.0935310000D+00 Coefficients=  1.0000000000D+00
 D 1 1.00
     Exponent=  5.2309100000D-01 Coefficients=  1.0000000000D+00
 D 1 1.00
     Exponent=  2.3847500000D-01 Coefficients=  1.0000000000D+00
 D 1 1.00
     Exponent=  1.0002600000D-01 Coefficients=  1.0000000000D+00
 D 1 1.00
     Exponent=  1.0853400000D+01 Coefficients=  1.0000000000D+00
 D 1 1.00
     Exponent=  6.4396000000D+00 Coefficients=  1.0000000000D+00
 D 1 1.00
     Exponent=  4.1950000000D-02 Coefficients=  1.0000000000D+00
 F 1 1.00
     Exponent=  1.6409600000D+01 Coefficients=  1.0000000000D+00
 F 1 1.00
     Exponent=  7.3000000000D+00 Coefficients=  1.0000000000D+00
 F 1 1.00
     Exponent=  3.2475000000D+00 Coefficients=  1.0000000000D+00
 F 1 1.00
     Exponent=  1.4447000000D+00 Coefficients=  1.0000000000D+00
 F 1 1.00
     Exponent=  5.0050000000D-01 Coefficients=  1.0000000000D+00
 F 1 1.00
     Exponent=  1.7339000000D-01 Coefficients=  1.0000000000D+00
 G 1 1.00
     Exponent=  1.1598400000D+01 Coefficients=  1.0000000000D+00
 G 1 1.00
     Exponent=  5.7591000000D+00 Coefficients=  1.0000000000D+00
 G 1 1.00
     Exponent=  2.8596000000D+00 Coefficients=  1.0000000000D+00
 G 1 1.00
     Exponent=  1.1042000000D+00 Coefficients=  1.0000000000D+00
 G 1 1.00
     Exponent=  4.2637000000D-01 Coefficients=  1.0000000000D+00
 H 1 1.00
     Exponent=  1.0031900000D+01 Coefficients=  1.0000000000D+00
 H 1 1.00
     Exponent=  4.8836000000D+00 Coefficients=  1.0000000000D+00
 H 1 1.00
     Exponent=  2.1024000000D+00 Coefficients=  1.0000000000D+00
 H 1 1.00
     Exponent=  9.0509000000D-01 Coefficients=  1.0000000000D+00
 I 1 1.00
     Exponent=  9.9825000000D+00 Coefficients=  1.0000000000D+00
 I 1 1.00
     Exponent=  4.9428000000D+00 Coefficients=  1.0000000000D+00
 I 1 1.00
     Exponent=  2.4474100000D+00 Coefficients=  1.0000000000D+00
 ****
 ======================================================================================================
                                       Pseudopotential Parameters
 ======================================================================================================
  Center     Atomic      Valence      Angular      Power
  Number     Number     Electrons     Momentum     of R      Exponent        Coefficient   SO-Coeffient
 ======================================================================================================
    1         29           19
                                      D and up 
                                                     1       36.5168770       19.00000000    0.00000000
                                                     3       54.8220139      693.82066249    0.00000000
                                                     2       32.4816959     -155.75952044    0.00000000
                                                     2       17.0147179        1.10887002    0.00000000
                                      S - D
                                                     2       14.8670251       94.86836555    0.00000000
                                                     2       29.4178044      376.04038354    0.00000000
                                      P - D
                                                     2       11.7570899       64.21861970    0.00000000
                                                     2       50.1191443      255.82988430    0.00000000
 ======================================================================================================
 Ernie: Thresh=  0.10000D-02 Tol=  0.10000D-05 Strict=F.
 There are   136 symmetry adapted cartesian basis functions of AG  symmetry.
 There are    48 symmetry adapted cartesian basis functions of B1G symmetry.
 There are    48 symmetry adapted cartesian basis functions of B2G symmetry.
 There are    48 symmetry adapted cartesian basis functions of B3G symmetry.
 There are    18 symmetry adapted cartesian basis functions of AU  symmetry.
 There are    65 symmetry adapted cartesian basis functions of B1U symmetry.
 There are    65 symmetry adapted cartesian basis functions of B2U symmetry.
 There are    65 symmetry adapted cartesian basis functions of B3U symmetry.
 There are    88 symmetry adapted basis functions of AG  symmetry.
 There are    34 symmetry adapted basis functions of B1G symmetry.
 There are    34 symmetry adapted basis functions of B2G symmetry.
 There are    34 symmetry adapted basis functions of B3G symmetry.
 There are    14 symmetry adapted basis functions of AU  symmetry.
 There are    47 symmetry adapted basis functions of B1U symmetry.
 There are    47 symmetry adapted basis functions of B2U symmetry.
 There are    47 symmetry adapted basis functions of B3U symmetry.
   345 basis functions,   493 primitive gaussians,   493 cartesian basis functions
    10 alpha electrons        9 beta electrons
       nuclear repulsion energy         0.0000000000 Hartrees.
 IExCor=    0 DFT=F Ex=HF Corr=None ExCW=0 ScaHFX=  1.000000
 ScaDFX=  1.000000  1.000000  1.000000  1.000000 ScalE2=  1.000000  1.000000
 IRadAn=      5 IRanWt=     -1 IRanGd=            0 ICorTp=0 IEmpDi=  4
 NAtoms=    1 NActive=    1 NUniq=    1 SFac= 1.00D+00 NAtFMM=   60 NAOKFM=F Big=F
 Integral buffers will be    131072 words long.
 Raffenetti 2 integral format.
 Two-electron integral symmetry is turned on.
 Leave Link  301 at Sat May  5 20:50:36 2018, MaxMem= 10737418240 cpu:               7.9 elap:               0.3
 (Enter /home1/apps/gaussian/16rA.03/g16/l302.exe)
 NPDir=0 NMtPBC=     1 NCelOv=     1 NCel=       1 NClECP=     1 NCelD=      1
         NCelK=      1 NCelE2=     1 NClLst=     1 CellRange=     0.0.
 One-electron integrals computed using PRISM.
 One-electron integral symmetry used in STVInt
  48 Symmetry operations used in ECPInt.
 ECPInt:  NShTT=    3828 NPrTT=    3828 LenC2=    3829 LenP2D=    3828.
 LDataN:  DoStor=T MaxTD1=12 Len= 1566
 NBasis=   345 RedAO= T EigKep=  5.24D-06  NBF=    88    34    34    34    14    47    47    47
 NBsUse=   337 1.00D-06 EigRej=  9.21D-07 NBFU=    86    34    34    34    14    45    45    45
 Leave Link  302 at Sat May  5 20:51:08 2018, MaxMem= 10737418240 cpu:             990.8 elap:              31.0
 (Enter /home1/apps/gaussian/16rA.03/g16/l303.exe)
 DipDrv:  MaxL=1.
 Leave Link  303 at Sat May  5 20:51:09 2018, MaxMem= 10737418240 cpu:               4.0 elap:               0.2
 (Enter /home1/apps/gaussian/16rA.03/g16/l401.exe)
 Initial guess from the checkpoint file:  "5z.chk"
 B after Tr=     0.000000    0.000000    0.000000
         Rot=    1.000000    0.000000    0.000000    0.000000 Ang=   0.00 deg.
 Guess basis will be translated and rotated to current coordinates.
 JPrj=2 DoOrth=T DoCkMO=T.
 Initial guess orbital symmetries:
       Occupied  (A1G) (T1U) (T1U) (T1U) (EG) (EG) (T2G) (T2G)
                 (T2G) (A1G)
       Virtual   (T1U) (T1U) (T1U) (A1G) (T1U) (T1U) (T1U) (EG)
                 (T2G) (T2G) (EG) (T2G) (A1G) (T1U) (T1U) (T1U)
                 (T2G) (T2G) (T2G) (EG) (EG) (A1G) (T1U) (T1U)
                 (T1U) (?A) (A2U) (?A) (?A) (?A) (?A) (?A) (T2G)
                 (T2G) (T2G) (EG) (EG) (T1U) (T1U) (T1U) (A1G)
                 (A2U) (?A) (?A) (?A) (?A) (?A) (?A) (T2G) (T2G)
                 (T2G) (EG) (EG) (?B) (?B) (?B) (?B) (T2G) (T2G)
                 (?B) (?B) (T2G) (T1U) (T1U) (T1U) (EG) (T2G) (T2G)
                 (EG) (T2G) (?A) (?A) (?A) (?A) (?A) (A2U) (?A)
                 (A1G) (?B) (?B) (?B) (?B) (?B) (?B) (T2G) (T2G)
                 (T2G) (?C) (?C) (?C) (EU) (?C) (?C) (EU) (?C)
                 (?C) (?C) (?C) (T1U) (T1U) (T1U) (EG) (EG) (T2G)
                 (T2G) (T2G) (A2U) (?A) (?A) (?A) (?A) (?A) (?A)
                 (?B) (T2G) (?B) (?B) (T2G) (?B) (?B) (T2G) (?B)
                 (A1G) (?D) (EU) (?D) (EU) (?D) (?D) (?D) (?D)
                 (?D) (?D) (?D) (T1U) (T1U) (T1U) (EG) (EG) (T2G)
                 (T2G) (T2G) (?A) (?A) (?A) (?A) (A2U) (?A) (?A)
                 (EG) (EG) (T2G) (T2G) (T2G) (T1U) (T1U) (T1U)
                 (T2G) (?B) (T2G) (?B) (?B) (T2G) (?B) (?B) (?B)
                 (A1G) (?E) (?E) (?E) (?E) (EU) (?E) (EU) (?E)
                 (?E) (?E) (?E) (EG) (EG) (T2G) (T2G) (T2G) (T1U)
                 (T1U) (T1U) (A1G) (EG) (EG) (T2G) (T2G) (T2G)
                 (T1U) (T1U) (T1U) (T1U) (T1U) (T1U) (A1G) (EG)
                 (EG) (T2G) (T2G) (T2G) (T1U) (T1U) (T1U) (A1G)
                 (EG) (EG) (T2G) (T2G) (T2G) (A1G) (T1U) (T1U)
                 (T1U) (A1G) (T1U) (T1U) (T1U) (EG) (EG) (T2G)
                 (T2G) (T2G) (A1G) (T1U) (T1U) (T1U) (A1G) (T1U)
                 (T1U) (T1U) (A1G) (T1U) (T1U) (T1U) (A1G) (T1U)
                 (T1U) (T1U) (A1G) (T1U) (T1U) (T1U) (A1G) (A1G)
                 (A1G) (A1G) (A1G) (A1G) (T2G) (T2G) (T2G) (?F)
                 (?F) (?F) (?F) (A1G) (EG) (EG) (?F) (?F) (?F)
                 (?F) (A1G) (A1G) (?F) (?F) (?F) (?F) (A1G) (?B)
                 (?B) (?F) (?F) (?F) (T2G) (?F) (?F) (?F) (?F)
                 (?F) (?F) (?B) (?B) (?F) (?F) (?F) (T2G) (?F)
                 (?F) (?F) (?F) (?F) (?F) (?B) (?B) (?F) (?F) (?F)
                 (T2G) (?F) (?F) (?F) (?F) (?F) (?F) (EU) (EU)
                 (A2U) (?F) (?F) (?F) (?A) (?A) (?F) (?F) (?F)
                 (?A) (?A) (?F) (?F) (?F) (?A) (?A)
 The electronic state of the initial guess is 2-A1G.
 Leave Link  401 at Sat May  5 20:51:11 2018, MaxMem= 10737418240 cpu:              39.4 elap:               1.5
 (Enter /home1/apps/gaussian/16rA.03/g16/l502.exe)
 Keep R1 and R2 ints in memory in symmetry-blocked form, NReq=2160455697.
 FoFCou: FMM=F IPFlag=           8 FMFlag=           0 FMFlg1=           0
         NFxFlg=           0 DoJE=F BraDBF=F KetDBF=F FulRan=T
         wScrn=  0.000000 ICntrl=       600 IOpCl=  0 I1Cent=           0 NGrid=           0
         NMat0=    1 NMatS0=  59685 NMatT0=    0 NMatD0=    1 NMtDS0=    0 NMtDT0=    0
 Petite list used in FoFCou.
 Restricted open shell SCF:
 Using DIIS extrapolation, IDIIS=  1040.
 NGot= 10737418240 LenX= 10285394163 LenY= 10285150621
 Requested convergence on RMS density matrix=1.00D-08 within 400 cycles.
 Requested convergence on MAX density matrix=1.00D-06.
 Requested convergence on             energy=1.00D-06.
 No special actions if energy rises.

 Cycle   1  Pass 1  IDiag  1:
 E= -195.978306295381    
 DIIS: error= 1.31D+00 at cycle   1 NSaved=   1.
 NSaved= 1 IEnMin= 1 EnMin= -195.978306295381     IErMin= 1 ErrMin= 1.31D+00
 ErrMax= 1.31D+00  0.00D+00 EMaxC= 1.00D-01 BMatC= 2.23D+02 BMatP= 2.23D+02
 IDIUse=3 WtCom= 0.00D+00 WtEn= 1.00D+00
 Coeff-Com:  0.100D+01
 Coeff-En:   0.100D+01
 Coeff:      0.100D+01
 Gap=     0.110 Goal=   None    Shift=    0.000
 GapD=    0.110 DampG=1.000 DampE=0.125 DampFc=0.1250 IDamp=-1.
 Damping current iteration by 1.25D-01
 RMSDP=9.25D-04 MaxDP=5.29D-02              OVMax= 1.34D-03

 Cycle   2  Pass 1  IDiag  1:
 E= -195.978356162220     Delta-E=       -0.000049866839 Rises=F Damp=T
 DIIS: error= 1.14D+00 at cycle   2 NSaved=   2.
 NSaved= 2 IEnMin= 2 EnMin= -195.978356162220     IErMin= 2 ErrMin= 1.14D+00
 ErrMax= 1.14D+00  0.00D+00 EMaxC= 1.00D-01 BMatC= 1.71D+02 BMatP= 2.23D+02
 IDIUse=3 WtCom= 0.00D+00 WtEn= 1.00D+00
 Coeff-Com: -0.700D+01 0.800D+01
 Coeff-En:   0.000D+00 0.100D+01
 Coeff:      0.000D+00 0.100D+01
 Gap=     0.096 Goal=   None    Shift=    0.000
 RMSDP=8.10D-04 MaxDP=4.64D-02 DE=-4.99D-05 OVMax= 1.08D-03

 Cycle   3  Pass 1  IDiag  1:
 Density matrix breaks symmetry, PCut= 1.00D-07
 Density has only Abelian symmetry.
 E= -195.978707107066     Delta-E=       -0.000350944846 Rises=F Damp=F
 DIIS: error= 1.15D-04 at cycle   3 NSaved=   3.
 NSaved= 3 IEnMin= 3 EnMin= -195.978707107066     IErMin= 3 ErrMin= 1.15D-04
 ErrMax= 1.15D-04  0.00D+00 EMaxC= 1.00D-01 BMatC= 6.23D-07 BMatP= 1.71D+02
 IDIUse=3 WtCom= 9.99D-01 WtEn= 1.15D-03
 Coeff-Com: -0.696D+00 0.795D+00 0.901D+00
 Coeff-En:   0.000D+00 0.000D+00 0.100D+01
 Coeff:     -0.695D+00 0.795D+00 0.901D+00
 Gap=     0.096 Goal=   None    Shift=    0.000
 RMSDP=1.48D-05 MaxDP=1.84D-03 DE=-3.51D-04 OVMax= 4.10D-04

 Cycle   4  Pass 1  IDiag  1:
 Density matrix breaks symmetry, PCut= 1.00D-07
 Density has only Abelian symmetry.
 E= -195.978707243244     Delta-E=       -0.000000136178 Rises=F Damp=F
 DIIS: error= 2.28D-05 at cycle   4 NSaved=   4.
 NSaved= 4 IEnMin= 4 EnMin= -195.978707243244     IErMin= 4 ErrMin= 2.28D-05
 ErrMax= 2.28D-05  0.00D+00 EMaxC= 1.00D-01 BMatC= 4.50D-08 BMatP= 6.23D-07
 IDIUse=1 WtCom= 1.00D+00 WtEn= 0.00D+00
 Coeff-Com: -0.561D+00 0.642D+00-0.467D-01 0.966D+00
 Coeff:     -0.561D+00 0.642D+00-0.467D-01 0.966D+00
 Gap=     0.096 Goal=   None    Shift=    0.000
 RMSDP=1.58D-06 MaxDP=4.41D-04 DE=-1.36D-07 OVMax= 1.92D-04

 Cycle   5  Pass 1  IDiag  1:
 Density matrix breaks symmetry, PCut= 1.00D-07
 Density has only Abelian symmetry.
 E= -195.978707233520     Delta-E=        0.000000009724 Rises=F Damp=F
 DIIS: error= 3.01D-05 at cycle   5 NSaved=   5.
 NSaved= 5 IEnMin= 4 EnMin= -195.978707243244     IErMin= 4 ErrMin= 2.28D-05
 ErrMax= 3.01D-05  0.00D+00 EMaxC= 1.00D-01 BMatC= 5.65D-08 BMatP= 4.50D-08
 IDIUse=1 WtCom= 1.00D+00 WtEn= 0.00D+00
 Coeff-Com: -0.528D+00 0.603D+00-0.954D-01 0.578D+00 0.442D+00
 Coeff:     -0.528D+00 0.603D+00-0.954D-01 0.578D+00 0.442D+00
 Gap=     0.096 Goal=   None    Shift=    0.000
 RMSDP=1.58D-06 MaxDP=4.17D-04 DE= 9.72D-09 OVMax= 8.59D-05

 Cycle   6  Pass 1  IDiag  1:
 Density matrix breaks symmetry, PCut= 1.00D-07
 Density has only Abelian symmetry.
 E= -195.978707257347     Delta-E=       -0.000000023827 Rises=F Damp=F
 DIIS: error= 1.86D-05 at cycle   6 NSaved=   6.
 NSaved= 6 IEnMin= 6 EnMin= -195.978707257347     IErMin= 6 ErrMin= 1.86D-05
 ErrMax= 1.86D-05  0.00D+00 EMaxC= 1.00D-01 BMatC= 1.62D-08 BMatP= 4.50D-08
 IDIUse=1 WtCom= 1.00D+00 WtEn= 0.00D+00
 Coeff-Com: -0.463D+00 0.530D+00-0.761D-01 0.136D-01 0.619D-02 0.990D+00
 Coeff:     -0.463D+00 0.530D+00-0.761D-01 0.136D-01 0.619D-02 0.990D+00
 Gap=     0.096 Goal=   None    Shift=    0.000
 RMSDP=2.17D-06 MaxDP=6.12D-04 DE=-2.38D-08 OVMax= 8.41D-05

 Cycle   7  Pass 1  IDiag  1:
 Density matrix breaks symmetry, PCut= 1.00D-07
 Density has only Abelian symmetry.
 E= -195.978707271629     Delta-E=       -0.000000014282 Rises=F Damp=F
 DIIS: error= 1.61D-05 at cycle   7 NSaved=   7.
 NSaved= 7 IEnMin= 7 EnMin= -195.978707271629     IErMin= 7 ErrMin= 1.61D-05
 ErrMax= 1.61D-05  0.00D+00 EMaxC= 1.00D-01 BMatC= 1.16D-08 BMatP= 1.62D-08
 IDIUse=1 WtCom= 1.00D+00 WtEn= 0.00D+00
 Coeff-Com: -0.426D+00 0.487D+00-0.690D-01-0.475D-01-0.383D-01 0.671D+00
 Coeff-Com:  0.423D+00
 Coeff:     -0.426D+00 0.487D+00-0.690D-01-0.475D-01-0.383D-01 0.671D+00
 Coeff:      0.423D+00
 Gap=     0.096 Goal=   None    Shift=    0.000
 RMSDP=8.97D-07 MaxDP=2.75D-04 DE=-1.43D-08 OVMax= 2.24D-05

 Cycle   8  Pass 1  IDiag  1:
 E= -195.978707275831     Delta-E=       -0.000000004202 Rises=F Damp=F
 DIIS: error= 1.48D-05 at cycle   8 NSaved=   8.
 NSaved= 8 IEnMin= 8 EnMin= -195.978707275831     IErMin= 8 ErrMin= 1.48D-05
 ErrMax= 1.48D-05  0.00D+00 EMaxC= 1.00D-01 BMatC= 9.91D-09 BMatP= 1.16D-08
 IDIUse=1 WtCom= 1.00D+00 WtEn= 0.00D+00
 Coeff-Com: -0.357D+00 0.408D+00-0.581D-01-0.163D-01-0.179D-01 0.400D+00
 Coeff-Com: -0.130D+01 0.194D+01
 Coeff:     -0.357D+00 0.408D+00-0.581D-01-0.163D-01-0.179D-01 0.400D+00
 Coeff:     -0.130D+01 0.194D+01
 Gap=     0.096 Goal=   None    Shift=    0.000
 RMSDP=1.79D-06 MaxDP=5.39D-04 DE=-4.20D-09 OVMax= 4.86D-05

 Cycle   9  Pass 1  IDiag  1:
 E= -195.978707283583     Delta-E=       -0.000000007752 Rises=F Damp=F
 DIIS: error= 1.24D-05 at cycle   9 NSaved=   9.
 NSaved= 9 IEnMin= 9 EnMin= -195.978707283583     IErMin= 9 ErrMin= 1.24D-05
 ErrMax= 1.24D-05  0.00D+00 EMaxC= 1.00D-01 BMatC= 6.94D-09 BMatP= 9.91D-09
 IDIUse=1 WtCom= 1.00D+00 WtEn= 0.00D+00
 Large coefficients: NSaved=  9 BigCof=    0.00 CofMax=   10.00 Det=-2.57D-14
 Inversion failed.  Reducing to  8 matrices.
 Coeff-Com: -0.166D-09 0.112D-03-0.101D-01-0.750D-02 0.141D+00 0.950D+00
 Coeff-Com: -0.687D+01 0.680D+01
 Coeff:     -0.166D-09 0.112D-03-0.101D-01-0.750D-02 0.141D+00 0.950D+00
 Coeff:     -0.687D+01 0.680D+01
 Gap=     0.096 Goal=   None    Shift=    0.000
 RMSDP=9.16D-06 MaxDP=2.76D-03 DE=-7.75D-09 OVMax= 2.49D-04

 Cycle  10  Pass 1  IDiag  1:
 Density matrix breaks symmetry, PCut= 1.00D-07
 Density has only Abelian symmetry.
 E= -195.978707301685     Delta-E=       -0.000000018102 Rises=F Damp=F
 DIIS: error= 3.64D-08 at cycle  10 NSaved=   9.
 NSaved= 9 IEnMin= 9 EnMin= -195.978707301685     IErMin= 9 ErrMin= 3.64D-08
 ErrMax= 3.64D-08  0.00D+00 EMaxC= 1.00D-01 BMatC= 1.09D-13 BMatP= 6.94D-09
 IDIUse=1 WtCom= 1.00D+00 WtEn= 0.00D+00
 Coeff-Com: -0.274D-10 0.537D-04-0.503D-02-0.392D-02 0.735D-01 0.486D+00
 Coeff-Com: -0.328D+01 0.319D+01 0.535D+00
 Coeff:     -0.274D-10 0.537D-04-0.503D-02-0.392D-02 0.735D-01 0.486D+00
 Coeff:     -0.328D+01 0.319D+01 0.535D+00
 Gap=     0.096 Goal=   None    Shift=    0.000
 RMSDP=1.68D-09 MaxDP=1.58D-07 DE=-1.81D-08 OVMax= 2.73D-07

 Density matrix breaks symmetry, PCut= 1.00D-07
 Density has only Abelian symmetry.
 SCF Done:  E(ROHF) =  -195.978707302     A.U. after   10 cycles
            NFock= 10  Conv=0.17D-08     -V/T= 2.5157
 <Sx>= 0.0000 <Sy>= 0.0000 <Sz>= 0.5000 <S**2>= 0.7500 S= 0.5000
 <L.S>=  0.00000000000    
 KE= 1.292984313244D+02 PE=-4.856670677949D+02 EE= 1.603899291688D+02
 Annihilation of the first spin contaminant:
 S**2 before annihilation     0.7500,   after     0.7500
 Leave Link  502 at Sat May  5 20:56:22 2018, MaxMem= 10737418240 cpu:            9874.3 elap:             310.1
 (Enter /home1/apps/gaussian/16rA.03/g16/l801.exe)
 Windowed orbitals will be sorted by symmetry type.
 Density matrix breaks symmetry, PCut= 1.00D-07
 Density has only Abelian symmetry.
 GenMOA:  NOpAll= 48 NOp2=8 NOpUse=  8 JSym2X=1
 FoFJK:  IHMeth= 1 ICntrl=       0 DoSepK=F KAlg= 0 I1Cent=           0 FoldK=F
 IRaf=         0 NMat=       1 IRICut=       1 DoRegI=T DoRafI=F ISym2E= 1 IDoP0=0 IntGTp=1.
 FoFCou: FMM=F IPFlag=           8 FMFlag=      100000 FMFlg1=           0
         NFxFlg=           0 DoJE=F BraDBF=F KetDBF=F FulRan=T
         wScrn=  0.000000 ICntrl=         0 IOpCl=  1 I1Cent=           0 NGrid=           0
         NMat0=    1 NMatS0=      1 NMatT0=    0 NMatD0=    1 NMtDS0=    0 NMtDT0=    0
 Petite list used in FoFCou.
 <Sx>= 0.0000 <Sy>= 0.0000 <Sz>= 0.5000 <S**2>= 0.7500 S= 0.5000
 Range of M.O.s used for correlation:     1   337
 NBasis=   345 NAE=    10 NBE=     9 NFC=     0 NFV=     0
 NROrb=    337 NOA=    10 NOB=     9 NVA=   327 NVB=   328

 **** Warning!!: The largest alpha MO coefficient is  0.17967291D+03


 **** Warning!!: The largest beta MO coefficient is  0.17967293D+03

 Singles contribution to E2=   -0.2462370223D-03
 Leave Link  801 at Sat May  5 20:57:19 2018, MaxMem= 10737418240 cpu:            1786.9 elap:              55.9
 (Enter /home1/apps/gaussian/16rA.03/g16/l804.exe)
 Open-shell transformation, MDV= 10737418240 ITran=4 ISComp=2.
 Unit  1 TFree=       3561623 TCopy=       2706192.
 Semi-Direct transformation.
 ModeAB=           2 MOrb=            10 LenV=   10733782109
 LASXX=     23844544 LTotXX=    23844544 LenRXX=    23844544
 LTotAB=    24141176 MaxLAS=   410368270 LenRXY=   410368270
 NonZer=   420690580 LenScr=   633510912 LnRSAI=           0
 LnScr1=           0 LExtra=    16701750 Total=   1084425476
 MaxDsk= 67108864000 SrtSym=           F ITran=            4
 DoSDTr:  NPSUse= 32
 JobTyp=1 Pass  1:  I=   1 to  10.
 (rs|ai) integrals will be sorted in core.
 Complete sort for first half transformation.
 First half transformation complete.
 Begin second half transformation for I=  10.
 Begin second half transformation for I=  10.
 Complete sort for second half transformation.
 Second half transformation complete.
 ModeAB=           2 MOrb=             9 LenV=   10733782109
 LASXX=     21435900 LTotXX=    21435900 LenRXX=   369331443
 LTotAB=    20411607 MaxLAS=   369331443 LenRXY=    20411607
 NonZer=   378621522 LenScr=   570160128 LnRSAI=           0
 LnScr1=           0 LExtra=   450914564 Total=   1410817742
 MaxDsk= 67108864000 SrtSym=           F ITran=            4
 DoSDTr:  NPSUse= 32
 JobTyp=2 Pass  1:  I=   1 to   9.
 (rs|ai) integrals will be sorted in core.
 Complete sort for first half transformation.
 First half transformation complete.
 Complete sort for second half transformation.
 Second half transformation complete.
 Spin components of T(2) and E(2):
     alpha-alpha T2 =       0.2475343269D-01 E2=     -0.1795127392D+00
     alpha-beta  T2 =       0.8737858844D-01 E2=     -0.7853380801D+00
     beta-beta   T2 =       0.2054906936D-01 E2=     -0.1667887542D+00
 ANorm=    0.1064371870D+01
 E2 =    -0.1131885811D+01 EUMP2 =    -0.19711059311227D+03
 (S**2,0)=  0.75000D+00           (S**2,1)=  0.75000D+00
 E(PUHF)=      -0.19597870730D+03        E(PMP2)=      -0.19711059311D+03
 Leave Link  804 at Sat May  5 21:14:41 2018, MaxMem= 10737418240 cpu:           33326.3 elap:            1041.6
 (Enter /home1/apps/gaussian/16rA.03/g16/l913.exe)
 CIDS:  MDV= 10737418240.
 IFCWin=0 IBDFC=1 NFBD=     0     0 NFCmp=     0     0 NFFFC=     0     0
 Using original routines for 1st iteration.
 Using DD4UQ or CC4UQ for 2nd and later iterations.
 Keep R2 and R3 ints in memory in symmetry-blocked form, NReq=2160476360.
 FoFCou: FMM=F IPFlag=           8 FMFlag=           0 FMFlg1=           0
         NFxFlg=           0 DoJE=F BraDBF=F KetDBF=F FulRan=T
         wScrn=  0.000000 ICntrl=       600 IOpCl=  0 I1Cent=           0 NGrid=           0
         NMat0=    1 NMatS0=  59685 NMatT0=    0 NMatD0=    1 NMtDS0=    0 NMtDT0=    0
 Petite list used in FoFCou.
 CIDS: In Core Option IDoMem=           1.
 CCSD(T)
 =======
 Iterations= 150 Convergence= 0.100D-06
 Produce multiple copies of IABC intergrals
 Iteration Nr.   1
 **********************
 DD1Dir will call FoFMem   1 times, MxPair=       262
 NAB=    90 NAA=    45 NBB=    36.
 DD1Dir will call FoFMem   1 times, MxPair=       262
 NAB=    90 NAA=    45 NBB=    36.
 MP4(R+Q)= -0.21241785D+00
 Maximum subspace dimension=  5
 A-vector RMS=  9.0270897D-05 Max=  1.4002575D-03 conv= 1.00D-05.
 RLE energy=       -1.1462447278
 E3=        0.19820735D+00        EROMP3=      -0.19691238576D+03
 E4(SDQ)=  -0.14178983D+00        ROMP4(SDQ)=  -0.19705417559D+03
 VARIATIONAL ENERGIES WITH THE FIRST-ORDER WAVEFUNCTION:
 DE(Corr)=  -1.1460651     E(Corr)=     -197.12477238    
 NORM(A)=   0.10669134D+01
 Iteration Nr.   2
 **********************
 DD1Dir will call FoFMem   1 times, MxPair=       262
 NAB=    90 NAA=    45 NBB=    36.
 A-vector RMS=  3.9916321D-03 Max=  3.5094034D-02 conv= 1.00D-05.
 RLE energy=       -1.1119804301
 DE(Corr)= -0.93586434     E(CORR)=     -196.91457164     Delta= 2.10D-01
 NORM(A)=   0.10607259D+01
 Iteration Nr.   3
 **********************
 DD1Dir will call FoFMem   1 times, MxPair=       262
 NAB=    90 NAA=    45 NBB=    36.
 A-vector RMS=  2.9148849D-03 Max=  2.5135675D-02 conv= 1.00D-05.
 RLE energy=       -1.0613690950
 DE(Corr)= -0.95191035     E(CORR)=     -196.93061765     Delta=-1.60D-02
 NORM(A)=   0.10548587D+01
 Iteration Nr.   4
 **********************
 DD1Dir will call FoFMem   1 times, MxPair=       262
 NAB=    90 NAA=    45 NBB=    36.
 A-vector RMS=  2.0085522D-03 Max=  1.7711618D-02 conv= 1.00D-05.
 RLE energy=       -0.9588424704
 DE(Corr)= -0.97691898     E(CORR)=     -196.95562629     Delta=-2.50D-02
 NORM(A)=   0.10549477D+01
 Iteration Nr.   5
 **********************
 DD1Dir will call FoFMem   1 times, MxPair=       262
 NAB=    90 NAA=    45 NBB=    36.
 A-vector RMS=  1.4835650D-03 Max=  1.2700190D-02 conv= 1.00D-05.
 RLE energy=       -0.9871006694
 DE(Corr)=  -1.0389111     E(CORR)=     -197.01761845     Delta=-6.20D-02
 NORM(A)=   0.10577105D+01
 Iteration Nr.   6
 **********************
 DD1Dir will call FoFMem   1 times, MxPair=       262
 NAB=    90 NAA=    45 NBB=    36.
 A-vector RMS=  5.9379708D-04 Max=  5.1344701D-03 conv= 1.00D-05.
 RLE energy=       -1.0115231322
 DE(Corr)=  -1.0233709     E(CORR)=     -197.00207816     Delta= 1.55D-02
 NORM(A)=   0.10566887D+01
 Iteration Nr.   7
 **********************
 DD1Dir will call FoFMem   1 times, MxPair=       262
 NAB=    90 NAA=    45 NBB=    36.
 A-vector RMS=  6.8585729D-05 Max=  7.1625132D-04 conv= 1.00D-05.
 RLE energy=       -1.0097963299
 DE(Corr)=  -1.0087654     E(CORR)=     -196.98747267     Delta= 1.46D-02
 NORM(A)=   0.10564091D+01
 Iteration Nr.   8
 **********************
 DD1Dir will call FoFMem   1 times, MxPair=       262
 NAB=    90 NAA=    45 NBB=    36.
 A-vector RMS=  4.0669253D-05 Max=  4.5071117D-04 conv= 1.00D-05.
 RLE energy=       -1.0096143153
 DE(Corr)=  -1.0096002     E(CORR)=     -196.98830747     Delta=-8.35D-04
 NORM(A)=   0.10564449D+01
 Iteration Nr.   9
 **********************
 DD1Dir will call FoFMem   1 times, MxPair=       262
 NAB=    90 NAA=    45 NBB=    36.
 A-vector RMS=  7.1974378D-06 Max=  1.0377453D-04 conv= 1.00D-05.
 RLE energy=       -1.0096353754
 DE(Corr)=  -1.0096395     E(CORR)=     -196.98834680     Delta=-3.93D-05
 NORM(A)=   0.10564686D+01
 Iteration Nr.  10
 **********************
 DD1Dir will call FoFMem   1 times, MxPair=       262
 NAB=    90 NAA=    45 NBB=    36.
 A-vector RMS=  3.7297569D-06 Max=  4.9217646D-05 conv= 1.00D-05.
 RLE energy=       -1.0096450247
 DE(Corr)=  -1.0096438     E(CORR)=     -196.98835112     Delta=-4.32D-06
 NORM(A)=   0.10564746D+01
 Iteration Nr.  11
 **********************
 DD1Dir will call FoFMem   1 times, MxPair=       262
 NAB=    90 NAA=    45 NBB=    36.
 A-vector RMS=  3.3915510D-06 Max=  4.2508179D-05 conv= 1.00D-05.
 RLE energy=       -1.0096380729
 DE(Corr)=  -1.0096340     E(CORR)=     -196.98834131     Delta= 9.80D-06
 NORM(A)=   0.10564854D+01
 Iteration Nr.  12
 **********************
 DD1Dir will call FoFMem   1 times, MxPair=       262
 NAB=    90 NAA=    45 NBB=    36.
 A-vector RMS=  1.9535149D-07 Max=  3.2011253D-06 conv= 1.00D-05.
 RLE energy=       -1.0096419888
 DE(Corr)=  -1.0096429     E(CORR)=     -196.98835020     Delta=-8.89D-06
 NORM(A)=   0.10564874D+01
 Iteration Nr.  13
 **********************
 DD1Dir will call FoFMem   1 times, MxPair=       262
 NAB=    90 NAA=    45 NBB=    36.
 A-vector RMS=  2.4155957D-07 Max=  3.1982757D-06 conv= 1.00D-05.
 RLE energy=       -1.0096417196
 DE(Corr)=  -1.0096411     E(CORR)=     -196.98834845     Delta= 1.75D-06
 NORM(A)=   0.10564879D+01
 Iteration Nr.  14
 **********************
 DD1Dir will call FoFMem   1 times, MxPair=       262
 NAB=    90 NAA=    45 NBB=    36.
 A-vector RMS=  1.4283617D-07 Max=  1.7367836D-06 conv= 1.00D-05.
 RLE energy=       -1.0096416537
 DE(Corr)=  -1.0096417     E(CORR)=     -196.98834902     Delta=-5.74D-07
 NORM(A)=   0.10564883D+01
 Iteration Nr.  15
 **********************
 DD1Dir will call FoFMem   1 times, MxPair=       262
 NAB=    90 NAA=    45 NBB=    36.
 A-vector RMS=  6.6801187D-08 Max=  9.9521710D-07 conv= 1.00D-05.
 RLE energy=       -1.0096418551
 DE(Corr)=  -1.0096420     E(CORR)=     -196.98834933     Delta=-3.03D-07
 NORM(A)=   0.10564882D+01
 Iteration Nr.  16
 **********************
 DD1Dir will call FoFMem   1 times, MxPair=       262
 NAB=    90 NAA=    45 NBB=    36.
 A-vector RMS=  1.8748442D-08 Max=  4.9219429D-07 conv= 1.00D-05.
 RLE energy=       -1.0096418724
 DE(Corr)=  -1.0096419     E(CORR)=     -196.98834915     Delta= 1.72D-07
 NORM(A)=   0.10564882D+01
 Iteration Nr.  17
 **********************
 DD1Dir will call FoFMem   1 times, MxPair=       262
 NAB=    90 NAA=    45 NBB=    36.
 A-vector RMS=  1.5440854D-08 Max=  2.5065773D-07 conv= 1.00D-05.
 RLE energy=       -1.0096417938
 DE(Corr)=  -1.0096418     E(CORR)=     -196.98834908     Delta= 7.30D-08
 NORM(A)=   0.10564882D+01
 CI/CC converged in   17 iterations to DelEn= 7.30D-08 Conv= 1.00D-07 ErrA1= 1.54D-08 Conv= 1.00D-05
 Wavefunction amplitudes converged. E(Corr)=     -196.98834908    
 Largest amplitude= 5.71D-02
 Time for triples=    63991.27 seconds.
 T4(CCSD)= -0.41605915D-01
 T5(CCSD)=  0.53275473D-02
 CCSD(T)= -0.19702462745D+03
 Discarding MO integrals.
 Leave Link  913 at Sat May  5 21:54:18 2018, MaxMem= 10737418240 cpu:           76039.5 elap:            2376.5
 (Enter /home1/apps/gaussian/16rA.03/g16/l601.exe)
 Copying SCF densities to generalized density rwf, IOpCl= 0 IROHF=1.
 SCF density gives NOpUse=  8 NOpAll= 48.
 Marking SCF density as not fully symmetric.

 **********************************************************************

            Population analysis using the SCF density.

 **********************************************************************

 Orbital symmetries:
       Occupied  (A1G) (T1U) (T1U) (T1U) (EG) (T2G) (T2G) (T2G)
                 (EG) (A1G)
       Virtual   (T1U) (T1U) (T1U) (A1G) (T1U) (T1U) (T1U) (T2G)
                 (EG) (T2G) (EG) (T2G) (A1G) (T1U) (T1U) (T1U)
                 (T2G) (EG) (T2G) (EG) (T2G) (A1G) (?A) (?A) (?A)
                 (A2U) (?A) (?A) (?A) (T1U) (T1U) (T1U) (EG) (T2G)
                 (T2G) (EG) (T2G) (A1G) (T2G) (?B) (?B) (?B) (T2G)
                 (?B) (?B) (T2G) (?B) (?A) (?A) (?A) (A2U) (?A)
                 (?A) (?A) (T1U) (T1U) (T1U) (EG) (T2G) (T2G) (EG)
                 (T2G) (A1G) (?C) (?C) (?C) (EU) (?C) (?C) (?C)
                 (EU) (?C) (?C) (?C) (?A) (?A) (?A) (A2U) (?A)
                 (?A) (?A) (T2G) (EG) (EG) (T2G) (T2G) (?B) (T2G)
                 (?B) (?B) (T2G) (?B) (?B) (T2G) (?B) (T1U) (T1U)
                 (T1U) (A1G) (T2G) (EG) (T2G) (EG) (T2G) (?A) (?A)
                 (?A) (A2U) (?A) (?A) (?A) (?D) (?D) (?D) (EU)
                 (?D) (?D) (?D) (EU) (?D) (?D) (?D) (?B) (T2G)
                 (?B) (?B) (?B) (T2G) (?B) (T2G) (?B) (T1U) (T1U)
                 (T1U) (?E) (?F) (?E) (?E) (?E) (?F) (?E) (?E)
                 (?F) (?E) (?F) (?E) (?E) (T2G) (EG) (T2G) (T2G)
                 (EG) (A1G) (?A) (?A) (?A) (A2U) (?A) (?A) (?A)
                 (?F) (?F) (?F) (EU) (?F) (?F) (?F) (EU) (?F) (?F)
                 (?F) (?B) (T2G) (?B) (?B) (T2G) (?B) (?B) (?B)
                 (T2G) (T1U) (T1U) (T1U) (?F) (?F) (?F) (?F) (?F)
                 (?F) (?F) (?F) (?F) (?F) (?F) (?F) (?F) (T2G)
                 (T2G) (T2G) (EG) (EG) (A1G) (?B) (T2G) (?B) (?B)
                 (T2G) (?B) (?B) (T2G) (?B) (T1U) (T1U) (T1U) (?A)
                 (?A) (?A) (A2U) (?A) (?A) (?A) (?F) (?F) (?F)
                 (EU) (?F) (?F) (?F) (EU) (?F) (?F) (?F) (T2G)
                 (T2G) (T2G) (EG) (EG) (?F) (?F) (?F) (?F) (?F)
                 (?F) (?F) (?F) (?F) (?F) (?F) (?F) (?F) (A1G)
                 (T2G) (T2G) (T2G) (EG) (EG) (T1U) (T1U) (T1U)
                 (T2G) (T2G) (T2G) (EG) (EG) (A1G) (T1U) (T1U)
                 (T1U) (A1G) (T2G) (T2G) (T2G) (EG) (EG) (T1U)
                 (T1U) (T1U) (A1G) (T1U) (T1U) (T1U) (T2G) (EG)
                 (T2G) (EG) (T2G) (A1G) (T1U) (T1U) (T1U) (A1G)
                 (T2G) (T2G) (T2G) (EG) (EG) (T1U) (T1U) (T1U)
                 (A1G) (A1G) (T1U) (T1U) (T1U) (A1G) (T1U) (T1U)
                 (T1U) (A1G) (T1U) (T1U) (T1U) (A1G) (T1U) (T1U)
                 (T1U) (A1G) (A1G) (T1U) (T1U) (T1U) (A1G) (A1G)
                 (A1G) (A1G) (A1G) (A1G)
 The electronic state is 2-A1G.
 Alpha  occ. eigenvalues --   -5.23143  -3.34856  -3.34856  -3.34856  -0.48462
 Alpha  occ. eigenvalues --   -0.48462  -0.48462  -0.48462  -0.48462  -0.24435
 Alpha virt. eigenvalues --    0.02241   0.02241   0.02241   0.02718   0.07487
 Alpha virt. eigenvalues --    0.07487   0.07487   0.12335   0.12335   0.12335
 Alpha virt. eigenvalues --    0.12335   0.12335   0.13391   0.24272   0.24272
 Alpha virt. eigenvalues --    0.24272   0.38672   0.38672   0.38672   0.38672
 Alpha virt. eigenvalues --    0.38672   0.41231   0.68296   0.68296   0.68296
 Alpha virt. eigenvalues --    0.68296   0.68296   0.68296   0.68296   0.73594
 Alpha virt. eigenvalues --    0.73594   0.73594   1.01969   1.01969   1.01969
 Alpha virt. eigenvalues --    1.01969   1.01969   1.11567   2.07312   2.07312
 Alpha virt. eigenvalues --    2.07312   2.07312   2.07312   2.07312   2.07312
 Alpha virt. eigenvalues --    2.07312   2.07312   2.09545   2.09545   2.09545
 Alpha virt. eigenvalues --    2.09545   2.09545   2.09545   2.09545   2.19090
 Alpha virt. eigenvalues --    2.19090   2.19090   2.45058   2.45058   2.45058
 Alpha virt. eigenvalues --    2.45058   2.45058   3.20627   5.20604   5.20604
 Alpha virt. eigenvalues --    5.20604   5.20604   5.20604   5.20604   5.20604
 Alpha virt. eigenvalues --    5.20604   5.20604   5.20604   5.20604   5.37871
 Alpha virt. eigenvalues --    5.37871   5.37871   5.37871   5.37871   5.37871
 Alpha virt. eigenvalues --    5.37871   5.47465   5.47465   5.47465   5.47465
 Alpha virt. eigenvalues --    5.47465   5.80831   5.80831   5.80831   5.80831
 Alpha virt. eigenvalues --    5.80831   5.80831   5.80831   5.80831   5.80831
 Alpha virt. eigenvalues --    5.90524   5.90524   5.90524   8.99911  11.46180
 Alpha virt. eigenvalues --   11.46180  11.46180  11.46180  11.46180  12.35708
 Alpha virt. eigenvalues --   12.35708  12.35708  12.35708  12.35708  12.35708
 Alpha virt. eigenvalues --   12.35708  13.30629  13.30629  13.30629  13.30629
 Alpha virt. eigenvalues --   13.30629  13.30629  13.30629  13.30629  13.30629
 Alpha virt. eigenvalues --   13.30629  13.30629  14.08108  14.08108  14.08108
 Alpha virt. eigenvalues --   14.08108  14.08108  14.08108  14.08108  14.08108
 Alpha virt. eigenvalues --   14.08108  14.12960  14.12960  14.12960  15.87157
 Alpha virt. eigenvalues --   15.87157  15.87157  15.87157  15.87157  15.87157
 Alpha virt. eigenvalues --   15.87157  15.87157  15.87157  15.87157  15.87157
 Alpha virt. eigenvalues --   15.87157  15.87157  22.46626  22.46626  22.46626
 Alpha virt. eigenvalues --   22.46626  22.46626  22.67335  28.27871  28.27871
 Alpha virt. eigenvalues --   28.27871  28.27871  28.27871  28.27871  28.27871
 Alpha virt. eigenvalues --   30.43711  30.43711  30.43711  30.43711  30.43711
 Alpha virt. eigenvalues --   30.43711  30.43711  30.43711  30.43711  30.43711
 Alpha virt. eigenvalues --   30.43711  30.70913  30.70913  30.70913  30.70913
 Alpha virt. eigenvalues --   30.70913  30.70913  30.70913  30.70913  30.70913
 Alpha virt. eigenvalues --   31.11186  31.11186  31.11186  36.61477  36.61477
 Alpha virt. eigenvalues --   36.61477  36.61477  36.61477  36.61477  36.61477
 Alpha virt. eigenvalues --   36.61477  36.61477  36.61477  36.61477  36.61477
 Alpha virt. eigenvalues --   36.61477  40.95096  40.95096  40.95096  40.95096
 Alpha virt. eigenvalues --   40.95096  52.95304  64.61867  64.61867  64.61867
 Alpha virt. eigenvalues --   64.61867  64.61867  64.61867  64.61867  64.61867
 Alpha virt. eigenvalues --   64.61867  65.64304  65.64304  65.64304  65.96387
 Alpha virt. eigenvalues --   65.96387  65.96387  65.96387  65.96387  65.96387
 Alpha virt. eigenvalues --   65.96387  66.18601  66.18601  66.18601  66.18601
 Alpha virt. eigenvalues --   66.18601  66.18601  66.18601  66.18601  66.18601
 Alpha virt. eigenvalues --   66.18601  66.18601  70.70578  70.70578  70.70578
 Alpha virt. eigenvalues --   70.70578  70.70578  78.02750  78.02750  78.02750
 Alpha virt. eigenvalues --   78.02750  78.02750  78.02750  78.02750  78.02750
 Alpha virt. eigenvalues --   78.02750  78.02750  78.02750  78.02750  78.02750
 Alpha virt. eigenvalues --  117.78121 118.14264 118.14264 118.14264 118.14264
 Alpha virt. eigenvalues --  118.14264 133.79381 133.79381 133.79381 205.75991
 Alpha virt. eigenvalues --  205.75991 205.75991 205.75991 205.75991 234.98079
 Alpha virt. eigenvalues --  260.87852 260.87852 260.87852 400.03514 418.73557
 Alpha virt. eigenvalues --  418.73557 418.73557 418.73557 418.73557 488.14474
 Alpha virt. eigenvalues --  488.14474 488.14474 650.37684 901.04929 901.04929
 Alpha virt. eigenvalues --  901.049291027.780711027.780711027.780711027.78071
 Alpha virt. eigenvalues -- 1027.780711096.714881686.299911686.299911686.29991
 Alpha virt. eigenvalues -- 1917.497453173.694553173.694553173.694553173.69455
 Alpha virt. eigenvalues -- 3173.694553262.106893262.106893262.106893482.20015
 Alpha virt. eigenvalues -- 6580.454996641.499716641.499716641.49971**********
 Alpha virt. eigenvalues -- **************************************************
 Alpha virt. eigenvalues -- **************************************************
 Alpha virt. eigenvalues -- **************************************************
 Alpha virt. eigenvalues -- **************************************************
 Alpha virt. eigenvalues -- ********************
     Molecular Orbital Coefficients:
                           5         6         7         8         9
                        (EG)--O  (T2G)--O  (T2G)--O  (T2G)--O   (EG)--O
     Eigenvalues --    -0.48462  -0.48462  -0.48462  -0.48462  -0.48462
   1 1   Cu 1S          0.00000   0.00000   0.00000   0.00000  -0.00000
   2        2S         -0.00000   0.00000   0.00000   0.00000   0.00000
   3        3S          0.00000   0.00000   0.00000   0.00000   0.00000
   4        4S         -0.00000   0.00000   0.00000   0.00000  -0.00000
   5        5S          0.00000   0.00000   0.00000   0.00000   0.00000
   6        6S         -0.00000   0.00000   0.00000   0.00000  -0.00000
   7        7S          0.00000   0.00000   0.00000   0.00000   0.00000
   8        8S         -0.00000   0.00000   0.00000   0.00000  -0.00000
   9        9S          0.00000   0.00000   0.00000   0.00000   0.00000
  10       10S         -0.00000   0.00000   0.00000   0.00000  -0.00000
  11       11S          0.00000   0.00000   0.00000   0.00000  -0.00000
  12       12S         -0.00000   0.00000   0.00000   0.00000   0.00000
  13       13S          0.00000   0.00000   0.00000   0.00000  -0.00000
  14       14S          0.00000   0.00000   0.00000   0.00000   0.00000
  15       15S         -0.00000   0.00000   0.00000   0.00000  -0.00000
  16       16S          0.00000   0.00000   0.00000   0.00000   0.00000
  17       17S         -0.00000   0.00000   0.00000   0.00000  -0.00000
  18       18S          0.00000   0.00000   0.00000   0.00000   0.00000
  19       19S         -0.00000   0.00000   0.00000   0.00000  -0.00000
  20       20S         -0.00000   0.00000   0.00000   0.00000   0.00000
  21       21S          0.00000   0.00000   0.00000   0.00000  -0.00000
  22       22S          0.00000   0.00000   0.00000   0.00000   0.00000
  23       23S          0.00000   0.00000   0.00000   0.00000  -0.00000
  24       24S          0.00000   0.00000   0.00000   0.00000   0.00000
  25       25S         -0.00000   0.00000   0.00000   0.00000  -0.00000
  26       26S         -0.00000   0.00000   0.00000   0.00000   0.00000
  27       27S         -0.00000   0.00000   0.00000   0.00000  -0.00000
  28       28S          0.00000   0.00000   0.00000   0.00000   0.00000
  29       29S         -0.00000   0.00000   0.00000   0.00000   0.00000
  30       30S          0.00000   0.00000   0.00000   0.00000   0.00000
  31       31S         -0.00000   0.00000   0.00000   0.00000  -0.00000
  32       32PX        -0.00000   0.00000   0.00000   0.00000   0.00000
  33       32PY        -0.00000   0.00000   0.00000   0.00000   0.00000
  34       32PZ        -0.00000   0.00000   0.00000   0.00000   0.00000
  35       33PX        -0.00000   0.00000   0.00000   0.00000   0.00000
  36       33PY        -0.00000   0.00000   0.00000   0.00000   0.00000
  37       33PZ        -0.00000   0.00000   0.00000   0.00000   0.00000
  38       34PX        -0.00000   0.00000   0.00000   0.00000   0.00000
  39       34PY        -0.00000   0.00000   0.00000   0.00000   0.00000
  40       34PZ        -0.00000   0.00000   0.00000   0.00000   0.00000
  41       35PX        -0.00000   0.00000   0.00000   0.00000   0.00000
  42       35PY        -0.00000   0.00000   0.00000   0.00000   0.00000
  43       35PZ        -0.00000   0.00000   0.00000   0.00000   0.00000
  44       36PX        -0.00000   0.00000   0.00000   0.00000   0.00000
  45       36PY        -0.00000   0.00000   0.00000   0.00000   0.00000
  46       36PZ        -0.00000   0.00000   0.00000   0.00000   0.00000
  47       37PX        -0.00000   0.00000   0.00000   0.00000   0.00000
  48       37PY        -0.00000   0.00000   0.00000   0.00000   0.00000
  49       37PZ        -0.00000   0.00000   0.00000   0.00000   0.00000
  50       38PX        -0.00000   0.00000   0.00000   0.00000   0.00000
  51       38PY        -0.00000   0.00000   0.00000   0.00000   0.00000
  52       38PZ        -0.00000   0.00000   0.00000   0.00000   0.00000
  53       39PX        -0.00000   0.00000   0.00000   0.00000   0.00000
  54       39PY        -0.00000   0.00000   0.00000   0.00000   0.00000
  55       39PZ        -0.00000   0.00000   0.00000   0.00000   0.00000
  56       40PX        -0.00000   0.00000   0.00000   0.00000   0.00000
  57       40PY        -0.00000   0.00000   0.00000   0.00000   0.00000
  58       40PZ        -0.00000   0.00000   0.00000   0.00000   0.00000
  59       41PX        -0.00000   0.00000   0.00000   0.00000   0.00000
  60       41PY        -0.00000   0.00000   0.00000   0.00000   0.00000
  61       41PZ        -0.00000   0.00000   0.00000   0.00000   0.00000
  62       42PX        -0.00000   0.00000   0.00000   0.00000   0.00000
  63       42PY        -0.00000   0.00000   0.00000   0.00000   0.00000
  64       42PZ        -0.00000   0.00000   0.00000   0.00000   0.00000
  65       43PX        -0.00000   0.00000   0.00000   0.00000   0.00000
  66       43PY        -0.00000   0.00000   0.00000   0.00000   0.00000
  67       43PZ        -0.00000   0.00000   0.00000   0.00000   0.00000
  68       44PX        -0.00000   0.00000   0.00000   0.00000   0.00000
  69       44PY        -0.00000   0.00000   0.00000   0.00000   0.00000
  70       44PZ        -0.00000   0.00000   0.00000   0.00000   0.00000
  71       45PX        -0.00000   0.00000   0.00000   0.00000   0.00000
  72       45PY        -0.00000   0.00000   0.00000   0.00000   0.00000
  73       45PZ        -0.00000   0.00000   0.00000   0.00000   0.00000
  74       46PX        -0.00000   0.00000   0.00000   0.00000   0.00000
  75       46PY        -0.00000   0.00000   0.00000   0.00000   0.00000
  76       46PZ        -0.00000   0.00000   0.00000   0.00000   0.00000
  77       47PX        -0.00000   0.00000   0.00000   0.00000   0.00000
  78       47PY        -0.00000   0.00000   0.00000   0.00000   0.00000
  79       47PZ        -0.00000   0.00000   0.00000   0.00000   0.00000
  80       48PX        -0.00000   0.00000   0.00000   0.00000   0.00000
  81       48PY        -0.00000   0.00000   0.00000   0.00000   0.00000
  82       48PZ        -0.00000   0.00000   0.00000   0.00000   0.00000
  83       49PX        -0.00000   0.00000   0.00000   0.00000   0.00000
  84       49PY        -0.00000   0.00000   0.00000   0.00000   0.00000
  85       49PZ        -0.00000   0.00000   0.00000   0.00000   0.00000
  86       50PX        -0.00000   0.00000   0.00000   0.00000   0.00000
  87       50PY        -0.00000   0.00000   0.00000   0.00000   0.00000
  88       50PZ        -0.00000   0.00000   0.00000   0.00000   0.00000
  89       51PX        -0.00000   0.00000   0.00000   0.00000   0.00000
  90       51PY        -0.00000   0.00000   0.00000   0.00000   0.00000
  91       51PZ        -0.00000   0.00000   0.00000   0.00000   0.00000
  92       52PX        -0.00000   0.00000   0.00000   0.00000   0.00000
  93       52PY        -0.00000   0.00000   0.00000   0.00000   0.00000
  94       52PZ        -0.00000   0.00000   0.00000   0.00000   0.00000
  95       53PX        -0.00000   0.00000   0.00000   0.00000   0.00000
  96       53PY        -0.00000   0.00000   0.00000   0.00000   0.00000
  97       53PZ        -0.00000   0.00000   0.00000   0.00000   0.00000
  98       54PX        -0.00000   0.00000   0.00000   0.00000   0.00000
  99       54PY        -0.00000   0.00000   0.00000   0.00000   0.00000
 100       54PZ        -0.00000   0.00000   0.00000   0.00000   0.00000
 101       55D 0        0.00000   0.00000   0.00000   0.00000  -0.00003
 102       55D+1       -0.00000   0.00000   0.00000  -0.00003   0.00000
 103       55D-1       -0.00000  -0.00003   0.00000   0.00000   0.00000
 104       55D+2       -0.00003   0.00000   0.00000   0.00000  -0.00000
 105       55D-2       -0.00000   0.00000  -0.00003   0.00000   0.00000
 106       56D 0       -0.00003   0.00000   0.00000   0.00000   0.00024
 107       56D+1       -0.00000   0.00000   0.00000   0.00024   0.00000
 108       56D-1       -0.00000   0.00024   0.00000   0.00000   0.00000
 109       56D+2        0.00024   0.00000   0.00000   0.00000   0.00003
 110       56D-2       -0.00000   0.00000   0.00024   0.00000   0.00000
 111       57D 0        0.00017   0.00000   0.00000   0.00000  -0.00129
 112       57D+1       -0.00000   0.00000   0.00000  -0.00130   0.00000
 113       57D-1       -0.00000  -0.00130   0.00000   0.00000   0.00000
 114       57D+2       -0.00129   0.00000   0.00000   0.00000  -0.00017
 115       57D-2       -0.00000   0.00000  -0.00130   0.00000   0.00000
 116       58D 0       -0.00168   0.00000   0.00000   0.00000   0.01269
 117       58D+1       -0.00000   0.00000   0.00000   0.01280   0.00000
 118       58D-1       -0.00000   0.01280   0.00000   0.00000   0.00000
 119       58D+2        0.01269   0.00000   0.00000   0.00000   0.00168
 120       58D-2       -0.00000   0.00000   0.01280   0.00000   0.00000
 121       59D 0       -0.01325   0.00000   0.00000   0.00000   0.10015
 122       59D+1       -0.00000   0.00000   0.00000   0.10103   0.00000
 123       59D-1       -0.00000   0.10103   0.00000   0.00000   0.00000
 124       59D+2        0.10015   0.00000   0.00000   0.00000   0.01325
 125       59D-2       -0.00000   0.00000   0.10103   0.00000   0.00000
 126       60D 0       -0.03924   0.00000   0.00000   0.00000   0.29668
 127       60D+1       -0.00000   0.00000   0.00000   0.29926   0.00000
 128       60D-1       -0.00000   0.29926   0.00000   0.00000   0.00000
 129       60D+2        0.29668   0.00000   0.00000   0.00000   0.03924
 130       60D-2       -0.00000   0.00000   0.29926   0.00000   0.00000
 131       61D 0       -0.03505   0.00000   0.00000   0.00000   0.26498
 132       61D+1       -0.00000   0.00000   0.00000   0.26729   0.00000
 133       61D-1       -0.00000   0.26729   0.00000   0.00000   0.00000
 134       61D+2        0.26498   0.00000   0.00000   0.00000   0.03505
 135       61D-2       -0.00000   0.00000   0.26729   0.00000   0.00000
 136       62D 0       -0.03580   0.00000   0.00000   0.00000   0.27062
 137       62D+1       -0.00000   0.00000   0.00000   0.27298   0.00000
 138       62D-1       -0.00000   0.27298   0.00000   0.00000   0.00000
 139       62D+2        0.27062   0.00000   0.00000   0.00000   0.03580
 140       62D-2       -0.00000   0.00000   0.27298   0.00000   0.00000
 141       63D 0       -0.03498   0.00000   0.00000   0.00000   0.26445
 142       63D+1       -0.00000   0.00000   0.00000   0.26675   0.00000
 143       63D-1       -0.00000   0.26675   0.00000   0.00000   0.00000
 144       63D+2        0.26445   0.00000   0.00000   0.00000   0.03498
 145       63D-2       -0.00000   0.00000   0.26675   0.00000   0.00000
 146       64D 0       -0.02665   0.00000   0.00000   0.00000   0.20145
 147       64D+1       -0.00000   0.00000   0.00000   0.20321   0.00000
 148       64D-1       -0.00000   0.20321   0.00000   0.00000   0.00000
 149       64D+2        0.20145   0.00000   0.00000   0.00000   0.02665
 150       64D-2       -0.00000   0.00000   0.20321   0.00000   0.00000
 151       65D 0       -0.01594   0.00000   0.00000   0.00000   0.12052
 152       65D+1       -0.00000   0.00000   0.00000   0.12157   0.00000
 153       65D-1       -0.00000   0.12157   0.00000   0.00000   0.00000
 154       65D+2        0.12052   0.00000   0.00000   0.00000   0.01594
 155       65D-2       -0.00000   0.00000   0.12157   0.00000   0.00000
 156       66D 0       -0.00444   0.00000   0.00000   0.00000   0.03354
 157       66D+1       -0.00000   0.00000   0.00000   0.03383   0.00000
 158       66D-1       -0.00000   0.03383   0.00000   0.00000   0.00000
 159       66D+2        0.03354   0.00000   0.00000   0.00000   0.00444
 160       66D-2       -0.00000   0.00000   0.03383   0.00000   0.00000
 161       67D 0        0.01362   0.00000   0.00000   0.00000  -0.10297
 162       67D+1       -0.00000   0.00000   0.00000  -0.10386   0.00000
 163       67D-1       -0.00000  -0.10386   0.00000   0.00000   0.00000
 164       67D+2       -0.10297   0.00000   0.00000   0.00000  -0.01362
 165       67D-2       -0.00000   0.00000  -0.10386   0.00000   0.00000
 166       68D 0        0.01081   0.00000   0.00000   0.00000  -0.08175
 167       68D+1       -0.00000   0.00000   0.00000  -0.08246   0.00000
 168       68D-1       -0.00000  -0.08246   0.00000   0.00000   0.00000
 169       68D+2       -0.08175   0.00000   0.00000   0.00000  -0.01081
 170       68D-2       -0.00000   0.00000  -0.08246   0.00000   0.00000
 171       69D 0       -0.00013   0.00000   0.00000   0.00000   0.00098
 172       69D+1       -0.00000   0.00000   0.00000   0.00099   0.00000
 173       69D-1       -0.00000   0.00099   0.00000   0.00000   0.00000
 174       69D+2        0.00098   0.00000   0.00000   0.00000   0.00013
 175       69D-2       -0.00000   0.00000   0.00099   0.00000   0.00000
 176       70F 0       -0.00000   0.00000   0.00000   0.00000   0.00000
 177       70F+1       -0.00000   0.00000   0.00000   0.00000   0.00000
 178       70F-1       -0.00000   0.00000   0.00000   0.00000   0.00000
 179       70F+2       -0.00000   0.00000   0.00000   0.00000   0.00000
 180       70F-2       -0.00000   0.00000   0.00000   0.00000   0.00000
 181       70F+3       -0.00000   0.00000   0.00000   0.00000   0.00000
 182       70F-3       -0.00000   0.00000   0.00000   0.00000   0.00000
 183       71F 0       -0.00000   0.00000   0.00000   0.00000   0.00000
 184       71F+1       -0.00000   0.00000   0.00000   0.00000   0.00000
 185       71F-1       -0.00000   0.00000   0.00000   0.00000   0.00000
 186       71F+2       -0.00000   0.00000   0.00000   0.00000   0.00000
 187       71F-2       -0.00000   0.00000   0.00000   0.00000   0.00000
 188       71F+3       -0.00000   0.00000   0.00000   0.00000   0.00000
 189       71F-3       -0.00000   0.00000   0.00000   0.00000   0.00000
 190       72F 0       -0.00000   0.00000   0.00000   0.00000   0.00000
 191       72F+1       -0.00000   0.00000   0.00000   0.00000   0.00000
 192       72F-1       -0.00000   0.00000   0.00000   0.00000   0.00000
 193       72F+2       -0.00000   0.00000   0.00000   0.00000   0.00000
 194       72F-2       -0.00000   0.00000   0.00000   0.00000   0.00000
 195       72F+3       -0.00000   0.00000   0.00000   0.00000   0.00000
 196       72F-3       -0.00000   0.00000   0.00000   0.00000   0.00000
 197       73F 0       -0.00000   0.00000   0.00000   0.00000   0.00000
 198       73F+1       -0.00000   0.00000   0.00000   0.00000   0.00000
 199       73F-1       -0.00000   0.00000   0.00000   0.00000   0.00000
 200       73F+2       -0.00000   0.00000   0.00000   0.00000   0.00000
 201       73F-2       -0.00000   0.00000   0.00000   0.00000   0.00000
 202       73F+3       -0.00000   0.00000   0.00000   0.00000   0.00000
 203       73F-3       -0.00000   0.00000   0.00000   0.00000   0.00000
 204       74F 0       -0.00000   0.00000   0.00000   0.00000   0.00000
 205       74F+1       -0.00000   0.00000   0.00000   0.00000   0.00000
 206       74F-1       -0.00000   0.00000   0.00000   0.00000   0.00000
 207       74F+2       -0.00000   0.00000   0.00000   0.00000   0.00000
 208       74F-2       -0.00000   0.00000   0.00000   0.00000   0.00000
 209       74F+3       -0.00000   0.00000   0.00000   0.00000   0.00000
 210       74F-3       -0.00000   0.00000   0.00000   0.00000   0.00000
 211       75F 0       -0.00000   0.00000   0.00000   0.00000   0.00000
 212       75F+1       -0.00000   0.00000   0.00000   0.00000   0.00000
 213       75F-1       -0.00000   0.00000   0.00000   0.00000   0.00000
 214       75F+2       -0.00000   0.00000   0.00000   0.00000   0.00000
 215       75F-2       -0.00000   0.00000   0.00000   0.00000   0.00000
 216       75F+3       -0.00000   0.00000   0.00000   0.00000   0.00000
 217       75F-3       -0.00000   0.00000   0.00000   0.00000   0.00000
 218       76G 0       -0.00000   0.00000   0.00000   0.00000   0.00000
 219       76G+1       -0.00000   0.00000   0.00000   0.00000   0.00000
 220       76G-1       -0.00000   0.00000   0.00000   0.00000   0.00000
 221       76G+2        0.00000   0.00000   0.00000   0.00000   0.00000
 222       76G-2       -0.00000   0.00000   0.00000   0.00000   0.00000
 223       76G+3       -0.00000   0.00000   0.00000  -0.00000   0.00000
 224       76G-3       -0.00000  -0.00000   0.00000   0.00000   0.00000
 225       76G+4       -0.00000   0.00000   0.00000   0.00000  -0.00000
 226       76G-4       -0.00000   0.00000  -0.00000   0.00000   0.00000
 227       77G 0       -0.00000   0.00000   0.00000   0.00000   0.00000
 228       77G+1       -0.00000   0.00000   0.00000   0.00000   0.00000
 229       77G-1       -0.00000   0.00000   0.00000   0.00000   0.00000
 230       77G+2        0.00000   0.00000   0.00000   0.00000  -0.00000
 231       77G-2       -0.00000   0.00000   0.00000   0.00000   0.00000
 232       77G+3       -0.00000   0.00000   0.00000  -0.00000   0.00000
 233       77G-3       -0.00000  -0.00000   0.00000   0.00000   0.00000
 234       77G+4       -0.00000   0.00000   0.00000   0.00000   0.00000
 235       77G-4       -0.00000   0.00000  -0.00000   0.00000   0.00000
 236       78G 0       -0.00000   0.00000   0.00000   0.00000  -0.00000
 237       78G+1       -0.00000   0.00000   0.00000   0.00000   0.00000
 238       78G-1       -0.00000   0.00000   0.00000   0.00000   0.00000
 239       78G+2        0.00000   0.00000   0.00000   0.00000   0.00000
 240       78G-2       -0.00000   0.00000   0.00000   0.00000   0.00000
 241       78G+3       -0.00000   0.00000   0.00000  -0.00000   0.00000
 242       78G-3       -0.00000  -0.00000   0.00000   0.00000   0.00000
 243       78G+4       -0.00000   0.00000   0.00000   0.00000  -0.00000
 244       78G-4       -0.00000   0.00000  -0.00000   0.00000   0.00000
 245       79G 0       -0.00000   0.00000   0.00000   0.00000   0.00000
 246       79G+1       -0.00000   0.00000   0.00000   0.00000   0.00000
 247       79G-1       -0.00000  -0.00000   0.00000   0.00000   0.00000
 248       79G+2       -0.00000   0.00000   0.00000   0.00000  -0.00000
 249       79G-2       -0.00000   0.00000   0.00000   0.00000   0.00000
 250       79G+3       -0.00000   0.00000   0.00000  -0.00000   0.00000
 251       79G-3       -0.00000  -0.00000   0.00000   0.00000   0.00000
 252       79G+4       -0.00000   0.00000   0.00000   0.00000   0.00000
 253       79G-4       -0.00000   0.00000  -0.00000   0.00000   0.00000
 254       80G 0       -0.00000   0.00000   0.00000   0.00000  -0.00000
 255       80G+1       -0.00000   0.00000   0.00000   0.00000   0.00000
 256       80G-1       -0.00000  -0.00000   0.00000   0.00000   0.00000
 257       80G+2        0.00000   0.00000   0.00000   0.00000  -0.00000
 258       80G-2       -0.00000   0.00000  -0.00000   0.00000   0.00000
 259       80G+3       -0.00000   0.00000   0.00000  -0.00000   0.00000
 260       80G-3       -0.00000  -0.00000   0.00000   0.00000   0.00000
 261       80G+4       -0.00000   0.00000   0.00000   0.00000  -0.00000
 262       80G-4       -0.00000   0.00000  -0.00000   0.00000   0.00000
 263       81H 0       -0.00000   0.00000   0.00000   0.00000   0.00000
 264       81H+1       -0.00000   0.00000   0.00000   0.00000   0.00000
 265       81H-1       -0.00000   0.00000   0.00000   0.00000   0.00000
 266       81H+2       -0.00000   0.00000   0.00000   0.00000   0.00000
 267       81H-2       -0.00000   0.00000   0.00000   0.00000   0.00000
 268       81H+3       -0.00000   0.00000   0.00000   0.00000   0.00000
 269       81H-3       -0.00000   0.00000   0.00000   0.00000   0.00000
 270       81H+4       -0.00000   0.00000   0.00000   0.00000   0.00000
 271       81H-4       -0.00000   0.00000   0.00000   0.00000   0.00000
 272       81H+5       -0.00000   0.00000   0.00000   0.00000   0.00000
 273       81H-5       -0.00000   0.00000   0.00000   0.00000   0.00000
 274       82H 0       -0.00000   0.00000   0.00000   0.00000   0.00000
 275       82H+1       -0.00000   0.00000   0.00000   0.00000   0.00000
 276       82H-1       -0.00000   0.00000   0.00000   0.00000   0.00000
 277       82H+2       -0.00000   0.00000   0.00000   0.00000   0.00000
 278       82H-2       -0.00000   0.00000   0.00000   0.00000   0.00000
 279       82H+3       -0.00000   0.00000   0.00000   0.00000   0.00000
 280       82H-3       -0.00000   0.00000   0.00000   0.00000   0.00000
 281       82H+4       -0.00000   0.00000   0.00000   0.00000   0.00000
 282       82H-4       -0.00000   0.00000   0.00000   0.00000   0.00000
 283       82H+5       -0.00000   0.00000   0.00000   0.00000   0.00000
 284       82H-5       -0.00000   0.00000   0.00000   0.00000   0.00000
 285       83H 0       -0.00000   0.00000   0.00000   0.00000   0.00000
 286       83H+1       -0.00000   0.00000   0.00000   0.00000   0.00000
 287       83H-1       -0.00000   0.00000   0.00000   0.00000   0.00000
 288       83H+2       -0.00000   0.00000   0.00000   0.00000   0.00000
 289       83H-2       -0.00000   0.00000   0.00000   0.00000   0.00000
 290       83H+3       -0.00000   0.00000   0.00000   0.00000   0.00000
 291       83H-3       -0.00000   0.00000   0.00000   0.00000   0.00000
 292       83H+4       -0.00000   0.00000   0.00000   0.00000   0.00000
 293       83H-4       -0.00000   0.00000   0.00000   0.00000   0.00000
 294       83H+5       -0.00000   0.00000   0.00000   0.00000   0.00000
 295       83H-5       -0.00000   0.00000   0.00000   0.00000   0.00000
 296       84H 0       -0.00000   0.00000   0.00000   0.00000   0.00000
 297       84H+1       -0.00000   0.00000   0.00000   0.00000   0.00000
 298       84H-1       -0.00000   0.00000   0.00000   0.00000   0.00000
 299       84H+2       -0.00000   0.00000   0.00000   0.00000   0.00000
 300       84H-2       -0.00000   0.00000   0.00000   0.00000   0.00000
 301       84H+3       -0.00000   0.00000   0.00000   0.00000   0.00000
 302       84H-3       -0.00000   0.00000   0.00000   0.00000   0.00000
 303       84H+4       -0.00000   0.00000   0.00000   0.00000   0.00000
 304       84H-4       -0.00000   0.00000   0.00000   0.00000   0.00000
 305       84H+5       -0.00000   0.00000   0.00000   0.00000   0.00000
 306       84H-5       -0.00000   0.00000   0.00000   0.00000   0.00000
 307       85I 0        0.00000   0.00000   0.00000   0.00000   0.00000
 308       85I+1       -0.00000   0.00000   0.00000  -0.00000   0.00000
 309       85I-1       -0.00000   0.00000   0.00000   0.00000   0.00000
 310       85I+2       -0.00000   0.00000   0.00000   0.00000  -0.00000
 311       85I-2       -0.00000   0.00000   0.00000   0.00000   0.00000
 312       85I+3       -0.00000   0.00000   0.00000   0.00000   0.00000
 313       85I-3       -0.00000   0.00000   0.00000   0.00000   0.00000
 314       85I+4        0.00000   0.00000   0.00000   0.00000   0.00000
 315       85I-4       -0.00000   0.00000   0.00000   0.00000   0.00000
 316       85I+5       -0.00000   0.00000   0.00000  -0.00000   0.00000
 317       85I-5       -0.00000  -0.00000   0.00000   0.00000   0.00000
 318       85I+6       -0.00000   0.00000   0.00000   0.00000  -0.00000
 319       85I-6       -0.00000   0.00000  -0.00000   0.00000   0.00000
 320       86I 0        0.00000   0.00000   0.00000   0.00000  -0.00000
 321       86I+1       -0.00000   0.00000   0.00000  -0.00000   0.00000
 322       86I-1       -0.00000   0.00000   0.00000   0.00000   0.00000
 323       86I+2       -0.00000   0.00000   0.00000   0.00000   0.00000
 324       86I-2       -0.00000   0.00000   0.00000   0.00000   0.00000
 325       86I+3       -0.00000   0.00000   0.00000   0.00000   0.00000
 326       86I-3       -0.00000   0.00000   0.00000   0.00000   0.00000
 327       86I+4        0.00000   0.00000   0.00000   0.00000  -0.00000
 328       86I-4       -0.00000   0.00000   0.00000   0.00000   0.00000
 329       86I+5       -0.00000   0.00000   0.00000  -0.00000   0.00000
 330       86I-5       -0.00000  -0.00000   0.00000   0.00000   0.00000
 331       86I+6       -0.00000   0.00000   0.00000   0.00000   0.00000
 332       86I-6       -0.00000   0.00000  -0.00000   0.00000   0.00000
 333       87I 0        0.00000   0.00000   0.00000   0.00000   0.00000
 334       87I+1       -0.00000   0.00000   0.00000  -0.00000   0.00000
 335       87I-1       -0.00000   0.00000   0.00000   0.00000   0.00000
 336       87I+2       -0.00000   0.00000   0.00000   0.00000  -0.00000
 337       87I-2       -0.00000   0.00000  -0.00000   0.00000   0.00000
 338       87I+3       -0.00000   0.00000   0.00000   0.00000   0.00000
 339       87I-3       -0.00000   0.00000   0.00000   0.00000   0.00000
 340       87I+4        0.00000   0.00000   0.00000   0.00000   0.00000
 341       87I-4       -0.00000   0.00000   0.00000   0.00000   0.00000
 342       87I+5       -0.00000   0.00000   0.00000  -0.00000   0.00000
 343       87I-5       -0.00000  -0.00000   0.00000   0.00000   0.00000
 344       87I+6       -0.00000   0.00000   0.00000   0.00000  -0.00000
 345       87I-6       -0.00000   0.00000  -0.00000   0.00000   0.00000
                          10        11        12        13        14
                       (A1G)--O  (T1U)--V  (T1U)--V  (T1U)--V  (A1G)--V
     Eigenvalues --    -0.24435   0.02241   0.02241   0.02241   0.02718
   1 1   Cu 1S          0.00000   0.00000   0.00000   0.00000  -0.00000
   2        2S         -0.00000   0.00000   0.00000   0.00000   0.00000
   3        3S          0.00000   0.00000   0.00000   0.00000  -0.00000
   4        4S         -0.00000   0.00000   0.00000   0.00000   0.00000
   5        5S          0.00000   0.00000   0.00000   0.00000  -0.00000
   6        6S         -0.00000   0.00000   0.00000   0.00000   0.00000
   7        7S          0.00000   0.00000   0.00000   0.00000  -0.00000
   8        8S         -0.00000   0.00000   0.00000   0.00000   0.00000
   9        9S          0.00000   0.00000   0.00000   0.00000  -0.00000
  10       10S         -0.00000   0.00000   0.00000   0.00000   0.00001
  11       11S          0.00001   0.00000   0.00000   0.00000  -0.00002
  12       12S         -0.00002   0.00000   0.00000   0.00000   0.00006
  13       13S          0.00005   0.00000   0.00000   0.00000  -0.00016
  14       14S         -0.00012   0.00000   0.00000   0.00000   0.00038
  15       15S          0.00027   0.00000   0.00000   0.00000  -0.00089
  16       16S         -0.00060   0.00000   0.00000   0.00000   0.00204
  17       17S          0.00319   0.00000   0.00000   0.00000  -0.00407
  18       18S         -0.02306   0.00000   0.00000   0.00000   0.00512
  19       19S          0.03188   0.00000   0.00000   0.00000  -0.01271
  20       20S          0.03625   0.00000   0.00000   0.00000   0.02580
  21       21S          0.00472   0.00000   0.00000   0.00000  -0.06357
  22       22S         -0.07271   0.00000   0.00000   0.00000   0.01696
  23       23S         -0.16590   0.00000   0.00000   0.00000  -0.12918
  24       24S         -0.13943   0.00000   0.00000   0.00000   0.09181
  25       25S          0.03453   0.00000   0.00000   0.00000  -0.39492
  26       26S          0.34413   0.00000   0.00000   0.00000   1.06089
  27       27S          0.51186   0.00000   0.00000   0.00000  -1.76136
  28       28S          0.23470   0.00000   0.00000   0.00000   3.37852
  29       29S          0.03596   0.00000   0.00000   0.00000   0.02462
  30       30S         -0.04326   0.00000   0.00000   0.00000   0.03899
  31       31S          0.00516   0.00000   0.00000   0.00000  -2.84835
  32       32PX         0.00000   0.00000   0.00000   0.00000   0.00000
  33       32PY         0.00000   0.00000   0.00000   0.00000   0.00000
  34       32PZ         0.00000   0.00000   0.00000   0.00000   0.00000
  35       33PX         0.00000  -0.00000   0.00000   0.00000   0.00000
  36       33PY         0.00000   0.00000   0.00000  -0.00000   0.00000
  37       33PZ         0.00000   0.00000  -0.00000   0.00000   0.00000
  38       34PX         0.00000   0.00000   0.00000   0.00000   0.00000
  39       34PY         0.00000   0.00000   0.00000   0.00000   0.00000
  40       34PZ         0.00000   0.00000   0.00000   0.00000   0.00000
  41       35PX         0.00000  -0.00000   0.00000   0.00000   0.00000
  42       35PY         0.00000   0.00000   0.00000  -0.00000   0.00000
  43       35PZ         0.00000   0.00000  -0.00000   0.00000   0.00000
  44       36PX         0.00000   0.00001   0.00000   0.00000   0.00000
  45       36PY         0.00000   0.00000   0.00000   0.00001   0.00000
  46       36PZ         0.00000   0.00000   0.00001   0.00000   0.00000
  47       37PX         0.00000  -0.00002   0.00000   0.00000   0.00000
  48       37PY         0.00000   0.00000   0.00000  -0.00002   0.00000
  49       37PZ         0.00000   0.00000  -0.00002   0.00000   0.00000
  50       38PX         0.00000   0.00005   0.00000   0.00000   0.00000
  51       38PY         0.00000   0.00000   0.00000   0.00005   0.00000
  52       38PZ         0.00000   0.00000   0.00005   0.00000   0.00000
  53       39PX         0.00000  -0.00012   0.00000   0.00000   0.00000
  54       39PY         0.00000   0.00000   0.00000  -0.00012   0.00000
  55       39PZ         0.00000   0.00000  -0.00012   0.00000   0.00000
  56       40PX         0.00000   0.00020   0.00000   0.00000   0.00000
  57       40PY         0.00000   0.00000   0.00000   0.00020   0.00000
  58       40PZ         0.00000   0.00000   0.00020   0.00000   0.00000
  59       41PX         0.00000  -0.00011   0.00000   0.00000   0.00000
  60       41PY         0.00000   0.00000   0.00000  -0.00011   0.00000
  61       41PZ         0.00000   0.00000  -0.00011   0.00000   0.00000
  62       42PX         0.00000   0.00196   0.00000   0.00000   0.00000
  63       42PY         0.00000   0.00000   0.00000   0.00196   0.00000
  64       42PZ         0.00000   0.00000   0.00196   0.00000   0.00000
  65       43PX         0.00000  -0.00157   0.00000   0.00000   0.00000
  66       43PY         0.00000   0.00000   0.00000  -0.00157   0.00000
  67       43PZ         0.00000   0.00000  -0.00157   0.00000   0.00000
  68       44PX         0.00000   0.00661   0.00000   0.00000   0.00000
  69       44PY         0.00000   0.00000   0.00000   0.00661   0.00000
  70       44PZ         0.00000   0.00000   0.00661   0.00000   0.00000
  71       45PX         0.00000  -0.01012   0.00000   0.00000   0.00000
  72       45PY         0.00000   0.00000   0.00000  -0.01012   0.00000
  73       45PZ         0.00000   0.00000  -0.01012   0.00000   0.00000
  74       46PX         0.00000   0.00409   0.00000   0.00000   0.00000
  75       46PY         0.00000   0.00000   0.00000   0.00409   0.00000
  76       46PZ         0.00000   0.00000   0.00409   0.00000   0.00000
  77       47PX         0.00000  -0.03712   0.00000   0.00000   0.00000
  78       47PY         0.00000   0.00000   0.00000  -0.03712   0.00000
  79       47PZ         0.00000   0.00000  -0.03712   0.00000   0.00000
  80       48PX         0.00000   0.03198   0.00000   0.00000   0.00000
  81       48PY         0.00000   0.00000   0.00000   0.03198   0.00000
  82       48PZ         0.00000   0.00000   0.03198   0.00000   0.00000
  83       49PX         0.00000  -0.04265   0.00000   0.00000   0.00000
  84       49PY         0.00000   0.00000   0.00000  -0.04265   0.00000
  85       49PZ         0.00000   0.00000  -0.04265   0.00000   0.00000
  86       50PX         0.00000   0.23201   0.00000   0.00000   0.00000
  87       50PY         0.00000   0.00000   0.00000   0.23201   0.00000
  88       50PZ         0.00000   0.00000   0.23201   0.00000   0.00000
  89       51PX         0.00000  -0.36177   0.00000   0.00000   0.00000
  90       51PY         0.00000   0.00000   0.00000  -0.36177   0.00000
  91       51PZ         0.00000   0.00000  -0.36177   0.00000   0.00000
  92       52PX         0.00000  -0.00162   0.00000   0.00000   0.00000
[...]
 125       59D-2        0.08169   0.04085   0.04085  -0.00000
 126       60D 0        0.37026   0.18513   0.18513  -0.00000
 127       60D+1        0.37026   0.18513   0.18513   0.00000
 128       60D-1        0.37026   0.18513   0.18513  -0.00000
 129       60D+2        0.37026   0.18513   0.18513   0.00000
 130       60D-2        0.37026   0.18513   0.18513  -0.00000
 131       61D 0        0.42606   0.21303   0.21303  -0.00000
 132       61D+1        0.42606   0.21303   0.21303   0.00000
 133       61D-1        0.42606   0.21303   0.21303  -0.00000
 134       61D+2        0.42606   0.21303   0.21303   0.00000
 135       61D-2        0.42606   0.21303   0.21303  -0.00000
 136       62D 0        0.48303   0.24151   0.24151  -0.00000
 137       62D+1        0.48303   0.24151   0.24151   0.00000
 138       62D-1        0.48303   0.24151   0.24151  -0.00000
 139       62D+2        0.48303   0.24151   0.24151   0.00000
 140       62D-2        0.48303   0.24151   0.24151  -0.00000
 141       63D 0        0.45255   0.22627   0.22627  -0.00000
 142       63D+1        0.45255   0.22627   0.22627   0.00000
 143       63D-1        0.45255   0.22627   0.22627  -0.00000
 144       63D+2        0.45255   0.22627   0.22627   0.00000
 145       63D-2        0.45255   0.22627   0.22627  -0.00000
 146       64D 0        0.28220   0.14110   0.14110   0.00000
 147       64D+1        0.28220   0.14110   0.14110  -0.00000
 148       64D-1        0.28220   0.14110   0.14110   0.00000
 149       64D+2        0.28220   0.14110   0.14110  -0.00000
 150       64D-2        0.28220   0.14110   0.14110   0.00000
 151       65D 0        0.11404   0.05702   0.05702  -0.00000
 152       65D+1        0.11404   0.05702   0.05702  -0.00000
 153       65D-1        0.11404   0.05702   0.05702   0.00000
 154       65D+2        0.11404   0.05702   0.05702   0.00000
 155       65D-2        0.11404   0.05702   0.05702   0.00000
 156       66D 0        0.01633   0.00817   0.00817   0.00000
 157       66D+1        0.01633   0.00817   0.00817  -0.00000
 158       66D-1        0.01633   0.00817   0.00817  -0.00000
 159       66D+2        0.01633   0.00817   0.00817  -0.00000
 160       66D-2        0.01633   0.00817   0.00817   0.00000
 161       67D 0       -0.11503  -0.05752  -0.05752   0.00000
 162       67D+1       -0.11503  -0.05752  -0.05752  -0.00000
 163       67D-1       -0.11503  -0.05752  -0.05752   0.00000
 164       67D+2       -0.11503  -0.05752  -0.05752  -0.00000
 165       67D-2       -0.11503  -0.05752  -0.05752   0.00000
 166       68D 0       -0.11652  -0.05826  -0.05826   0.00000
 167       68D+1       -0.11652  -0.05826  -0.05826  -0.00000
 168       68D-1       -0.11652  -0.05826  -0.05826  -0.00000
 169       68D+2       -0.11652  -0.05826  -0.05826  -0.00000
 170       68D-2       -0.11652  -0.05826  -0.05826   0.00000
 171       69D 0        0.00019   0.00010   0.00010  -0.00000
 172       69D+1        0.00019   0.00010   0.00010   0.00000
 173       69D-1        0.00019   0.00010   0.00010  -0.00000
 174       69D+2        0.00019   0.00010   0.00010   0.00000
 175       69D-2        0.00019   0.00010   0.00010  -0.00000
 176       70F 0        0.00000   0.00000   0.00000   0.00000
 177       70F+1        0.00000  -0.00000   0.00000  -0.00000
 178       70F-1        0.00000   0.00000   0.00000  -0.00000
 179       70F+2        0.00000   0.00000   0.00000  -0.00000
 180       70F-2        0.00000   0.00000   0.00000  -0.00000
 181       70F+3        0.00000   0.00000   0.00000  -0.00000
 182       70F-3        0.00000   0.00000   0.00000   0.00000
 183       71F 0        0.00000   0.00000   0.00000  -0.00000
 184       71F+1        0.00000   0.00000   0.00000  -0.00000
 185       71F-1        0.00000   0.00000   0.00000  -0.00000
 186       71F+2        0.00000   0.00000   0.00000  -0.00000
 187       71F-2        0.00000   0.00000   0.00000  -0.00000
 188       71F+3        0.00000   0.00000   0.00000  -0.00000
 189       71F-3        0.00000   0.00000   0.00000   0.00000
 190       72F 0        0.00000   0.00000   0.00000  -0.00000
 191       72F+1        0.00000   0.00000   0.00000  -0.00000
 192       72F-1        0.00000   0.00000   0.00000  -0.00000
 193       72F+2        0.00000   0.00000   0.00000  -0.00000
 194       72F-2        0.00000   0.00000   0.00000  -0.00000
 195       72F+3        0.00000  -0.00000   0.00000  -0.00000
 196       72F-3        0.00000   0.00000   0.00000   0.00000
 197       73F 0        0.00000   0.00000   0.00000  -0.00000
 198       73F+1        0.00000  -0.00000   0.00000  -0.00000
 199       73F-1        0.00000   0.00000   0.00000  -0.00000
 200       73F+2        0.00000   0.00000   0.00000   0.00000
 201       73F-2        0.00000   0.00000   0.00000  -0.00000
 202       73F+3        0.00000   0.00000   0.00000  -0.00000
 203       73F-3        0.00000   0.00000   0.00000   0.00000
 204       74F 0        0.00000  -0.00000   0.00000  -0.00000
 205       74F+1        0.00000   0.00000   0.00000  -0.00000
 206       74F-1        0.00000  -0.00000   0.00000  -0.00000
 207       74F+2        0.00000   0.00000   0.00000   0.00000
 208       74F-2        0.00000   0.00000   0.00000  -0.00000
 209       74F+3        0.00000   0.00000   0.00000   0.00000
 210       74F-3        0.00000   0.00000   0.00000   0.00000
 211       75F 0        0.00000   0.00000   0.00000  -0.00000
 212       75F+1        0.00000   0.00000   0.00000  -0.00000
 213       75F-1        0.00000   0.00000   0.00000  -0.00000
 214       75F+2        0.00000   0.00000   0.00000   0.00000
 215       75F-2        0.00000   0.00000   0.00000  -0.00000
 216       75F+3        0.00000   0.00000   0.00000   0.00000
 217       75F-3        0.00000   0.00000   0.00000  -0.00000
 218       76G 0       -0.00000  -0.00000   0.00000  -0.00000
 219       76G+1        0.00000   0.00000   0.00000   0.00000
 220       76G-1        0.00000   0.00000   0.00000  -0.00000
 221       76G+2       -0.00000  -0.00000   0.00000  -0.00000
 222       76G-2        0.00000   0.00000   0.00000  -0.00000
 223       76G+3        0.00000   0.00000   0.00000   0.00000
 224       76G-3        0.00000   0.00000   0.00000   0.00000
 225       76G+4        0.00000   0.00000   0.00000  -0.00000
 226       76G-4        0.00000   0.00000   0.00000   0.00000
 227       77G 0        0.00000   0.00000  -0.00000   0.00000
 228       77G+1        0.00000   0.00000   0.00000   0.00000
 229       77G-1        0.00000   0.00000   0.00000  -0.00000
 230       77G+2        0.00000   0.00000  -0.00000   0.00000
 231       77G-2        0.00000   0.00000   0.00000  -0.00000
 232       77G+3        0.00000   0.00000   0.00000  -0.00000
 233       77G-3        0.00000   0.00000   0.00000   0.00000
 234       77G+4        0.00000   0.00000  -0.00000   0.00000
 235       77G-4        0.00000   0.00000   0.00000   0.00000
 236       78G 0       -0.00000  -0.00000   0.00000  -0.00000
 237       78G+1        0.00000   0.00000   0.00000  -0.00000
 238       78G-1        0.00000  -0.00000   0.00000  -0.00000
 239       78G+2       -0.00000  -0.00000   0.00000  -0.00000
 240       78G-2        0.00000   0.00000   0.00000  -0.00000
 241       78G+3        0.00000   0.00000   0.00000   0.00000
 242       78G-3        0.00000   0.00000   0.00000   0.00000
 243       78G+4       -0.00000  -0.00000   0.00000  -0.00000
 244       78G-4        0.00000   0.00000   0.00000   0.00000
 245       79G 0        0.00000   0.00000   0.00000   0.00000
 246       79G+1        0.00000   0.00000   0.00000  -0.00000
 247       79G-1        0.00000   0.00000   0.00000  -0.00000
 248       79G+2        0.00000   0.00000   0.00000   0.00000
 249       79G-2        0.00000  -0.00000   0.00000  -0.00000
 250       79G+3        0.00000   0.00000   0.00000   0.00000
 251       79G-3        0.00000   0.00000   0.00000   0.00000
 252       79G+4        0.00000   0.00000   0.00000   0.00000
 253       79G-4        0.00000   0.00000   0.00000   0.00000
 254       80G 0       -0.00000  -0.00000   0.00000  -0.00000
 255       80G+1        0.00000   0.00000   0.00000  -0.00000
 256       80G-1        0.00000   0.00000   0.00000  -0.00000
 257       80G+2        0.00000  -0.00000   0.00000  -0.00000
 258       80G-2        0.00000   0.00000   0.00000  -0.00000
 259       80G+3        0.00000   0.00000   0.00000   0.00000
 260       80G-3        0.00000   0.00000   0.00000   0.00000
 261       80G+4        0.00000   0.00000   0.00000   0.00000
 262       80G-4        0.00000   0.00000   0.00000   0.00000
 263       81H 0        0.00000   0.00000   0.00000  -0.00000
 264       81H+1        0.00000  -0.00000   0.00000  -0.00000
 265       81H-1        0.00000   0.00000   0.00000  -0.00000
 266       81H+2        0.00000   0.00000   0.00000  -0.00000
 267       81H-2        0.00000   0.00000   0.00000  -0.00000
 268       81H+3        0.00000   0.00000   0.00000  -0.00000
 269       81H-3        0.00000  -0.00000   0.00000  -0.00000
 270       81H+4        0.00000   0.00000   0.00000   0.00000
 271       81H-4        0.00000   0.00000   0.00000  -0.00000
 272       81H+5        0.00000   0.00000   0.00000   0.00000
 273       81H-5        0.00000   0.00000   0.00000   0.00000
 274       82H 0        0.00000   0.00000   0.00000  -0.00000
 275       82H+1        0.00000   0.00000   0.00000  -0.00000
 276       82H-1        0.00000   0.00000   0.00000  -0.00000
 277       82H+2        0.00000   0.00000   0.00000  -0.00000
 278       82H-2        0.00000   0.00000   0.00000  -0.00000
 279       82H+3        0.00000   0.00000   0.00000   0.00000
 280       82H-3        0.00000   0.00000   0.00000  -0.00000
 281       82H+4        0.00000   0.00000   0.00000  -0.00000
 282       82H-4        0.00000   0.00000   0.00000  -0.00000
 283       82H+5        0.00000   0.00000   0.00000   0.00000
 284       82H-5        0.00000   0.00000   0.00000   0.00000
 285       83H 0        0.00000   0.00000   0.00000  -0.00000
 286       83H+1        0.00000  -0.00000   0.00000  -0.00000
 287       83H-1       -0.00000  -0.00000   0.00000  -0.00000
 288       83H+2       -0.00000  -0.00000  -0.00000  -0.00000
 289       83H-2       -0.00000   0.00000  -0.00000   0.00000
 290       83H+3       -0.00000  -0.00000   0.00000  -0.00000
 291       83H-3        0.00000   0.00000   0.00000   0.00000
 292       83H+4       -0.00000  -0.00000  -0.00000  -0.00000
 293       83H-4       -0.00000  -0.00000   0.00000  -0.00000
 294       83H+5        0.00000   0.00000   0.00000   0.00000
 295       83H-5        0.00000   0.00000   0.00000   0.00000
 296       84H 0        0.00000   0.00000   0.00000   0.00000
 297       84H+1        0.00000   0.00000   0.00000   0.00000
 298       84H-1        0.00000   0.00000   0.00000   0.00000
 299       84H+2        0.00000   0.00000   0.00000   0.00000
 300       84H-2        0.00000   0.00000   0.00000  -0.00000
 301       84H+3        0.00000   0.00000   0.00000  -0.00000
 302       84H-3        0.00000   0.00000   0.00000   0.00000
 303       84H+4        0.00000   0.00000   0.00000   0.00000
 304       84H-4        0.00000   0.00000   0.00000  -0.00000
 305       84H+5        0.00000  -0.00000   0.00000  -0.00000
 306       84H-5        0.00000   0.00000   0.00000  -0.00000
 307       85I 0       -0.00000  -0.00000  -0.00000   0.00000
 308       85I+1        0.00000   0.00000   0.00000  -0.00000
 309       85I-1        0.00000   0.00000   0.00000  -0.00000
 310       85I+2       -0.00000  -0.00000  -0.00000  -0.00000
 311       85I-2        0.00000   0.00000   0.00000  -0.00000
 312       85I+3        0.00000   0.00000   0.00000  -0.00000
 313       85I-3        0.00000   0.00000   0.00000  -0.00000
 314       85I+4       -0.00000  -0.00000  -0.00000  -0.00000
 315       85I-4        0.00000   0.00000   0.00000  -0.00000
 316       85I+5        0.00000   0.00000   0.00000   0.00000
 317       85I-5        0.00000   0.00000   0.00000   0.00000
 318       85I+6       -0.00000   0.00000  -0.00000   0.00000
 319       85I-6        0.00000   0.00000   0.00000   0.00000
 320       86I 0        0.00000   0.00000   0.00000  -0.00000
 321       86I+1        0.00000   0.00000   0.00000  -0.00000
 322       86I-1        0.00000   0.00000   0.00000  -0.00000
 323       86I+2        0.00000   0.00000   0.00000   0.00000
 324       86I-2        0.00000   0.00000   0.00000  -0.00000
 325       86I+3        0.00000   0.00000   0.00000   0.00000
 326       86I-3        0.00000   0.00000   0.00000  -0.00000
 327       86I+4        0.00000   0.00000   0.00000   0.00000
 328       86I-4        0.00000   0.00000   0.00000  -0.00000
 329       86I+5        0.00000   0.00000   0.00000   0.00000
 330       86I-5        0.00000   0.00000   0.00000   0.00000
 331       86I+6        0.00000   0.00000   0.00000  -0.00000
 332       86I-6        0.00000   0.00000   0.00000   0.00000
 333       87I 0       -0.00000  -0.00000  -0.00000   0.00000
 334       87I+1        0.00000   0.00000   0.00000  -0.00000
 335       87I-1        0.00000   0.00000   0.00000  -0.00000
 336       87I+2       -0.00000  -0.00000  -0.00000  -0.00000
 337       87I-2        0.00000  -0.00000   0.00000  -0.00000
 338       87I+3        0.00000   0.00000   0.00000  -0.00000
 339       87I-3        0.00000   0.00000   0.00000  -0.00000
 340       87I+4       -0.00000  -0.00000  -0.00000  -0.00000
 341       87I-4        0.00000   0.00000   0.00000  -0.00000
 342       87I+5        0.00000   0.00000   0.00000   0.00000
 343       87I-5        0.00000   0.00000   0.00000   0.00000
 344       87I+6       -0.00000   0.00000  -0.00000   0.00000
 345       87I-6        0.00000   0.00000   0.00000   0.00000
          Condensed to atoms (all electrons):
               1
     1  Cu  19.000000
          Atomic-Atomic Spin Densities.
               1
     1  Cu   1.000000
 Mulliken charges and spin densities:
               1          2
     1  Cu  -0.000000   1.000000
 Sum of Mulliken charges =  -0.00000   1.00000
 Mulliken charges and spin densities with hydrogens summed into heavy atoms:
               1          2
     1  Cu  -0.000000   1.000000
 Electronic spatial extent (au):  <R**2>=             31.2846
 Charge=             -0.0000 electrons
 Dipole moment (field-independent basis, Debye):
    X=              0.0000    Y=              0.0000    Z=              0.0000  Tot=              0.0000
 Quadrupole moment (field-independent basis, Debye-Ang):
   XX=            -14.0263   YY=            -14.0263   ZZ=            -14.0263
   XY=             -0.0000   XZ=              0.0000   YZ=              0.0000
 Traceless Quadrupole moment (field-independent basis, Debye-Ang):
   XX=             -0.0000   YY=              0.0000   ZZ=             -0.0000
   XY=             -0.0000   XZ=              0.0000   YZ=              0.0000
 Octapole moment (field-independent basis, Debye-Ang**2):
  XXX=              0.0000  YYY=              0.0000  ZZZ=              0.0000  XYY=              0.0000
  XXY=              0.0000  XXZ=              0.0000  XZZ=              0.0000  YZZ=              0.0000
  YYZ=              0.0000  XYZ=              0.0000
 Hexadecapole moment (field-independent basis, Debye-Ang**3):
 XXXX=            -26.3833 YYYY=            -26.3830 ZZZZ=            -26.3832 XXXY=             -0.0000
 XXXZ=              0.0000 YYYX=             -0.0000 YYYZ=              0.0000 ZZZX=              0.0000
 ZZZY=              0.0000 XXYY=             -8.7944 XXZZ=             -8.7944 YYZZ=             -8.7944
 XXYZ=              0.0000 YYXZ=              0.0000 ZZXY=             -0.0000
 N-N= 0.000000000000D+00 E-N=-4.856670673091D+02  KE= 1.292984313244D+02
 Symmetry AG   KE= 4.320444021516D+01
 Symmetry B1G  KE= 1.837982567893D+01
 Symmetry B2G  KE= 1.837982569630D+01
 Symmetry B3G  KE= 1.837982568440D+01
 Symmetry AU   KE= 2.319666965253D-49
 Symmetry B1U  KE= 1.031817135128D+01
 Symmetry B2U  KE= 1.031817134769D+01
 Symmetry B3U  KE= 1.031817135270D+01
 Symmetry AG   SP= 1.000000000000D+00
 Symmetry B1G  SP= 1.124785922111D-16
 Symmetry B2G  SP=-2.771208045656D-16
 Symmetry B3G  SP=-1.822191997654D-15
 Symmetry AU   SP=-1.999999661807D-50
 Symmetry B1U  SP=-1.788871333969D-15
 Symmetry B2U  SP= 3.575674005771D-15
 Symmetry B3U  SP=-3.380113879158D-15
 Orbital energies and kinetic energies (alpha):
                                 1                 2
   5         (EG)--O          -0.484617          9.189913
   6         (T2G)--O         -0.484617          9.189913
   7         (T2G)--O         -0.484617          9.189913
   8         (T2G)--O         -0.484617          9.189913
   9         (EG)--O          -0.484617          9.189913
  10         (A1G)--O         -0.244351          0.313101
  11         (T1U)--V          0.022412          0.038732
  12         (T1U)--V          0.022412          0.038732
  13         (T1U)--V          0.022412          0.038732
  14         (A1G)--V          0.027179          0.041797
  15         (T1U)--V          0.074866          0.155467
 Total kinetic energy from orbitals= 1.296115323849D+02
                          Isotropic Fermi Contact Couplings
        Atom                 a.u.       MegaHertz       Gauss      10(-4) cm-1
     1  Cu(63)             0.00001       0.01702       0.00607       0.00568
 --------------------------------------------------------
       Center         ----  Spin Dipole Couplings  ----
                      3XX-RR        3YY-RR        3ZZ-RR
 --------------------------------------------------------
     1   Atom        0.000000     -0.000000     -0.000000
 --------------------------------------------------------
                        XY            XZ            YZ
 --------------------------------------------------------
     1   Atom        0.000000      0.000000      0.000000
 --------------------------------------------------------


 ---------------------------------------------------------------------------------
              Anisotropic Spin Dipole Couplings in Principal Axis System
 ---------------------------------------------------------------------------------

       Atom             a.u.   MegaHertz   Gauss  10(-4) cm-1        Axes

              Baa    -0.0000    -0.000    -0.000    -0.000 -0.0000  1.0000  0.0000
     1 Cu(63) Bbb    -0.0000    -0.000    -0.000    -0.000  0.0000  0.0000  1.0000
              Bcc     0.0000     0.000     0.000     0.000  1.0000  0.0000  0.0000
 

 ---------------------------------------------------------------------------------

 No NMR shielding tensors so no spin-rotation constants.
 Leave Link  601 at Sat May  5 21:54:38 2018, MaxMem= 10737418240 cpu:             557.2 elap:              17.9
 (Enter /home1/apps/gaussian/16rA.03/g16/l9999.exe)

 Test job not archived.
 1\1\GINC-C402-084\SP\ROCCSD(T)-Full\Gen\Cu1(2)\GWANG18\05-May-2018\0\\
 #P ROCCSD(T)=(MaxCyc=150, Full)/Gen SCF=(maxcycle=400) Pseudo=Read Int
 egral(NoXCTest) Pop=Regular MaxDisk=500GB Guess=Read IOp(5/15=2)\\Cu\\
 0,2\Cu,0,0.,0.,0.\\Version=ES64L-G16RevA.03\State=2-A1G\HF=-195.978707
 3\MP2=-197.1105931\MP3=-196.9123858\PUHF=-195.9787073\PMP2-0=-197.1105
 931\MP4SDQ=-197.0541756\CCSD=-196.9883491\CCSD(T)=-197.0246274\RMSD=1.
 679e-09\PG=OH [O(Cu1)]\\@


 WE'RE IN THE POSITION OF A VISITOR FROM ANOTHER
 DIMENSION WHO COMES TO EARTH AND SEES A CHESS MATCH.
 ASSUMING HE KNOWS IT'S A GAME, HE'S GOT TWO PROBLEMS:
 FIRST, FIGURE OUT THE RULES, AND SECOND, FIGURE OUT HOW TO WIN.
 NINETY PERCENT OF SCIENCE (INCLUDING VIRTUALLY ALL OF CHEMISRY)
 IS IN THAT SECOND CATEGORY.  THEY'RE TRYING TO APPLY
 THE LAWS THAT ARE ALREADY KNOWN.

                     -- SHELDON GLASHOW, 1979
 Job cpu time:       1 days 10 hours  4 minutes  4.1 seconds.
 Elapsed time:       0 days  1 hours  3 minutes 55.7 seconds.
 File lengths (MBytes):  RWF=  10769 Int=      0 D2E=      0 Chk=     14 Scr=      1
 Normal termination of Gaussian 16 at Sat May  5 21:54:42 2018.
