 Entering Gaussian System, Link 0=g16
 Initial command:
 /home1/apps/gaussian/16rA.03/g16/l1.exe "/tmp/Gau-170536.inp" -scrdir="/tmp/"
 Entering Link 1 = /home1/apps/gaussian/16rA.03/g16/l1.exe PID=    170537.
  
 Copyright (c) 1988,1990,1992,1993,1995,1998,2003,2009,2016,
            Gaussian, Inc.  All Rights Reserved.
  
 This is part of the Gaussian(R) 16 program.  It is based on
 the Gaussian(R) 09 system (copyright 2009, Gaussian, Inc.),
 the Gaussian(R) 03 system (copyright 2003, Gaussian, Inc.),
 the Gaussian(R) 98 system (copyright 1998, Gaussian, Inc.),
 the Gaussian(R) 94 system (copyright 1995, Gaussian, Inc.),
 the Gaussian 92(TM) system (copyright 1992, Gaussian, Inc.),
 the Gaussian 90(TM) system (copyright 1990, Gaussian, Inc.),
 the Gaussian 88(TM) system (copyright 1988, Gaussian, Inc.),
 the Gaussian 86(TM) system (copyright 1986, Carnegie Mellon
 University), and the Gaussian 82(TM) system (copyright 1983,
 Carnegie Mellon University). Gaussian is a federally registered
 trademark of Gaussian, Inc.
  
 This software contains proprietary and confidential information,
 including trade secrets, belonging to Gaussian, Inc.
  
 This software is provided under written license and may be
 used, copied, transmitted, or stored only in accord with that
 written license.
  
 The following legend is applicable only to US Government
 contracts under FAR:
  
                    RESTRICTED RIGHTS LEGEND
  
 Use, reproduction and disclosure by the US Government is
 subject to restrictions as set forth in subparagraphs (a)
 and (c) of the Commercial Computer Software - Restricted
 Rights clause in FAR 52.227-19.
  
 Gaussian, Inc.
 340 Quinnipiac St., Bldg. 40, Wallingford CT 06492
  
  
 ---------------------------------------------------------------
 Warning -- This program may not be used in any manner that
 competes with the business of Gaussian, Inc. or will provide
 assistance to any competitor of Gaussian, Inc.  The licensee
 of this program is prohibited from giving any competitor of
 Gaussian, Inc. access to this program.  By using this program,
 the user acknowledges that Gaussian, Inc. is engaged in the
 business of creating and licensing software in the field of
 computational chemistry and represents and warrants to the
 licensee that it is not a competitor of Gaussian, Inc. and that
 it will not use this program in any manner prohibited above.
 ---------------------------------------------------------------
  

 Cite this work as:
 Gaussian 16, Revision A.03,
 M. J. Frisch, G. W. Trucks, H. B. Schlegel, G. E. Scuseria, 
 M. A. Robb, J. R. Cheeseman, G. Scalmani, V. Barone, 
 G. A. Petersson, H. Nakatsuji, X. Li, M. Caricato, A. V. Marenich, 
 J. Bloino, B. G. Janesko, R. Gomperts, B. Mennucci, H. P. Hratchian, 
 J. V. Ortiz, A. F. Izmaylov, J. L. Sonnenberg, D. Williams-Young, 
 F. Ding, F. Lipparini, F. Egidi, J. Goings, B. Peng, A. Petrone, 
 T. Henderson, D. Ranasinghe, V. G. Zakrzewski, J. Gao, N. Rega, 
 G. Zheng, W. Liang, M. Hada, M. Ehara, K. Toyota, R. Fukuda, 
 J. Hasegawa, M. Ishida, T. Nakajima, Y. Honda, O. Kitao, H. Nakai, 
 T. Vreven, K. Throssell, J. A. Montgomery, Jr., J. E. Peralta, 
 F. Ogliaro, M. J. Bearpark, J. J. Heyd, E. N. Brothers, K. N. Kudin, 
 V. N. Staroverov, T. A. Keith, R. Kobayashi, J. Normand, 
 K. Raghavachari, A. P. Rendell, J. C. Burant, S. S. Iyengar, 
 J. Tomasi, M. Cossi, J. M. Millam, M. Klene, C. Adamo, R. Cammi, 
 J. W. Ochterski, R. L. Martin, K. Morokuma, O. Farkas, 
 J. B. Foresman, and D. J. Fox, Gaussian, Inc., Wallingford CT, 2016.
 
 ******************************************
 Gaussian 16:  ES64L-G16RevA.03 25-Dec-2016
                12-Mar-2018 
 ******************************************
 %MEM=80GB
 %CPU=0-15
 SetSPE:  set environment variable "MP_BIND" = "yes"
 SetSPE:  set environment variable "MP_BLIST" = "0,1,2,3,4,5,6,7,8,9,10,11,12,13,14,15"
 Will use up to   16 processors via shared memory.
 %RWF=/scratch/04843/aannabe/gaussian/
 %Int=/scratch/04843/aannabe/gaussian/
 %D2E=/scratch/04843/aannabe/gaussian/
 %NoSave
 %CHK=Cr
 ----------------------------------------------------------------------
 #P ROCCSD(T)=(maxcyc=150, Full)/Gen 5d 7f SCF=(maxcycles=300, NoVarAcc
 , VShift=400) MaxDisk=100GB Pop=Regular Pseudo=Read IOp(5/15=2)
 ----------------------------------------------------------------------
 1/38=1,172=1/1;
 2/12=2,17=6,18=5,40=1/2;
 3/5=7,8=11,11=2,16=1,17=8,25=1,30=1,116=101/1,2,3;
 4//1;
 5/5=2,7=300,10=400,15=2,38=1/2;
 8/5=-1,6=4,9=120000,10=90/1,4;
 9/5=7,6=150,14=2/13;
 6//1;
 99/5=1,9=1/99;
 Leave Link    1 at Mon Mar 12 12:08:49 2018, MaxMem= 10737418240 cpu:               4.7 elap:               0.3
 (Enter /home1/apps/gaussian/16rA.03/g16/l101.exe)
 --
 Cr
 --
 Symbolic Z-matrix:
 Charge =  0 Multiplicity = 7
 Cr                    0.        0.        0. 
 
 ITRead=  0
 MicOpt= -1
 NAtoms=      1 NQM=        1 NQMF=       0 NMMI=      0 NMMIF=      0
                NMic=       0 NMicF=      0.
                    Isotopes and Nuclear Properties:
 (Nuclear quadrupole moments (NQMom) in fm**2, nuclear magnetic moments (NMagM)
  in nuclear magnetons)

  Atom         1
 IAtWgt=          52
 AtmWgt=  51.9405097
 NucSpn=           0
 AtZEff=  -0.0000000
 NQMom=    0.0000000
 NMagM=    0.0000000
 AtZNuc=  24.0000000
 Leave Link  101 at Mon Mar 12 12:08:50 2018, MaxMem= 10737418240 cpu:               1.5 elap:               0.1
 (Enter /home1/apps/gaussian/16rA.03/g16/l202.exe)
                          Input orientation:                          
 ---------------------------------------------------------------------
 Center     Atomic      Atomic             Coordinates (Angstroms)
 Number     Number       Type             X           Y           Z
 ---------------------------------------------------------------------
      1         24           0        0.000000    0.000000    0.000000
 ---------------------------------------------------------------------
 Stoichiometry    Cr(7)
 Framework group  OH[O(Cr)]
 Deg. of freedom     0
 Full point group                 OH      NOp  48
 Largest Abelian subgroup         D2H     NOp   8
 Largest concise Abelian subgroup C1      NOp   1
                         Standard orientation:                         
 ---------------------------------------------------------------------
 Center     Atomic      Atomic             Coordinates (Angstroms)
 Number     Number       Type             X           Y           Z
 ---------------------------------------------------------------------
      1         24           0        0.000000    0.000000    0.000000
 ---------------------------------------------------------------------
 Leave Link  202 at Mon Mar 12 12:08:50 2018, MaxMem= 10737418240 cpu:               0.7 elap:               0.1
 (Enter /home1/apps/gaussian/16rA.03/g16/l301.exe)
 General basis read from cards:  (5D, 7F)
 Centers:       1
 S 1 1.00
     Exponent=  1.3554000000D+08 Coefficients=  1.0000000000D+00
 S 1 1.00
     Exponent=  2.4240400000D+07 Coefficients=  1.0000000000D+00
 S 1 1.00
     Exponent=  5.4122700000D+06 Coefficients=  1.0000000000D+00
 S 1 1.00
     Exponent=  1.4479200000D+06 Coefficients=  1.0000000000D+00
 S 1 1.00
     Exponent=  4.4819900000D+05 Coefficients=  1.0000000000D+00
 S 1 1.00
     Exponent=  1.5589900000D+05 Coefficients=  1.0000000000D+00
 S 1 1.00
     Exponent=  5.9479600000D+04 Coefficients=  1.0000000000D+00
 S 1 1.00
     Exponent=  2.4408100000D+04 Coefficients=  1.0000000000D+00
 S 1 1.00
     Exponent=  1.0607000000D+04 Coefficients=  1.0000000000D+00
 S 1 1.00
     Exponent=  4.8230800000D+03 Coefficients=  1.0000000000D+00
 S 1 1.00
     Exponent=  2.2740800000D+03 Coefficients=  1.0000000000D+00
 S 1 1.00
     Exponent=  1.1045400000D+03 Coefficients=  1.0000000000D+00
 S 1 1.00
     Exponent=  5.5009900000D+02 Coefficients=  1.0000000000D+00
 S 1 1.00
     Exponent=  2.8001000000D+02 Coefficients=  1.0000000000D+00
 S 1 1.00
     Exponent=  1.4533000000D+02 Coefficients=  1.0000000000D+00
 S 1 1.00
     Exponent=  7.6755100000D+01 Coefficients=  1.0000000000D+00
 S 1 1.00
     Exponent=  4.1159400000D+01 Coefficients=  1.0000000000D+00
 S 1 1.00
     Exponent=  2.2344500000D+01 Coefficients=  1.0000000000D+00
 S 1 1.00
     Exponent=  1.2229300000D+01 Coefficients=  1.0000000000D+00
 S 1 1.00
     Exponent=  6.7077700000D+00 Coefficients=  1.0000000000D+00
 S 1 1.00
     Exponent=  3.6569400000D+00 Coefficients=  1.0000000000D+00
 S 1 1.00
     Exponent=  1.9597800000D+00 Coefficients=  1.0000000000D+00
 S 1 1.00
     Exponent=  1.0175800000D+00 Coefficients=  1.0000000000D+00
 S 1 1.00
     Exponent=  5.1291300000D-01 Coefficients=  1.0000000000D+00
 S 1 1.00
     Exponent=  1.9479800000D-01 Coefficients=  1.0000000000D+00
 S 1 1.00
     Exponent=  1.1096900000D-01 Coefficients=  1.0000000000D+00
 S 1 1.00
     Exponent=  5.2123000000D-02 Coefficients=  1.0000000000D+00
 S 1 1.00
     Exponent=  2.4489000000D-02 Coefficients=  1.0000000000D+00
 S 1 1.00
     Exponent=  5.2776000000D+00 Coefficients=  1.0000000000D+00
 S 1 1.00
     Exponent=  1.7542000000D+00 Coefficients=  1.0000000000D+00
 S 1 1.00
     Exponent=  1.1510000000D-02 Coefficients=  1.0000000000D+00
 P 1 1.00
     Exponent=  7.2029600000D+04 Coefficients=  1.0000000000D+00
 P 1 1.00
     Exponent=  1.7890900000D+04 Coefficients=  1.0000000000D+00
 P 1 1.00
     Exponent=  5.6782800000D+03 Coefficients=  1.0000000000D+00
 P 1 1.00
     Exponent=  2.1387500000D+03 Coefficients=  1.0000000000D+00
 P 1 1.00
     Exponent=  9.0585500000D+02 Coefficients=  1.0000000000D+00
 P 1 1.00
     Exponent=  4.1564500000D+02 Coefficients=  1.0000000000D+00
 P 1 1.00
     Exponent=  2.0169500000D+02 Coefficients=  1.0000000000D+00
 P 1 1.00
     Exponent=  1.0204000000D+02 Coefficients=  1.0000000000D+00
 P 1 1.00
     Exponent=  5.3395500000D+01 Coefficients=  1.0000000000D+00
 P 1 1.00
     Exponent=  2.8757000000D+01 Coefficients=  1.0000000000D+00
 P 1 1.00
     Exponent=  1.5853600000D+01 Coefficients=  1.0000000000D+00
 P 1 1.00
     Exponent=  8.8638500000D+00 Coefficients=  1.0000000000D+00
 P 1 1.00
     Exponent=  4.9433400000D+00 Coefficients=  1.0000000000D+00
 P 1 1.00
     Exponent=  2.6973200000D+00 Coefficients=  1.0000000000D+00
 P 1 1.00
     Exponent=  1.4364300000D+00 Coefficients=  1.0000000000D+00
 P 1 1.00
     Exponent=  7.4851800000D-01 Coefficients=  1.0000000000D+00
 P 1 1.00
     Exponent=  3.7331000000D-01 Coefficients=  1.0000000000D+00
 P 1 1.00
     Exponent=  1.5774600000D-01 Coefficients=  1.0000000000D+00
 P 1 1.00
     Exponent=  6.7445000000D-02 Coefficients=  1.0000000000D+00
 P 1 1.00
     Exponent=  2.8549000000D-02 Coefficients=  1.0000000000D+00
 P 1 1.00
     Exponent=  7.7063000000D+00 Coefficients=  1.0000000000D+00
 P 1 1.00
     Exponent=  2.2690000000D+00 Coefficients=  1.0000000000D+00
 P 1 1.00
     Exponent=  1.2080000000D-02 Coefficients=  1.0000000000D+00
 D 1 1.00
     Exponent=  4.0862300000D+02 Coefficients=  1.0000000000D+00
 D 1 1.00
     Exponent=  1.2076100000D+02 Coefficients=  1.0000000000D+00
 D 1 1.00
     Exponent=  4.6446000000D+01 Coefficients=  1.0000000000D+00
 D 1 1.00
     Exponent=  2.0239000000D+01 Coefficients=  1.0000000000D+00
 D 1 1.00
     Exponent=  9.3638100000D+00 Coefficients=  1.0000000000D+00
 D 1 1.00
     Exponent=  4.5309400000D+00 Coefficients=  1.0000000000D+00
 D 1 1.00
     Exponent=  2.2314000000D+00 Coefficients=  1.0000000000D+00
 D 1 1.00
     Exponent=  1.0877600000D+00 Coefficients=  1.0000000000D+00
 D 1 1.00
     Exponent=  5.1738400000D-01 Coefficients=  1.0000000000D+00
 D 1 1.00
     Exponent=  2.3716400000D-01 Coefficients=  1.0000000000D+00
 D 1 1.00
     Exponent=  1.0330800000D-01 Coefficients=  1.0000000000D+00
 D 1 1.00
     Exponent=  4.1448000000D-02 Coefficients=  1.0000000000D+00
 D 1 1.00
     Exponent=  5.1967000000D+00 Coefficients=  1.0000000000D+00
 D 1 1.00
     Exponent=  3.1194000000D+00 Coefficients=  1.0000000000D+00
 D 1 1.00
     Exponent=  1.6630000000D-02 Coefficients=  1.0000000000D+00
 F 1 1.00
     Exponent=  8.1276000000D+00 Coefficients=  1.0000000000D+00
 F 1 1.00
     Exponent=  3.5260000000D+00 Coefficients=  1.0000000000D+00
 F 1 1.00
     Exponent=  1.5297000000D+00 Coefficients=  1.0000000000D+00
 F 1 1.00
     Exponent=  6.6360000000D-01 Coefficients=  1.0000000000D+00
 F 1 1.00
     Exponent=  2.1580000000D-01 Coefficients=  1.0000000000D+00
 F 1 1.00
     Exponent=  7.0180000000D-02 Coefficients=  1.0000000000D+00
 G 1 1.00
     Exponent=  5.5422000000D+00 Coefficients=  1.0000000000D+00
 G 1 1.00
     Exponent=  2.6311000000D+00 Coefficients=  1.0000000000D+00
 G 1 1.00
     Exponent=  1.2491000000D+00 Coefficients=  1.0000000000D+00
 G 1 1.00
     Exponent=  4.2650000000D-01 Coefficients=  1.0000000000D+00
 G 1 1.00
     Exponent=  1.4563000000D-01 Coefficients=  1.0000000000D+00
 H 1 1.00
     Exponent=  5.1778000000D+00 Coefficients=  1.0000000000D+00
 H 1 1.00
     Exponent=  2.3419000000D+00 Coefficients=  1.0000000000D+00
 H 1 1.00
     Exponent=  8.6610000000D-01 Coefficients=  1.0000000000D+00
 H 1 1.00
     Exponent=  3.2031000000D-01 Coefficients=  1.0000000000D+00
 I 1 1.00
     Exponent=  5.1719000000D+00 Coefficients=  1.0000000000D+00
 I 1 1.00
     Exponent=  2.0805000000D+00 Coefficients=  1.0000000000D+00
 I 1 1.00
     Exponent=  8.3692000000D-01 Coefficients=  1.0000000000D+00
 ****
 ======================================================================================================
                                       Pseudopotential Parameters
 ======================================================================================================
  Center     Atomic      Valence      Angular      Power
  Number     Number     Electrons     Momentum     of R      Exponent        Coefficient   SO-Coeffient
 ======================================================================================================
    1         24           14
                                      F and up 
                                                     2        1.0000000        0.00000000    0.00000000
                                      S - F
                                                     2       16.3900000      201.57888700    0.00000000
                                                     2        7.4020000       24.20574100    0.00000000
                                      P - F
                                                     2       16.4500000      125.02277400    0.00000000
                                                     2        6.9620000       16.47906600    0.00000000
                                      D - F
                                                     2       19.9300000      -20.82742100    0.00000000
                                                     2        6.5980000       -0.83436800    0.00000000
 ======================================================================================================
 Ernie: Thresh=  0.10000D-02 Tol=  0.10000D-05 Strict=F.
 There are   136 symmetry adapted cartesian basis functions of AG  symmetry.
 There are    48 symmetry adapted cartesian basis functions of B1G symmetry.
 There are    48 symmetry adapted cartesian basis functions of B2G symmetry.
 There are    48 symmetry adapted cartesian basis functions of B3G symmetry.
 There are    18 symmetry adapted cartesian basis functions of AU  symmetry.
 There are    65 symmetry adapted cartesian basis functions of B1U symmetry.
 There are    65 symmetry adapted cartesian basis functions of B2U symmetry.
 There are    65 symmetry adapted cartesian basis functions of B3U symmetry.
 There are    88 symmetry adapted basis functions of AG  symmetry.
 There are    34 symmetry adapted basis functions of B1G symmetry.
 There are    34 symmetry adapted basis functions of B2G symmetry.
 There are    34 symmetry adapted basis functions of B3G symmetry.
 There are    14 symmetry adapted basis functions of AU  symmetry.
 There are    47 symmetry adapted basis functions of B1U symmetry.
 There are    47 symmetry adapted basis functions of B2U symmetry.
 There are    47 symmetry adapted basis functions of B3U symmetry.
   345 basis functions,   493 primitive gaussians,   493 cartesian basis functions
    10 alpha electrons        4 beta electrons
       nuclear repulsion energy         0.0000000000 Hartrees.
 IExCor=    0 DFT=F Ex=HF Corr=None ExCW=0 ScaHFX=  1.000000
 ScaDFX=  1.000000  1.000000  1.000000  1.000000 ScalE2=  1.000000  1.000000
 IRadAn=      5 IRanWt=     -1 IRanGd=            0 ICorTp=0 IEmpDi=  4
 NAtoms=    1 NActive=    1 NUniq=    1 SFac= 1.00D+00 NAtFMM=   60 NAOKFM=F Big=F
 Integral buffers will be    131072 words long.
 Raffenetti 2 integral format.
 Two-electron integral symmetry is turned on.
 Leave Link  301 at Mon Mar 12 12:08:51 2018, MaxMem= 10737418240 cpu:               4.1 elap:               0.3
 (Enter /home1/apps/gaussian/16rA.03/g16/l302.exe)
 NPDir=0 NMtPBC=     1 NCelOv=     1 NCel=       1 NClECP=     1 NCelD=      1
         NCelK=      1 NCelE2=     1 NClLst=     1 CellRange=     0.0.
 One-electron integrals computed using PRISM.
 One-electron integral symmetry used in STVInt
  48 Symmetry operations used in ECPInt.
 ECPInt:  NShTT=    3828 NPrTT=    3828 LenC2=    3829 LenP2D=    3828.
 LDataN:  DoStor=T MaxTD1=12 Len= 1566
 NBasis=   345 RedAO= T EigKep=  1.37D-06  NBF=    88    34    34    34    14    47    47    47
 NBsUse=   341 1.00D-06 EigRej=  5.30D-07 NBFU=    87    34    34    34    14    46    46    46
 Leave Link  302 at Mon Mar 12 12:09:24 2018, MaxMem= 10737418240 cpu:             526.7 elap:              33.0
 (Enter /home1/apps/gaussian/16rA.03/g16/l303.exe)
 DipDrv:  MaxL=1.
 Leave Link  303 at Mon Mar 12 12:09:25 2018, MaxMem= 10737418240 cpu:               2.0 elap:               0.2
 (Enter /home1/apps/gaussian/16rA.03/g16/l401.exe)
 ExpMin= 1.15D-02 ExpMax= 1.36D+08 ExpMxC= 1.36D+08 IAcc=4 IRadAn=    399590 AccDes= 0.00D+00
 Harris functional with IExCor=  205 and IRadAn=  399590 diagonalized for initial guess.
 HarFok:  IExCor=  205 AccDes= 0.00D+00 IRadAn=    399590 IDoV= 1 UseB2=F ITyADJ=14
 ICtDFT=  3500011 ScaDFX=  1.000000  1.000000  1.000000  1.000000
 FoFCou: FMM=F IPFlag=           0 FMFlag=      100000 FMFlg1=           0
         NFxFlg=           0 DoJE=T BraDBF=F KetDBF=T FulRan=T
         wScrn=  0.000000 ICntrl=       500 IOpCl=  0 I1Cent=   200000004 NGrid=           0
         NMat0=    1 NMatS0=      1 NMatT0=    0 NMatD0=    1 NMtDS0=    0 NMtDT0=    0
 Petite list used in FoFCou.
 Harris En= -86.8284392977689    
 JPrj=0 DoOrth=F DoCkMO=F.
 Initial guess orbital symmetries:
       Occupied  (A1G) (T1U) (T1U) (T1U) (A1G) (T2G) (T2G) (T2G)
                 (EG) (EG)
       Virtual   (T1U) (T1U) (T1U) (A1G) (T1U) (T1U) (T1U) (EG)
                 (T2G) (T2G) (T2G) (EG) (A1G) (EG) (T2G) (T2G)
                 (T2G) (EG) (T1U) (T1U) (T1U) (T2U) (T2U) (T2U)
                 (A2U) (T1U) (T1U) (T1U) (A1G) (EG) (T2G) (T2G)
                 (T2G) (EG) (T1U) (T1U) (T1U) (T2G) (?A) (?A) (?A)
                 (?A) (?A) (?A) (T2G) (T2G) (T2U) (T2U) (T2U) (A2U)
                 (T1U) (T1U) (T1U) (A1G) (EG) (T2G) (T2G) (T2G)
                 (EG) (T1U) (T1U) (T1U) (EU) (EU) (?B) (?B) (?B)
                 (?B) (?B) (?B) (T1U) (T1U) (T1U) (T2G) (?A) (?A)
                 (?A) (?A) (?A) (?A) (T2G) (T2G) (A1G) (?B) (?B)
                 (?B) (A2U) (?B) (?B) (?B) (EG) (T2G) (T2G) (T2G)
                 (EG) (T1U) (T1U) (T1U) (EG) (T2G) (T2G) (T2G)
                 (EG) (EU) (EU) (?C) (?C) (?C) (?C) (?C) (?C) (?C)
                 (?C) (?C) (?D) (T1G) (T1G) (T1G) (T2G) (T2G) (T2G)
                 (T2G) (T2G) (T2G) (?D) (?D) (?D) (?B) (?B) (?B)
                 (A2U) (?B) (?B) (?B) (T2G) (?A) (?A) (?A) (?A)
                 (?A) (?A) (T2G) (T2G) (A1G) (T1U) (T1U) (T1U)
                 (EG) (EG) (T2G) (T2G) (T2G) (A1G) (?B) (?B) (?B)
                 (A2U) (?B) (?B) (?B) (T2G) (T1G) (T1G) (T1G) (T2G)
                 (T2G) (T2G) (T2G) (T2G) (EU) (EU) (?E) (?E) (?E)
                 (?E) (?E) (?E) (?E) (?E) (?E) (?D) (?A) (?A) (?A)
                 (?A) (?A) (?A) (T2G) (T2G) (T2G) (?D) (?D) (?D)
                 (T1U) (T1U) (T1U) (T2G) (EG) (T2G) (T2G) (EG)
                 (A1G) (T2G) (T1G) (T1G) (T1G) (T2G) (T2G) (T2G)
                 (T2G) (T2G) (T1U) (T1U) (T1U) (EU) (EU) (?F) (?F)
                 (?F) (?F) (?F) (?F) (?F) (?F) (?F) (?B) (?B) (?B)
                 (A2U) (?B) (?B) (?B) (EG) (T2G) (T2G) (T2G) (EG)
                 (?A) (?A) (?A) (?A) (?A) (?A) (T2G) (T2G) (T2G)
                 (?D) (?D) (?D) (?D) (A1G) (T1U) (T1U) (T1U) (EG)
                 (EG) (T2G) (T2G) (T2G) (A1G) (T1U) (T1U) (T1U)
                 (EG) (T2G) (T2G) (T2G) (EG) (A1G) (T1U) (T1U)
                 (T1U) (T2G) (T2G) (T2G) (EG) (EG) (A1G) (T1U)
                 (T1U) (T1U) (A1G) (T2G) (T2G) (T2G) (EG) (EG)
                 (T1U) (T1U) (T1U) (A1G) (T1U) (T1U) (T1U) (A1G)
                 (EG) (EG) (T2G) (T2G) (T2G) (T1U) (T1U) (T1U)
                 (A1G) (T1U) (T1U) (T1U) (A1G) (A1G) (T1U) (T1U)
                 (T1U) (A1G) (T1U) (T1U) (T1U) (A1G) (T1U) (T1U)
                 (T1U) (A1G) (A1G) (T1U) (T1U) (T1U) (A1G) (A1G)
                 (A1G) (A1G) (A1G) (A1G)
 The electronic state of the initial guess is 7-A1G.
 Leave Link  401 at Mon Mar 12 12:09:42 2018, MaxMem= 10737418240 cpu:             269.9 elap:              17.1
 (Enter /home1/apps/gaussian/16rA.03/g16/l502.exe)
 Keep R1 and R2 ints in memory in symmetry-blocked form, NReq=2007023064.
 FoFCou: FMM=F IPFlag=           0 FMFlag=           0 FMFlg1=           0
         NFxFlg=           0 DoJE=F BraDBF=F KetDBF=F FulRan=T
         wScrn=  0.000000 ICntrl=       600 IOpCl=  0 I1Cent=           0 NGrid=           0
         NMat0=    1 NMatS0=  59685 NMatT0=    0 NMatD0=    1 NMtDS0=    0 NMtDT0=    0
 Petite list used in FoFCou.
 Restricted open shell SCF:
 Using DIIS extrapolation, IDIIS=  1040.
 NGot= 10737418240 LenX= 10285402051 LenY= 10285158509
 Requested convergence on RMS density matrix=1.00D-08 within 300 cycles.
 Requested convergence on MAX density matrix=1.00D-06.
 Requested convergence on             energy=1.00D-06.
 Virtual orbitals will be shifted by   0.400 hartree.
 No special actions if energy rises.

 Cycle   1  Pass 1  IDiag  1:
 E= -86.1501437587462    
 DIIS: error= 8.46D-02 at cycle   1 NSaved=   1.
 NSaved= 1 IEnMin= 1 EnMin= -86.1501437587462     IErMin= 1 ErrMin= 8.46D-02
 ErrMax= 8.46D-02  0.00D+00 EMaxC= 1.00D-01 BMatC= 3.75D-01 BMatP= 3.75D-01
 IDIUse=3 WtCom= 1.54D-01 WtEn= 8.46D-01
 Coeff-Com:  0.100D+01
 Coeff-En:   0.100D+01
 Coeff:      0.100D+01
 Gap=     0.181 Goal=   None    Shift=    0.400
 GapD=    0.181 DampG=1.000 DampE=0.250 DampFc=0.2500 IDamp=-1.
 Damping current iteration by 2.50D-01
 RMSDP=6.84D-04 MaxDP=3.79D-02              OVMax= 2.25D-01

 Cycle   2  Pass 1  IDiag  1:
 E= -86.2151989571767     Delta-E=       -0.065055198431 Rises=F Damp=T
 DIIS: error= 2.12D-02 at cycle   2 NSaved=   2.
 NSaved= 2 IEnMin= 2 EnMin= -86.2151989571767     IErMin= 2 ErrMin= 2.12D-02
 ErrMax= 2.12D-02  0.00D+00 EMaxC= 1.00D-01 BMatC= 6.81D-02 BMatP= 3.75D-01
 IDIUse=3 WtCom= 7.88D-01 WtEn= 2.12D-01
 Coeff-Com: -0.534D+00 0.153D+01
 Coeff-En:   0.290D-01 0.971D+00
 Coeff:     -0.415D+00 0.141D+01
 Gap=     0.048 Goal=   None    Shift=    0.400
 RMSDP=3.25D-04 MaxDP=2.05D-02 DE=-6.51D-02 OVMax= 7.07D-02

 Cycle   3  Pass 1  IDiag  1:
 E= -86.3272178195537     Delta-E=       -0.112018862377 Rises=F Damp=F
 DIIS: error= 1.75D-02 at cycle   3 NSaved=   3.
 NSaved= 3 IEnMin= 3 EnMin= -86.3272178195537     IErMin= 3 ErrMin= 1.75D-02
 ErrMax= 1.75D-02  0.00D+00 EMaxC= 1.00D-01 BMatC= 3.09D-02 BMatP= 6.81D-02
 IDIUse=3 WtCom= 8.25D-01 WtEn= 1.75D-01
 Coeff-Com: -0.128D+00 0.600D+00 0.528D+00
 Coeff-En:   0.146D+00 0.000D+00 0.854D+00
 Coeff:     -0.802D-01 0.495D+00 0.585D+00
 Gap=     0.018 Goal=   None    Shift=    0.400
 RMSDP=1.37D-04 MaxDP=2.40D-02 DE=-1.12D-01 OVMax= 2.25D-02

 Cycle   4  Pass 1  IDiag  1:
 E= -86.3369821142955     Delta-E=       -0.009764294742 Rises=F Damp=F
 DIIS: error= 6.04D-03 at cycle   4 NSaved=   4.
 NSaved= 4 IEnMin= 4 EnMin= -86.3369821142955     IErMin= 4 ErrMin= 6.04D-03
 ErrMax= 6.04D-03  0.00D+00 EMaxC= 1.00D-01 BMatC= 3.47D-03 BMatP= 3.09D-02
 IDIUse=3 WtCom= 9.40D-01 WtEn= 6.04D-02
 Coeff-Com: -0.172D+00 0.290D+00-0.476D+00 0.136D+01
 Coeff-En:   0.624D-01 0.000D+00 0.000D+00 0.938D+00
 Coeff:     -0.158D+00 0.272D+00-0.447D+00 0.133D+01
 Gap=    -0.005 Goal=   None    Shift=    0.400
 RMSDP=1.12D-04 MaxDP=2.49D-02 DE=-9.76D-03 OVMax= 2.34D-02

 Cycle   5  Pass 1  IDiag  1:
 E= -86.3391833597648     Delta-E=       -0.002201245469 Rises=F Damp=F
 DIIS: error= 4.61D-03 at cycle   5 NSaved=   5.
 NSaved= 5 IEnMin= 5 EnMin= -86.3391833597648     IErMin= 5 ErrMin= 4.61D-03
 ErrMax= 4.61D-03  0.00D+00 EMaxC= 1.00D-01 BMatC= 1.57D-03 BMatP= 3.47D-03
 IDIUse=3 WtCom= 9.54D-01 WtEn= 4.61D-02
 Coeff-Com: -0.139D+00 0.167D+00 0.152D-01-0.107D+01 0.202D+01
 Coeff-En:   0.402D-01 0.000D+00 0.000D+00 0.000D+00 0.960D+00
 Coeff:     -0.130D+00 0.160D+00 0.145D-01-0.102D+01 0.197D+01
 Gap=    -0.008 Goal=   None    Shift=    0.400
 RMSDP=8.70D-05 MaxDP=2.06D-02 DE=-2.20D-03 OVMax= 1.79D-02

 Cycle   6  Pass 1  IDiag  1:
 Density matrix breaks symmetry, PCut= 1.00D-07
 Density has only Abelian symmetry.
 E= -86.3408278221110     Delta-E=       -0.001644462346 Rises=F Damp=F
 DIIS: error= 4.20D-03 at cycle   6 NSaved=   6.
 NSaved= 6 IEnMin= 6 EnMin= -86.3408278221110     IErMin= 6 ErrMin= 4.20D-03
 ErrMax= 4.20D-03  0.00D+00 EMaxC= 1.00D-01 BMatC= 9.06D-04 BMatP= 1.57D-03
 IDIUse=3 WtCom= 9.58D-01 WtEn= 4.20D-02
 Coeff-Com: -0.761D-01 0.107D+00-0.611D-01 0.225D+00-0.138D+01 0.218D+01
 Coeff-En:   0.515D-01 0.000D+00 0.000D+00 0.000D+00 0.000D+00 0.949D+00
 Coeff:     -0.708D-01 0.103D+00-0.585D-01 0.215D+00-0.132D+01 0.213D+01
 Gap=    -0.010 Goal=   None    Shift=    0.400
 RMSDP=6.52D-05 MaxDP=1.68D-02 DE=-1.64D-03 OVMax= 1.27D-02

 Cycle   7  Pass 1  IDiag  1:
 Density matrix breaks symmetry, PCut= 1.00D-07
 Density has only Abelian symmetry.
 E= -86.3417895580596     Delta-E=       -0.000961735949 Rises=F Damp=F
 DIIS: error= 3.25D-03 at cycle   7 NSaved=   7.
 NSaved= 7 IEnMin= 7 EnMin= -86.3417895580596     IErMin= 7 ErrMin= 3.25D-03
 ErrMax= 3.25D-03  0.00D+00 EMaxC= 1.00D-01 BMatC= 5.05D-04 BMatP= 9.06D-04
 IDIUse=3 WtCom= 9.68D-01 WtEn= 3.25D-02
 Coeff-Com: -0.274D-01 0.290D-01 0.855D-02-0.479D+00 0.285D+01-0.683D+01
 Coeff-Com:  0.545D+01
 Coeff-En:   0.654D-01 0.000D+00 0.000D+00 0.000D+00 0.000D+00 0.000D+00
 Coeff-En:   0.935D+00
 Coeff:     -0.244D-01 0.281D-01 0.827D-02-0.464D+00 0.276D+01-0.661D+01
 Coeff:      0.530D+01
 Gap=    -0.012 Goal=   None    Shift=    0.400
 RMSDP=5.70D-05 MaxDP=1.48D-02 DE=-9.62D-04 OVMax= 9.94D-03

 Cycle   8  Pass 1  IDiag  1:
 Density matrix breaks symmetry, PCut= 1.00D-07
 Density has only Abelian symmetry.
 E= -86.3423859134443     Delta-E=       -0.000596355385 Rises=F Damp=F
 DIIS: error= 2.44D-03 at cycle   8 NSaved=   8.
 NSaved= 8 IEnMin= 8 EnMin= -86.3423859134443     IErMin= 8 ErrMin= 2.44D-03
 ErrMax= 2.44D-03  0.00D+00 EMaxC= 1.00D-01 BMatC= 2.61D-04 BMatP= 5.05D-04
 IDIUse=3 WtCom= 9.76D-01 WtEn= 2.44D-02
 Coeff-Com: -0.354D-01 0.399D-01-0.157D-01-0.388D+00 0.254D+01-0.702D+01
 Coeff-Com:  0.689D+01-0.101D+01
 Coeff-En:   0.784D-01 0.000D+00 0.000D+00 0.000D+00 0.000D+00 0.000D+00
 Coeff-En:   0.000D+00 0.922D+00
 Coeff:     -0.326D-01 0.390D-01-0.153D-01-0.378D+00 0.248D+01-0.685D+01
 Coeff:      0.672D+01-0.959D+00
 Gap=    -0.012 Goal=   None    Shift=    0.400
 DSYEVD-2 returned Info=          69 IAlg= 4 N=    34 NDim=   341 NE2=    30161754 trying  DSYEV.
 DSYEVD-2 returned Info=          69 IAlg= 4 N=    34 NDim=   341 NE2=    30161754 trying  DSYEV.
 RMSDP=3.72D-05 MaxDP=7.99D-03 DE=-5.96D-04 OVMax= 6.17D-03

 Cycle   9  Pass 1  IDiag  1:
 Density matrix breaks symmetry, PCut= 1.00D-07
 Density has only Abelian symmetry.
 E= -86.3426601908018     Delta-E=       -0.000274277357 Rises=F Damp=F
 DIIS: error= 1.57D-03 at cycle   9 NSaved=   9.
 NSaved= 9 IEnMin= 9 EnMin= -86.3426601908018     IErMin= 9 ErrMin= 1.57D-03
 ErrMax= 1.57D-03  0.00D+00 EMaxC= 1.00D-01 BMatC= 1.22D-04 BMatP= 2.61D-04
 IDIUse=3 WtCom= 9.84D-01 WtEn= 1.57D-02
 Coeff-Com: -0.223D-01 0.288D-01-0.487D-01-0.540D-01 0.901D+00-0.329D+01
 Coeff-Com:  0.396D+01-0.223D+01 0.176D+01
 Coeff-En:   0.882D-01 0.000D+00 0.000D+00 0.000D+00 0.000D+00 0.000D+00
 Coeff-En:   0.000D+00 0.000D+00 0.912D+00
 Coeff:     -0.206D-01 0.283D-01-0.480D-01-0.531D-01 0.886D+00-0.324D+01
 Coeff:      0.390D+01-0.220D+01 0.174D+01
 Gap=    -0.012 Goal=   None    Shift=    0.400
 RMSDP=2.69D-05 MaxDP=4.24D-03 DE=-2.74D-04 OVMax= 4.54D-03

 Cycle  10  Pass 1  IDiag  1:
 Density matrix breaks symmetry, PCut= 1.00D-07
 Density has only Abelian symmetry.
 E= -86.3427848739232     Delta-E=       -0.000124683121 Rises=F Damp=F
 DIIS: error= 1.18D-03 at cycle  10 NSaved=  10.
 NSaved=10 IEnMin=10 EnMin= -86.3427848739232     IErMin=10 ErrMin= 1.18D-03
 ErrMax= 1.18D-03  0.00D+00 EMaxC= 1.00D-01 BMatC= 6.84D-05 BMatP= 1.22D-04
 IDIUse=3 WtCom= 9.88D-01 WtEn= 1.18D-02
 Coeff-Com: -0.103D-01 0.199D-01-0.489D-01 0.221D+00-0.782D+00 0.116D+01
 Coeff-Com: -0.130D+00-0.147D+01-0.398D+00 0.244D+01
 Coeff-En:   0.935D-01 0.000D+00 0.000D+00 0.000D+00 0.000D+00 0.000D+00
 Coeff-En:   0.000D+00 0.000D+00 0.000D+00 0.907D+00
 Coeff:     -0.905D-02 0.197D-01-0.484D-01 0.218D+00-0.772D+00 0.115D+01
 Coeff:     -0.129D+00-0.145D+01-0.394D+00 0.242D+01
 Gap=    -0.012 Goal=   None    Shift=    0.400
 DSYEVD-2 returned Info=          69 IAlg= 4 N=    34 NDim=   341 NE2=    30161754 trying  DSYEV.
 RMSDP=1.92D-05 MaxDP=3.58D-03 DE=-1.25D-04 OVMax= 3.37D-03

 Cycle  11  Pass 1  IDiag  1:
 Density matrix breaks symmetry, PCut= 1.00D-07
 Density has only Abelian symmetry.
 E= -86.3428508932193     Delta-E=       -0.000066019296 Rises=F Damp=F
 DIIS: error= 9.30D-04 at cycle  11 NSaved=  11.
 NSaved=11 IEnMin=11 EnMin= -86.3428508932193     IErMin=11 ErrMin= 9.30D-04
 ErrMax= 9.30D-04  0.00D+00 EMaxC= 1.00D-01 BMatC= 4.18D-05 BMatP= 6.84D-05
 IDIUse=3 WtCom= 9.91D-01 WtEn= 9.30D-03
 Coeff-Com: -0.126D-01 0.198D-01-0.377D-01 0.153D+00-0.473D+00 0.295D+00
 Coeff-Com:  0.107D+01-0.155D+01 0.318D+01-0.924D+01 0.759D+01
 Coeff-En:   0.970D-01 0.000D+00 0.000D+00 0.000D+00 0.000D+00 0.000D+00
 Coeff-En:   0.000D+00 0.000D+00 0.000D+00 0.000D+00 0.903D+00
 Coeff:     -0.115D-01 0.196D-01-0.374D-01 0.152D+00-0.468D+00 0.293D+00
 Coeff:      0.106D+01-0.153D+01 0.315D+01-0.916D+01 0.753D+01
 Gap=    -0.012 Goal=   None    Shift=    0.400
 RMSDP=1.57D-05 MaxDP=3.31D-03 DE=-6.60D-05 OVMax= 2.20D-03

 Cycle  12  Pass 1  IDiag  1:
 Density matrix breaks symmetry, PCut= 1.00D-07
 Density has only Abelian symmetry.
 E= -86.3428884072710     Delta-E=       -0.000037514052 Rises=F Damp=F
 DIIS: error= 6.90D-04 at cycle  12 NSaved=  12.
 NSaved=12 IEnMin=12 EnMin= -86.3428884072710     IErMin=12 ErrMin= 6.90D-04
 ErrMax= 6.90D-04  0.00D+00 EMaxC= 1.00D-01 BMatC= 2.53D-05 BMatP= 4.18D-05
 IDIUse=3 WtCom= 9.93D-01 WtEn= 6.90D-03
 Coeff-Com: -0.789D-02 0.120D-01-0.337D-01 0.111D+00-0.430D+00 0.736D+00
 Coeff-Com: -0.158D+00-0.607D+00 0.330D+01-0.593D+01-0.121D+01 0.521D+01
 Coeff-En:   0.998D-01 0.000D+00 0.000D+00 0.000D+00 0.000D+00 0.000D+00
 Coeff-En:   0.000D+00 0.000D+00 0.000D+00 0.000D+00 0.000D+00 0.900D+00
 Coeff:     -0.715D-02 0.119D-01-0.334D-01 0.110D+00-0.427D+00 0.731D+00
 Coeff:     -0.156D+00-0.603D+00 0.328D+01-0.589D+01-0.120D+01 0.518D+01
 Gap=    -0.013 Goal=   None    Shift=    0.400
 DSYEVD-2 returned Info=          93 IAlg= 4 N=    46 NDim=   341 NE2=    30161754 trying  DSYEV.
 RMSDP=1.04D-05 MaxDP=2.79D-03 DE=-3.75D-05 OVMax= 1.81D-03

 Cycle  13  Pass 1  IDiag  1:
 Density matrix breaks symmetry, PCut= 1.00D-07
 Density has only Abelian symmetry.
 E= -86.3429109810951     Delta-E=       -0.000022573824 Rises=F Damp=F
 DIIS: error= 5.62D-04 at cycle  13 NSaved=  13.
 NSaved=13 IEnMin=13 EnMin= -86.3429109810951     IErMin=13 ErrMin= 5.62D-04
 ErrMax= 5.62D-04  0.00D+00 EMaxC= 1.00D-01 BMatC= 1.68D-05 BMatP= 2.53D-05
 IDIUse=3 WtCom= 9.94D-01 WtEn= 5.62D-03
 Coeff-Com: -0.197D-02 0.416D-02-0.270D-01 0.130D+00-0.643D+00 0.145D+01
 Coeff-Com: -0.102D+01-0.683D+00 0.264D+01-0.115D+01-0.451D+01 0.839D+00
 Coeff-Com:  0.398D+01
 Coeff-En:   0.102D+00 0.000D+00 0.000D+00 0.000D+00 0.000D+00 0.000D+00
 Coeff-En:   0.000D+00 0.000D+00 0.000D+00 0.000D+00 0.000D+00 0.000D+00
 Coeff-En:   0.898D+00
 Coeff:     -0.139D-02 0.414D-02-0.269D-01 0.129D+00-0.639D+00 0.144D+01
 Coeff:     -0.102D+01-0.679D+00 0.263D+01-0.115D+01-0.448D+01 0.834D+00
 Coeff:      0.396D+01
 Gap=    -0.013 Goal=   None    Shift=    0.400
 RMSDP=8.88D-06 MaxDP=2.57D-03 DE=-2.26D-05 OVMax= 1.44D-03

 Cycle  14  Pass 1  IDiag  1:
 Density matrix breaks symmetry, PCut= 1.00D-07
 Density has only Abelian symmetry.
 E= -86.3429251758469     Delta-E=       -0.000014194752 Rises=F Damp=F
 DIIS: error= 4.62D-04 at cycle  14 NSaved=  14.
 NSaved=14 IEnMin=14 EnMin= -86.3429251758469     IErMin=14 ErrMin= 4.62D-04
 ErrMax= 4.62D-04  0.00D+00 EMaxC= 1.00D-01 BMatC= 1.16D-05 BMatP= 1.68D-05
 IDIUse=3 WtCom= 9.95D-01 WtEn= 4.62D-03
 Coeff-Com: -0.313D-02 0.528D-02-0.293D-01 0.111D+00-0.454D+00 0.876D+00
 Coeff-Com: -0.361D+00-0.895D+00 0.311D+01-0.292D+01-0.338D+01 0.481D+01
 Coeff-Com: -0.315D+01 0.329D+01
 Coeff-En:   0.103D+00 0.000D+00 0.000D+00 0.000D+00 0.000D+00 0.000D+00
 Coeff-En:   0.000D+00 0.000D+00 0.000D+00 0.000D+00 0.000D+00 0.000D+00
 Coeff-En:   0.000D+00 0.897D+00
 Coeff:     -0.264D-02 0.526D-02-0.291D-01 0.110D+00-0.452D+00 0.872D+00
 Coeff:     -0.359D+00-0.891D+00 0.310D+01-0.291D+01-0.337D+01 0.478D+01
 Coeff:     -0.314D+01 0.328D+01
 Gap=    -0.013 Goal=   None    Shift=    0.400
 RMSDP=6.31D-06 MaxDP=1.92D-03 DE=-1.42D-05 OVMax= 1.07D-03

 Cycle  15  Pass 1  IDiag  1:
 Density matrix breaks symmetry, PCut= 1.00D-07
 Density has only Abelian symmetry.
 E= -86.3429337553927     Delta-E=       -0.000008579546 Rises=F Damp=F
 DIIS: error= 3.56D-04 at cycle  15 NSaved=  15.
 NSaved=15 IEnMin=15 EnMin= -86.3429337553927     IErMin=15 ErrMin= 3.56D-04
 ErrMax= 3.56D-04  0.00D+00 EMaxC= 1.00D-01 BMatC= 7.83D-06 BMatP= 1.16D-05
 IDIUse=3 WtCom= 9.96D-01 WtEn= 3.56D-03
 Coeff-Com: -0.420D-02 0.544D-02-0.254D-01 0.331D-01 0.591D-01-0.328D+00
 Coeff-Com:  0.593D-01 0.374D+00 0.382D+01-0.717D+01 0.349D+00 0.671D+01
 Coeff-Com: -0.312D+01-0.969D+01 0.993D+01
 Coeff-En:   0.105D+00 0.000D+00 0.000D+00 0.000D+00 0.000D+00 0.000D+00
 Coeff-En:   0.000D+00 0.000D+00 0.000D+00 0.000D+00 0.000D+00 0.000D+00
 Coeff-En:   0.000D+00 0.000D+00 0.895D+00
 Coeff:     -0.381D-02 0.542D-02-0.253D-01 0.329D-01 0.589D-01-0.326D+00
 Coeff:      0.591D-01 0.372D+00 0.380D+01-0.715D+01 0.348D+00 0.669D+01
 Coeff:     -0.311D+01-0.965D+01 0.990D+01
 Gap=    -0.013 Goal=   None    Shift=    0.400
 RMSDP=8.61D-06 MaxDP=2.76D-03 DE=-8.58D-06 OVMax= 6.94D-04

 Cycle  16  Pass 1  IDiag  1:
 Density matrix breaks symmetry, PCut= 1.00D-07
 Density has only Abelian symmetry.
 E= -86.3429390834160     Delta-E=       -0.000005328023 Rises=F Damp=F
 DIIS: error= 2.86D-04 at cycle  16 NSaved=  16.
 NSaved=16 IEnMin=16 EnMin= -86.3429390834160     IErMin=16 ErrMin= 2.86D-04
 ErrMax= 2.86D-04  0.00D+00 EMaxC= 1.00D-01 BMatC= 5.68D-06 BMatP= 7.83D-06
 IDIUse=3 WtCom= 9.97D-01 WtEn= 2.86D-03
 Coeff-Com: -0.252D-02 0.326D-02-0.212D-01 0.337D-01 0.114D-02-0.109D+00
 Coeff-Com: -0.237D+00 0.445D+00 0.356D+01-0.608D+01-0.148D+00 0.541D+01
 Coeff-Com: -0.181D+01-0.911D+01 0.751D+01 0.156D+01
 Coeff-En:   0.106D+00 0.000D+00 0.000D+00 0.000D+00 0.000D+00 0.000D+00
 Coeff-En:   0.000D+00 0.000D+00 0.000D+00 0.000D+00 0.000D+00 0.000D+00
 Coeff-En:   0.000D+00 0.000D+00 0.000D+00 0.894D+00
 Coeff:     -0.221D-02 0.325D-02-0.212D-01 0.337D-01 0.114D-02-0.108D+00
 Coeff:     -0.237D+00 0.444D+00 0.355D+01-0.606D+01-0.148D+00 0.539D+01
 Coeff:     -0.180D+01-0.909D+01 0.749D+01 0.156D+01
 Gap=    -0.013 Goal=   None    Shift=    0.400
 RMSDP=5.10D-06 MaxDP=1.65D-03 DE=-5.33D-06 OVMax= 5.57D-04

 Cycle  17  Pass 1  IDiag  1:
 Density matrix breaks symmetry, PCut= 1.00D-07
 Density has only Abelian symmetry.
 E= -86.3429426438032     Delta-E=       -0.000003560387 Rises=F Damp=F
 DIIS: error= 2.44D-04 at cycle  17 NSaved=  17.
 NSaved=17 IEnMin=17 EnMin= -86.3429426438032     IErMin=17 ErrMin= 2.44D-04
 ErrMax= 2.44D-04  0.00D+00 EMaxC= 1.00D-01 BMatC= 4.43D-06 BMatP= 5.68D-06
 IDIUse=3 WtCom= 9.98D-01 WtEn= 2.44D-03
 Large coefficients: NSaved= 17 BigCof=   12.99 CofMax=   10.00 Det=-6.14D-11
 Inversion failed.  Reducing to 16 matrices.
 Large coefficients: NSaved= 16 BigCof=   13.30 CofMax=   10.00 Det=-6.42D-11
 Inversion failed.  Reducing to 15 matrices.
 Large coefficients: NSaved= 15 BigCof=   13.30 CofMax=   10.00 Det=-6.42D-11
 Inversion failed.  Reducing to 14 matrices.
 Large coefficients: NSaved= 14 BigCof=   19.68 CofMax=   10.00 Det=-1.57D-10
 Inversion failed.  Reducing to 13 matrices.
 Large coefficients: NSaved= 13 BigCof=   19.63 CofMax=   10.00 Det=-1.57D-10
 Inversion failed.  Reducing to 12 matrices.
 Large coefficients: NSaved= 12 BigCof=   18.51 CofMax=   10.00 Det=-2.23D-10
 Inversion failed.  Reducing to 11 matrices.
 Large coefficients: NSaved= 11 BigCof=   18.12 CofMax=   10.00 Det=-2.24D-10
 Inversion failed.  Reducing to 10 matrices.
 Large coefficients: NSaved= 10 BigCof=   18.68 CofMax=   10.00 Det=-3.39D-10
 Inversion failed.  Reducing to  9 matrices.
 Large coefficients: NSaved=  9 BigCof=   12.39 CofMax=   10.00 Det=-3.68D-10
 Inversion failed.  Reducing to  8 matrices.
 Large coefficients: NSaved=  8 BigCof=   31.96 CofMax=   10.00 Det=-5.37D-10
 Inversion failed.  Reducing to  7 matrices.
 Large coefficients: NSaved=  7 BigCof=   28.12 CofMax=   10.00 Det=-5.51D-10
 Inversion failed.  Reducing to  6 matrices.
 Large coefficients: NSaved=  6 BigCof=   25.09 CofMax=   10.00 Det=-5.89D-10
 Inversion failed.  Reducing to  5 matrices.
 Large coefficients: NSaved=  5 BigCof=   24.61 CofMax=   10.00 Det=-6.63D-10
 Inversion failed.  Reducing to  4 matrices.
 Coeff-Com:  0.256D+01-0.803D+01 0.361D+01 0.287D+01
 Coeff-En:   0.000D+00 0.000D+00 0.000D+00 0.100D+01
 Coeff:      0.256D+01-0.801D+01 0.360D+01 0.286D+01
 Gap=    -0.013 Goal=   None    Shift=    0.400
 RMSDP=8.57D-06 MaxDP=9.31D-04 DE=-3.56D-06 OVMax= 1.36D-03

 Cycle  18  Pass 1  IDiag  1:
 Density matrix breaks symmetry, PCut= 1.00D-07
 Density has only Abelian symmetry.
 E= -86.3429505581185     Delta-E=       -0.000007914315 Rises=F Damp=F
 DIIS: error= 1.99D-04 at cycle  18 NSaved=   5.
 NSaved= 5 IEnMin= 5 EnMin= -86.3429505581185     IErMin= 5 ErrMin= 1.99D-04
 ErrMax= 1.99D-04  0.00D+00 EMaxC= 1.00D-01 BMatC= 2.11D-06 BMatP= 4.43D-06
 IDIUse=3 WtCom= 9.98D-01 WtEn= 1.99D-03
 Coeff-Com: -0.317D+00-0.211D+01 0.306D+01-0.115D+01 0.151D+01
 Coeff-En:   0.000D+00 0.000D+00 0.000D+00 0.000D+00 0.100D+01
 Coeff:     -0.316D+00-0.210D+01 0.306D+01-0.115D+01 0.151D+01
 Gap=    -0.013 Goal=   None    Shift=    0.400
 RMSDP=3.40D-06 MaxDP=7.09D-04 DE=-7.91D-06 OVMax= 3.81D-04

 Cycle  19  Pass 1  IDiag  1:
 Density matrix breaks symmetry, PCut= 1.00D-07
 Density has only Abelian symmetry.
 E= -86.3429521467548     Delta-E=       -0.000001588636 Rises=F Damp=F
 DIIS: error= 1.71D-04 at cycle  19 NSaved=   6.
 NSaved= 6 IEnMin= 6 EnMin= -86.3429521467548     IErMin= 6 ErrMin= 1.71D-04
 ErrMax= 1.71D-04  0.00D+00 EMaxC= 1.00D-01 BMatC= 1.51D-06 BMatP= 2.11D-06
 IDIUse=3 WtCom= 9.98D-01 WtEn= 1.71D-03
 Coeff-Com: -0.967D+00-0.255D+00 0.351D+01-0.298D+01-0.816D+00 0.251D+01
 Coeff-En:   0.000D+00 0.000D+00 0.000D+00 0.000D+00 0.000D+00 0.100D+01
 Coeff:     -0.965D+00-0.254D+00 0.350D+01-0.297D+01-0.815D+00 0.250D+01
 Gap=    -0.013 Goal=   None    Shift=    0.400
 RMSDP=3.31D-06 MaxDP=1.02D-03 DE=-1.59D-06 OVMax= 2.67D-04

 Cycle  20  Pass 1  IDiag  1:
 Density matrix breaks symmetry, PCut= 1.00D-07
 Density has only Abelian symmetry.
 E= -86.3429529772251     Delta-E=       -0.000000830470 Rises=F Damp=F
 DIIS: error= 1.29D-04 at cycle  20 NSaved=   7.
 NSaved= 7 IEnMin= 7 EnMin= -86.3429529772251     IErMin= 7 ErrMin= 1.29D-04
 ErrMax= 1.29D-04  0.00D+00 EMaxC= 1.00D-01 BMatC= 1.02D-06 BMatP= 1.51D-06
 IDIUse=3 WtCom= 9.99D-01 WtEn= 1.29D-03
 Coeff-Com:  0.189D+00-0.112D+01 0.287D+01-0.271D+01-0.104D+01-0.500D-01
 Coeff-Com:  0.287D+01
 Coeff-En:   0.000D+00 0.000D+00 0.000D+00 0.000D+00 0.000D+00 0.000D+00
 Coeff-En:   0.100D+01
 Coeff:      0.189D+00-0.112D+01 0.287D+01-0.271D+01-0.104D+01-0.499D-01
 Coeff:      0.286D+01
 Gap=    -0.013 Goal=   None    Shift=    0.400
 RMSDP=1.98D-06 MaxDP=6.61D-04 DE=-8.30D-07 OVMax= 2.32D-04

 Cycle  21  Pass 1  IDiag  1:
 Density matrix breaks symmetry, PCut= 1.00D-07
 Density has only Abelian symmetry.
 E= -86.3429534757834     Delta-E=       -0.000000498558 Rises=F Damp=F
 DIIS: error= 1.07D-04 at cycle  21 NSaved=   8.
 NSaved= 8 IEnMin= 8 EnMin= -86.3429534757834     IErMin= 8 ErrMin= 1.07D-04
 ErrMax= 1.07D-04  0.00D+00 EMaxC= 1.00D-01 BMatC= 7.89D-07 BMatP= 1.02D-06
 IDIUse=3 WtCom= 9.99D-01 WtEn= 1.07D-03
 Coeff-Com:  0.800D+00-0.955D+00 0.175D+01-0.242D+01-0.319D+00-0.955D+00
 Coeff-Com: -0.196D+01 0.505D+01
 Coeff-En:   0.000D+00 0.000D+00 0.000D+00 0.000D+00 0.000D+00 0.000D+00
 Coeff-En:   0.000D+00 0.100D+01
 Coeff:      0.800D+00-0.954D+00 0.175D+01-0.242D+01-0.318D+00-0.954D+00
 Coeff:     -0.195D+01 0.505D+01
 Gap=    -0.013 Goal=   None    Shift=    0.400
 RMSDP=1.81D-06 MaxDP=6.24D-04 DE=-4.99D-07 OVMax= 1.56D-04

 Cycle  22  Pass 1  IDiag  1:
 Density matrix breaks symmetry, PCut= 1.00D-07
 Density has only Abelian symmetry.
 E= -86.3429537964538     Delta-E=       -0.000000320670 Rises=F Damp=F
 DIIS: error= 8.98D-05 at cycle  22 NSaved=   9.
 NSaved= 9 IEnMin= 9 EnMin= -86.3429537964538     IErMin= 9 ErrMin= 8.98D-05
 ErrMax= 8.98D-05  0.00D+00 EMaxC= 1.00D-01 BMatC= 6.43D-07 BMatP= 7.89D-07
 IDIUse=1 WtCom= 1.00D+00 WtEn= 0.00D+00
 Coeff-Com:  0.609D+00-0.789D+00 0.176D+01-0.238D+01-0.162D+00-0.420D+00
 Coeff-Com: -0.201D+01 0.273D+01 0.166D+01
 Coeff:      0.609D+00-0.789D+00 0.176D+01-0.238D+01-0.162D+00-0.420D+00
 Coeff:     -0.201D+01 0.273D+01 0.166D+01
 Gap=    -0.013 Goal=   None    Shift=    0.400
 RMSDP=1.12D-06 MaxDP=3.82D-04 DE=-3.21D-07 OVMax= 1.14D-04

 Cycle  23  Pass 1  IDiag  1:
 Density matrix breaks symmetry, PCut= 1.00D-07
 Density has only Abelian symmetry.
 E= -86.3429540226308     Delta-E=       -0.000000226177 Rises=F Damp=F
 DIIS: error= 7.58D-05 at cycle  23 NSaved=  10.
 NSaved=10 IEnMin=10 EnMin= -86.3429540226308     IErMin=10 ErrMin= 7.58D-05
 ErrMax= 7.58D-05  0.00D+00 EMaxC= 1.00D-01 BMatC= 5.43D-07 BMatP= 6.43D-07
 IDIUse=1 WtCom= 1.00D+00 WtEn= 0.00D+00
 Coeff-Com:  0.423D+00-0.704D+00 0.156D+01-0.199D+01 0.590D-02 0.448D-03
 Coeff-Com: -0.269D+00 0.675D+00-0.303D+01 0.433D+01
 Coeff:      0.423D+00-0.704D+00 0.156D+01-0.199D+01 0.590D-02 0.448D-03
 Coeff:     -0.269D+00 0.675D+00-0.303D+01 0.433D+01
 Gap=    -0.013 Goal=   None    Shift=    0.400
 RMSDP=6.33D-07 MaxDP=1.85D-04 DE=-2.26D-07 OVMax= 9.47D-05

 Cycle  24  Pass 1  IDiag  1:
 Density matrix breaks symmetry, PCut= 1.00D-07
 Density has only Abelian symmetry.
 E= -86.3429541957358     Delta-E=       -0.000000173105 Rises=F Damp=F
 DIIS: error= 6.67D-05 at cycle  24 NSaved=  11.
 NSaved=11 IEnMin=11 EnMin= -86.3429541957358     IErMin=11 ErrMin= 6.67D-05
 ErrMax= 6.67D-05  0.00D+00 EMaxC= 1.00D-01 BMatC= 4.76D-07 BMatP= 5.43D-07
 IDIUse=1 WtCom= 1.00D+00 WtEn= 0.00D+00
 Coeff-Com:  0.397D+00-0.672D+00 0.152D+01-0.194D+01 0.527D-01-0.738D-01
 Coeff-Com: -0.485D-02 0.676D+00-0.306D+01 0.284D+01 0.127D+01
 Coeff:      0.397D+00-0.672D+00 0.152D+01-0.194D+01 0.527D-01-0.738D-01
 Coeff:     -0.485D-02 0.676D+00-0.306D+01 0.284D+01 0.127D+01
 Gap=    -0.013 Goal=   None    Shift=    0.400
 RMSDP=4.76D-07 MaxDP=1.26D-04 DE=-1.73D-07 OVMax= 7.52D-05

 Cycle  25  Pass 1  IDiag  1:
 Density matrix breaks symmetry, PCut= 1.00D-07
 Density has only Abelian symmetry.
 E= -86.3429543355847     Delta-E=       -0.000000139849 Rises=F Damp=F
 DIIS: error= 5.94D-05 at cycle  25 NSaved=  12.
 NSaved=12 IEnMin=12 EnMin= -86.3429543355847     IErMin=12 ErrMin= 5.94D-05
 ErrMax= 5.94D-05  0.00D+00 EMaxC= 1.00D-01 BMatC= 4.24D-07 BMatP= 4.76D-07
 IDIUse=1 WtCom= 1.00D+00 WtEn= 0.00D+00
 Coeff-Com:  0.403D+00-0.663D+00 0.157D+01-0.202D+01 0.983D-02-0.751D-01
 Coeff-Com:  0.732D-01 0.758D+00-0.336D+01 0.144D+01 0.517D+01-0.230D+01
 Coeff:      0.403D+00-0.663D+00 0.157D+01-0.202D+01 0.983D-02-0.751D-01
 Coeff:      0.732D-01 0.758D+00-0.336D+01 0.144D+01 0.517D+01-0.230D+01
 Gap=    -0.013 Goal=   None    Shift=    0.400
 RMSDP=3.68D-07 MaxDP=6.60D-05 DE=-1.40D-07 OVMax= 6.27D-05

 Cycle  26  Pass 1  IDiag  1:
 Density matrix breaks symmetry, PCut= 1.00D-07
 Density has only Abelian symmetry.
 E= -86.3429544527227     Delta-E=       -0.000000117138 Rises=F Damp=F
 DIIS: error= 5.35D-05 at cycle  26 NSaved=  13.
 NSaved=13 IEnMin=13 EnMin= -86.3429544527227     IErMin=13 ErrMin= 5.35D-05
 ErrMax= 5.35D-05  0.00D+00 EMaxC= 1.00D-01 BMatC= 3.82D-07 BMatP= 4.24D-07
 IDIUse=1 WtCom= 1.00D+00 WtEn= 0.00D+00
 Coeff-Com:  0.412D+00-0.696D+00 0.159D+01-0.201D+01-0.255D-02-0.942D-01
 Coeff-Com:  0.190D+00 0.744D+00-0.353D+01 0.402D+00 0.950D+01-0.778D+01
 Coeff-Com:  0.228D+01
 Coeff:      0.412D+00-0.696D+00 0.159D+01-0.201D+01-0.255D-02-0.942D-01
 Coeff:      0.190D+00 0.744D+00-0.353D+01 0.402D+00 0.950D+01-0.778D+01
 Coeff:      0.228D+01
 Gap=    -0.013 Goal=   None    Shift=    0.400
 RMSDP=3.05D-07 MaxDP=5.60D-05 DE=-1.17D-07 OVMax= 5.17D-05

 Cycle  27  Pass 1  IDiag  1:
 Density matrix breaks symmetry, PCut= 1.00D-07
 Density has only Abelian symmetry.
 E= -86.3429545541105     Delta-E=       -0.000000101388 Rises=F Damp=F
 DIIS: error= 4.88D-05 at cycle  27 NSaved=  14.
 NSaved=14 IEnMin=14 EnMin= -86.3429545541105     IErMin=14 ErrMin= 4.88D-05
 ErrMax= 4.88D-05  0.00D+00 EMaxC= 1.00D-01 BMatC= 3.46D-07 BMatP= 3.82D-07
 IDIUse=1 WtCom= 1.00D+00 WtEn= 0.00D+00
 Coeff-Com:  0.410D+00-0.687D+00 0.159D+01-0.203D+01-0.113D-02-0.927D-01
 Coeff-Com:  0.174D+00 0.767D+00-0.353D+01 0.454D+00 0.903D+01-0.735D+01
 Coeff-Com:  0.276D+01-0.489D+00
 Coeff:      0.410D+00-0.687D+00 0.159D+01-0.203D+01-0.113D-02-0.927D-01
 Coeff:      0.174D+00 0.767D+00-0.353D+01 0.454D+00 0.903D+01-0.735D+01
 Coeff:      0.276D+01-0.489D+00
 Gap=    -0.013 Goal=   None    Shift=    0.400
 RMSDP=2.77D-07 MaxDP=5.06D-05 DE=-1.01D-07 OVMax= 4.29D-05

 Cycle  28  Pass 1  IDiag  1:
 Density matrix breaks symmetry, PCut= 1.00D-07
 Density has only Abelian symmetry.
 E= -86.3429546437361     Delta-E=       -0.000000089626 Rises=F Damp=F
 DIIS: error= 4.50D-05 at cycle  28 NSaved=  15.
 NSaved=15 IEnMin=15 EnMin= -86.3429546437361     IErMin=15 ErrMin= 4.50D-05
 ErrMax= 4.50D-05  0.00D+00 EMaxC= 1.00D-01 BMatC= 3.15D-07 BMatP= 3.46D-07
 IDIUse=1 WtCom= 1.00D+00 WtEn= 0.00D+00
 Large coefficients: NSaved= 15 BigCof=   26.83 CofMax=   10.00 Det=-2.41D-14
 Inversion failed.  Reducing to 14 matrices.
 Large coefficients: NSaved= 14 BigCof=   40.81 CofMax=   10.00 Det=-2.44D-14
 Inversion failed.  Reducing to 13 matrices.
 Large coefficients: NSaved= 13 BigCof=   41.10 CofMax=   10.00 Det=-2.59D-14
 Inversion failed.  Reducing to 12 matrices.
 Large coefficients: NSaved= 12 BigCof=  156.68 CofMax=   10.00 Det=-4.10D-14
 Inversion failed.  Reducing to 11 matrices.
 Large coefficients: NSaved= 11 BigCof=  231.76 CofMax=   10.00 Det=-5.33D-14
 Inversion failed.  Reducing to 10 matrices.
 Large coefficients: NSaved= 10 BigCof=  219.04 CofMax=   10.00 Det=-5.47D-14
 Inversion failed.  Reducing to  9 matrices.
 Large coefficients: NSaved=  9 BigCof=  219.23 CofMax=   10.00 Det=-5.72D-14
 Inversion failed.  Reducing to  8 matrices.
 Large coefficients: NSaved=  8 BigCof=  216.95 CofMax=   10.00 Det=-5.79D-14
 Inversion failed.  Reducing to  7 matrices.
 Large coefficients: NSaved=  7 BigCof=  199.63 CofMax=   10.00 Det=-5.88D-14
 Inversion failed.  Reducing to  6 matrices.
 Large coefficients: NSaved=  6 BigCof=  204.98 CofMax=   10.00 Det=-6.50D-14
 Inversion failed.  Reducing to  5 matrices.
 Large coefficients: NSaved=  5 BigCof=  203.09 CofMax=   10.00 Det=-6.65D-14
 Inversion failed.  Reducing to  4 matrices.
 Large coefficients: NSaved=  4 BigCof=  157.35 CofMax=   10.00 Det=-1.42D-13
 Inversion failed.  Reducing to  3 matrices.
 Large coefficients: NSaved=  3 BigCof=  157.45 CofMax=   10.00 Det=-4.37D-12
 Inversion failed.  Reducing to  2 matrices.
 Large coefficients: NSaved=  2 BigCof=   15.79 CofMax=   10.00 Det=-1.01D-09
 Coeff-Com: -0.148D+02 0.158D+02
 Coeff:     -0.148D+02 0.158D+02
 Gap=    -0.013 Goal=   None    Shift=    0.400
 RMSDP=2.07D-06 MaxDP=1.19D-04 DE=-8.96D-08 OVMax= 2.72D-04

 Cycle  29  Pass 1  IDiag  1:
 Density matrix breaks symmetry, PCut= 1.00D-07
 Density has only Abelian symmetry.
 E= -86.3429550706007     Delta-E=       -0.000000426865 Rises=F Damp=F
 DIIS: error= 5.97D-05 at cycle  29 NSaved=   3.
 NSaved= 3 IEnMin= 3 EnMin= -86.3429550706007     IErMin= 2 ErrMin= 4.50D-05
 ErrMax= 5.97D-05  0.00D+00 EMaxC= 1.00D-01 BMatC= 2.19D-07 BMatP= 3.15D-07
 IDIUse=1 WtCom= 1.00D+00 WtEn= 0.00D+00
 Large coefficients: NSaved=  3 BigCof=   14.05 CofMax=   10.00 Det=-9.68D-10
 Inversion failed.  Reducing to  2 matrices.
 Coeff-Com: -0.319D+00 0.132D+01
 Coeff:     -0.319D+00 0.132D+01
 Gap=    -0.013 Goal=   None    Shift=    0.400
 RMSDP=1.63D-06 MaxDP=1.69D-04 DE=-4.27D-07 OVMax= 3.99D-04

 Cycle  30  Pass 1  IDiag  1:
 Density matrix breaks symmetry, PCut= 1.00D-07
 Density has only Abelian symmetry.
 E= -86.3429555042535     Delta-E=       -0.000000433653 Rises=F Damp=F
 DIIS: error= 3.53D-05 at cycle  30 NSaved=   3.
 NSaved= 3 IEnMin= 3 EnMin= -86.3429555042535     IErMin= 3 ErrMin= 3.53D-05
 ErrMax= 3.53D-05  0.00D+00 EMaxC= 1.00D-01 BMatC= 9.07D-08 BMatP= 2.19D-07
 IDIUse=1 WtCom= 1.00D+00 WtEn= 0.00D+00
 Coeff-Com: -0.790D+00 0.102D+01 0.768D+00
 Coeff:     -0.790D+00 0.102D+01 0.768D+00
 Gap=    -0.013 Goal=   None    Shift=    0.400
 RMSDP=9.36D-07 MaxDP=1.28D-04 DE=-4.34D-07 OVMax= 1.04D-04

 Cycle  31  Pass 1  IDiag  1:
 Density matrix breaks symmetry, PCut= 1.00D-07
 Density has only Abelian symmetry.
 E= -86.3429555463950     Delta-E=       -0.000000042142 Rises=F Damp=F
 DIIS: error= 1.02D-05 at cycle  31 NSaved=   4.
 NSaved= 4 IEnMin= 4 EnMin= -86.3429555463950     IErMin= 4 ErrMin= 1.02D-05
 ErrMax= 1.02D-05  0.00D+00 EMaxC= 1.00D-01 BMatC= 1.63D-08 BMatP= 9.07D-08
 IDIUse=1 WtCom= 1.00D+00 WtEn= 0.00D+00
 Coeff-Com: -0.508D+00 0.505D+00-0.171D-01 0.102D+01
 Coeff:     -0.508D+00 0.505D+00-0.171D-01 0.102D+01
 Gap=    -0.013 Goal=   None    Shift=    0.400
 RMSDP=3.77D-07 MaxDP=5.41D-05 DE=-4.21D-08 OVMax= 4.05D-05

 Cycle  32  Pass 1  IDiag  1:
 Density matrix breaks symmetry, PCut= 1.00D-07
 Density has only Abelian symmetry.
 E= -86.3429555545035     Delta-E=       -0.000000008109 Rises=F Damp=F
 DIIS: error= 7.62D-06 at cycle  32 NSaved=   5.
 NSaved= 5 IEnMin= 5 EnMin= -86.3429555545035     IErMin= 5 ErrMin= 7.62D-06
 ErrMax= 7.62D-06  0.00D+00 EMaxC= 1.00D-01 BMatC= 9.21D-09 BMatP= 1.63D-08
 IDIUse=1 WtCom= 1.00D+00 WtEn= 0.00D+00
 Coeff-Com: -0.362D+00 0.266D+00 0.169D+00-0.496D+00 0.142D+01
 Coeff:     -0.362D+00 0.266D+00 0.169D+00-0.496D+00 0.142D+01
 Gap=    -0.013 Goal=   None    Shift=    0.400
 RMSDP=1.83D-07 MaxDP=2.69D-05 DE=-8.11D-09 OVMax= 2.38D-05

 Cycle  33  Pass 1  IDiag  1:
 Density matrix breaks symmetry, PCut= 1.00D-07
 Density has only Abelian symmetry.
 E= -86.3429555583860     Delta-E=       -0.000000003882 Rises=F Damp=F
 DIIS: error= 6.91D-06 at cycle  33 NSaved=   6.
 NSaved= 6 IEnMin= 6 EnMin= -86.3429555583860     IErMin= 6 ErrMin= 6.91D-06
 ErrMax= 6.91D-06  0.00D+00 EMaxC= 1.00D-01 BMatC= 7.75D-09 BMatP= 9.21D-09
 IDIUse=1 WtCom= 1.00D+00 WtEn= 0.00D+00
 Coeff-Com: -0.278D+00 0.177D+00 0.457D-02 0.381D+00-0.231D+01 0.303D+01
 Coeff:     -0.278D+00 0.177D+00 0.457D-02 0.381D+00-0.231D+01 0.303D+01
 Gap=    -0.013 Goal=   None    Shift=    0.400
 RMSDP=9.77D-08 MaxDP=8.70D-06 DE=-3.88D-09 OVMax= 1.24D-05

 Cycle  34  Pass 1  IDiag  1:
 Density matrix breaks symmetry, PCut= 1.00D-07
 Density has only Abelian symmetry.
 E= -86.3429555610793     Delta-E=       -0.000000002693 Rises=F Damp=F
 DIIS: error= 6.57D-06 at cycle  34 NSaved=   7.
 NSaved= 7 IEnMin= 7 EnMin= -86.3429555610793     IErMin= 7 ErrMin= 6.57D-06
 ErrMax= 6.57D-06  0.00D+00 EMaxC= 1.00D-01 BMatC= 6.78D-09 BMatP= 7.75D-09
 IDIUse=1 WtCom= 1.00D+00 WtEn= 0.00D+00
 Coeff-Com: -0.246D+00 0.137D+00 0.145D-01 0.186D+00-0.122D+01 0.489D+00
 Coeff-Com:  0.164D+01
 Coeff:     -0.246D+00 0.137D+00 0.145D-01 0.186D+00-0.122D+01 0.489D+00
 Coeff:      0.164D+01
 Gap=    -0.013 Goal=   None    Shift=    0.400
 RMSDP=7.29D-08 MaxDP=7.10D-06 DE=-2.69D-09 OVMax= 9.41D-06

 Cycle  35  Pass 1  IDiag  1:
 Density matrix breaks symmetry, PCut= 1.00D-07
 Density has only Abelian symmetry.
 E= -86.3429555631934     Delta-E=       -0.000000002114 Rises=F Damp=F
 DIIS: error= 6.23D-06 at cycle  35 NSaved=   8.
 NSaved= 8 IEnMin= 8 EnMin= -86.3429555631934     IErMin= 8 ErrMin= 6.23D-06
 ErrMax= 6.23D-06  0.00D+00 EMaxC= 1.00D-01 BMatC= 6.05D-09 BMatP= 6.78D-09
 IDIUse=1 WtCom= 1.00D+00 WtEn= 0.00D+00
 Coeff-Com: -0.212D+00 0.968D-01 0.299D-01 0.275D-01-0.324D+00-0.238D+00
 Coeff-Com: -0.329D+00 0.195D+01
 Coeff:     -0.212D+00 0.968D-01 0.299D-01 0.275D-01-0.324D+00-0.238D+00
 Coeff:     -0.329D+00 0.195D+01
 Gap=    -0.013 Goal=   None    Shift=    0.400
 RMSDP=5.85D-08 MaxDP=5.62D-06 DE=-2.11D-09 OVMax= 7.00D-06

 Cycle  36  Pass 1  IDiag  1:
 Density matrix breaks symmetry, PCut= 1.00D-07
 Density has only Abelian symmetry.
 E= -86.3429555649477     Delta-E=       -0.000000001754 Rises=F Damp=F
 DIIS: error= 5.90D-06 at cycle  36 NSaved=   9.
 NSaved= 9 IEnMin= 9 EnMin= -86.3429555649477     IErMin= 9 ErrMin= 5.90D-06
 ErrMax= 5.90D-06  0.00D+00 EMaxC= 1.00D-01 BMatC= 5.47D-09 BMatP= 6.05D-09
 IDIUse=1 WtCom= 1.00D+00 WtEn= 0.00D+00
 Coeff-Com: -0.201D+00 0.948D-01 0.154D-01 0.129D+00-0.683D+00 0.858D+00
 Coeff-Com:  0.152D+01-0.553D+01 0.479D+01
 Coeff:     -0.201D+00 0.948D-01 0.154D-01 0.129D+00-0.683D+00 0.858D+00
 Coeff:      0.152D+01-0.553D+01 0.479D+01
 Gap=    -0.013 Goal=   None    Shift=    0.400
 RMSDP=4.94D-08 MaxDP=4.61D-06 DE=-1.75D-09 OVMax= 5.33D-06

 Cycle  37  Pass 1  IDiag  1:
 Density matrix breaks symmetry, PCut= 1.00D-07
 Density has only Abelian symmetry.
 E= -86.3429555664430     Delta-E=       -0.000000001495 Rises=F Damp=F
 DIIS: error= 5.60D-06 at cycle  37 NSaved=  10.
 NSaved=10 IEnMin=10 EnMin= -86.3429555664430     IErMin=10 ErrMin= 5.60D-06
 ErrMax= 5.60D-06  0.00D+00 EMaxC= 1.00D-01 BMatC= 4.96D-09 BMatP= 5.47D-09
 IDIUse=1 WtCom= 1.00D+00 WtEn= 0.00D+00
 Coeff-Com: -0.197D+00 0.929D-01 0.130D-01 0.123D+00-0.627D+00 0.712D+00
 Coeff-Com:  0.194D+01-0.550D+01 0.338D+01 0.106D+01
 Coeff:     -0.197D+00 0.929D-01 0.130D-01 0.123D+00-0.627D+00 0.712D+00
 Coeff:      0.194D+01-0.550D+01 0.338D+01 0.106D+01
 Gap=    -0.013 Goal=   None    Shift=    0.400
 RMSDP=4.03D-08 MaxDP=4.11D-06 DE=-1.50D-09 OVMax= 4.63D-06

 Cycle  38  Pass 1  IDiag  1:
 Density matrix breaks symmetry, PCut= 1.00D-07
 Density has only Abelian symmetry.
 E= -86.3429555677565     Delta-E=       -0.000000001314 Rises=F Damp=F
 DIIS: error= 5.33D-06 at cycle  38 NSaved=  11.
 NSaved=11 IEnMin=11 EnMin= -86.3429555677565     IErMin=11 ErrMin= 5.33D-06
 ErrMax= 5.33D-06  0.00D+00 EMaxC= 1.00D-01 BMatC= 4.53D-09 BMatP= 4.96D-09
 IDIUse=1 WtCom= 1.00D+00 WtEn= 0.00D+00
 Coeff-Com: -0.178D+00 0.834D-01 0.245D-01 0.349D-01-0.198D+00 0.707D-03
 Coeff-Com:  0.190D+01-0.296D+01 0.453D+01-0.959D+01 0.736D+01
 Coeff:     -0.178D+00 0.834D-01 0.245D-01 0.349D-01-0.198D+00 0.707D-03
 Coeff:      0.190D+01-0.296D+01 0.453D+01-0.959D+01 0.736D+01
 Gap=    -0.013 Goal=   None    Shift=    0.400
 RMSDP=3.54D-08 MaxDP=3.62D-06 DE=-1.31D-09 OVMax= 4.27D-06

 Cycle  39  Pass 1  IDiag  1:
 Density matrix breaks symmetry, PCut= 1.00D-07
 Density has only Abelian symmetry.
 E= -86.3429555689297     Delta-E=       -0.000000001173 Rises=F Damp=F
 DIIS: error= 5.07D-06 at cycle  39 NSaved=  12.
 NSaved=12 IEnMin=12 EnMin= -86.3429555689297     IErMin=12 ErrMin= 5.07D-06
 ErrMax= 5.07D-06  0.00D+00 EMaxC= 1.00D-01 BMatC= 4.14D-09 BMatP= 4.53D-09
 IDIUse=1 WtCom= 1.00D+00 WtEn= 0.00D+00
 Coeff-Com: -0.179D+00 0.846D-01 0.232D-01 0.484D-01-0.230D+00 0.214D+00
 Coeff-Com:  0.161D+01-0.384D+01 0.524D+01-0.565D+01 0.105D+01 0.263D+01
 Coeff:     -0.179D+00 0.846D-01 0.232D-01 0.484D-01-0.230D+00 0.214D+00
 Coeff:      0.161D+01-0.384D+01 0.524D+01-0.565D+01 0.105D+01 0.263D+01
 Gap=    -0.013 Goal=   None    Shift=    0.400
 RMSDP=3.16D-08 MaxDP=3.34D-06 DE=-1.17D-09 OVMax= 3.92D-06

 Cycle  40  Pass 1  IDiag  1:
 Density matrix breaks symmetry, PCut= 1.00D-07
 Density has only Abelian symmetry.
 E= -86.3429555699847     Delta-E=       -0.000000001055 Rises=F Damp=F
 DIIS: error= 4.83D-06 at cycle  40 NSaved=  13.
 NSaved=13 IEnMin=13 EnMin= -86.3429555699847     IErMin=13 ErrMin= 4.83D-06
 ErrMax= 4.83D-06  0.00D+00 EMaxC= 1.00D-01 BMatC= 3.79D-09 BMatP= 4.14D-09
 IDIUse=1 WtCom= 1.00D+00 WtEn= 0.00D+00
 Coeff-Com: -0.178D+00 0.849D-01 0.225D-01 0.522D-01-0.246D+00 0.265D+00
 Coeff-Com:  0.158D+01-0.403D+01 0.524D+01-0.452D+01-0.116D+00 0.231D+01
 Coeff-Com:  0.538D+00
 Coeff:     -0.178D+00 0.849D-01 0.225D-01 0.522D-01-0.246D+00 0.265D+00
 Coeff:      0.158D+01-0.403D+01 0.524D+01-0.452D+01-0.116D+00 0.231D+01
 Coeff:      0.538D+00
 Gap=    -0.013 Goal=   None    Shift=    0.400
 RMSDP=2.80D-08 MaxDP=2.93D-06 DE=-1.06D-09 OVMax= 3.69D-06

 Cycle  41  Pass 1  IDiag  1:
 Density matrix breaks symmetry, PCut= 1.00D-07
 Density has only Abelian symmetry.
 E= -86.3429555709398     Delta-E=       -0.000000000955 Rises=F Damp=F
 DIIS: error= 4.61D-06 at cycle  41 NSaved=  14.
 NSaved=14 IEnMin=14 EnMin= -86.3429555709398     IErMin=14 ErrMin= 4.61D-06
 ErrMax= 4.61D-06  0.00D+00 EMaxC= 1.00D-01 BMatC= 3.47D-09 BMatP= 3.79D-09
 IDIUse=1 WtCom= 1.00D+00 WtEn= 0.00D+00
 Coeff-Com: -0.178D+00 0.849D-01 0.224D-01 0.531D-01-0.249D+00 0.283D+00
 Coeff-Com:  0.155D+01-0.408D+01 0.521D+01-0.399D+01-0.651D+00 0.229D+01
 Coeff-Com:  0.463D+00 0.193D+00
 Coeff:     -0.178D+00 0.849D-01 0.224D-01 0.531D-01-0.249D+00 0.283D+00
 Coeff:      0.155D+01-0.408D+01 0.521D+01-0.399D+01-0.651D+00 0.229D+01
 Coeff:      0.463D+00 0.193D+00
 Gap=    -0.013 Goal=   None    Shift=    0.400
 RMSDP=2.53D-08 MaxDP=2.56D-06 DE=-9.55D-10 OVMax= 3.51D-06

 Cycle  42  Pass 1  IDiag  1:
 Density matrix breaks symmetry, PCut= 1.00D-07
 Density has only Abelian symmetry.
 E= -86.3429555718087     Delta-E=       -0.000000000869 Rises=F Damp=F
 DIIS: error= 4.41D-06 at cycle  42 NSaved=  15.
 NSaved=15 IEnMin=15 EnMin= -86.3429555718087     IErMin=15 ErrMin= 4.41D-06
 ErrMax= 4.41D-06  0.00D+00 EMaxC= 1.00D-01 BMatC= 3.18D-09 BMatP= 3.47D-09
 IDIUse=1 WtCom= 1.00D+00 WtEn= 0.00D+00
 Coeff-Com: -0.176D+00 0.846D-01 0.219D-01 0.547D-01-0.253D+00 0.309D+00
 Coeff-Com:  0.150D+01-0.412D+01 0.508D+01-0.294D+01-0.170D+01 0.236D+01
 Coeff-Com:  0.355D+00 0.326D-01 0.388D+00
 Coeff:     -0.176D+00 0.846D-01 0.219D-01 0.547D-01-0.253D+00 0.309D+00
 Coeff:      0.150D+01-0.412D+01 0.508D+01-0.294D+01-0.170D+01 0.236D+01
 Coeff:      0.355D+00 0.326D-01 0.388D+00
 Gap=    -0.013 Goal=   None    Shift=    0.400
 RMSDP=2.27D-08 MaxDP=2.19D-06 DE=-8.69D-10 OVMax= 3.33D-06

 Cycle  43  Pass 1  IDiag  1:
 Density matrix breaks symmetry, PCut= 1.00D-07
 Density has only Abelian symmetry.
 E= -86.3429555726013     Delta-E=       -0.000000000793 Rises=F Damp=F
 DIIS: error= 4.21D-06 at cycle  43 NSaved=  16.
 NSaved=16 IEnMin=16 EnMin= -86.3429555726013     IErMin=16 ErrMin= 4.21D-06
 ErrMax= 4.21D-06  0.00D+00 EMaxC= 1.00D-01 BMatC= 2.92D-09 BMatP= 3.18D-09
 IDIUse=1 WtCom= 1.00D+00 WtEn= 0.00D+00
 Large coefficients: NSaved= 16 BigCof=    0.00 CofMax=   10.00 Det=-1.45D-15
 Inversion failed.  Reducing to 15 matrices.
 Large coefficients: NSaved= 15 BigCof=   36.93 CofMax=   10.00 Det=-1.72D-15
 Inversion failed.  Reducing to 14 matrices.
 Large coefficients: NSaved= 14 BigCof=   34.65 CofMax=   10.00 Det=-2.34D-15
 Inversion failed.  Reducing to 13 matrices.
 Large coefficients: NSaved= 13 BigCof=   40.22 CofMax=   10.00 Det=-2.63D-15
 Inversion failed.  Reducing to 12 matrices.
 Large coefficients: NSaved= 12 BigCof=   42.67 CofMax=   10.00 Det=-2.72D-15
 Inversion failed.  Reducing to 11 matrices.
 Large coefficients: NSaved= 11 BigCof=   40.89 CofMax=   10.00 Det=-2.73D-15
 Inversion failed.  Reducing to 10 matrices.
 Large coefficients: NSaved= 10 BigCof=   22.98 CofMax=   10.00 Det=-5.15D-15
 Inversion failed.  Reducing to  9 matrices.
 Large coefficients: NSaved=  9 BigCof=   20.16 CofMax=   10.00 Det=-9.05D-15
 Inversion failed.  Reducing to  8 matrices.
 Large coefficients: NSaved=  8 BigCof=   17.38 CofMax=   10.00 Det=-2.40D-14
 Inversion failed.  Reducing to  7 matrices.
 Large coefficients: NSaved=  7 BigCof=   15.97 CofMax=   10.00 Det=-2.92D-14
 Inversion failed.  Reducing to  6 matrices.
 Large coefficients: NSaved=  6 BigCof=   24.74 CofMax=   10.00 Det=-2.91D-14
 Inversion failed.  Reducing to  5 matrices.
 Large coefficients: NSaved=  5 BigCof=   30.44 CofMax=   10.00 Det=-4.60D-14
 Inversion failed.  Reducing to  4 matrices.
 Large coefficients: NSaved=  4 BigCof=   32.34 CofMax=   10.00 Det=-5.03D-14
 Inversion failed.  Reducing to  3 matrices.
 Large coefficients: NSaved=  3 BigCof=   23.62 CofMax=   10.00 Det=-5.14D-14
 Inversion failed.  Reducing to  2 matrices.
 Large coefficients: NSaved=  2 BigCof=   22.61 CofMax=   10.00 Det=-5.94D-12
 Coeff-Com: -0.216D+02 0.226D+02
 Coeff:     -0.216D+02 0.226D+02
 Gap=    -0.013 Goal=   None    Shift=    0.400
 RMSDP=5.81D-08 MaxDP=9.21D-06 DE=-7.93D-10 OVMax= 7.93D-06

 Cycle  44  Pass 1  IDiag  1:
 Density matrix breaks symmetry, PCut= 1.00D-07
 Density has only Abelian symmetry.
 E= -86.3429555737837     Delta-E=       -0.000000001182 Rises=F Damp=F
 DIIS: error= 4.42D-06 at cycle  44 NSaved=   3.
 NSaved= 3 IEnMin= 3 EnMin= -86.3429555737837     IErMin= 2 ErrMin= 4.21D-06
 ErrMax= 4.42D-06  0.00D+00 EMaxC= 1.00D-01 BMatC= 2.50D-09 BMatP= 2.92D-09
 IDIUse=1 WtCom= 1.00D+00 WtEn= 0.00D+00
 Large coefficients: NSaved=  3 BigCof=   20.88 CofMax=   10.00 Det=-4.91D-12
 Inversion failed.  Reducing to  2 matrices.
 Coeff-Com: -0.701D+00 0.170D+01
 Coeff:     -0.701D+00 0.170D+01
 Gap=    -0.013 Goal=   None    Shift=    0.400
 RMSDP=3.19D-07 MaxDP=2.09D-05 DE=-1.18D-09 OVMax= 5.24D-05

 Cycle  45  Pass 1  IDiag  1:
 Density matrix breaks symmetry, PCut= 1.00D-07
 Density has only Abelian symmetry.
 E= -86.3429555807879     Delta-E=       -0.000000007004 Rises=F Damp=F
 DIIS: error= 2.00D-06 at cycle  45 NSaved=   3.
 NSaved= 3 IEnMin= 3 EnMin= -86.3429555807879     IErMin= 3 ErrMin= 2.00D-06
 ErrMax= 2.00D-06  0.00D+00 EMaxC= 1.00D-01 BMatC= 2.45D-10 BMatP= 2.50D-09
 IDIUse=1 WtCom= 1.00D+00 WtEn= 0.00D+00
 Coeff-Com: -0.970D+00 0.730D+00 0.124D+01
 Coeff:     -0.970D+00 0.730D+00 0.124D+01
 Gap=    -0.013 Goal=   None    Shift=    0.400
 RMSDP=4.20D-08 MaxDP=7.79D-06 DE=-7.00D-09 OVMax= 2.80D-06

 Cycle  46  Pass 1  IDiag  1:
 Density matrix breaks symmetry, PCut= 1.00D-07
 Density has only Abelian symmetry.
 E= -86.3429555808638     Delta-E=       -0.000000000076 Rises=F Damp=F
 DIIS: error= 1.35D-06 at cycle  46 NSaved=   4.
 NSaved= 4 IEnMin= 4 EnMin= -86.3429555808638     IErMin= 4 ErrMin= 1.35D-06
 ErrMax= 1.35D-06  0.00D+00 EMaxC= 1.00D-01 BMatC= 1.72D-10 BMatP= 2.45D-10
 IDIUse=1 WtCom= 1.00D+00 WtEn= 0.00D+00
 Coeff-Com: -0.658D+00 0.401D+00 0.199D+00 0.106D+01
 Coeff:     -0.658D+00 0.401D+00 0.199D+00 0.106D+01
 Gap=    -0.013 Goal=   None    Shift=    0.400
 RMSDP=2.03D-08 MaxDP=2.99D-06 DE=-7.59D-11 OVMax= 1.57D-06

 Cycle  47  Pass 1  IDiag  1:
 Density matrix breaks symmetry, PCut= 1.00D-07
 Density has only Abelian symmetry.
 E= -86.3429555809202     Delta-E=       -0.000000000056 Rises=F Damp=F
 DIIS: error= 1.01D-06 at cycle  47 NSaved=   5.
 NSaved= 5 IEnMin= 5 EnMin= -86.3429555809202     IErMin= 5 ErrMin= 1.01D-06
 ErrMax= 1.01D-06  0.00D+00 EMaxC= 1.00D-01 BMatC= 1.42D-10 BMatP= 1.72D-10
 IDIUse=1 WtCom= 1.00D+00 WtEn= 0.00D+00
 Coeff-Com: -0.195D+00-0.679D-01 0.224D+00-0.187D+01 0.291D+01
 Coeff:     -0.195D+00-0.679D-01 0.224D+00-0.187D+01 0.291D+01
 Gap=    -0.013 Goal=   None    Shift=    0.400
 RMSDP=5.72D-09 MaxDP=1.42D-06 DE=-5.65D-11 OVMax= 1.03D-06

 Cycle  48  Pass 1  IDiag  1:
 Density matrix breaks symmetry, PCut= 1.00D-07
 Density has only Abelian symmetry.
 E= -86.3429555809611     Delta-E=       -0.000000000041 Rises=F Damp=F
 DIIS: error= 8.82D-07 at cycle  48 NSaved=   6.
 NSaved= 6 IEnMin= 6 EnMin= -86.3429555809611     IErMin= 6 ErrMin= 8.82D-07
 ErrMax= 8.82D-07  0.00D+00 EMaxC= 1.00D-01 BMatC= 1.27D-10 BMatP= 1.42D-10
 IDIUse=1 WtCom= 1.00D+00 WtEn= 0.00D+00
 Coeff-Com: -0.146D+00-0.999D-01 0.794D-01-0.108D+01 0.166D+00 0.209D+01
 Coeff:     -0.146D+00-0.999D-01 0.794D-01-0.108D+01 0.166D+00 0.209D+01
 Gap=    -0.013 Goal=   None    Shift=    0.400
 RMSDP=6.00D-09 MaxDP=5.44D-07 DE=-4.09D-11 OVMax= 8.11D-07

 Density matrix breaks symmetry, PCut= 1.00D-07
 Density has only Abelian symmetry.
 SCF Done:  E(ROHF) =  -86.3429555810     A.U. after   48 cycles
            NFock= 48  Conv=0.60D-08     -V/T= 2.8390
 <Sx>= 0.0000 <Sy>= 0.0000 <Sz>= 3.0000 <S**2>=12.0000 S= 3.0000
 <L.S>=  0.00000000000    
 KE= 4.695173341086D+01 PE=-1.983647731317D+02 EE= 6.507008413990D+01
 Annihilation of the first spin contaminant:
 S**2 before annihilation    12.0000,   after    12.0000
 Leave Link  502 at Mon Mar 12 12:28:17 2018, MaxMem= 10737418240 cpu:           17722.8 elap:            1114.8
 (Enter /home1/apps/gaussian/16rA.03/g16/l801.exe)
 Windowed orbitals will be sorted by symmetry type.
 Density matrix breaks symmetry, PCut= 1.00D-07
 Density has only Abelian symmetry.
 GenMOA:  NOpAll= 48 NOp2=8 NOpUse=  8 JSym2X=1
 FoFJK:  IHMeth= 1 ICntrl=       0 DoSepK=F KAlg= 0 I1Cent=           0 FoldK=F
 IRaf=         0 NMat=       1 IRICut=       1 DoRegI=T DoRafI=F ISym2E= 1 IDoP0=0 IntGTp=1.
 FoFCou: FMM=F IPFlag=           0 FMFlag=      100000 FMFlg1=           0
         NFxFlg=           0 DoJE=F BraDBF=F KetDBF=F FulRan=T
         wScrn=  0.000000 ICntrl=         0 IOpCl=  1 I1Cent=           0 NGrid=           0
         NMat0=    1 NMatS0=      1 NMatT0=    0 NMatD0=    1 NMtDS0=    0 NMtDT0=    0
 Petite list used in FoFCou.
 <Sx>= 0.0000 <Sy>= 0.0000 <Sz>= 3.0000 <S**2>=12.0000 S= 3.0000
 Range of M.O.s used for correlation:     1   341
 NBasis=   345 NAE=    10 NBE=     4 NFC=     0 NFV=     0
 NROrb=    341 NOA=    10 NOB=     4 NVA=   331 NVB=   337

 **** Warning!!: The largest alpha MO coefficient is  0.25472876D+03


 **** Warning!!: The largest beta MO coefficient is  0.25458417D+03

 Singles contribution to E2=   -0.2836769410D-03
 Leave Link  801 at Mon Mar 12 12:29:21 2018, MaxMem= 10737418240 cpu:            1000.6 elap:              62.6
 (Enter /home1/apps/gaussian/16rA.03/g16/l804.exe)
 Open-shell transformation, MDV= 10737418240 ITran=4 ISComp=2.
 Unit  1 TFree=       3586095 TCopy=       2726560.
 Semi-Direct transformation.
 ModeAB=           2 MOrb=            10 LenV=   10733703739
 LASXX=     24723476 LTotXX=    24723476 LenRXX=    24723476
 LTotAB=    25027236 MaxLAS=   415239110 LenRXY=   415239110
 NonZer=   425683940 LenScr=   641030144 LnRSAI=           0
 LnScr1=           0 LExtra=     9996044 Total=   1090988774
 MaxDsk= 13421772800 SrtSym=           F ITran=            4
 DoSDTr:  NPSUse= 16
 JobTyp=1 Pass  1:  I=   1 to  10.
 (rs|ai) integrals will be sorted in core.
 Complete sort for first half transformation.
 First half transformation complete.
 Begin second half transformation for I=  10.
 Begin second half transformation for I=  10.
 Complete sort for second half transformation.
 Second half transformation complete.
 ModeAB=           2 MOrb=             4 LenV=   10733703739
 LASXX=     10019627 LTotXX=    10019627 LenRXX=   166095644
 LTotAB=     9540458 MaxLAS=   166095644 LenRXY=     9540458
 NonZer=   170273576 LenScr=   256412672 LnRSAI=           0
 LnScr1=           0 LExtra=   449958630 Total=    882007404
 MaxDsk= 13421772800 SrtSym=           F ITran=            4
 DoSDTr:  NPSUse= 16
 JobTyp=2 Pass  1:  I=   1 to   4.
 (rs|ai) integrals will be sorted in core.
 Complete sort for first half transformation.
 First half transformation complete.
 Complete sort for second half transformation.
 Second half transformation complete.
 Spin components of T(2) and E(2):
     alpha-alpha T2 =       0.3777872779D-01 E2=     -0.1705947887D+00
     alpha-beta  T2 =       0.4100484200D-01 E2=     -0.3606897646D+00
     beta-beta   T2 =       0.5995478605D-02 E2=     -0.3730998245D-01
 ANorm=    0.1041560857D+01
 E2 =    -0.5688782127D+00 EUMP2 =    -0.86911833793706D+02
 (S**2,0)=  0.12000D+02           (S**2,1)=  0.12000D+02
 E(PUHF)=      -0.86342955581D+02        E(PMP2)=      -0.86911833794D+02
 Leave Link  804 at Mon Mar 12 12:44:23 2018, MaxMem= 10737418240 cpu:           14430.3 elap:             902.3
 (Enter /home1/apps/gaussian/16rA.03/g16/l913.exe)
 CIDS:  MDV= 10737418240.
 IFCWin=0 IBDFC=1 NFBD=     0     0 NFCmp=     0     0 NFFFC=     0     0
 Using original routines for 1st iteration.
 Using DD4UQ or CC4UQ for 2nd and later iterations.
 Keep R2 and R3 ints in memory in symmetry-blocked form, NReq=2007040355.
 FoFCou: FMM=F IPFlag=           0 FMFlag=           0 FMFlg1=           0
         NFxFlg=           0 DoJE=F BraDBF=F KetDBF=F FulRan=T
         wScrn=  0.000000 ICntrl=       600 IOpCl=  0 I1Cent=           0 NGrid=           0
         NMat0=    1 NMatS0=  59685 NMatT0=    0 NMatD0=    1 NMtDS0=    0 NMtDT0=    0
 Petite list used in FoFCou.
 CIDS: In Core Option IDoMem=           1.
 CCSD(T)
 =======
 Iterations= 150 Convergence= 0.100D-06
 Produce multiple copies of IABC intergrals
 Iteration Nr.   1
 **********************
 DD1Dir will call FoFMem   1 times, MxPair=       132
 NAB=    40 NAA=    45 NBB=     6.
 DD1Dir will call FoFMem   1 times, MxPair=       132
 NAB=    40 NAA=    45 NBB=     6.
 MP4(R+Q)= -0.42423637D-02
 Maximum subspace dimension=  5
 A-vector RMS=  2.1279969D-05 Max=  1.0306863D-03 conv= 1.00D-05.
 RLE energy=       -0.5610632578
 E3=        0.12164957D-01        EROMP3=      -0.86899668837D+02
 E4(SDQ)=  -0.36478408D-02        ROMP4(SDQ)=  -0.86903316677D+02
 VARIATIONAL ENERGIES WITH THE FIRST-ORDER WAVEFUNCTION:
 DE(Corr)= -0.56095425     E(Corr)=     -86.903909830    
 NORM(A)=   0.10397120D+01
 Iteration Nr.   2
 **********************
 DD1Dir will call FoFMem   1 times, MxPair=       132
 NAB=    40 NAA=    45 NBB=     6.
 A-vector RMS=  1.2859094D-03 Max=  2.0743848D-02 conv= 1.00D-05.
 RLE energy=       -0.5577608419
 DE(Corr)= -0.54896327     E(CORR)=     -86.891918856     Delta= 1.20D-02
 NORM(A)=   0.10389863D+01
 Iteration Nr.   3
 **********************
 DD1Dir will call FoFMem   1 times, MxPair=       132
 NAB=    40 NAA=    45 NBB=     6.
 A-vector RMS=  9.4083010D-04 Max=  1.7791341D-02 conv= 1.00D-05.
 RLE energy=       -0.5594441986
 DE(Corr)= -0.55168755     E(CORR)=     -86.894643133     Delta=-2.72D-03
 NORM(A)=   0.10402136D+01
 Iteration Nr.   4
 **********************
 DD1Dir will call FoFMem   1 times, MxPair=       132
 NAB=    40 NAA=    45 NBB=     6.
 A-vector RMS=  7.1380427D-04 Max=  1.2093446D-02 conv= 1.00D-05.
 RLE energy=       -0.5586712388
 DE(Corr)= -0.55421424     E(CORR)=     -86.897169824     Delta=-2.53D-03
 NORM(A)=   0.10454281D+01
 Iteration Nr.   5
 **********************
 DD1Dir will call FoFMem   1 times, MxPair=       132
 NAB=    40 NAA=    45 NBB=     6.
 A-vector RMS=  3.1635051D-04 Max=  3.7281711D-03 conv= 1.00D-05.
 RLE energy=       -0.5592253996
 DE(Corr)= -0.56169303     E(CORR)=     -86.904648611     Delta=-7.48D-03
 NORM(A)=   0.10440887D+01
 Iteration Nr.   6
 **********************
 DD1Dir will call FoFMem   1 times, MxPair=       132
 NAB=    40 NAA=    45 NBB=     6.
 A-vector RMS=  3.6189408D-05 Max=  5.2316876D-04 conv= 1.00D-05.
 RLE energy=       -0.5592137763
 DE(Corr)= -0.55929195     E(CORR)=     -86.902247529     Delta= 2.40D-03
 NORM(A)=   0.10441696D+01
 Iteration Nr.   7
 **********************
 DD1Dir will call FoFMem   1 times, MxPair=       132
 NAB=    40 NAA=    45 NBB=     6.
 A-vector RMS=  5.6350943D-06 Max=  7.6862130D-05 conv= 1.00D-05.
 RLE energy=       -0.5592082445
 DE(Corr)= -0.55920724     E(CORR)=     -86.902162818     Delta= 8.47D-05
 NORM(A)=   0.10441926D+01
 Iteration Nr.   8
 **********************
 DD1Dir will call FoFMem   1 times, MxPair=       132
 NAB=    40 NAA=    45 NBB=     6.
 A-vector RMS=  5.0491804D-06 Max=  1.0697559D-04 conv= 1.00D-05.
 RLE energy=       -0.5592090026
 DE(Corr)= -0.55921160     E(CORR)=     -86.902167185     Delta=-4.37D-06
 NORM(A)=   0.10441972D+01
 Iteration Nr.   9
 **********************
 DD1Dir will call FoFMem   1 times, MxPair=       132
 NAB=    40 NAA=    45 NBB=     6.
 A-vector RMS=  1.7324187D-06 Max=  3.5880509D-05 conv= 1.00D-05.
 RLE energy=       -0.5592106595
 DE(Corr)= -0.55920927     E(CORR)=     -86.902164854     Delta= 2.33D-06
 NORM(A)=   0.10442011D+01
 Iteration Nr.  10
 **********************
 DD1Dir will call FoFMem   1 times, MxPair=       132
 NAB=    40 NAA=    45 NBB=     6.
 A-vector RMS=  8.5780292D-07 Max=  1.6948968D-05 conv= 1.00D-05.
 RLE energy=       -0.5592110197
 DE(Corr)= -0.55921021     E(CORR)=     -86.902165787     Delta=-9.34D-07
 NORM(A)=   0.10441993D+01
 Iteration Nr.  11
 **********************
 DD1Dir will call FoFMem   1 times, MxPair=       132
 NAB=    40 NAA=    45 NBB=     6.
 A-vector RMS=  2.1973563D-07 Max=  6.5380257D-06 conv= 1.00D-05.
 RLE energy=       -0.5592096343
 DE(Corr)= -0.55920965     E(CORR)=     -86.902165231     Delta= 5.56D-07
 NORM(A)=   0.10441979D+01
 Iteration Nr.  12
 **********************
 DD1Dir will call FoFMem   1 times, MxPair=       132
 NAB=    40 NAA=    45 NBB=     6.
 A-vector RMS=  6.9170535D-08 Max=  1.3552000D-06 conv= 1.00D-05.
 RLE energy=       -0.5592094755
 DE(Corr)= -0.55920950     E(CORR)=     -86.902165082     Delta= 1.49D-07
 NORM(A)=   0.10441977D+01
 Iteration Nr.  13
 **********************
 DD1Dir will call FoFMem   1 times, MxPair=       132
 NAB=    40 NAA=    45 NBB=     6.
 A-vector RMS=  3.1195079D-08 Max=  5.8362170D-07 conv= 1.00D-05.
 RLE energy=       -0.5592094587
 DE(Corr)= -0.55920947     E(CORR)=     -86.902165052     Delta= 3.05D-08
 NORM(A)=   0.10441976D+01
 CI/CC converged in   13 iterations to DelEn= 3.05D-08 Conv= 1.00D-07 ErrA1= 3.12D-08 Conv= 1.00D-05
 Wavefunction amplitudes converged. E(Corr)=     -86.902165052    
 Largest amplitude= 4.26D-02
 Time for triples=    22692.74 seconds.
 T4(CCSD)= -0.18343224D-01
 T5(CCSD)=  0.62873639D-03
 CCSD(T)= -0.86919879540D+02
 Discarding MO integrals.
 Leave Link  913 at Mon Mar 12 13:12:34 2018, MaxMem= 10737418240 cpu:           26952.0 elap:            1689.5
 (Enter /home1/apps/gaussian/16rA.03/g16/l601.exe)
 Copying SCF densities to generalized density rwf, IOpCl= 0 IROHF=1.
 SCF density gives NOpUse=  8 NOpAll= 48.
 Marking SCF density as not fully symmetric.

 **********************************************************************

            Population analysis using the SCF density.

 **********************************************************************

 Orbital symmetries:
       Occupied  (A1G) (T1U) (T1U) (T1U) (A1G) (EG) (T2G) (T2G)
                 (T2G) (EG)
       Virtual   (T1U) (T1U) (T1U) (A1G) (EG) (T2G) (T2G) (T2G)
                 (EG) (T1U) (T1U) (T1U) (A1G) (EG) (T2G) (T2G)
                 (T2G) (EG) (T1U) (T1U) (T1U) (A2U) (?A) (?A) (?A)
                 (?A) (?A) (?A) (A1G) (EG) (T2G) (T2G) (T2G) (EG)
                 (T1U) (T1U) (T1U) (?B) (?B) (?B) (T2G) (T2G) (T2G)
                 (?B) (?B) (?B) (?A) (?A) (?A) (?A) (A2U) (?A)
                 (?A) (A1G) (EG) (T2G) (T2G) (T2G) (EG) (T1U) (T1U)
                 (T1U) (?C) (?C) (?C) (EU) (?C) (?C) (?C) (EU)
                 (?C) (?C) (?C) (?B) (?B) (T2G) (?B) (T2G) (?B)
                 (?B) (T2G) (?B) (A1G) (?A) (?A) (?A) (A2U) (?A)
                 (?A) (?A) (EG) (T2G) (T2G) (T2G) (EG) (T1U) (T1U)
                 (T1U) (?D) (?D) (?D) (EU) (?D) (?D) (?D) (EU)
                 (?D) (?D) (?D) (EG) (T2G) (T2G) (T2G) (EG) (?E)
                 (?E) (?E) (?F) (?F) (?E) (?E) (?E) (?F) (?E) (?E)
                 (?F) (?E) (?A) (?A) (?A) (A2U) (?A) (?A) (?A)
                 (A1G) (?B) (?B) (?B) (T2G) (T2G) (?B) (?B) (T2G)
                 (?B) (T1U) (T1U) (T1U) (EG) (T2G) (T2G) (T2G)
                 (EG) (A1G) (?A) (?A) (A2U) (?A) (?A) (?A) (?A)
                 (?B) (T2G) (?B) (?B) (T2G) (?B) (?B) (T2G) (?B)
                 (?F) (?F) (EU) (?F) (?F) (?F) (?F) (EU) (?F) (?F)
                 (?F) (?F) (?F) (?F) (?F) (?F) (?F) (?F) (?F) (?F)
                 (?F) (?F) (?F) (?F) (T1U) (T1U) (T1U) (EG) (T2G)
                 (T2G) (T2G) (EG) (A1G) (T2G) (?B) (?B) (?B) (T2G)
                 (?B) (T2G) (?B) (?B) (T1U) (T1U) (T1U) (?F) (?F)
                 (?F) (EU) (?F) (?F) (?F) (EU) (?F) (?F) (?F) (?A)
                 (?A) (?A) (A2U) (?A) (?A) (?A) (T2G) (EG) (T2G)
                 (T2G) (EG) (?F) (?F) (?F) (?F) (?F) (?F) (?F)
                 (?F) (?F) (?F) (?F) (?F) (?F) (A1G) (T1U) (T1U)
                 (T1U) (T2G) (EG) (T2G) (T2G) (EG) (A1G) (T1U)
                 (T1U) (T1U) (T2G) (EG) (T2G) (T2G) (EG) (A1G)
                 (T1U) (T1U) (T1U) (EG) (T2G) (T2G) (EG) (T2G)
                 (A1G) (T1U) (T1U) (T1U) (A1G) (T2G) (EG) (EG)
                 (T2G) (T2G) (T1U) (T1U) (T1U) (A1G) (T1U) (T1U)
                 (T1U) (A1G) (T2G) (T2G) (T2G) (EG) (EG) (T1U)
                 (T1U) (T1U) (A1G) (T1U) (T1U) (T1U) (A1G) (A1G)
                 (T1U) (T1U) (T1U) (A1G) (T1U) (T1U) (T1U) (A1G)
                 (T1U) (T1U) (T1U) (A1G) (A1G) (T1U) (T1U) (T1U)
                 (A1G) (A1G) (A1G) (A1G) (A1G) (A1G)
 The electronic state is 7-A1G.
 Alpha  occ. eigenvalues --   -3.59133  -2.29296  -2.29296  -2.29296  -0.36849
 Alpha  occ. eigenvalues --   -0.36849  -0.36849  -0.36849  -0.36849  -0.22742
 Alpha virt. eigenvalues --    0.01706   0.01706   0.01706   0.02255   0.05111
 Alpha virt. eigenvalues --    0.05111   0.05111   0.05111   0.05111   0.05745
 Alpha virt. eigenvalues --    0.05745   0.05745   0.11256   0.16249   0.16249
 Alpha virt. eigenvalues --    0.16249   0.16249   0.16249   0.18735   0.18735
 Alpha virt. eigenvalues --    0.18735   0.28747   0.28747   0.28747   0.28747
 Alpha virt. eigenvalues --    0.28747   0.28747   0.28747   0.35222   0.43551
 Alpha virt. eigenvalues --    0.43551   0.43551   0.43551   0.43551   0.54626
 Alpha virt. eigenvalues --    0.54626   0.54626   0.74052   0.74052   0.74052
 Alpha virt. eigenvalues --    0.74052   0.74052   0.74052   0.74052   0.74052
 Alpha virt. eigenvalues --    0.74052   0.91328   0.91328   0.91328   0.91328
 Alpha virt. eigenvalues --    0.91328   0.91328   0.91328   0.93980   1.09392
 Alpha virt. eigenvalues --    1.09392   1.09392   1.09392   1.09392   1.50054
 Alpha virt. eigenvalues --    1.50054   1.50054   1.92350   1.92350   1.92350
 Alpha virt. eigenvalues --    1.92350   1.92350   1.92350   1.92350   1.92350
 Alpha virt. eigenvalues --    1.92350   1.92350   1.92350   2.26049   2.26049
 Alpha virt. eigenvalues --    2.26049   2.26049   2.26049   2.26049   2.26049
 Alpha virt. eigenvalues --    2.26049   2.26049   2.45730   2.48810   2.48810
 Alpha virt. eigenvalues --    2.48810   2.48810   2.48810   2.48810   2.48810
 Alpha virt. eigenvalues --    2.54821   2.54821   2.54821   2.54821   2.54821
[...]
 123       59D-1        0.03132   0.03132   0.00000   0.03132
 124       59D+2        0.03132   0.03132  -0.00000   0.03132
 125       59D-2        0.03132   0.03132  -0.00000   0.03132
 126       60D 0        0.09908   0.09908   0.00000   0.09908
 127       60D+1        0.09908   0.09908   0.00000   0.09908
 128       60D-1        0.09908   0.09908   0.00000   0.09908
 129       60D+2        0.09908   0.09908  -0.00000   0.09908
 130       60D-2        0.09908   0.09908  -0.00000   0.09908
 131       61D 0        0.19707   0.19707   0.00000   0.19707
 132       61D+1        0.19707   0.19707   0.00000   0.19707
 133       61D-1        0.19707   0.19707   0.00000   0.19707
 134       61D+2        0.19707   0.19707   0.00000   0.19707
 135       61D-2        0.19707   0.19707   0.00000   0.19707
 136       62D 0        0.25869   0.25869   0.00000   0.25869
 137       62D+1        0.25869   0.25869   0.00000   0.25869
 138       62D-1        0.25869   0.25869   0.00000   0.25869
 139       62D+2        0.25869   0.25869   0.00000   0.25869
 140       62D-2        0.25869   0.25869   0.00000   0.25869
 141       63D 0        0.23177   0.23177   0.00000   0.23177
 142       63D+1        0.23177   0.23177   0.00000   0.23177
 143       63D-1        0.23177   0.23177   0.00000   0.23177
 144       63D+2        0.23177   0.23177  -0.00000   0.23177
 145       63D-2        0.23177   0.23177  -0.00000   0.23177
 146       64D 0        0.13513   0.13513  -0.00000   0.13513
 147       64D+1        0.13513   0.13513  -0.00000   0.13513
 148       64D-1        0.13513   0.13513  -0.00000   0.13513
 149       64D+2        0.13513   0.13513  -0.00000   0.13513
 150       64D-2        0.13513   0.13513  -0.00000   0.13513
 151       65D 0        0.03775   0.03775   0.00000   0.03775
 152       65D+1        0.03775   0.03775   0.00000   0.03775
 153       65D-1        0.03775   0.03775   0.00000   0.03775
 154       65D+2        0.03775   0.03775   0.00000   0.03775
 155       65D-2        0.03775   0.03775   0.00000   0.03775
 156       66D 0        0.00197   0.00197  -0.00000   0.00197
 157       66D+1        0.00197   0.00197  -0.00000   0.00197
 158       66D-1        0.00197   0.00197  -0.00000   0.00197
 159       66D+2        0.00197   0.00197  -0.00000   0.00197
 160       66D-2        0.00197   0.00197  -0.00000   0.00197
 161       67D 0       -0.00001  -0.00001  -0.00000  -0.00001
 162       67D+1       -0.00001  -0.00001  -0.00000  -0.00001
 163       67D-1       -0.00001  -0.00001  -0.00000  -0.00001
 164       67D+2       -0.00001  -0.00001   0.00000  -0.00001
 165       67D-2       -0.00001  -0.00001   0.00000  -0.00001
 166       68D 0        0.00035   0.00035  -0.00000   0.00035
 167       68D+1        0.00035   0.00035  -0.00000   0.00035
 168       68D-1        0.00035   0.00035  -0.00000   0.00035
 169       68D+2        0.00035   0.00035   0.00000   0.00035
 170       68D-2        0.00035   0.00035   0.00000   0.00035
 171       69D 0       -0.00002  -0.00002   0.00000  -0.00002
 172       69D+1       -0.00002  -0.00002   0.00000  -0.00002
 173       69D-1       -0.00002  -0.00002   0.00000  -0.00002
 174       69D+2       -0.00002  -0.00002  -0.00000  -0.00002
 175       69D-2       -0.00002  -0.00002  -0.00000  -0.00002
 176       70F 0        0.00000   0.00000   0.00000  -0.00000
 177       70F+1        0.00000   0.00000   0.00000  -0.00000
 178       70F-1        0.00000   0.00000   0.00000  -0.00000
 179       70F+2        0.00000   0.00000   0.00000  -0.00000
 180       70F-2        0.00000   0.00000   0.00000  -0.00000
 181       70F+3        0.00000   0.00000   0.00000  -0.00000
 182       70F-3        0.00000   0.00000   0.00000  -0.00000
 183       71F 0       -0.00000  -0.00000  -0.00000   0.00000
 184       71F+1        0.00000   0.00000   0.00000  -0.00000
 185       71F-1        0.00000   0.00000   0.00000  -0.00000
 186       71F+2        0.00000   0.00000   0.00000  -0.00000
 187       71F-2        0.00000   0.00000   0.00000  -0.00000
 188       71F+3        0.00000   0.00000   0.00000   0.00000
 189       71F-3        0.00000   0.00000   0.00000  -0.00000
 190       72F 0        0.00000   0.00000   0.00000  -0.00000
 191       72F+1        0.00000   0.00000   0.00000  -0.00000
 192       72F-1        0.00000   0.00000   0.00000  -0.00000
 193       72F+2        0.00000   0.00000   0.00000  -0.00000
 194       72F-2        0.00000   0.00000   0.00000  -0.00000
 195       72F+3        0.00000   0.00000   0.00000  -0.00000
 196       72F-3        0.00000   0.00000   0.00000  -0.00000
 197       73F 0        0.00000   0.00000   0.00000   0.00000
 198       73F+1       -0.00000  -0.00000  -0.00000   0.00000
 199       73F-1       -0.00000  -0.00000  -0.00000   0.00000
 200       73F+2        0.00000   0.00000   0.00000  -0.00000
 201       73F-2        0.00000   0.00000   0.00000   0.00000
 202       73F+3        0.00000   0.00000   0.00000  -0.00000
 203       73F-3        0.00000   0.00000   0.00000  -0.00000
 204       74F 0        0.00000   0.00000   0.00000  -0.00000
 205       74F+1        0.00000   0.00000   0.00000  -0.00000
 206       74F-1        0.00000   0.00000   0.00000  -0.00000
 207       74F+2        0.00000   0.00000   0.00000  -0.00000
 208       74F-2        0.00000   0.00000   0.00000  -0.00000
 209       74F+3        0.00000   0.00000   0.00000  -0.00000
 210       74F-3        0.00000   0.00000   0.00000  -0.00000
 211       75F 0        0.00000   0.00000   0.00000  -0.00000
 212       75F+1        0.00000   0.00000   0.00000  -0.00000
 213       75F-1        0.00000   0.00000   0.00000  -0.00000
 214       75F+2       -0.00000  -0.00000  -0.00000  -0.00000
 215       75F-2        0.00000   0.00000   0.00000  -0.00000
 216       75F+3       -0.00000  -0.00000  -0.00000   0.00000
 217       75F-3        0.00000   0.00000   0.00000  -0.00000
 218       76G 0       -0.00000  -0.00000  -0.00000  -0.00000
 219       76G+1        0.00000   0.00000  -0.00000   0.00000
 220       76G-1        0.00000   0.00000  -0.00000   0.00000
 221       76G+2       -0.00000  -0.00000  -0.00000  -0.00000
 222       76G-2        0.00000   0.00000  -0.00000   0.00000
 223       76G+3        0.00000   0.00000  -0.00000   0.00000
 224       76G-3        0.00000   0.00000  -0.00000   0.00000
 225       76G+4       -0.00000  -0.00000  -0.00000  -0.00000
 226       76G-4        0.00000   0.00000  -0.00000   0.00000
 227       77G 0        0.00000   0.00000   0.00000   0.00000
 228       77G+1        0.00000   0.00000   0.00000   0.00000
 229       77G-1        0.00000   0.00000   0.00000   0.00000
 230       77G+2        0.00000   0.00000   0.00000   0.00000
 231       77G-2        0.00000   0.00000   0.00000   0.00000
 232       77G+3        0.00000   0.00000   0.00000   0.00000
 233       77G-3       -0.00000  -0.00000   0.00000  -0.00000
 234       77G+4        0.00000   0.00000   0.00000   0.00000
 235       77G-4        0.00000   0.00000   0.00000   0.00000
 236       78G 0       -0.00000  -0.00000  -0.00000  -0.00000
 237       78G+1       -0.00000  -0.00000  -0.00000  -0.00000
 238       78G-1        0.00000   0.00000  -0.00000   0.00000
 239       78G+2       -0.00000  -0.00000  -0.00000  -0.00000
 240       78G-2        0.00000   0.00000  -0.00000   0.00000
 241       78G+3        0.00000   0.00000  -0.00000   0.00000
 242       78G-3        0.00000   0.00000  -0.00000   0.00000
 243       78G+4       -0.00000  -0.00000  -0.00000  -0.00000
 244       78G-4        0.00000   0.00000  -0.00000   0.00000
 245       79G 0        0.00000   0.00000  -0.00000   0.00000
 246       79G+1        0.00000   0.00000  -0.00000   0.00000
 247       79G-1       -0.00000  -0.00000  -0.00000  -0.00000
 248       79G+2        0.00000   0.00000  -0.00000   0.00000
 249       79G-2        0.00000   0.00000  -0.00000   0.00000
 250       79G+3        0.00000   0.00000  -0.00000   0.00000
 251       79G-3        0.00000   0.00000  -0.00000   0.00000
 252       79G+4        0.00000   0.00000  -0.00000   0.00000
 253       79G-4       -0.00000  -0.00000  -0.00000  -0.00000
 254       80G 0        0.00000   0.00000   0.00000   0.00000
 255       80G+1        0.00000   0.00000   0.00000   0.00000
 256       80G-1        0.00000   0.00000   0.00000   0.00000
 257       80G+2        0.00000   0.00000   0.00000   0.00000
 258       80G-2        0.00000   0.00000   0.00000   0.00000
 259       80G+3        0.00000   0.00000  -0.00000   0.00000
 260       80G-3       -0.00000  -0.00000   0.00000  -0.00000
 261       80G+4        0.00000   0.00000   0.00000   0.00000
 262       80G-4        0.00000   0.00000   0.00000   0.00000
 263       81H 0        0.00000   0.00000   0.00000  -0.00000
 264       81H+1        0.00000   0.00000   0.00000  -0.00000
 265       81H-1        0.00000   0.00000   0.00000  -0.00000
 266       81H+2       -0.00000  -0.00000  -0.00000   0.00000
 267       81H-2        0.00000   0.00000   0.00000  -0.00000
 268       81H+3        0.00000   0.00000   0.00000  -0.00000
 269       81H-3        0.00000   0.00000   0.00000  -0.00000
 270       81H+4        0.00000   0.00000   0.00000  -0.00000
 271       81H-4        0.00000   0.00000   0.00000  -0.00000
 272       81H+5        0.00000   0.00000   0.00000   0.00000
 273       81H-5        0.00000   0.00000   0.00000  -0.00000
 274       82H 0        0.00000   0.00000   0.00000  -0.00000
 275       82H+1        0.00000   0.00000   0.00000  -0.00000
 276       82H-1        0.00000   0.00000   0.00000  -0.00000
 277       82H+2        0.00000   0.00000   0.00000   0.00000
 278       82H-2        0.00000   0.00000   0.00000  -0.00000
 279       82H+3       -0.00000  -0.00000  -0.00000   0.00000
 280       82H-3        0.00000   0.00000   0.00000   0.00000
 281       82H+4        0.00000   0.00000   0.00000  -0.00000
 282       82H-4        0.00000   0.00000   0.00000  -0.00000
 283       82H+5        0.00000   0.00000   0.00000  -0.00000
 284       82H-5        0.00000   0.00000   0.00000  -0.00000
 285       83H 0       -0.00000  -0.00000  -0.00000   0.00000
 286       83H+1       -0.00000  -0.00000  -0.00000   0.00000
 287       83H-1       -0.00000  -0.00000  -0.00000   0.00000
 288       83H+2        0.00000   0.00000   0.00000  -0.00000
 289       83H-2        0.00000   0.00000   0.00000   0.00000
 290       83H+3        0.00000   0.00000   0.00000  -0.00000
 291       83H-3       -0.00000  -0.00000  -0.00000   0.00000
 292       83H+4       -0.00000  -0.00000  -0.00000   0.00000
 293       83H-4       -0.00000  -0.00000  -0.00000   0.00000
 294       83H+5       -0.00000  -0.00000  -0.00000   0.00000
 295       83H-5       -0.00000  -0.00000  -0.00000  -0.00000
 296       84H 0        0.00000   0.00000   0.00000  -0.00000
 297       84H+1        0.00000   0.00000   0.00000  -0.00000
 298       84H-1        0.00000   0.00000   0.00000  -0.00000
 299       84H+2        0.00000   0.00000   0.00000  -0.00000
 300       84H-2        0.00000   0.00000   0.00000  -0.00000
 301       84H+3        0.00000   0.00000   0.00000  -0.00000
 302       84H-3        0.00000   0.00000   0.00000   0.00000
 303       84H+4        0.00000   0.00000   0.00000  -0.00000
 304       84H-4        0.00000   0.00000   0.00000  -0.00000
 305       84H+5        0.00000   0.00000   0.00000  -0.00000
 306       84H-5        0.00000   0.00000   0.00000  -0.00000
 307       85I 0       -0.00000  -0.00000  -0.00000  -0.00000
 308       85I+1        0.00000   0.00000  -0.00000   0.00000
 309       85I-1       -0.00000  -0.00000  -0.00000  -0.00000
 310       85I+2       -0.00000  -0.00000  -0.00000  -0.00000
 311       85I-2        0.00000   0.00000  -0.00000   0.00000
 312       85I+3        0.00000   0.00000  -0.00000   0.00000
 313       85I-3        0.00000   0.00000  -0.00000   0.00000
 314       85I+4       -0.00000  -0.00000  -0.00000  -0.00000
 315       85I-4        0.00000   0.00000  -0.00000   0.00000
 316       85I+5        0.00000   0.00000  -0.00000   0.00000
 317       85I-5        0.00000   0.00000  -0.00000   0.00000
 318       85I+6       -0.00000  -0.00000  -0.00000  -0.00000
 319       85I-6       -0.00000  -0.00000  -0.00000  -0.00000
 320       86I 0        0.00000   0.00000   0.00000   0.00000
 321       86I+1       -0.00000  -0.00000   0.00000  -0.00000
 322       86I-1        0.00000   0.00000   0.00000   0.00000
 323       86I+2        0.00000   0.00000   0.00000   0.00000
 324       86I-2       -0.00000  -0.00000   0.00000  -0.00000
 325       86I+3        0.00000   0.00000   0.00000   0.00000
 326       86I-3       -0.00000  -0.00000   0.00000  -0.00000
 327       86I+4        0.00000   0.00000   0.00000   0.00000
 328       86I-4       -0.00000  -0.00000   0.00000  -0.00000
 329       86I+5        0.00000   0.00000   0.00000   0.00000
 330       86I-5       -0.00000  -0.00000   0.00000  -0.00000
 331       86I+6        0.00000   0.00000   0.00000   0.00000
 332       86I-6        0.00000   0.00000   0.00000   0.00000
 333       87I 0       -0.00000  -0.00000  -0.00000  -0.00000
 334       87I+1        0.00000   0.00000  -0.00000   0.00000
 335       87I-1        0.00000   0.00000  -0.00000   0.00000
 336       87I+2       -0.00000  -0.00000  -0.00000  -0.00000
 337       87I-2        0.00000   0.00000  -0.00000   0.00000
 338       87I+3        0.00000   0.00000  -0.00000   0.00000
 339       87I-3        0.00000   0.00000  -0.00000   0.00000
 340       87I+4       -0.00000  -0.00000  -0.00000  -0.00000
 341       87I-4        0.00000   0.00000  -0.00000   0.00000
 342       87I+5        0.00000   0.00000  -0.00000   0.00000
 343       87I-5        0.00000   0.00000  -0.00000   0.00000
 344       87I+6       -0.00000  -0.00000  -0.00000  -0.00000
 345       87I-6        0.00000   0.00000  -0.00000   0.00000
          Condensed to atoms (all electrons):
               1
     1  Cr  14.000000
          Atomic-Atomic Spin Densities.
               1
     1  Cr   6.000000
 Mulliken charges and spin densities:
               1          2
     1  Cr  -0.000000   6.000000
 Sum of Mulliken charges =  -0.00000   6.00000
 Mulliken charges and spin densities with hydrogens summed into heavy atoms:
               1          2
     1  Cr  -0.000000   6.000000
 Electronic spatial extent (au):  <R**2>=             36.3578
 Charge=             -0.0000 electrons
 Dipole moment (field-independent basis, Debye):
    X=              0.0000    Y=              0.0000    Z=              0.0000  Tot=              0.0000
 Quadrupole moment (field-independent basis, Debye-Ang):
   XX=            -16.3008   YY=            -16.3008   ZZ=            -16.3008
   XY=             -0.0000   XZ=             -0.0000   YZ=              0.0000
 Traceless Quadrupole moment (field-independent basis, Debye-Ang):
   XX=              0.0000   YY=              0.0000   ZZ=             -0.0000
   XY=             -0.0000   XZ=             -0.0000   YZ=              0.0000
 Octapole moment (field-independent basis, Debye-Ang**2):
  XXX=              0.0000  YYY=              0.0000  ZZZ=              0.0000  XYY=              0.0000
  XXY=              0.0000  XXZ=              0.0000  XZZ=              0.0000  YZZ=              0.0000
  YYZ=              0.0000  XYZ=              0.0000
 Hexadecapole moment (field-independent basis, Debye-Ang**3):
 XXXX=            -38.0036 YYYY=            -38.0036 ZZZZ=            -38.0036 XXXY=              0.0000
 XXXZ=             -0.0000 YYYX=             -0.0000 YYYZ=              0.0000 ZZZX=             -0.0000
 ZZZY=              0.0000 XXYY=            -12.6679 XXZZ=            -12.6679 YYZZ=            -12.6679
 XXYZ=              0.0000 YYXZ=             -0.0000 ZZXY=              0.0000
 N-N= 0.000000000000D+00 E-N=-1.983647756660D+02  KE= 4.695173341086D+01
 Symmetry AG   KE= 1.385292482476D+01
 Symmetry B1G  KE= 4.935553126382D+00
 Symmetry B2G  KE= 4.935553064622D+00
 Symmetry B3G  KE= 4.935553099917D+00
 Symmetry AU   KE= 1.404115499224D-49
 Symmetry B1U  KE= 6.097383106091D+00
 Symmetry B2U  KE= 6.097383095975D+00
 Symmetry B3U  KE= 6.097383093360D+00
 Symmetry AG   SP= 3.000000000000D+00
 Symmetry B1G  SP= 1.000000000000D+00
 Symmetry B2G  SP= 1.000000000000D+00
 Symmetry B3G  SP= 1.000000000000D+00
 Symmetry AU   SP=-1.645904750234D-66
 Symmetry B1U  SP=-1.465380564007D-16
 Symmetry B2U  SP=-1.854065677763D-16
 Symmetry B3U  SP=-1.713119465018D-16
 Orbital energies and kinetic energies (alpha):
                                 1                 2
   1         (A1G)--O         -3.591335          1.851768
   2         (T1U)--O         -2.292959          3.048692
   3         (T1U)--O         -2.292959          3.048692
   4         (T1U)--O         -2.292959          3.048692
   5         (A1G)--O         -0.368488          0.278283
   6         (EG)--O          -0.368488          4.935553
   7         (T2G)--O         -0.368488          4.935553
   8         (T2G)--O         -0.368488          4.935553
   9         (T2G)--O         -0.368488          4.935553
  10         (EG)--O          -0.227423          4.935553
  11         (T1U)--V          0.017061          0.034133
  12         (T1U)--V          0.017061          0.034133
  13         (T1U)--V          0.017061          0.034133
  14         (A1G)--V          0.022552          0.032719
  15         (EG)--V           0.051114          0.057071
 Total kinetic energy from orbitals= 7.190778178630D+01
                          Isotropic Fermi Contact Couplings
        Atom                 a.u.       MegaHertz       Gauss      10(-4) cm-1
     1  Cr(53)             0.00125      -0.05274      -0.01882      -0.01759
 --------------------------------------------------------
       Center         ----  Spin Dipole Couplings  ----
                      3XX-RR        3YY-RR        3ZZ-RR
 --------------------------------------------------------
     1   Atom       -0.000000     -0.000000      0.000000
 --------------------------------------------------------
                        XY            XZ            YZ
 --------------------------------------------------------
     1   Atom        0.000000      0.000000      0.000000
 --------------------------------------------------------


 ---------------------------------------------------------------------------------
              Anisotropic Spin Dipole Couplings in Principal Axis System
 ---------------------------------------------------------------------------------

       Atom             a.u.   MegaHertz   Gauss  10(-4) cm-1        Axes

              Baa    -0.0000     0.000     0.000     0.000  1.0000  0.0000  0.0000
     1 Cr(53) Bbb    -0.0000     0.000     0.000     0.000 -0.0000  1.0000  0.0000
              Bcc     0.0000    -0.000    -0.000    -0.000  0.0000  0.0000  1.0000
 

 ---------------------------------------------------------------------------------

 No NMR shielding tensors so no spin-rotation constants.
 Leave Link  601 at Mon Mar 12 13:12:54 2018, MaxMem= 10737418240 cpu:             313.7 elap:              20.0
 (Enter /home1/apps/gaussian/16rA.03/g16/l9999.exe)

 Test job not archived.
 1\1\GINC-C406-052\SP\ROCCSD(T)-Full\Gen\Cr1(7)\AANNABE\12-Mar-2018\0\\
 #P ROCCSD(T)=(maxcyc=150, Full)/Gen 5d 7f SCF=(maxcycles=300, NoVarAcc
 , VShift=400) MaxDisk=100GB Pop=Regular Pseudo=Read IOp(5/15=2)\\Cr\\0
 ,7\Cr,0,0.,0.,0.\\Version=ES64L-G16RevA.03\State=7-A1G\HF=-86.3429556\
 MP2=-86.9118338\MP3=-86.8996688\PUHF=-86.3429556\PMP2-0=-86.9118338\MP
 4SDQ=-86.9033167\CCSD=-86.9021651\CCSD(T)=-86.9198795\RMSD=6.002e-09\P
 G=OH [O(Cr1)]\\@


 GROWING OLD ISN'T SO BAD -- WHEN YOU CONSIDER THE ALTERNATIVE.

                     -- MAURICE CHEVALIER
 Job cpu time:       0 days 17 hours  0 minutes 34.1 seconds.
 Elapsed time:       0 days  1 hours  4 minutes  0.6 seconds.
 File lengths (MBytes):  RWF=   8328 Int=      0 D2E=      0 Chk=     13 Scr=      1
 Normal termination of Gaussian 16 at Mon Mar 12 13:12:55 2018.
