 Entering Gaussian System, Link 0=g16
 Initial command:
 /home1/apps/gaussian/16rA.03/g16/l1.exe "/tmp/Gau-63895.inp" -scrdir="/tmp/"
 Entering Link 1 = /home1/apps/gaussian/16rA.03/g16/l1.exe PID=     63896.
  
 Copyright (c) 1988,1990,1992,1993,1995,1998,2003,2009,2016,
            Gaussian, Inc.  All Rights Reserved.
  
 This is part of the Gaussian(R) 16 program.  It is based on
 the Gaussian(R) 09 system (copyright 2009, Gaussian, Inc.),
 the Gaussian(R) 03 system (copyright 2003, Gaussian, Inc.),
 the Gaussian(R) 98 system (copyright 1998, Gaussian, Inc.),
 the Gaussian(R) 94 system (copyright 1995, Gaussian, Inc.),
 the Gaussian 92(TM) system (copyright 1992, Gaussian, Inc.),
 the Gaussian 90(TM) system (copyright 1990, Gaussian, Inc.),
 the Gaussian 88(TM) system (copyright 1988, Gaussian, Inc.),
 the Gaussian 86(TM) system (copyright 1986, Carnegie Mellon
 University), and the Gaussian 82(TM) system (copyright 1983,
 Carnegie Mellon University). Gaussian is a federally registered
 trademark of Gaussian, Inc.
  
 This software contains proprietary and confidential information,
 including trade secrets, belonging to Gaussian, Inc.
  
 This software is provided under written license and may be
 used, copied, transmitted, or stored only in accord with that
 written license.
  
 The following legend is applicable only to US Government
 contracts under FAR:
  
                    RESTRICTED RIGHTS LEGEND
  
 Use, reproduction and disclosure by the US Government is
 subject to restrictions as set forth in subparagraphs (a)
 and (c) of the Commercial Computer Software - Restricted
 Rights clause in FAR 52.227-19.
  
 Gaussian, Inc.
 340 Quinnipiac St., Bldg. 40, Wallingford CT 06492
  
  
 ---------------------------------------------------------------
 Warning -- This program may not be used in any manner that
 competes with the business of Gaussian, Inc. or will provide
 assistance to any competitor of Gaussian, Inc.  The licensee
 of this program is prohibited from giving any competitor of
 Gaussian, Inc. access to this program.  By using this program,
 the user acknowledges that Gaussian, Inc. is engaged in the
 business of creating and licensing software in the field of
 computational chemistry and represents and warrants to the
 licensee that it is not a competitor of Gaussian, Inc. and that
 it will not use this program in any manner prohibited above.
 ---------------------------------------------------------------
  

 Cite this work as:
 Gaussian 16, Revision A.03,
 M. J. Frisch, G. W. Trucks, H. B. Schlegel, G. E. Scuseria, 
 M. A. Robb, J. R. Cheeseman, G. Scalmani, V. Barone, 
 G. A. Petersson, H. Nakatsuji, X. Li, M. Caricato, A. V. Marenich, 
 J. Bloino, B. G. Janesko, R. Gomperts, B. Mennucci, H. P. Hratchian, 
 J. V. Ortiz, A. F. Izmaylov, J. L. Sonnenberg, D. Williams-Young, 
 F. Ding, F. Lipparini, F. Egidi, J. Goings, B. Peng, A. Petrone, 
 T. Henderson, D. Ranasinghe, V. G. Zakrzewski, J. Gao, N. Rega, 
 G. Zheng, W. Liang, M. Hada, M. Ehara, K. Toyota, R. Fukuda, 
 J. Hasegawa, M. Ishida, T. Nakajima, Y. Honda, O. Kitao, H. Nakai, 
 T. Vreven, K. Throssell, J. A. Montgomery, Jr., J. E. Peralta, 
 F. Ogliaro, M. J. Bearpark, J. J. Heyd, E. N. Brothers, K. N. Kudin, 
 V. N. Staroverov, T. A. Keith, R. Kobayashi, J. Normand, 
 K. Raghavachari, A. P. Rendell, J. C. Burant, S. S. Iyengar, 
 J. Tomasi, M. Cossi, J. M. Millam, M. Klene, C. Adamo, R. Cammi, 
 J. W. Ochterski, R. L. Martin, K. Morokuma, O. Farkas, 
 J. B. Foresman, and D. J. Fox, Gaussian, Inc., Wallingford CT, 2016.
 
 ******************************************
 Gaussian 16:  ES64L-G16RevA.03 25-Dec-2016
                20-Feb-2018 
 ******************************************
 %mem=80GB
 %cpu=0-31
 SetSPE:  set environment variable "MP_BIND" = "yes"
 SetSPE:  set environment variable "MP_BLIST" = "0,1,2,3,4,5,6,7,8,9,10,11,12,13,14,15,16,17,18,19,20,21,22,23,24,25,26,27,28,29,30,31"
 Will use up to   32 processors via shared memory.
 %chk=ScO
 %rwf=/scratch/04843/aannabe/gaussian/
 ----------------------------------------------------------------------
 #P ROCCSD(T)=(maxcyc=150, Full, SaveAmplitudes, ReadAmplitudes)/Gen 5d
  7f SCF=(maxcycles=300) Integral(NoXCTest) MaxDisk=500GB Pop=Regular P
 seudo=Read Guess=Read IOp(5/15=2)
 ----------------------------------------------------------------------
 1/38=1,172=1/1;
 2/12=2,17=6,18=5,40=1/2;
 3/5=7,8=11,11=2,16=1,17=8,25=1,30=1,47=8,116=101/1,2,3;
 4/5=1/1;
 5/5=2,7=300,15=2,38=6/2;
 8/5=-1,6=4,9=120000,10=90,24=1/1,4;
 9/5=7,6=150,14=2,77=1/13;
 6//1;
 99/5=1,9=1/99;
 Leave Link    1 at Tue Feb 20 23:35:08 2018, MaxMem= 10737418240 cpu:               8.7 elap:               0.3
 (Enter /home1/apps/gaussian/16rA.03/g16/l101.exe)
 ---
 ScO
 ---
 Symbolic Z-matrix:
 Charge =  0 Multiplicity = 2
 Sc                    0.        0.        0. 
 O                     0.        0.        1.4 
 
 ITRead=  0  0
 MicOpt= -1 -1
 NAtoms=      2 NQM=        2 NQMF=       0 NMMI=      0 NMMIF=      0
                NMic=       0 NMicF=      0.
                    Isotopes and Nuclear Properties:
 (Nuclear quadrupole moments (NQMom) in fm**2, nuclear magnetic moments (NMagM)
  in nuclear magnetons)

  Atom         1           2
 IAtWgt=          45          16
 AtmWgt=  44.9559136  15.9949146
 NucSpn=           7           0
 AtZEff=  -0.0000000  -0.0000000
 NQMom=  -22.0000000   0.0000000
 NMagM=    4.7564830   0.0000000
 AtZNuc=  21.0000000   8.0000000
 Leave Link  101 at Tue Feb 20 23:35:08 2018, MaxMem= 10737418240 cpu:               3.0 elap:               0.1
 (Enter /home1/apps/gaussian/16rA.03/g16/l202.exe)
                          Input orientation:                          
 ---------------------------------------------------------------------
 Center     Atomic      Atomic             Coordinates (Angstroms)
 Number     Number       Type             X           Y           Z
 ---------------------------------------------------------------------
      1         21           0        0.000000    0.000000    0.000000
      2          8           0        0.000000    0.000000    1.400000
 ---------------------------------------------------------------------
 Stoichiometry    OSc(2)
 Framework group  C*V[C*(OSc)]
 Deg. of freedom     1
 Full point group                 C*V     NOp   4
 Largest Abelian subgroup         C2V     NOp   4
 Largest concise Abelian subgroup C1      NOp   1
                         Standard orientation:                         
 ---------------------------------------------------------------------
 Center     Atomic      Atomic             Coordinates (Angstroms)
 Number     Number       Type             X           Y           Z
 ---------------------------------------------------------------------
      1         21           0        0.000000    0.000000    0.386207
      2          8           0        0.000000    0.000000   -1.013793
 ---------------------------------------------------------------------
 Rotational constants (GHZ):           0.0000000          21.8560656          21.8560656
 Leave Link  202 at Tue Feb 20 23:35:08 2018, MaxMem= 10737418240 cpu:               0.7 elap:               0.1
 (Enter /home1/apps/gaussian/16rA.03/g16/l301.exe)
 General basis read from cards:  (5D, 7F)
 Centers:       1
 S 1 1.00
     Exponent=  2.7152780000D+06 Coefficients=  1.0000000000D+00
 S 1 1.00
     Exponent=  4.0659840000D+05 Coefficients=  1.0000000000D+00
 S 1 1.00
     Exponent=  9.2530040000D+04 Coefficients=  1.0000000000D+00
 S 1 1.00
     Exponent=  2.6207920000D+04 Coefficients=  1.0000000000D+00
 S 1 1.00
     Exponent=  8.5494290000D+03 Coefficients=  1.0000000000D+00
 S 1 1.00
     Exponent=  3.0859750000D+03 Coefficients=  1.0000000000D+00
 S 1 1.00
     Exponent=  1.2031720000D+03 Coefficients=  1.0000000000D+00
 S 1 1.00
     Exponent=  4.9848690000D+02 Coefficients=  1.0000000000D+00
 S 1 1.00
     Exponent=  2.1673600000D+02 Coefficients=  1.0000000000D+00
 S 1 1.00
     Exponent=  9.7874760000D+01 Coefficients=  1.0000000000D+00
 S 1 1.00
     Exponent=  4.5204330000D+01 Coefficients=  1.0000000000D+00
 S 1 1.00
     Exponent=  2.0211870000D+01 Coefficients=  1.0000000000D+00
 S 1 1.00
     Exponent=  9.5747510000D+00 Coefficients=  1.0000000000D+00
 S 1 1.00
     Exponent=  4.5403460000D+00 Coefficients=  1.0000000000D+00
 S 1 1.00
     Exponent=  1.9956870000D+00 Coefficients=  1.0000000000D+00
 S 1 1.00
     Exponent=  9.4221500000D-01 Coefficients=  1.0000000000D+00
 S 1 1.00
     Exponent=  4.1784500000D-01 Coefficients=  1.0000000000D+00
 S 1 1.00
     Exponent=  9.5761000000D-02 Coefficients=  1.0000000000D+00
 S 1 1.00
     Exponent=  5.1351000000D-02 Coefficients=  1.0000000000D+00
 S 1 1.00
     Exponent=  2.3878000000D-02 Coefficients=  1.0000000000D+00
 S 1 1.00
     Exponent=  2.6472000000D+00 Coefficients=  1.0000000000D+00
 S 1 1.00
     Exponent=  6.2170000000D-01 Coefficients=  1.0000000000D+00
 S 1 1.00
     Exponent=  1.1100000000D-02 Coefficients=  1.0000000000D+00
 P 1 1.00
     Exponent=  1.0592190000D+04 Coefficients=  1.0000000000D+00
 P 1 1.00
     Exponent=  2.5075330000D+03 Coefficients=  1.0000000000D+00
 P 1 1.00
     Exponent=  8.1445710000D+02 Coefficients=  1.0000000000D+00
 P 1 1.00
     Exponent=  3.1151950000D+02 Coefficients=  1.0000000000D+00
 P 1 1.00
     Exponent=  1.3196170000D+02 Coefficients=  1.0000000000D+00
 P 1 1.00
     Exponent=  5.9987180000D+01 Coefficients=  1.0000000000D+00
 P 1 1.00
     Exponent=  2.8662500000D+01 Coefficients=  1.0000000000D+00
 P 1 1.00
     Exponent=  1.4108510000D+01 Coefficients=  1.0000000000D+00
 P 1 1.00
     Exponent=  7.1037060000D+00 Coefficients=  1.0000000000D+00
 P 1 1.00
     Exponent=  3.6092000000D+00 Coefficients=  1.0000000000D+00
 P 1 1.00
     Exponent=  1.7760700000D+00 Coefficients=  1.0000000000D+00
 P 1 1.00
     Exponent=  8.5476000000D-01 Coefficients=  1.0000000000D+00
 P 1 1.00
     Exponent=  4.0223900000D-01 Coefficients=  1.0000000000D+00
 P 1 1.00
     Exponent=  1.5468000000D-01 Coefficients=  1.0000000000D+00
 P 1 1.00
     Exponent=  6.4888000000D-02 Coefficients=  1.0000000000D+00
 P 1 1.00
     Exponent=  2.6301000000D-02 Coefficients=  1.0000000000D+00
 P 1 1.00
     Exponent=  3.4418000000D+00 Coefficients=  1.0000000000D+00
 P 1 1.00
     Exponent=  8.0840000000D-01 Coefficients=  1.0000000000D+00
 P 1 1.00
     Exponent=  1.0660000000D-02 Coefficients=  1.0000000000D+00
 D 1 1.00
     Exponent=  5.0654200000D+01 Coefficients=  1.0000000000D+00
 D 1 1.00
     Exponent=  1.4732500000D+01 Coefficients=  1.0000000000D+00
 D 1 1.00
     Exponent=  5.1804600000D+00 Coefficients=  1.0000000000D+00
 D 1 1.00
     Exponent=  2.0195900000D+00 Coefficients=  1.0000000000D+00
 D 1 1.00
     Exponent=  7.9921900000D-01 Coefficients=  1.0000000000D+00
 D 1 1.00
     Exponent=  3.0531600000D-01 Coefficients=  1.0000000000D+00
 D 1 1.00
     Exponent=  1.1044400000D-01 Coefficients=  1.0000000000D+00
 D 1 1.00
     Exponent=  3.7065000000D-02 Coefficients=  1.0000000000D+00
 D 1 1.00
     Exponent=  1.8520000000D+00 Coefficients=  1.0000000000D+00
 D 1 1.00
     Exponent=  7.8750000000D-01 Coefficients=  1.0000000000D+00
 D 1 1.00
     Exponent=  1.2440000000D-02 Coefficients=  1.0000000000D+00
 F 1 1.00
     Exponent=  2.1048000000D+00 Coefficients=  1.0000000000D+00
 F 1 1.00
     Exponent=  6.5870000000D-01 Coefficients=  1.0000000000D+00
 F 1 1.00
     Exponent=  1.6360000000D-01 Coefficients=  1.0000000000D+00
 F 1 1.00
     Exponent=  4.0630000000D-02 Coefficients=  1.0000000000D+00
 G 1 1.00
     Exponent=  1.7850000000D+00 Coefficients=  1.0000000000D+00
 G 1 1.00
     Exponent=  4.1120000000D-01 Coefficients=  1.0000000000D+00
 G 1 1.00
     Exponent=  9.4730000000D-02 Coefficients=  1.0000000000D+00
 ****
 Centers:       2
 S 1 1.00
     Exponent=  1.5330000000D+04 Coefficients=  1.0000000000D+00
 S 1 1.00
     Exponent=  2.2990000000D+03 Coefficients=  1.0000000000D+00
 S 1 1.00
     Exponent=  5.2240000000D+02 Coefficients=  1.0000000000D+00
 S 1 1.00
     Exponent=  1.4730000000D+02 Coefficients=  1.0000000000D+00
 S 1 1.00
     Exponent=  4.7550000000D+01 Coefficients=  1.0000000000D+00
 S 1 1.00
     Exponent=  1.6760000000D+01 Coefficients=  1.0000000000D+00
 S 1 1.00
     Exponent=  6.2070000000D+00 Coefficients=  1.0000000000D+00
 S 1 1.00
     Exponent=  6.8820000000D-01 Coefficients=  1.0000000000D+00
 S 1 1.00
     Exponent=  1.7520000000D+00 Coefficients=  1.0000000000D+00
 S 1 1.00
     Exponent=  2.3840000000D-01 Coefficients=  1.0000000000D+00
 S 1 1.00
     Exponent=  7.8450000000D+00 Coefficients=  1.0000000000D+00
 S 1 1.00
     Exponent=  2.1032000000D+01 Coefficients=  1.0000000000D+00
 S 1 1.00
     Exponent=  7.3760000000D-02 Coefficients=  1.0000000000D+00
 P 1 1.00
     Exponent=  3.4460000000D+01 Coefficients=  1.0000000000D+00
 P 1 1.00
     Exponent=  7.7490000000D+00 Coefficients=  1.0000000000D+00
 P 1 1.00
     Exponent=  2.2800000000D+00 Coefficients=  1.0000000000D+00
 P 1 1.00
     Exponent=  7.1560000000D-01 Coefficients=  1.0000000000D+00
 P 1 1.00
     Exponent=  2.1400000000D-01 Coefficients=  1.0000000000D+00
 P 1 1.00
     Exponent=  1.5159000000D+01 Coefficients=  1.0000000000D+00
 P 1 1.00
     Exponent=  5.7437000000D+01 Coefficients=  1.0000000000D+00
 P 1 1.00
     Exponent=  5.9740000000D-02 Coefficients=  1.0000000000D+00
 D 1 1.00
     Exponent=  2.3140000000D+00 Coefficients=  1.0000000000D+00
 D 1 1.00
     Exponent=  6.4500000000D-01 Coefficients=  1.0000000000D+00
 D 1 1.00
     Exponent=  1.5858000000D+01 Coefficients=  1.0000000000D+00
 D 1 1.00
     Exponent=  2.1400000000D-01 Coefficients=  1.0000000000D+00
 F 1 1.00
     Exponent=  1.4280000000D+00 Coefficients=  1.0000000000D+00
 F 1 1.00
     Exponent=  5.0000000000D-01 Coefficients=  1.0000000000D+00
 ****
 ======================================================================================================
                                       Pseudopotential Parameters
 ======================================================================================================
  Center     Atomic      Valence      Angular      Power
  Number     Number     Electrons     Momentum     of R      Exponent        Coefficient   SO-Coeffient
 ======================================================================================================
    1         21           11
                                      F and up 
                                                     1        8.6843244       11.00000000    0.00000000
                                                     2       12.9608105     1293.12711495    0.00000000
                                                     2        3.4272602      -59.34807006    0.00000000
                                                     2       13.9264987    -6626.33658022    0.00000000
                                                     2       14.1135521     5365.41708240    0.00000000
                                                     3        3.8783422       95.52756785    0.00000000
                                      S - F
                                                     2       14.1143229    -1492.86349923    0.00000000
                                                     2        4.4283560     1499.37242000    0.00000000
                                                     2        7.4604557     1088.20049735    0.00000000
                                                     2       10.2353388    -1981.91696501    0.00000000
                                                     2        4.5248959    -1710.45115474    0.00000000
                                                     2       13.0788594     2625.43810581    0.00000000
                                      P - F
                                                     2        9.8399764    -2070.12504374    0.00000000
                                                     2        7.2507207     5801.02991534    0.00000000
                                                     2       11.8197475     1554.97375552    0.00000000
                                                     2       14.0743327     -853.69420879    0.00000000
                                                     2        7.0846032    -4878.01776292    0.00000000
                                                     2       14.0716643      462.12967346    0.00000000
                                      D - F
                                                     2       11.2984945     -570.27953430    0.00000000
                                                     2        5.7211985     -549.43824610    0.00000000
                                                     2        6.5323409     1672.92599442    0.00000000
                                                     2        8.1143102    -2704.80905453    0.00000000
                                                     2        9.9572828     4666.19773963    0.00000000
                                                     2       10.2402945    -2524.96335631    0.00000000
    2          8            6
                                      P and up 
                                                     1       12.3099700        6.00000000    0.00000000
                                                     3       14.7696200       73.85984000    0.00000000
                                                     2       13.7141900      -47.87600000    0.00000000
                                      S - P
                                                     2       13.6551200       85.86406000    0.00000000
 ======================================================================================================
 Ernie: Thresh=  0.10000D-02 Tol=  0.10000D-05 Strict=F.
 There are   144 symmetry adapted cartesian basis functions of A1  symmetry.
 There are    30 symmetry adapted cartesian basis functions of A2  symmetry.
 There are    69 symmetry adapted cartesian basis functions of B1  symmetry.
 There are    69 symmetry adapted cartesian basis functions of B2  symmetry.
 There are   114 symmetry adapted basis functions of A1  symmetry.
 There are    27 symmetry adapted basis functions of A2  symmetry.
 There are    60 symmetry adapted basis functions of B1  symmetry.
 There are    60 symmetry adapted basis functions of B2  symmetry.
   261 basis functions,   312 primitive gaussians,   312 cartesian basis functions
     9 alpha electrons        8 beta electrons
       nuclear repulsion energy        24.9469256577 Hartrees.
 IExCor=    0 DFT=F Ex=HF Corr=None ExCW=0 ScaHFX=  1.000000
 ScaDFX=  1.000000  1.000000  1.000000  1.000000 ScalE2=  1.000000  1.000000
 IRadAn=      5 IRanWt=     -1 IRanGd=            0 ICorTp=0 IEmpDi=  4
 NAtoms=    2 NActive=    2 NUniq=    2 SFac= 1.00D+00 NAtFMM=   60 NAOKFM=F Big=F
 Integral buffers will be    131072 words long.
 Raffenetti 2 integral format.
 Two-electron integral symmetry is turned on.
 Leave Link  301 at Tue Feb 20 23:35:08 2018, MaxMem= 10737418240 cpu:               8.9 elap:               0.3
 (Enter /home1/apps/gaussian/16rA.03/g16/l302.exe)
 NPDir=0 NMtPBC=     1 NCelOv=     1 NCel=       1 NClECP=     1 NCelD=      1
         NCelK=      1 NCelE2=     1 NClLst=     1 CellRange=     0.0.
 One-electron integrals computed using PRISM.
 One-electron integral symmetry used in STVInt
   4 Symmetry operations used in ECPInt.
 ECPInt:  NShTT=    3828 NPrTT=    3828 LenC2=    3599 LenP2D=    3598.
 LDataN:  DoStor=T MaxTD1= 8 Len=  415
 NBasis=   261 RedAO= T EigKep=  1.30D-06  NBF=   114    27    60    60
 NBsUse=   257 1.00D-06 EigRej=  9.84D-07 NBFU=   112    27    59    59
 Leave Link  302 at Tue Feb 20 23:35:09 2018, MaxMem= 10737418240 cpu:              34.9 elap:               1.1
 (Enter /home1/apps/gaussian/16rA.03/g16/l303.exe)
 DipDrv:  MaxL=1.
 Leave Link  303 at Tue Feb 20 23:35:10 2018, MaxMem= 10737418240 cpu:               3.6 elap:               0.2
 (Enter /home1/apps/gaussian/16rA.03/g16/l401.exe)
 Initial guess from the checkpoint file:  "ScO.chk"
 B after Tr=     0.000000    0.000000   -0.000000
         Rot=    1.000000    0.000000    0.000000    0.000000 Ang=   0.00 deg.
 Guess basis will be translated and rotated to current coordinates.
 JPrj=2 DoOrth=T DoCkMO=T.
 Initial guess orbital symmetries:
       Occupied  (SG) (SG) (PI) (PI) (SG) (SG) (PI) (PI) (SG)
       Virtual   (PI) (PI) (SG) (SG) (DLTA) (DLTA) (PI) (PI) (PI)
                 (PI) (SG) (SG) (DLTA) (DLTA) (SG) (PI) (PI) (SG)
                 (PI) (PI) (SG) (PI) (PI) (PHI) (PHI) (DLTA) (DLTA)
                 (SG) (DLTA) (DLTA) (PI) (PI) (SG) (PI) (PI) (SG)
                 (SG) (SG) (DLTA) (DLTA) (PI) (PI) (DLTA) (DLTA)
                 (?A) (?A) (PHI) (PHI) (SG) (PI) (PI) (PI) (PI)
                 (SG) (PHI) (PHI) (DLTA) (DLTA) (SG) (PI) (PI)
                 (SG) (PI) (PI) (DLTA) (DLTA) (SG) (SG) (DLTA)
                 (DLTA) (PI) (PI) (SG) (SG) (PI) (PI) (PI) (PI)
                 (SG) (DLTA) (DLTA) (PHI) (PHI) (?A) (?A) (SG)
                 (PI) (PI) (SG) (DLTA) (DLTA) (PHI) (PHI) (PI)
                 (PI) (PHI) (PHI) (DLTA) (DLTA) (SG) (PI) (PI)
                 (DLTA) (DLTA) (SG) (DLTA) (DLTA) (PI) (PI) (SG)
                 (PI) (PI) (SG) (SG) (PI) (PI) (SG) (PI) (PI) (SG)
                 (SG) (DLTA) (DLTA) (PI) (PI) (SG) (PHI) (PHI)
                 (PHI) (PHI) (DLTA) (DLTA) (DLTA) (DLTA) (PI) (PI)
                 (PI) (PI) (SG) (DLTA) (DLTA) (SG) (PI) (PI) (SG)
                 (?A) (?A) (PHI) (PHI) (DLTA) (DLTA) (PI) (PI)
                 (SG) (SG) (PI) (PI) (SG) (DLTA) (DLTA) (PI) (PI)
                 (SG) (PI) (PI) (SG) (SG) (SG) (PI) (PI) (SG) (DLTA)
                 (DLTA) (PI) (PI) (SG) (SG) (PI) (PI) (SG) (SG)
                 (DLTA) (DLTA) (PI) (PI) (SG) (PI) (PI) (SG) (DLTA)
                 (DLTA) (PI) (PI) (SG) (SG) (SG) (PI) (PI) (SG)
                 (PI) (PI) (SG) (SG) (SG) (PI) (PI) (SG) (DLTA)
                 (DLTA) (PI) (PI) (SG) (SG) (SG) (PI) (PI) (SG)
                 (PI) (PI) (SG) (SG) (SG) (PI) (PI) (SG) (SG) (PI)
                 (PI) (SG) (SG) (SG) (PI) (PI) (SG) (SG) (SG) (PI)
                 (PI) (SG) (SG) (SG) (SG) (PI) (PI) (SG) (SG) (SG)
                 (SG)
 The electronic state of the initial guess is 2-SG.
 Leave Link  401 at Tue Feb 20 23:35:10 2018, MaxMem= 10737418240 cpu:              13.6 elap:               0.5
 (Enter /home1/apps/gaussian/16rA.03/g16/l502.exe)
 Keep R1 and R2 ints in memory in symmetry-blocked form, NReq=734602573.
 FoFCou: FMM=F IPFlag=           8 FMFlag=           0 FMFlg1=           0
         NFxFlg=           0 DoJE=F BraDBF=F KetDBF=F FulRan=T
         wScrn=  0.000000 ICntrl=       600 IOpCl=  0 I1Cent=           0 NGrid=           0
         NMat0=    1 NMatS0=  34191 NMatT0=    0 NMatD0=    1 NMtDS0=    0 NMtDT0=    0
 Petite list used in FoFCou.
 Restricted open shell SCF:
 Using DIIS extrapolation, IDIIS=  1040.
 NGot= 10737418240 LenX= 10437146893 LenY= 10437049108
 Requested convergence on RMS density matrix=1.00D-08 within 300 cycles.
 Requested convergence on MAX density matrix=1.00D-06.
 Requested convergence on             energy=1.00D-06.
 No special actions if energy rises.

 Cycle   1  Pass 1  IDiag  1:
 E= -61.4785339348962    
 DIIS: error= 1.58D-01 at cycle   1 NSaved=   1.
 NSaved= 1 IEnMin= 1 EnMin= -61.4785339348962     IErMin= 1 ErrMin= 1.58D-01
 ErrMax= 1.58D-01  0.00D+00 EMaxC= 1.00D-01 BMatC= 5.27D+00 BMatP= 5.27D+00
 IDIUse=3 WtCom= 0.00D+00 WtEn= 1.00D+00
 Coeff-Com:  0.100D+01
 Coeff-En:   0.100D+01
 Coeff:      0.100D+01
 Gap=     0.104 Goal=   None    Shift=    0.000
 GapD=    0.104 DampG=1.000 DampE=0.125 DampFc=0.1250 IDamp=-1.
 Damping current iteration by 1.25D-01
 RMSDP=1.13D-02 MaxDP=8.34D-01              OVMax= 7.82D-02

 Cycle   2  Pass 1  IDiag  1:
 E= -61.5146676698617     Delta-E=       -0.036133734966 Rises=F Damp=T
 DIIS: error= 1.39D-01 at cycle   2 NSaved=   2.
 NSaved= 2 IEnMin= 2 EnMin= -61.5146676698617     IErMin= 2 ErrMin= 1.39D-01
 ErrMax= 1.39D-01  0.00D+00 EMaxC= 1.00D-01 BMatC= 4.07D+00 BMatP= 5.27D+00
 IDIUse=3 WtCom= 0.00D+00 WtEn= 1.00D+00
 Coeff-Com: -0.720D+01 0.820D+01
 Coeff-En:   0.000D+00 0.100D+01
 Coeff:      0.000D+00 0.100D+01
 Gap=     0.081 Goal=   None    Shift=    0.000
 RMSDP=1.01D-02 MaxDP=7.53D-01 DE=-3.61D-02 OVMax= 5.65D-02

 Cycle   3  Pass 1  IDiag  1:
 E= -61.7851184556374     Delta-E=       -0.270450785776 Rises=F Damp=F
 DIIS: error= 8.22D-03 at cycle   3 NSaved=   3.
 NSaved= 3 IEnMin= 3 EnMin= -61.7851184556374     IErMin= 3 ErrMin= 8.22D-03
 ErrMax= 8.22D-03  0.00D+00 EMaxC= 1.00D-01 BMatC= 6.96D-03 BMatP= 4.07D+00
 IDIUse=3 WtCom= 9.18D-01 WtEn= 8.22D-02
 Coeff-Com: -0.913D+00 0.102D+01 0.897D+00
 Coeff-En:   0.000D+00 0.000D+00 0.100D+01
 Coeff:     -0.838D+00 0.933D+00 0.905D+00
 Gap=     0.075 Goal=   None    Shift=    0.000
 RMSDP=1.90D-03 MaxDP=1.62D-01 DE=-2.70D-01 OVMax= 4.60D-02

 Cycle   4  Pass 1  IDiag  1:
 E= -61.7930609567786     Delta-E=       -0.007942501141 Rises=F Damp=F
 DIIS: error= 4.14D-03 at cycle   4 NSaved=   4.
 NSaved= 4 IEnMin= 4 EnMin= -61.7930609567786     IErMin= 4 ErrMin= 4.14D-03
 ErrMax= 4.14D-03  0.00D+00 EMaxC= 1.00D-01 BMatC= 1.34D-03 BMatP= 6.96D-03
 IDIUse=3 WtCom= 9.59D-01 WtEn= 4.14D-02
 Coeff-Com: -0.133D+01 0.151D+01-0.408D-01 0.857D+00
 Coeff-En:   0.000D+00 0.000D+00 0.000D+00 0.100D+01
 Coeff:     -0.127D+01 0.145D+01-0.391D-01 0.862D+00
 Gap=     0.075 Goal=   None    Shift=    0.000
 RMSDP=6.29D-04 MaxDP=5.84D-02 DE=-7.94D-03 OVMax= 4.26D-02

 Cycle   5  Pass 1  IDiag  1:
 E= -61.7942971873884     Delta-E=       -0.001236230610 Rises=F Damp=F
 DIIS: error= 3.36D-03 at cycle   5 NSaved=   5.
 NSaved= 5 IEnMin= 5 EnMin= -61.7942971873884     IErMin= 5 ErrMin= 3.36D-03
 ErrMax= 3.36D-03  0.00D+00 EMaxC= 1.00D-01 BMatC= 5.60D-04 BMatP= 1.34D-03
 IDIUse=3 WtCom= 9.66D-01 WtEn= 3.36D-02
 Coeff-Com: -0.115D+01 0.132D+01-0.408D+00 0.276D+00 0.962D+00
 Coeff-En:   0.000D+00 0.000D+00 0.000D+00 0.000D+00 0.100D+01
 Coeff:     -0.111D+01 0.128D+01-0.394D+00 0.266D+00 0.963D+00
 Gap=     0.074 Goal=   None    Shift=    0.000
 RMSDP=6.92D-04 MaxDP=1.10D-01 DE=-1.24D-03 OVMax= 3.33D-02

 Cycle   6  Pass 1  IDiag  1:
 E= -61.7958523493536     Delta-E=       -0.001555161965 Rises=F Damp=F
 DIIS: error= 1.51D-03 at cycle   6 NSaved=   6.
 NSaved= 6 IEnMin= 6 EnMin= -61.7958523493536     IErMin= 6 ErrMin= 1.51D-03
 ErrMax= 1.51D-03  0.00D+00 EMaxC= 1.00D-01 BMatC= 1.90D-04 BMatP= 5.60D-04
 IDIUse=3 WtCom= 9.85D-01 WtEn= 1.51D-02
 Coeff-Com: -0.986D+00 0.113D+01-0.171D+00-0.185D+00-0.479D-01 0.126D+01
 Coeff-En:   0.000D+00 0.000D+00 0.000D+00 0.000D+00 0.000D+00 0.100D+01
 Coeff:     -0.972D+00 0.111D+01-0.169D+00-0.183D+00-0.472D-01 0.126D+01
 Gap=     0.074 Goal=   None    Shift=    0.000
 RMSDP=5.45D-04 MaxDP=1.11D-01 DE=-1.56D-03 OVMax= 1.41D-02

 Cycle   7  Pass 1  IDiag  1:
 E= -61.7962700080023     Delta-E=       -0.000417658649 Rises=F Damp=F
 DIIS: error= 1.38D-03 at cycle   7 NSaved=   7.
 NSaved= 7 IEnMin= 7 EnMin= -61.7962700080023     IErMin= 7 ErrMin= 1.38D-03
 ErrMax= 1.38D-03  0.00D+00 EMaxC= 1.00D-01 BMatC= 1.03D-04 BMatP= 1.90D-04
 IDIUse=3 WtCom= 9.86D-01 WtEn= 1.38D-02
 Coeff-Com: -0.856D+00 0.978D+00-0.964D-01-0.402D-01-0.190D+00 0.764D-01
 Coeff-Com:  0.113D+01
 Coeff-En:   0.000D+00 0.000D+00 0.000D+00 0.000D+00 0.000D+00 0.000D+00
 Coeff-En:   0.100D+01
 Coeff:     -0.845D+00 0.964D+00-0.951D-01-0.396D-01-0.187D+00 0.753D-01
 Coeff:      0.113D+01
 Gap=     0.074 Goal=   None    Shift=    0.000
 RMSDP=4.24D-04 MaxDP=8.53D-02 DE=-4.18D-04 OVMax= 1.54D-02

 Cycle   8  Pass 1  IDiag  1:
 E= -61.7965307694976     Delta-E=       -0.000260761495 Rises=F Damp=F
 DIIS: error= 1.15D-03 at cycle   8 NSaved=   8.
 NSaved= 8 IEnMin= 8 EnMin= -61.7965307694976     IErMin= 8 ErrMin= 1.15D-03
 ErrMax= 1.15D-03  0.00D+00 EMaxC= 1.00D-01 BMatC= 6.77D-05 BMatP= 1.03D-04
 IDIUse=3 WtCom= 9.89D-01 WtEn= 1.15D-02
 Coeff-Com: -0.730D+00 0.835D+00-0.115D+00 0.433D-01-0.113D-01-0.194D+00
 Coeff-Com:  0.154D+00 0.102D+01
 Coeff-En:   0.000D+00 0.000D+00 0.000D+00 0.000D+00 0.000D+00 0.000D+00
 Coeff-En:   0.000D+00 0.100D+01
 Coeff:     -0.722D+00 0.825D+00-0.114D+00 0.428D-01-0.111D-01-0.192D+00
 Coeff:      0.152D+00 0.102D+01
 Gap=     0.074 Goal=   None    Shift=    0.000
 RMSDP=2.29D-04 MaxDP=5.09D-02 DE=-2.61D-04 OVMax= 7.11D-03

 Cycle   9  Pass 1  IDiag  1:
 E= -61.7966303623233     Delta-E=       -0.000099592826 Rises=F Damp=F
 DIIS: error= 1.02D-03 at cycle   9 NSaved=   9.
 NSaved= 9 IEnMin= 9 EnMin= -61.7966303623233     IErMin= 9 ErrMin= 1.02D-03
 ErrMax= 1.02D-03  0.00D+00 EMaxC= 1.00D-01 BMatC= 5.24D-05 BMatP= 6.77D-05
 IDIUse=3 WtCom= 9.90D-01 WtEn= 1.02D-02
 Coeff-Com: -0.659D+00 0.753D+00-0.113D+00 0.322D-01 0.266D-01-0.899D-01
 Coeff-Com: -0.477D-01 0.195D+00 0.903D+00
 Coeff-En:   0.000D+00 0.000D+00 0.000D+00 0.000D+00 0.000D+00 0.000D+00
 Coeff-En:   0.000D+00 0.000D+00 0.100D+01
 Coeff:     -0.652D+00 0.745D+00-0.112D+00 0.319D-01 0.264D-01-0.890D-01
 Coeff:     -0.473D-01 0.193D+00 0.904D+00
 Gap=     0.074 Goal=   None    Shift=    0.000
 RMSDP=1.01D-04 MaxDP=1.91D-02 DE=-9.96D-05 OVMax= 6.00D-03

 Cycle  10  Pass 1  IDiag  1:
 E= -61.7967041266922     Delta-E=       -0.000073764369 Rises=F Damp=F
 DIIS: error= 9.12D-04 at cycle  10 NSaved=  10.
 NSaved=10 IEnMin=10 EnMin= -61.7967041266922     IErMin=10 ErrMin= 9.12D-04
 ErrMax= 9.12D-04  0.00D+00 EMaxC= 1.00D-01 BMatC= 4.17D-05 BMatP= 5.24D-05
 IDIUse=3 WtCom= 9.91D-01 WtEn= 9.12D-03
 Coeff-Com: -0.461D+00 0.527D+00-0.721D-01-0.176D-01-0.214D-01 0.140D+00
 Coeff-Com:  0.178D+00-0.108D+01-0.730D+00 0.254D+01
 Coeff-En:   0.000D+00 0.000D+00 0.000D+00 0.000D+00 0.000D+00 0.000D+00
 Coeff-En:   0.000D+00 0.000D+00 0.000D+00 0.100D+01
 Coeff:     -0.457D+00 0.522D+00-0.714D-01-0.174D-01-0.212D-01 0.139D+00
 Coeff:      0.177D+00-0.107D+01-0.723D+00 0.253D+01
 Gap=     0.074 Goal=   None    Shift=    0.000
 RMSDP=7.48D-05 MaxDP=7.56D-03 DE=-7.38D-05 OVMax= 1.29D-02

 Cycle  11  Pass 1  IDiag  1:
 E= -61.7968473856734     Delta-E=       -0.000143258981 Rises=F Damp=F
 DIIS: error= 6.33D-04 at cycle  11 NSaved=  11.
 NSaved=11 IEnMin=11 EnMin= -61.7968473856734     IErMin=11 ErrMin= 6.33D-04
 ErrMax= 6.33D-04  0.00D+00 EMaxC= 1.00D-01 BMatC= 2.03D-05 BMatP= 4.17D-05
 IDIUse=3 WtCom= 9.94D-01 WtEn= 6.33D-03
 Coeff-Com: -0.239D+00 0.274D+00-0.340D-01-0.133D-01-0.292D-01 0.937D-01
 Coeff-Com:  0.163D+00-0.610D+00-0.837D+00 0.762D+00 0.147D+01
 Coeff-En:   0.000D+00 0.000D+00 0.000D+00 0.000D+00 0.000D+00 0.000D+00
 Coeff-En:   0.000D+00 0.000D+00 0.000D+00 0.000D+00 0.100D+01
 Coeff:     -0.238D+00 0.272D+00-0.337D-01-0.132D-01-0.290D-01 0.931D-01
 Coeff:      0.162D+00-0.607D+00-0.832D+00 0.758D+00 0.147D+01
 Gap=     0.074 Goal=   None    Shift=    0.000
 RMSDP=8.10D-05 MaxDP=9.72D-03 DE=-1.43D-04 OVMax= 1.37D-02

 Cycle  12  Pass 1  IDiag  1:
 E= -61.7969440989068     Delta-E=       -0.000096713233 Rises=F Damp=F
 DIIS: error= 3.44D-04 at cycle  12 NSaved=  12.
 NSaved=12 IEnMin=12 EnMin= -61.7969440989068     IErMin=12 ErrMin= 3.44D-04
 ErrMax= 3.44D-04  0.00D+00 EMaxC= 1.00D-01 BMatC= 5.79D-06 BMatP= 2.03D-05
 IDIUse=3 WtCom= 9.97D-01 WtEn= 3.44D-03
 Coeff-Com: -0.152D-01 0.174D-01-0.243D-02 0.110D-01 0.413D-03-0.542D-01
 Coeff-Com: -0.206D-01 0.396D+00 0.134D+00-0.129D+01 0.273D+00 0.155D+01
 Coeff-En:   0.000D+00 0.000D+00 0.000D+00 0.000D+00 0.000D+00 0.000D+00
 Coeff-En:   0.000D+00 0.000D+00 0.000D+00 0.000D+00 0.000D+00 0.100D+01
 Coeff:     -0.152D-01 0.174D-01-0.242D-02 0.110D-01 0.412D-03-0.540D-01
 Coeff:     -0.205D-01 0.395D+00 0.134D+00-0.129D+01 0.272D+00 0.155D+01
 Gap=     0.075 Goal=   None    Shift=    0.000
 RMSDP=8.09D-05 MaxDP=7.39D-03 DE=-9.67D-05 OVMax= 1.47D-02

 Cycle  13  Pass 1  IDiag  1:
 E= -61.7969830183833     Delta-E=       -0.000038919476 Rises=F Damp=F
 DIIS: error= 2.72D-05 at cycle  13 NSaved=  13.
 NSaved=13 IEnMin=13 EnMin= -61.7969830183833     IErMin=13 ErrMin= 2.72D-05
 ErrMax= 2.72D-05  0.00D+00 EMaxC= 1.00D-01 BMatC= 3.74D-08 BMatP= 5.79D-06
 IDIUse=1 WtCom= 1.00D+00 WtEn= 0.00D+00
 Coeff-Com: -0.468D-02 0.536D-02-0.113D-02 0.101D-02 0.229D-02-0.558D-02
 Coeff-Com: -0.104D-01 0.374D-01 0.398D-01-0.130D-01-0.880D-01-0.597D-01
 Coeff-Com:  0.110D+01
 Coeff:     -0.468D-02 0.536D-02-0.113D-02 0.101D-02 0.229D-02-0.558D-02
 Coeff:     -0.104D-01 0.374D-01 0.398D-01-0.130D-01-0.880D-01-0.597D-01
 Coeff:      0.110D+01
 Gap=     0.075 Goal=   None    Shift=    0.000
 RMSDP=5.30D-06 MaxDP=5.24D-04 DE=-3.89D-05 OVMax= 1.04D-03

 Cycle  14  Pass 1  IDiag  1:
 E= -61.7969832589710     Delta-E=       -0.000000240588 Rises=F Damp=F
 DIIS: error= 5.93D-06 at cycle  14 NSaved=  14.
 NSaved=14 IEnMin=14 EnMin= -61.7969832589710     IErMin=14 ErrMin= 5.93D-06
 ErrMax= 5.93D-06  0.00D+00 EMaxC= 1.00D-01 BMatC= 1.86D-09 BMatP= 3.74D-08
 IDIUse=1 WtCom= 1.00D+00 WtEn= 0.00D+00
 Coeff-Com:  0.905D-03-0.103D-02 0.876D-04-0.554D-04 0.223D-03 0.307D-03
 Coeff-Com:  0.364D-04-0.472D-02 0.185D-02 0.212D-01-0.218D-01-0.352D-01
 Coeff-Com:  0.899D-01 0.948D+00
 Coeff:      0.905D-03-0.103D-02 0.876D-04-0.554D-04 0.223D-03 0.307D-03
 Coeff:      0.364D-04-0.472D-02 0.185D-02 0.212D-01-0.218D-01-0.352D-01
 Coeff:      0.899D-01 0.948D+00
 Gap=     0.075 Goal=   None    Shift=    0.000
 RMSDP=2.88D-06 MaxDP=2.98D-04 DE=-2.41D-07 OVMax= 3.30D-04

 Cycle  15  Pass 1  IDiag  1:
 E= -61.7969832699444     Delta-E=       -0.000000010973 Rises=F Damp=F
 DIIS: error= 1.20D-06 at cycle  15 NSaved=  15.
 NSaved=15 IEnMin=15 EnMin= -61.7969832699444     IErMin=15 ErrMin= 1.20D-06
 ErrMax= 1.20D-06  0.00D+00 EMaxC= 1.00D-01 BMatC= 9.94D-11 BMatP= 1.86D-09
 IDIUse=1 WtCom= 1.00D+00 WtEn= 0.00D+00
 Coeff-Com:  0.650D-03-0.743D-03 0.120D-03-0.524D-04-0.147D-03 0.355D-03
 Coeff-Com:  0.101D-02-0.329D-02-0.262D-02 0.379D-02 0.236D-02 0.101D-02
 Coeff-Com: -0.649D-01 0.227D+00 0.835D+00
 Coeff:      0.650D-03-0.743D-03 0.120D-03-0.524D-04-0.147D-03 0.355D-03
 Coeff:      0.101D-02-0.329D-02-0.262D-02 0.379D-02 0.236D-02 0.101D-02
 Coeff:     -0.649D-01 0.227D+00 0.835D+00
 Gap=     0.075 Goal=   None    Shift=    0.000
 RMSDP=7.13D-07 MaxDP=8.86D-05 DE=-1.10D-08 OVMax= 3.13D-05

 Cycle  16  Pass 1  IDiag  1:
 E= -61.7969832703175     Delta-E=       -0.000000000373 Rises=F Damp=F
 DIIS: error= 8.78D-07 at cycle  16 NSaved=  16.
 NSaved=16 IEnMin=16 EnMin= -61.7969832703175     IErMin=16 ErrMin= 8.78D-07
 ErrMax= 8.78D-07  0.00D+00 EMaxC= 1.00D-01 BMatC= 4.04D-11 BMatP= 9.94D-11
 IDIUse=1 WtCom= 1.00D+00 WtEn= 0.00D+00
 Coeff-Com: -0.845D-05 0.953D-05 0.388D-05-0.724D-05-0.328D-04 0.685D-04
 Coeff-Com:  0.734D-04-0.245D-03-0.362D-03 0.719D-03 0.174D-02 0.729D-03
 Coeff-Com: -0.726D-02-0.581D-01 0.263D-01 0.104D+01
 Coeff:     -0.845D-05 0.953D-05 0.388D-05-0.724D-05-0.328D-04 0.685D-04
 Coeff:      0.734D-04-0.245D-03-0.362D-03 0.719D-03 0.174D-02 0.729D-03
 Coeff:     -0.726D-02-0.581D-01 0.263D-01 0.104D+01
 Gap=     0.075 Goal=   None    Shift=    0.000
 RMSDP=2.16D-07 MaxDP=2.07D-05 DE=-3.73D-10 OVMax= 4.06D-05

 Cycle  17  Pass 1  IDiag  1:
 E= -61.7969832705891     Delta-E=       -0.000000000272 Rises=F Damp=F
 DIIS: error= 2.09D-08 at cycle  17 NSaved=  17.
 NSaved=17 IEnMin=17 EnMin= -61.7969832705891     IErMin=17 ErrMin= 2.09D-08
 ErrMax= 2.09D-08  0.00D+00 EMaxC= 1.00D-01 BMatC= 7.80D-14 BMatP= 4.04D-11
 IDIUse=1 WtCom= 1.00D+00 WtEn= 0.00D+00
 Coeff-Com:  0.172D-04-0.196D-04 0.166D-05 0.534D-05 0.457D-05-0.216D-04
 Coeff-Com: -0.547D-04 0.196D-03 0.298D-03-0.370D-03-0.390D-03 0.192D-03
 Coeff-Com:  0.445D-02-0.128D-01-0.405D-01 0.254D-01 0.102D+01
 Coeff:      0.172D-04-0.196D-04 0.166D-05 0.534D-05 0.457D-05-0.216D-04
 Coeff:     -0.547D-04 0.196D-03 0.298D-03-0.370D-03-0.390D-03 0.192D-03
 Coeff:      0.445D-02-0.128D-01-0.405D-01 0.254D-01 0.102D+01
 Gap=     0.075 Goal=   None    Shift=    0.000
 RMSDP=2.04D-08 MaxDP=3.92D-06 DE=-2.72D-10 OVMax= 7.60D-07

 Cycle  18  Pass 1  IDiag  1:
 E= -61.7969832705889     Delta-E=        0.000000000000 Rises=F Damp=F
 DIIS: error= 2.33D-08 at cycle  18 NSaved=  18.
 NSaved=18 IEnMin=17 EnMin= -61.7969832705891     IErMin=17 ErrMin= 2.09D-08
 ErrMax= 2.33D-08  0.00D+00 EMaxC= 1.00D-01 BMatC= 2.82D-14 BMatP= 7.80D-14
 IDIUse=1 WtCom= 1.00D+00 WtEn= 0.00D+00
 Coeff-Com:  0.206D-06-0.232D-06-0.798D-07-0.575D-06 0.757D-06 0.120D-05
 Coeff-Com: -0.393D-06-0.126D-04 0.184D-05 0.708D-04-0.806D-04-0.926D-04
 Coeff-Com:  0.304D-03 0.179D-02-0.134D-02-0.370D-01 0.141D-02 0.103D+01
 Coeff:      0.206D-06-0.232D-06-0.798D-07-0.575D-06 0.757D-06 0.120D-05
 Coeff:     -0.393D-06-0.126D-04 0.184D-05 0.708D-04-0.806D-04-0.926D-04
 Coeff:      0.304D-03 0.179D-02-0.134D-02-0.370D-01 0.141D-02 0.103D+01
 Gap=     0.075 Goal=   None    Shift=    0.000
 RMSDP=7.63D-09 MaxDP=6.87D-07 DE= 1.85D-13 OVMax= 1.07D-06

 SCF Done:  E(ROHF) =  -61.7969832706     A.U. after   18 cycles
            NFock= 18  Conv=0.76D-08     -V/T= 2.9786
 <Sx>= 0.0000 <Sy>= 0.0000 <Sz>= 0.5000 <S**2>= 0.7500 S= 0.5000
 <L.S>=  0.00000000000    
 KE= 3.123249400413D+01 PE=-1.844863926888D+02 EE= 6.650998975641D+01
 Annihilation of the first spin contaminant:
 S**2 before annihilation     0.7500,   after     0.7500
 Leave Link  502 at Tue Feb 20 23:35:31 2018, MaxMem= 10737418240 cpu:             536.1 elap:              20.4
 (Enter /home1/apps/gaussian/16rA.03/g16/l801.exe)
 Windowed orbitals will be sorted by symmetry type.
 GenMOA:  NOpAll=  4 NOp2=4 NOpUse=  4 JSym2X=1
 FoFJK:  IHMeth= 1 ICntrl=       0 DoSepK=F KAlg= 0 I1Cent=           0 FoldK=F
 IRaf=         0 NMat=       1 IRICut=       1 DoRegI=T DoRafI=F ISym2E= 1 IDoP0=0 IntGTp=1.
 FoFCou: FMM=F IPFlag=           8 FMFlag=      100000 FMFlg1=           0
         NFxFlg=           0 DoJE=F BraDBF=F KetDBF=F FulRan=T
         wScrn=  0.000000 ICntrl=         0 IOpCl=  1 I1Cent=           0 NGrid=           0
         NMat0=    1 NMatS0=      1 NMatT0=    0 NMatD0=    1 NMtDS0=    0 NMtDT0=    0
 Petite list used in FoFCou.
 <Sx>= 0.0000 <Sy>= 0.0000 <Sz>= 0.5000 <S**2>= 0.7500 S= 0.5000
 Range of M.O.s used for correlation:     1   257
 NBasis=   261 NAE=     9 NBE=     8 NFC=     0 NFV=     0
 NROrb=    257 NOA=     9 NOB=     8 NVA=   248 NVB=   249

 **** Warning!!: The largest alpha MO coefficient is  0.33549815D+03


 **** Warning!!: The largest beta MO coefficient is  0.33551647D+03

 Singles contribution to E2=   -0.1394160719D-03
 Leave Link  801 at Tue Feb 20 23:35:35 2018, MaxMem= 10737418240 cpu:             136.7 elap:               4.3
 (Enter /home1/apps/gaussian/16rA.03/g16/l804.exe)
 Open-shell transformation, MDV= 10737418240 ITran=4 ISComp=2.
 Unit  1 TFree=       2055235 TCopy=       1546158.
 Semi-Direct transformation.
 ModeAB=           4 MOrb=             9 LenV=   10735354994
 LASXX=     19341306 LTotXX=    19341306 LenRXX=    38995831
 LTotAB=    19654525 MaxLAS=   112275333 LenRXY=           0
 NonZer=    58337137 LenScr=    88261120 LnRSAI=   112275333
 LnScr1=   169164800 LExtra=     8071206 Total=    416768290
 MaxDsk= 67108864000 SrtSym=           T ITran=            4
 DoSDTr:  NPSUse= 32
 JobTyp=1 Pass  1:  I=   1 to   9.
 (rs|ai) integrals will be sorted in core.
 Complete sort for first half transformation.
 First half transformation complete.
 Complete sort for second half transformation.
 Second half transformation complete.
 ModeAB=           4 MOrb=             8 LenV=   10735354994
 LASXX=     17169082 LTotXX=    17169082 LenRXX=    33381970
 LTotAB=    16212888 MaxLAS=    99800296 LenRXY=           0
 NonZer=    50551052 LenScr=    76589568 LnRSAI=    99800296
 LnScr1=   150458880 LExtra=    47067037 Total=    407297751
 MaxDsk= 67108864000 SrtSym=           T ITran=            4
 DoSDTr:  NPSUse= 32
 JobTyp=2 Pass  1:  I=   1 to   8.
 (rs|ai) integrals will be sorted in core.
 Complete sort for first half transformation.
 First half transformation complete.
 Complete sort for second half transformation.
 Second half transformation complete.
 Spin components of T(2) and E(2):
     alpha-alpha T2 =       0.2640948237D-01 E2=     -0.9560940028D-01
     alpha-beta  T2 =       0.1117880788D+00 E2=     -0.4870840390D+00
     beta-beta   T2 =       0.2257669612D-01 E2=     -0.8734425238D-01
 ANorm=    0.1077449663D+01
 E2 =    -0.6701771077D+00 EUMP2 =    -0.62467160378288D+02
 (S**2,0)=  0.75000D+00           (S**2,1)=  0.75000D+00
 E(PUHF)=      -0.61796983271D+02        E(PMP2)=      -0.62467160378D+02
 Leave Link  804 at Tue Feb 20 23:37:18 2018, MaxMem= 10737418240 cpu:            3279.6 elap:             102.6
 (Enter /home1/apps/gaussian/16rA.03/g16/l913.exe)
 CIDS:  MDV= 10737418240.
 IFCWin=0 IBDFC=1 NFBD=     0     0 NFCmp=     0     0 NFFFC=     0     0
 Using original routines for 1st iteration.
 Using DD4UQ or CC4UQ for 2nd and later iterations.
 Keep R2 and R3 ints in memory in symmetry-blocked form, NReq=734615636.
 FoFCou: FMM=F IPFlag=           8 FMFlag=           0 FMFlg1=           0
         NFxFlg=           0 DoJE=F BraDBF=F KetDBF=F FulRan=T
         wScrn=  0.000000 ICntrl=       600 IOpCl=  0 I1Cent=           0 NGrid=           0
         NMat0=    1 NMatS0=  34191 NMatT0=    0 NMatD0=    1 NMtDS0=    0 NMtDT0=    0
 Petite list used in FoFCou.
 CIDS: In Core Option IDoMem=           1.
 CCSD(T)
 =======
 Iterations= 150 Convergence= 0.100D-06
 Produce multiple copies of IABC intergrals
 Iteration Nr.   1
 **********************
 DD1Dir will call FoFMem   1 times, MxPair=       208
 NAB=    72 NAA=    36 NBB=    28.
 DD1Dir will call FoFMem   1 times, MxPair=       208
 NAB=    72 NAA=    36 NBB=    28.
 MP4(R+Q)=  0.33451614D-02
 Maximum subspace dimension=  5
 A-vector RMS=  7.5875189D-05 Max=  1.6670712D-03 conv= 1.00D-05.
 RLE energy=       -0.6541187246
 E3=        0.13095926D-01        EROMP3=      -0.62454064452D+02
 E4(SDQ)=  -0.15638607D-01        ROMP4(SDQ)=  -0.62469703058D+02
 VARIATIONAL ENERGIES WITH THE FIRST-ORDER WAVEFUNCTION:
 DE(Corr)= -0.65372439     E(Corr)=     -62.450707661    
 NORM(A)=   0.10727295D+01
 Iteration Nr.   2
 **********************
 DD1Dir will call FoFMem   1 times, MxPair=       208
 NAB=    72 NAA=    36 NBB=    28.
 A-vector RMS=  3.5391822D-03 Max=  3.5914810D-02 conv= 1.00D-05.
 RLE energy=       -0.6481714165
 DE(Corr)= -0.64030445     E(CORR)=     -62.437287719     Delta= 1.34D-02
 NORM(A)=   0.10703288D+01
 Iteration Nr.   3
 **********************
 DD1Dir will call FoFMem   1 times, MxPair=       208
 NAB=    72 NAA=    36 NBB=    28.
 A-vector RMS=  1.5671363D-03 Max=  1.5308260D-02 conv= 1.00D-05.
 RLE energy=       -0.6584976084
 DE(Corr)= -0.65308097     E(CORR)=     -62.450064244     Delta=-1.28D-02
 NORM(A)=   0.10735417D+01
 Iteration Nr.   4
 **********************
 DD1Dir will call FoFMem   1 times, MxPair=       208
 NAB=    72 NAA=    36 NBB=    28.
 A-vector RMS=  2.1465912D-03 Max=  2.1820119D-02 conv= 1.00D-05.
 RLE energy=       -0.6648074162
 DE(Corr)= -0.65103570     E(CORR)=     -62.448018974     Delta= 2.05D-03
 NORM(A)=   0.10822479D+01
 Iteration Nr.   5
 **********************
 DD1Dir will call FoFMem   1 times, MxPair=       208
 NAB=    72 NAA=    36 NBB=    28.
 A-vector RMS=  3.8722006D-04 Max=  5.2036365D-03 conv= 1.00D-05.
 RLE energy=       -0.6651743343
 DE(Corr)= -0.66639450     E(CORR)=     -62.463377769     Delta=-1.54D-02
 NORM(A)=   0.10835972D+01
 Iteration Nr.   6
 **********************
 DD1Dir will call FoFMem   1 times, MxPair=       208
 NAB=    72 NAA=    36 NBB=    28.
 A-vector RMS=  1.3287033D-04 Max=  1.9805365D-03 conv= 1.00D-05.
 RLE energy=       -0.6648282588
 DE(Corr)= -0.66563620     E(CORR)=     -62.462619473     Delta= 7.58D-04
 NORM(A)=   0.10836962D+01
 Iteration Nr.   7
 **********************
 DD1Dir will call FoFMem   1 times, MxPair=       208
 NAB=    72 NAA=    36 NBB=    28.
 A-vector RMS=  4.1277013D-05 Max=  1.0047555D-03 conv= 1.00D-05.
 RLE energy=       -0.6647550278
 DE(Corr)= -0.66473518     E(CORR)=     -62.461718449     Delta= 9.01D-04
 NORM(A)=   0.10839264D+01
 Iteration Nr.   8
 **********************
 DD1Dir will call FoFMem   1 times, MxPair=       208
 NAB=    72 NAA=    36 NBB=    28.
 A-vector RMS=  1.8290349D-05 Max=  2.9938369D-04 conv= 1.00D-05.
 RLE energy=       -0.6647820382
 DE(Corr)= -0.66479137     E(CORR)=     -62.461774636     Delta=-5.62D-05
 NORM(A)=   0.10839946D+01
 Iteration Nr.   9
 **********************
 DD1Dir will call FoFMem   1 times, MxPair=       208
 NAB=    72 NAA=    36 NBB=    28.
 A-vector RMS=  8.1507637D-06 Max=  7.4722858D-05 conv= 1.00D-05.
 RLE energy=       -0.6647916585
 DE(Corr)= -0.66477385     E(CORR)=     -62.461757118     Delta= 1.75D-05
 NORM(A)=   0.10840206D+01
 Iteration Nr.  10
 **********************
 DD1Dir will call FoFMem   1 times, MxPair=       208
 NAB=    72 NAA=    36 NBB=    28.
 A-vector RMS=  2.8754855D-06 Max=  4.3225546D-05 conv= 1.00D-05.
 RLE energy=       -0.6647839882
 DE(Corr)= -0.66478165     E(CORR)=     -62.461764923     Delta=-7.81D-06
 NORM(A)=   0.10840129D+01
 Iteration Nr.  11
 **********************
 DD1Dir will call FoFMem   1 times, MxPair=       208
 NAB=    72 NAA=    36 NBB=    28.
 A-vector RMS=  1.4402147D-06 Max=  2.1757837D-05 conv= 1.00D-05.
 RLE energy=       -0.6647857929
 DE(Corr)= -0.66478465     E(CORR)=     -62.461767916     Delta=-2.99D-06
 NORM(A)=   0.10840124D+01
 Iteration Nr.  12
 **********************
 DD1Dir will call FoFMem   1 times, MxPair=       208
 NAB=    72 NAA=    36 NBB=    28.
 A-vector RMS=  7.3200691D-07 Max=  1.2726557D-05 conv= 1.00D-05.
 RLE energy=       -0.6647835874
 DE(Corr)= -0.66478355     E(CORR)=     -62.461766821     Delta= 1.10D-06
 NORM(A)=   0.10840124D+01
 Iteration Nr.  13
 **********************
 DD1Dir will call FoFMem   1 times, MxPair=       208
 NAB=    72 NAA=    36 NBB=    28.
 A-vector RMS=  3.6139218D-07 Max=  5.3538367D-06 conv= 1.00D-05.
 RLE energy=       -0.6647846226
 DE(Corr)= -0.66478474     E(CORR)=     -62.461768008     Delta=-1.19D-06
 NORM(A)=   0.10840134D+01
 Iteration Nr.  14
 **********************
 DD1Dir will call FoFMem   1 times, MxPair=       208
 NAB=    72 NAA=    36 NBB=    28.
 A-vector RMS=  2.1798715D-07 Max=  2.7769560D-06 conv= 1.00D-05.
 RLE energy=       -0.6647845632
 DE(Corr)= -0.66478438     E(CORR)=     -62.461767651     Delta= 3.57D-07
 NORM(A)=   0.10840142D+01
 Iteration Nr.  15
 **********************
 DD1Dir will call FoFMem   1 times, MxPair=       208
 NAB=    72 NAA=    36 NBB=    28.
 A-vector RMS=  1.1408783D-07 Max=  1.8321951D-06 conv= 1.00D-05.
 RLE energy=       -0.6647847026
 DE(Corr)= -0.66478469     E(CORR)=     -62.461767964     Delta=-3.12D-07
 NORM(A)=   0.10840146D+01
 Iteration Nr.  16
 **********************
 DD1Dir will call FoFMem   1 times, MxPair=       208
 NAB=    72 NAA=    36 NBB=    28.
 A-vector RMS=  5.7112905D-08 Max=  9.2228449D-07 conv= 1.00D-05.
 RLE energy=       -0.6647847404
 DE(Corr)= -0.66478468     E(CORR)=     -62.461767955     Delta= 8.98D-09
 NORM(A)=   0.10840148D+01
 CI/CC converged in   16 iterations to DelEn= 8.98D-09 Conv= 1.00D-07 ErrA1= 5.71D-08 Conv= 1.00D-05
 Wavefunction amplitudes converged. E(Corr)=     -62.461767955    
 Largest amplitude= 5.63D-02
 Time for triples=    21324.78 seconds.
 T4(CCSD)= -0.35721748D-01
 T5(CCSD)=  0.34387013D-02
 CCSD(T)= -0.62494051002D+02
 Discarding MO integrals.
 Leave Link  913 at Tue Feb 20 23:52:28 2018, MaxMem= 10737418240 cpu:           29115.0 elap:             910.6
 (Enter /home1/apps/gaussian/16rA.03/g16/l601.exe)
 Copying SCF densities to generalized density rwf, IOpCl= 0 IROHF=1.

 **********************************************************************

            Population analysis using the SCF density.

 **********************************************************************

 Orbital symmetries:
       Occupied  (SG) (SG) (PI) (PI) (SG) (PI) (PI) (SG) (SG)
       Virtual   (PI) (PI) (SG) (SG) (DLTA) (DLTA) (PI) (PI) (SG)
                 (PI) (PI) (SG) (DLTA) (DLTA) (SG) (PI) (PI) (SG)
                 (PI) (PI) (SG) (PHI) (PHI) (DLTA) (DLTA) (PI)
                 (PI) (SG) (DLTA) (DLTA) (SG) (PI) (PI) (PI) (PI)
                 (SG) (SG) (DLTA) (DLTA) (SG) (PI) (PI) (?A) (?A)
                 (PHI) (PHI) (DLTA) (DLTA) (PI) (PI) (SG) (SG)
                 (PI) (PI) (DLTA) (DLTA) (PHI) (PHI) (SG) (PI)
                 (PI) (SG) (PI) (PI) (DLTA) (DLTA) (SG) (SG) (DLTA)
                 (DLTA) (PI) (PI) (SG) (SG) (PI) (PI) (PI) (PI)
                 (SG) (PHI) (PHI) (DLTA) (DLTA) (?A) (?A) (PI)
                 (PI) (SG) (DLTA) (DLTA) (PHI) (PHI) (PI) (PI)
                 (SG) (PHI) (PHI) (DLTA) (DLTA) (SG) (PI) (PI)
                 (DLTA) (DLTA) (SG) (DLTA) (DLTA) (PI) (PI) (SG)
                 (PI) (PI) (SG) (PI) (PI) (SG) (SG) (PI) (PI) (SG)
                 (DLTA) (DLTA) (PI) (PI) (SG) (SG) (PHI) (PHI)
                 (DLTA) (DLTA) (PI) (PI) (PHI) (PHI) (DLTA) (DLTA)
                 (PI) (PI) (SG) (DLTA) (DLTA) (PI) (PI) (?A) (?A)
                 (PHI) (PHI) (DLTA) (DLTA) (SG) (SG) (PI) (PI)
                 (PI) (PI) (SG) (SG) (SG) (DLTA) (DLTA) (PI) (PI)
                 (PI) (PI) (SG) (SG) (PI) (PI) (SG) (SG) (SG) (DLTA)
                 (DLTA) (PI) (PI) (SG) (PI) (PI) (SG) (SG) (DLTA)
                 (DLTA) (PI) (PI) (SG) (PI) (PI) (SG) (SG) (SG)
                 (DLTA) (DLTA) (PI) (PI) (PI) (PI) (SG) (SG) (SG)
                 (PI) (PI) (SG) (PI) (PI) (SG) (SG) (SG) (SG) (DLTA)
                 (DLTA) (PI) (PI) (SG) (PI) (PI) (SG) (PI) (PI)
                 (SG) (SG) (SG) (PI) (PI) (SG) (SG) (PI) (PI) (SG)
                 (SG) (SG) (PI) (PI) (SG) (SG) (SG) (PI) (PI) (SG)
                 (SG) (SG) (SG) (PI) (PI) (SG) (SG) (SG) (SG) (SG)
 The electronic state is 2-SG.
 Alpha  occ. eigenvalues --   -2.59037  -1.72150  -1.55393  -1.55393  -1.09423
 Alpha  occ. eigenvalues --   -0.52616  -0.52616  -0.46206  -0.20955
 Alpha virt. eigenvalues --    0.00846   0.00846   0.02202   0.02232   0.03749
 Alpha virt. eigenvalues --    0.03749   0.03837   0.03837   0.03990   0.04567
 Alpha virt. eigenvalues --    0.04567   0.07118   0.10383   0.10383   0.10965
 Alpha virt. eigenvalues --    0.12384   0.12384   0.12892   0.15623   0.15623
 Alpha virt. eigenvalues --    0.15677   0.16531   0.16531   0.17107   0.17107
 Alpha virt. eigenvalues --    0.17365   0.17365   0.19743   0.20383   0.20383
 Alpha virt. eigenvalues --    0.25803   0.31224   0.31224   0.31855   0.31855
 Alpha virt. eigenvalues --    0.37054   0.39917   0.46487   0.46762   0.46762
 Alpha virt. eigenvalues --    0.47333   0.47333   0.47734   0.47734   0.48577
 Alpha virt. eigenvalues --    0.48577   0.49603   0.49603   0.51606   0.51606
 Alpha virt. eigenvalues --    0.52607   0.58068   0.59961   0.59961   0.62629
 Alpha virt. eigenvalues --    0.62629   0.63145   0.63145   0.75123   0.80619
 Alpha virt. eigenvalues --    0.80619   0.93325   0.99498   0.99498   1.03357
 Alpha virt. eigenvalues --    1.03357   1.03580   1.26970   1.31609   1.31609
 Alpha virt. eigenvalues --    1.33925   1.33925   1.39474   1.57299   1.63091
 Alpha virt. eigenvalues --    1.63091   1.66881   1.66881   1.86707   1.91935
 Alpha virt. eigenvalues --    1.91935   1.93612   1.93612   1.97402   1.97402
 Alpha virt. eigenvalues --    2.00572   2.00572   2.02481   2.09957   2.09957
 Alpha virt. eigenvalues --    2.18398   2.18398   2.20108   2.20108   2.23251
 Alpha virt. eigenvalues --    2.37805   2.37805   2.50596   2.50596   2.70212
 Alpha virt. eigenvalues --    2.80834   2.80834   3.00751   3.00751   3.02696
 Alpha virt. eigenvalues --    3.06709   3.06709   3.19186   3.19186   3.42007
 Alpha virt. eigenvalues --    3.66864   3.66864   3.71400   4.11671   4.11671
 Alpha virt. eigenvalues --    4.17932   4.48676   4.51571   4.51571   5.18493
 Alpha virt. eigenvalues --    6.03558   6.03558   6.09148   6.09148   6.27833
 Alpha virt. eigenvalues --    6.54229   6.57056   6.57056   6.58779   6.58779
 Alpha virt. eigenvalues --    6.69483   6.69483   6.74122   6.74122   6.88795
 Alpha virt. eigenvalues --    6.88795   7.23231   7.23231   7.24783   7.25375
 Alpha virt. eigenvalues --    7.25375   7.63330   7.63330   7.80529   7.80529
 Alpha virt. eigenvalues --    7.82767   7.82767   7.91987   7.91987   8.04267
 Alpha virt. eigenvalues --    8.20939   8.61127   8.61127   8.78586   8.78586
 Alpha virt. eigenvalues --    9.20976   9.43851  10.25919  11.50495  11.50495
 Alpha virt. eigenvalues --   11.67398  11.67398  15.11776  15.11776  15.15213
 Alpha virt. eigenvalues --   15.92404  17.09964  17.09964  17.11663  17.74625
 Alpha virt. eigenvalues --   19.52288  21.76112  21.76112  21.91449  21.91449
 Alpha virt. eigenvalues --   26.65219  33.57570  33.57570  34.26185  38.49090
 Alpha virt. eigenvalues --   43.75148  43.75148  43.87239  43.87239  44.02915
 Alpha virt. eigenvalues --   45.73458  45.73458  46.88626  48.46408  52.10176
 Alpha virt. eigenvalues --   53.92178  53.92178  54.03697  54.03697  67.19376
 Alpha virt. eigenvalues --   67.19376  67.90917  74.69232  92.02989 119.09629
 Alpha virt. eigenvalues --  119.09629 120.07595 135.77071 135.77071 136.42032
 Alpha virt. eigenvalues --  136.96905 182.14852 195.68052 196.80373 196.80373
 Alpha virt. eigenvalues --  196.87253 196.87253 257.66651 279.72231 279.72231
 Alpha virt. eigenvalues --  280.40423 286.37473 286.37473 287.26800 376.66302
 Alpha virt. eigenvalues --  555.15769 597.29828 597.29828 597.93343 808.63039
 Alpha virt. eigenvalues -- 1348.905871348.905871349.479051529.681431799.53821
 Alpha virt. eigenvalues -- 3317.628843317.628843318.128394175.921515659.83217
 Alpha virt. eigenvalues -- 9372.992549372.992549373.40362********************
 Alpha virt. eigenvalues -- **************************************************
 Alpha virt. eigenvalues -- ******************************
     Molecular Orbital Coefficients:
                           4         5         6         7         8
                           O         O         O         O         O
     Eigenvalues --    -1.55393  -1.09423  -0.52616  -0.52616  -0.46206
   1 1   Sc 1S          0.00000  -0.00000   0.00000   0.00000  -0.00000
   2        2S          0.00000   0.00000   0.00000   0.00000   0.00000
   3        3S          0.00000  -0.00000   0.00000   0.00000  -0.00000
   4        4S          0.00000   0.00000   0.00000   0.00000   0.00000
   5        5S          0.00000  -0.00000   0.00000   0.00000  -0.00000
   6        6S          0.00000   0.00001   0.00000   0.00000   0.00000
   7        7S          0.00000  -0.00002   0.00000   0.00000  -0.00001
   8        8S          0.00000   0.00007   0.00000   0.00000   0.00005
   9        9S          0.00000  -0.00020   0.00000   0.00000  -0.00015
  10       10S          0.00000   0.00060   0.00000   0.00000   0.00045
  11       11S          0.00000  -0.00181   0.00000   0.00000  -0.00138
  12       12S          0.00000   0.00749   0.00000   0.00000   0.00601
  13       13S          0.00000  -0.03415   0.00000   0.00000  -0.02885
  14       14S          0.00000   0.09794   0.00000   0.00000   0.08407
  15       15S          0.00000  -0.01422   0.00000   0.00000  -0.02366
  16       16S          0.00000  -0.11364   0.00000   0.00000  -0.14841
  17       17S          0.00000  -0.06978   0.00000   0.00000  -0.23420
  18       18S          0.00000  -0.03356   0.00000   0.00000  -0.07827
  19       19S          0.00000  -0.03754   0.00000   0.00000  -0.02739
  20       20S          0.00000   0.00885   0.00000   0.00000   0.02007
  21       21S          0.00000  -0.01875   0.00000   0.00000  -0.00380
  22       22S          0.00000  -0.03779   0.00000   0.00000   0.10328
  23       23S          0.00000  -0.00145   0.00000   0.00000  -0.00162
  24       24PX         0.00000   0.00000  -0.00000   0.00000   0.00000
  25       24PY        -0.00000   0.00000   0.00000  -0.00000   0.00000
  26       24PZ         0.00000  -0.00000   0.00000   0.00000  -0.00000
  27       25PX         0.00000   0.00000   0.00000   0.00000   0.00000
  28       25PY         0.00001   0.00000   0.00000   0.00000   0.00000
  29       25PZ         0.00000   0.00000   0.00000   0.00000   0.00000
  30       26PX         0.00000   0.00000  -0.00001   0.00000   0.00000
  31       26PY        -0.00005   0.00000   0.00000  -0.00001   0.00000
  32       26PZ         0.00000  -0.00002   0.00000   0.00000  -0.00001
  33       27PX         0.00000   0.00000   0.00004   0.00000   0.00000
  34       27PY         0.00020   0.00000   0.00000   0.00004   0.00000
  35       27PZ         0.00000   0.00010   0.00000   0.00000   0.00004
  36       28PX         0.00000   0.00000  -0.00014   0.00000   0.00000
  37       28PY        -0.00075   0.00000   0.00000  -0.00014   0.00000
  38       28PZ         0.00000  -0.00039   0.00000   0.00000  -0.00014
  39       29PX         0.00000   0.00000   0.00047   0.00000   0.00000
  40       29PY         0.00252   0.00000   0.00000   0.00047   0.00000
  41       29PZ         0.00000   0.00131   0.00000   0.00000   0.00049
  42       30PX         0.00000   0.00000  -0.00150   0.00000   0.00000
  43       30PY        -0.00794   0.00000   0.00000  -0.00150   0.00000
  44       30PZ         0.00000  -0.00414   0.00000   0.00000  -0.00158
  45       31PX         0.00000   0.00000   0.00463   0.00000   0.00000
  46       31PY         0.02409   0.00000   0.00000   0.00463   0.00000
  47       31PZ         0.00000   0.01271   0.00000   0.00000   0.00508
  48       32PX         0.00000   0.00000  -0.01039   0.00000   0.00000
  49       32PY        -0.04904   0.00000   0.00000  -0.01039   0.00000
  50       32PZ         0.00000  -0.02629   0.00000   0.00000  -0.01002
  51       33PX         0.00000   0.00000  -0.00376   0.00000   0.00000
  52       33PY        -0.20083   0.00000   0.00000  -0.00376   0.00000
  53       33PZ         0.00000  -0.12352   0.00000   0.00000  -0.10025
  54       34PX         0.00000   0.00000   0.06997   0.00000   0.00000
  55       34PY         0.35659   0.00000   0.00000   0.06997   0.00000
  56       34PZ         0.00000   0.19578   0.00000   0.00000   0.10966
  57       35PX         0.00000   0.00000   0.03056   0.00000   0.00000
  58       35PY        -0.08513   0.00000   0.00000   0.03056   0.00000
  59       35PZ         0.00000  -0.04939   0.00000   0.00000  -0.10111
  60       36PX         0.00000   0.00000   0.06695   0.00000   0.00000
  61       36PY         0.26217   0.00000   0.00000   0.06695   0.00000
  62       36PZ         0.00000   0.15293   0.00000   0.00000   0.12809
  63       37PX         0.00000   0.00000   0.05980   0.00000   0.00000
  64       37PY         0.05046   0.00000   0.00000   0.05980   0.00000
  65       37PZ         0.00000   0.05797   0.00000   0.00000   0.07545
  66       38PX         0.00000   0.00000   0.01543   0.00000   0.00000
  67       38PY        -0.01842   0.00000   0.00000   0.01543   0.00000
  68       38PZ         0.00000   0.01368   0.00000   0.00000   0.00883
  69       39PX         0.00000   0.00000   0.01943   0.00000   0.00000
  70       39PY         0.00347   0.00000   0.00000   0.01943   0.00000
  71       39PZ         0.00000  -0.00237   0.00000   0.00000  -0.01903
  72       40PX         0.00000   0.00000  -0.00259   0.00000   0.00000
  73       40PY         0.16281   0.00000   0.00000  -0.00259   0.00000
  74       40PZ         0.00000   0.10619   0.00000   0.00000   0.08992
  75       41PX         0.00000   0.00000   0.05298   0.00000   0.00000
  76       41PY         0.54932   0.00000   0.00000   0.05298   0.00000
  77       41PZ         0.00000   0.30545   0.00000   0.00000   0.21650
  78       42PX         0.00000   0.00000  -0.00434   0.00000   0.00000
  79       42PY        -0.00125   0.00000   0.00000  -0.00434   0.00000
  80       42PZ         0.00000  -0.00003   0.00000   0.00000   0.00263
  81       43D 0        0.00000  -0.00019   0.00000   0.00000  -0.00059
  82       43D+1        0.00000   0.00000  -0.00027   0.00000   0.00000
  83       43D-1        0.00003   0.00000   0.00000  -0.00027   0.00000
  84       43D+2        0.00000  -0.00000   0.00000   0.00000  -0.00000
  85       43D-2        0.00000   0.00000   0.00000   0.00000   0.00000
  86       44D 0        0.00000   0.00132   0.00000   0.00000   0.00413
  87       44D+1        0.00000   0.00000   0.00190   0.00000   0.00000
  88       44D-1       -0.00020   0.00000   0.00000   0.00190   0.00000
  89       44D+2        0.00000   0.00000   0.00000   0.00000   0.00000
  90       44D-2        0.00000   0.00000   0.00000   0.00000   0.00000
  91       45D 0        0.00000   0.02211   0.00000   0.00000   0.07676
  92       45D+1        0.00000   0.00000   0.03807   0.00000   0.00000
  93       45D-1       -0.00341   0.00000   0.00000   0.03807   0.00000
  94       45D+2        0.00000   0.00000   0.00000   0.00000   0.00000
  95       45D-2        0.00000   0.00000   0.00000   0.00000   0.00000
  96       46D 0        0.00000   0.00272   0.00000   0.00000  -0.04688
  97       46D+1        0.00000   0.00000  -0.06957   0.00000   0.00000
  98       46D-1       -0.00382   0.00000   0.00000  -0.06957   0.00000
  99       46D+2        0.00000   0.00000   0.00000   0.00000   0.00000
 100       46D-2        0.00000   0.00000   0.00000   0.00000   0.00000
 101       47D 0        0.00000   0.03243   0.00000   0.00000   0.10202
 102       47D+1        0.00000   0.00000  -1.03771   0.00000   0.00000
 103       47D-1       -0.08519   0.00000   0.00000  -1.03771   0.00000
 104       47D+2        0.00000   0.00000   0.00000   0.00000   0.00000
 105       47D-2        0.00000   0.00000   0.00000   0.00000   0.00000
 106       48D 0        0.00000   0.04727   0.00000   0.00000   0.18403
 107       48D+1        0.00000   0.00000   0.06730   0.00000   0.00000
 108       48D-1        0.00322   0.00000   0.00000   0.06730   0.00000
 109       48D+2        0.00000   0.00000   0.00000   0.00000   0.00000
 110       48D-2        0.00000   0.00000   0.00000   0.00000   0.00000
 111       49D 0        0.00000  -0.00617   0.00000   0.00000   0.06464
 112       49D+1        0.00000   0.00000  -0.00560   0.00000   0.00000
 113       49D-1        0.00565   0.00000   0.00000  -0.00560   0.00000
 114       49D+2        0.00000   0.00000   0.00000   0.00000  -0.00000
 115       49D-2        0.00000   0.00000   0.00000   0.00000   0.00000
 116       50D 0        0.00000   0.00426   0.00000   0.00000   0.01982
 117       50D+1        0.00000   0.00000  -0.01212   0.00000   0.00000
 118       50D-1        0.00335   0.00000   0.00000  -0.01212   0.00000
 119       50D+2        0.00000  -0.00000   0.00000   0.00000   0.00000
 120       50D-2        0.00000   0.00000   0.00000   0.00000   0.00000
 121       51D 0        0.00000   0.03624   0.00000   0.00000   0.18666
 122       51D+1        0.00000   0.00000   0.14795   0.00000   0.00000
 123       51D-1       -0.00340   0.00000   0.00000   0.14795   0.00000
 124       51D+2        0.00000  -0.00000   0.00000   0.00000  -0.00000
 125       51D-2        0.00000   0.00000   0.00000   0.00000   0.00000
 126       52D 0        0.00000   0.02987   0.00000   0.00000   0.08697
 127       52D+1        0.00000   0.00000   1.14021   0.00000   0.00000
 128       52D-1        0.07712   0.00000   0.00000   1.14021   0.00000
 129       52D+2        0.00000  -0.00000   0.00000   0.00000  -0.00000
 130       52D-2        0.00000   0.00000   0.00000   0.00000   0.00000
 131       53D 0        0.00000  -0.00054   0.00000   0.00000  -0.00075
 132       53D+1        0.00000   0.00000  -0.00003   0.00000   0.00000
 133       53D-1       -0.00045   0.00000   0.00000  -0.00003   0.00000
 134       53D+2        0.00000   0.00000   0.00000   0.00000  -0.00000
 135       53D-2        0.00000   0.00000   0.00000   0.00000   0.00000
 136       54F 0        0.00000  -0.00390   0.00000   0.00000  -0.01028
 137       54F+1        0.00000   0.00000  -0.00684   0.00000   0.00000
 138       54F-1       -0.00120   0.00000   0.00000  -0.00684   0.00000
 139       54F+2        0.00000   0.00000   0.00000   0.00000   0.00000
 140       54F-2        0.00000   0.00000   0.00000   0.00000   0.00000
 141       54F+3        0.00000   0.00000   0.00000   0.00000   0.00000
 142       54F-3        0.00000   0.00000   0.00000   0.00000   0.00000
 143       55F 0        0.00000  -0.00993   0.00000   0.00000  -0.01963
 144       55F+1        0.00000   0.00000  -0.02325   0.00000   0.00000
 145       55F-1       -0.00399   0.00000   0.00000  -0.02325   0.00000
 146       55F+2        0.00000  -0.00000   0.00000   0.00000   0.00000
 147       55F-2        0.00000   0.00000   0.00000   0.00000   0.00000
 148       55F+3        0.00000   0.00000   0.00000   0.00000   0.00000
 149       55F-3        0.00000   0.00000   0.00000   0.00000   0.00000
 150       56F 0        0.00000  -0.00088   0.00000   0.00000  -0.02340
 151       56F+1        0.00000   0.00000   0.01198   0.00000   0.00000
 152       56F-1       -0.00379   0.00000   0.00000   0.01198   0.00000
 153       56F+2        0.00000  -0.00000   0.00000   0.00000   0.00000
 154       56F-2        0.00000   0.00000   0.00000   0.00000   0.00000
 155       56F+3        0.00000   0.00000  -0.00000   0.00000   0.00000
 156       56F-3        0.00000   0.00000   0.00000  -0.00000   0.00000
 157       57F 0        0.00000  -0.00102   0.00000   0.00000  -0.00921
 158       57F+1        0.00000   0.00000   0.00826   0.00000   0.00000
 159       57F-1       -0.00154   0.00000   0.00000   0.00826   0.00000
 160       57F+2        0.00000   0.00000   0.00000   0.00000  -0.00000
 161       57F-2        0.00000   0.00000   0.00000   0.00000   0.00000
 162       57F+3        0.00000   0.00000  -0.00000   0.00000   0.00000
 163       57F-3        0.00000   0.00000   0.00000  -0.00000   0.00000
 164       58G 0        0.00000   0.00022   0.00000   0.00000   0.00256
 165       58G+1        0.00000   0.00000   0.00268   0.00000   0.00000
 166       58G-1       -0.00085   0.00000   0.00000   0.00268   0.00000
 167       58G+2        0.00000  -0.00000   0.00000   0.00000   0.00000
 168       58G-2        0.00000   0.00000   0.00000   0.00000   0.00000
 169       58G+3        0.00000   0.00000   0.00000   0.00000   0.00000
 170       58G-3       -0.00000   0.00000   0.00000   0.00000   0.00000
 171       58G+4        0.00000  -0.00000   0.00000   0.00000   0.00000
 172       58G-4        0.00000   0.00000   0.00000   0.00000   0.00000
 173       59G 0        0.00000  -0.00055   0.00000   0.00000  -0.00101
 174       59G+1        0.00000   0.00000   0.00090   0.00000   0.00000
 175       59G-1        0.00016   0.00000   0.00000   0.00090   0.00000
 176       59G+2        0.00000   0.00000   0.00000   0.00000  -0.00000
 177       59G-2        0.00000   0.00000   0.00000   0.00000   0.00000
 178       59G+3        0.00000   0.00000   0.00000   0.00000   0.00000
 179       59G-3       -0.00000   0.00000   0.00000   0.00000   0.00000
 180       59G+4        0.00000   0.00000   0.00000   0.00000  -0.00000
 181       59G-4        0.00000   0.00000   0.00000   0.00000   0.00000
 182       60G 0        0.00000   0.00064   0.00000   0.00000   0.00730
 183       60G+1        0.00000   0.00000  -0.00666   0.00000   0.00000
 184       60G-1        0.00105   0.00000   0.00000  -0.00666   0.00000
 185       60G+2        0.00000   0.00000   0.00000   0.00000  -0.00000
 186       60G-2        0.00000   0.00000   0.00000   0.00000   0.00000
 187       60G+3        0.00000   0.00000   0.00000   0.00000   0.00000
 188       60G-3       -0.00000   0.00000   0.00000   0.00000   0.00000
 189       60G+4        0.00000  -0.00000   0.00000   0.00000   0.00000
 190       60G-4        0.00000   0.00000   0.00000   0.00000   0.00000
 191 2   O  1S          0.00000  -0.00000   0.00000   0.00000   0.00000
 192        2S          0.00000   0.00001   0.00000   0.00000  -0.00000
 193        3S          0.00000  -0.00004   0.00000   0.00000   0.00000
 194        4S          0.00000   0.00027   0.00000   0.00000  -0.00003
 195        5S          0.00000  -0.00287   0.00000   0.00000   0.00026
 196        6S          0.00000  -0.04204   0.00000   0.00000   0.00560
 197        7S          0.00000  -0.14269   0.00000   0.00000   0.01286
 198        8S          0.00000   0.51575   0.00000   0.00000   0.00544
 199        9S          0.00000   0.13609   0.00000   0.00000  -0.01314
 200       10S          0.00000   0.41074   0.00000   0.00000  -0.08718
 201       11S          0.00000  -0.00892   0.00000   0.00000  -0.00999
 202       12S          0.00000   0.04156   0.00000   0.00000  -0.00391
 203       13S          0.00000   0.08077   0.00000   0.00000  -0.01009
 204       14PX         0.00000   0.00000  -0.00768   0.00000   0.00000
 205       14PY         0.00056   0.00000   0.00000  -0.00768   0.00000
 206       14PZ         0.00000  -0.00066   0.00000   0.00000   0.00739
 207       15PX         0.00000   0.00000  -0.07959   0.00000   0.00000
 208       15PY         0.00605   0.00000   0.00000  -0.07959   0.00000
 209       15PZ         0.00000  -0.00832   0.00000   0.00000   0.07748
 210       16PX         0.00000   0.00000  -0.25481   0.00000   0.00000
 211       16PY         0.01971   0.00000   0.00000  -0.25481   0.00000
 212       16PZ         0.00000  -0.03248   0.00000   0.00000   0.24897
 213       17PX         0.00000   0.00000  -0.41381   0.00000   0.00000
 214       17PY         0.03170   0.00000   0.00000  -0.41381   0.00000
 215       17PZ         0.00000  -0.02997   0.00000   0.00000   0.41086
 216       18PX         0.00000   0.00000  -0.39373   0.00000   0.00000
 217       18PY         0.01774   0.00000   0.00000  -0.39373   0.00000
 218       18PZ         0.00000   0.01070   0.00000   0.00000   0.31298
 219       19PX         0.00000   0.00000  -0.00443   0.00000   0.00000
 220       19PY         0.00045   0.00000   0.00000  -0.00443   0.00000
 221       19PZ         0.00000  -0.00105   0.00000   0.00000   0.00455
 222       20PX         0.00000   0.00000   0.00202   0.00000   0.00000
 223       20PY        -0.00014   0.00000   0.00000   0.00202   0.00000
 224       20PZ         0.00000   0.00015   0.00000   0.00000  -0.00194
 225       21PX         0.00000   0.00000  -0.08353   0.00000   0.00000
 226       21PY         0.00913   0.00000   0.00000  -0.08353   0.00000
 227       21PZ         0.00000   0.01986   0.00000   0.00000   0.09023
 228       22D 0        0.00000  -0.00261   0.00000   0.00000   0.00762
 229       22D+1        0.00000   0.00000  -0.00682   0.00000   0.00000
 230       22D-1        0.00316   0.00000   0.00000  -0.00682   0.00000
 231       22D+2        0.00000  -0.00000   0.00000   0.00000  -0.00000
 232       22D-2        0.00000   0.00000   0.00000   0.00000   0.00000
 233       23D 0        0.00000   0.00097   0.00000   0.00000   0.03573
 234       23D+1        0.00000   0.00000  -0.03465   0.00000   0.00000
 235       23D-1        0.00845   0.00000   0.00000  -0.03465   0.00000
 236       23D+2        0.00000  -0.00000   0.00000   0.00000  -0.00000
 237       23D-2        0.00000   0.00000   0.00000   0.00000   0.00000
 238       24D 0        0.00000  -0.00014   0.00000   0.00000   0.00030
 239       24D+1        0.00000   0.00000  -0.00034   0.00000   0.00000
 240       24D-1        0.00013   0.00000   0.00000  -0.00034   0.00000
 241       24D+2        0.00000  -0.00000   0.00000   0.00000  -0.00000
 242       24D-2        0.00000   0.00000   0.00000   0.00000   0.00000
 243       25D 0        0.00000   0.00129   0.00000   0.00000   0.02191
 244       25D+1        0.00000   0.00000  -0.05186   0.00000   0.00000
 245       25D-1        0.00240   0.00000   0.00000  -0.05186   0.00000
 246       25D+2        0.00000  -0.00000   0.00000   0.00000  -0.00000
 247       25D-2        0.00000   0.00000   0.00000   0.00000   0.00000
 248       26F 0        0.00000  -0.00071   0.00000   0.00000   0.00578
 249       26F+1        0.00000   0.00000  -0.00471   0.00000   0.00000
 250       26F-1        0.00230   0.00000   0.00000  -0.00471   0.00000
 251       26F+2        0.00000   0.00000   0.00000   0.00000  -0.00000
 252       26F-2        0.00000   0.00000   0.00000   0.00000   0.00000
 253       26F+3        0.00000   0.00000   0.00000   0.00000   0.00000
 254       26F-3       -0.00000   0.00000   0.00000   0.00000   0.00000
 255       27F 0        0.00000   0.00001   0.00000   0.00000   0.00880
 256       27F+1        0.00000   0.00000  -0.00939   0.00000   0.00000
 257       27F-1        0.00130   0.00000   0.00000  -0.00939   0.00000
 258       27F+2        0.00000  -0.00000   0.00000   0.00000  -0.00000
 259       27F-2        0.00000   0.00000   0.00000   0.00000   0.00000
 260       27F+3        0.00000   0.00000  -0.00000   0.00000   0.00000
 261       27F-3        0.00000   0.00000   0.00000  -0.00000   0.00000
                           9        10        11        12        13
                           O         V         V         V         V
     Eigenvalues --    -0.20955   0.00846   0.00846   0.02202   0.02232
   1 1   Sc 1S         -0.00000   0.00000   0.00000   0.00000  -0.00000
   2        2S          0.00000   0.00000   0.00000  -0.00000   0.00000
   3        3S         -0.00000   0.00000   0.00000   0.00000  -0.00000
   4        4S          0.00000   0.00000   0.00000  -0.00000   0.00000
   5        5S         -0.00000   0.00000   0.00000   0.00000  -0.00000
   6        6S          0.00001   0.00000   0.00000  -0.00000   0.00001
   7        7S         -0.00003   0.00000   0.00000   0.00001  -0.00002
   8        8S          0.00010   0.00000   0.00000  -0.00003   0.00006
   9        9S         -0.00030   0.00000   0.00000   0.00008  -0.00019
  10       10S          0.00088   0.00000   0.00000  -0.00022   0.00053
  11       11S         -0.00262   0.00000   0.00000   0.00059  -0.00146
  12       12S          0.01072   0.00000   0.00000  -0.00195   0.00502
  13       13S         -0.04905   0.00000   0.00000   0.00742  -0.01993
  14       14S          0.14870   0.00000   0.00000  -0.02859   0.07347
  15       15S          0.05255   0.00000   0.00000  -0.09576   0.20904
  16       16S         -0.26226   0.00000   0.00000   0.13904  -0.32697
  17       17S         -0.31169   0.00000   0.00000   0.11461  -0.28398
  18       18S          0.18147   0.00000   0.00000   0.10594   0.68244
  19       19S          0.56696   0.00000   0.00000   3.60835  -0.77476
  20       20S          0.30600   0.00000   0.00000  -3.48109   1.94097
  21       21S         -0.08270   0.00000   0.00000   0.07966  -0.17569
  22       22S          0.10218   0.00000   0.00000  -0.17589   0.38786
  23       23S          0.00388   0.00000   0.00000   2.38116  -1.68186
  24       24PX         0.00000  -0.00000   0.00000   0.00000   0.00000
  25       24PY         0.00000   0.00000  -0.00000   0.00000   0.00000
  26       24PZ         0.00000   0.00000   0.00000  -0.00000   0.00000
  27       25PX         0.00000   0.00000   0.00000   0.00000   0.00000
  28       25PY         0.00000   0.00000   0.00000   0.00000   0.00000
  29       25PZ        -0.00000   0.00000   0.00000   0.00000  -0.00000
  30       26PX         0.00000  -0.00000   0.00000   0.00000   0.00000
  31       26PY         0.00000   0.00000  -0.00000   0.00000   0.00000
  32       26PZ         0.00000   0.00000   0.00000  -0.00000   0.00001
  33       27PX         0.00000   0.00000   0.00000   0.00000   0.00000
  34       27PY         0.00000   0.00000   0.00000   0.00000   0.00000
  35       27PZ        -0.00002   0.00000   0.00000   0.00001  -0.00003
  36       28PX         0.00000  -0.00001   0.00000   0.00000   0.00000
  37       28PY         0.00000   0.00000  -0.00001   0.00000   0.00000
  38       28PZ         0.00007   0.00000   0.00000  -0.00004   0.00009
  39       29PX         0.00000   0.00003   0.00000   0.00000   0.00000
  40       29PY         0.00000   0.00000   0.00003   0.00000   0.00000
  41       29PZ        -0.00025   0.00000   0.00000   0.00012  -0.00030
  42       30PX         0.00000  -0.00004   0.00000   0.00000   0.00000
  43       30PY         0.00000   0.00000  -0.00004   0.00000   0.00000
  44       30PZ         0.00078   0.00000   0.00000  -0.00038   0.00088
  45       31PX         0.00000  -0.00000   0.00000   0.00000   0.00000
  46       31PY         0.00000   0.00000  -0.00000   0.00000   0.00000
  47       31PZ        -0.00243   0.00000   0.00000   0.00116  -0.00254
  48       32PX         0.00000  -0.00152   0.00000   0.00000   0.00000
  49       32PY         0.00000   0.00000  -0.00152   0.00000   0.00000
  50       32PZ         0.00536   0.00000   0.00000  -0.00310   0.00829
  51       33PX         0.00000   0.10803   0.00000   0.00000   0.00000
  52       33PY         0.00000   0.00000   0.10803   0.00000   0.00000
  53       33PZ         0.01624   0.00000   0.00000   0.03047  -0.17405
  54       34PX         0.00000  -0.02073   0.00000   0.00000   0.00000
  55       34PY         0.00000   0.00000  -0.02073   0.00000   0.00000
  56       34PZ        -0.03730   0.00000   0.00000   0.01335  -0.00597
  57       35PX         0.00000   0.17565   0.00000   0.00000   0.00000
  58       35PY         0.00000   0.00000   0.17565   0.00000   0.00000
  59       35PZ        -0.02204   0.00000   0.00000   0.05498  -0.29679
  60       36PX         0.00000   0.00909   0.00000   0.00000   0.00000
  61       36PY         0.00000   0.00000   0.00909   0.00000   0.00000
  62       36PZ        -0.06585   0.00000   0.00000   0.03251  -0.09632
  63       37PX         0.00000  -0.07362   0.00000   0.00000   0.00000
  64       37PY         0.00000   0.00000  -0.07362   0.00000   0.00000
  65       37PZ         0.04676   0.00000   0.00000  -0.09807   0.04003
  66       38PX         0.00000   0.16823   0.00000   0.00000   0.00000
  67       38PY         0.00000   0.00000   0.16823   0.00000   0.00000
  68       38PZ         0.26851   0.00000   0.00000  -1.12113  -0.24493
  69       39PX         0.00000  -0.23771   0.00000   0.00000   0.00000
  70       39PY         0.00000   0.00000  -0.23771   0.00000   0.00000
  71       39PZ         0.10668   0.00000   0.00000   0.85054   0.68390
  72       40PX         0.00000  -0.10748   0.00000   0.00000   0.00000
  73       40PY         0.00000   0.00000  -0.10748   0.00000   0.00000
  74       40PZ        -0.01384   0.00000   0.00000  -0.03210   0.17636
  75       41PX         0.00000  -0.22707   0.00000   0.00000   0.00000
  76       41PY         0.00000   0.00000  -0.22707   0.00000   0.00000
  77       41PZ        -0.02384   0.00000   0.00000  -0.04834   0.33974
  78       42PX         0.00000   1.03282   0.00000   0.00000   0.00000
  79       42PY         0.00000   0.00000   1.03282   0.00000   0.00000
  80       42PZ        -0.00039   0.00000   0.00000  -0.86096  -1.15228
  81       43D 0        0.00010   0.00000   0.00000  -0.00004   0.00002
  82       43D+1        0.00000  -0.00006   0.00000   0.00000   0.00000
  83       43D-1        0.00000   0.00000  -0.00006   0.00000   0.00000
  84       43D+2        0.00000   0.00000   0.00000   0.00000  -0.00000
  85       43D-2        0.00000   0.00000   0.00000   0.00000   0.00000
  86       44D 0       -0.00069   0.00000   0.00000   0.00028  -0.00015
  87       44D+1        0.00000   0.00041   0.00000   0.00000   0.00000
  88       44D-1        0.00000   0.00000   0.00041   0.00000   0.00000
  89       44D+2       -0.00000   0.00000   0.00000  -0.00000   0.00000
  90       44D-2        0.00000   0.00000   0.00000   0.00000   0.00000
  91       45D 0       -0.01277   0.00000   0.00000   0.00314  -0.00289
  92       45D+1        0.00000   0.00778   0.00000   0.00000   0.00000
  93       45D-1        0.00000   0.00000   0.00778   0.00000   0.00000
  94       45D+2       -0.00000   0.00000   0.00000  -0.00000   0.00000
  95       45D-2        0.00000   0.00000   0.00000   0.00000   0.00000
  96       46D 0        0.00835   0.00000   0.00000   0.01613   0.00530
[...]
  44       30PZ        -0.00098  -0.00049  -0.00049  -0.00000
  45       31PX         0.00716   0.00358   0.00358   0.00000
  46       31PY         0.00716   0.00358   0.00358   0.00000
  47       31PZ         0.00700   0.00352   0.00348   0.00003
  48       32PX        -0.03111  -0.01555  -0.01555  -0.00000
  49       32PY        -0.03111  -0.01555  -0.01555  -0.00000
  50       32PZ        -0.02997  -0.01506  -0.01491  -0.00016
  51       33PX        -0.22496  -0.11248  -0.11248  -0.00000
  52       33PY        -0.22496  -0.11248  -0.11248  -0.00000
  53       33PZ        -0.28266  -0.14174  -0.14092  -0.00082
  54       34PX         0.61631   0.30816   0.30816   0.00000
  55       34PY         0.61631   0.30816   0.30816   0.00000
  56       34PZ         0.60325   0.30282   0.30043   0.00239
  57       35PX        -0.16244  -0.08122  -0.08122  -0.00000
  58       35PY        -0.16244  -0.08122  -0.08122  -0.00000
  59       35PZ        -0.18184  -0.09051  -0.09133   0.00082
  60       36PX         0.46079   0.23039   0.23039   0.00000
  61       36PY         0.46079   0.23039   0.23039   0.00000
  62       36PZ         0.36664   0.18113   0.18551  -0.00438
  63       37PX         0.03082   0.01541   0.01541   0.00000
  64       37PY         0.03082   0.01541   0.01541  -0.00000
  65       37PZ         0.04161   0.02739   0.01421   0.01318
  66       38PX        -0.01661  -0.00830  -0.00830  -0.00000
  67       38PY        -0.01661  -0.00830  -0.00830  -0.00000
  68       38PZ         0.08989   0.09939  -0.00949   0.10888
  69       39PX        -0.00426  -0.00213  -0.00213   0.00000
  70       39PY        -0.00426  -0.00213  -0.00213  -0.00000
  71       39PZ         0.03273   0.03534  -0.00261   0.03795
  72       40PX         0.18780   0.09390   0.09390   0.00000
  73       40PY         0.18780   0.09390   0.09390   0.00000
  74       40PZ         0.25092   0.12582   0.12510   0.00072
  75       41PX         1.09345   0.54673   0.54673   0.00000
  76       41PY         1.09345   0.54673   0.54673   0.00000
  77       41PZ         1.10889   0.55483   0.55406   0.00078
  78       42PX         0.00040   0.00020   0.00020   0.00000
  79       42PY         0.00040   0.00020   0.00020   0.00000
  80       42PZ         0.00032   0.00012   0.00020  -0.00008
  81       43D 0       -0.00002  -0.00001  -0.00001  -0.00000
  82       43D+1       -0.00001  -0.00000  -0.00000  -0.00000
  83       43D-1       -0.00001  -0.00000  -0.00000  -0.00000
  84       43D+2        0.00000   0.00000  -0.00000   0.00000
  85       43D-2       -0.00000   0.00000  -0.00000   0.00000
  86       44D 0        0.00087   0.00044   0.00043   0.00001
  87       44D+1        0.00018   0.00009   0.00009   0.00000
  88       44D-1        0.00018   0.00009   0.00009   0.00000
  89       44D+2        0.00000   0.00000  -0.00000   0.00000
  90       44D-2        0.00000   0.00000  -0.00000   0.00000
  91       45D 0        0.04147   0.02099   0.02048   0.00051
  92       45D+1        0.00928   0.00464   0.00464   0.00000
  93       45D-1        0.00928   0.00464   0.00464   0.00000
  94       45D+2        0.00000  -0.00000   0.00000  -0.00000
  95       45D-2        0.00000   0.00000   0.00000   0.00000
  96       46D 0       -0.04479  -0.02269  -0.02210  -0.00059
  97       46D+1       -0.03164  -0.01582  -0.01582   0.00000
  98       46D-1       -0.03164  -0.01582  -0.01582  -0.00000
  99       46D+2       -0.00000  -0.00000  -0.00000  -0.00000
 100       46D-2       -0.00000  -0.00000   0.00000  -0.00000
 101       47D 0        0.15453   0.07807   0.07646   0.00162
 102       47D+1       -0.81825  -0.40912  -0.40912  -0.00000
 103       47D-1       -0.81825  -0.40912  -0.40912  -0.00000
 104       47D+2       -0.00000  -0.00000   0.00000  -0.00000
 105       47D-2       -0.00000  -0.00000   0.00000  -0.00000
 106       48D 0        0.22273   0.11461   0.10812   0.00650
 107       48D+1        0.07881   0.03940   0.03940   0.00000
 108       48D-1        0.07881   0.03940   0.03940  -0.00000
 109       48D+2        0.00000   0.00000  -0.00000   0.00000
 110       48D-2       -0.00000   0.00000  -0.00000   0.00000
 111       49D 0        0.00349   0.00543  -0.00194   0.00737
 112       49D+1       -0.00570  -0.00285  -0.00285  -0.00000
 113       49D-1       -0.00570  -0.00285  -0.00285  -0.00000
 114       49D+2       -0.00000  -0.00000   0.00000  -0.00000
 115       49D-2       -0.00000  -0.00000  -0.00000  -0.00000
 116       50D 0       -0.00100  -0.00025  -0.00075   0.00050
 117       50D+1       -0.00487  -0.00243  -0.00243   0.00000
 118       50D-1       -0.00487  -0.00243  -0.00243  -0.00000
 119       50D+2        0.00000   0.00000  -0.00000   0.00000
 120       50D-2        0.00000   0.00000  -0.00000   0.00000
 121       51D 0        0.19047   0.09640   0.09407   0.00233
 122       51D+1        0.07140   0.03570   0.03570  -0.00000
 123       51D-1        0.07140   0.03570   0.03570   0.00000
 124       51D+2       -0.00000  -0.00000   0.00000  -0.00000
 125       51D-2       -0.00000  -0.00000  -0.00000  -0.00000
 126       52D 0        0.12626   0.06385   0.06241   0.00145
 127       52D+1        0.90743   0.45372   0.45372   0.00000
 128       52D-1        0.90743   0.45372   0.45372   0.00000
 129       52D+2        0.00000   0.00000  -0.00000   0.00000
 130       52D-2        0.00000   0.00000  -0.00000   0.00000
 131       53D 0       -0.00002  -0.00002   0.00000  -0.00003
 132       53D+1       -0.00000  -0.00000  -0.00000   0.00000
 133       53D-1       -0.00000  -0.00000  -0.00000  -0.00000
 134       53D+2        0.00000   0.00000   0.00000   0.00000
 135       53D-2        0.00000   0.00000   0.00000   0.00000
 136       54F 0        0.00174   0.00087   0.00087   0.00000
 137       54F+1        0.00067   0.00034   0.00034   0.00000
 138       54F-1        0.00067   0.00034   0.00034   0.00000
 139       54F+2       -0.00000  -0.00000   0.00000  -0.00000
 140       54F-2       -0.00000  -0.00000   0.00000  -0.00000
 141       54F+3       -0.00000  -0.00000  -0.00000   0.00000
 142       54F-3        0.00000   0.00000   0.00000  -0.00000
 143       55F 0        0.01116   0.00558   0.00558   0.00000
 144       55F+1        0.01171   0.00586   0.00586   0.00000
 145       55F-1        0.01171   0.00586   0.00586   0.00000
 146       55F+2        0.00000   0.00000   0.00000  -0.00000
 147       55F-2       -0.00000   0.00000  -0.00000   0.00000
 148       55F+3        0.00000   0.00000  -0.00000   0.00000
 149       55F-3       -0.00000  -0.00000  -0.00000   0.00000
 150       56F 0       -0.00730  -0.00378  -0.00352  -0.00025
 151       56F+1       -0.00932  -0.00466  -0.00466   0.00000
 152       56F-1       -0.00932  -0.00466  -0.00466  -0.00000
 153       56F+2       -0.00000  -0.00000   0.00000  -0.00000
 154       56F-2       -0.00000  -0.00000  -0.00000  -0.00000
 155       56F+3        0.00000   0.00000   0.00000  -0.00000
 156       56F-3       -0.00000  -0.00000  -0.00000   0.00000
 157       57F 0       -0.00159  -0.00081  -0.00077  -0.00004
 158       57F+1       -0.00161  -0.00081  -0.00081  -0.00000
 159       57F-1       -0.00161  -0.00081  -0.00081  -0.00000
 160       57F+2        0.00000   0.00000  -0.00000   0.00000
 161       57F-2        0.00000   0.00000  -0.00000   0.00000
 162       57F+3       -0.00000  -0.00000  -0.00000   0.00000
 163       57F-3        0.00000   0.00000   0.00000   0.00000
 164       58G 0        0.00035   0.00017   0.00017  -0.00000
 165       58G+1        0.00022   0.00011   0.00011   0.00000
 166       58G-1        0.00022   0.00011   0.00011   0.00000
 167       58G+2        0.00000   0.00000   0.00000   0.00000
 168       58G-2        0.00000   0.00000   0.00000  -0.00000
 169       58G+3        0.00000   0.00000   0.00000  -0.00000
 170       58G-3       -0.00000  -0.00000  -0.00000  -0.00000
 171       58G+4        0.00000   0.00000   0.00000   0.00000
 172       58G-4        0.00000   0.00000   0.00000   0.00000
 173       59G 0        0.00017   0.00008   0.00009  -0.00001
 174       59G+1        0.00058   0.00029   0.00029   0.00000
 175       59G-1        0.00058   0.00029   0.00029   0.00000
 176       59G+2        0.00000   0.00000   0.00000   0.00000
 177       59G-2        0.00000   0.00000  -0.00000   0.00000
 178       59G+3        0.00000   0.00000   0.00000   0.00000
 179       59G-3       -0.00000   0.00000  -0.00000   0.00000
 180       59G+4        0.00000   0.00000  -0.00000   0.00000
 181       59G-4        0.00000   0.00000  -0.00000   0.00000
 182       60G 0       -0.00180  -0.00090  -0.00090  -0.00000
 183       60G+1       -0.00201  -0.00101  -0.00101  -0.00000
 184       60G-1       -0.00201  -0.00101  -0.00101  -0.00000
 185       60G+2        0.00000   0.00000  -0.00000   0.00000
 186       60G-2        0.00000   0.00000  -0.00000   0.00000
 187       60G+3       -0.00000  -0.00000  -0.00000  -0.00000
 188       60G-3       -0.00000  -0.00000  -0.00000   0.00000
 189       60G+4       -0.00000  -0.00000  -0.00000   0.00000
 190       60G-4       -0.00000  -0.00000  -0.00000   0.00000
 191 2   O  1S         -0.00000  -0.00000  -0.00000  -0.00000
 192        2S          0.00000   0.00000   0.00000   0.00000
 193        3S         -0.00000  -0.00000  -0.00000  -0.00000
 194        4S          0.00001   0.00000   0.00000   0.00000
 195        5S         -0.00023  -0.00012  -0.00012  -0.00000
 196        6S         -0.01073  -0.00538  -0.00535  -0.00003
 197        7S         -0.09949  -0.04987  -0.04962  -0.00024
 198        8S          1.08135   0.54139   0.53996   0.00142
 199        9S          0.22311   0.11180   0.11131   0.00048
 200       10S          0.78418   0.39012   0.39406  -0.00394
 201       11S         -0.00345  -0.00172  -0.00173   0.00002
 202       12S          0.00817   0.00410   0.00408   0.00002
 203       13S          0.13209   0.06598   0.06611  -0.00014
 204       14PX         0.00177   0.00088   0.00088   0.00000
 205       14PY         0.00177   0.00088   0.00088   0.00000
 206       14PZ         0.00177   0.00089   0.00088   0.00000
 207       15PX         0.05964   0.02982   0.02982   0.00000
 208       15PY         0.05964   0.02982   0.02982   0.00000
 209       15PZ         0.06060   0.03034   0.03026   0.00007
 210       16PX         0.35446   0.17723   0.17723   0.00000
 211       16PY         0.35446   0.17723   0.17723   0.00000
 212       16PZ         0.36106   0.18075   0.18031   0.00045
 213       17PX         0.74640   0.37320   0.37320   0.00000
 214       17PY         0.74640   0.37320   0.37320   0.00000
 215       17PZ         0.71045   0.35572   0.35473   0.00099
 216       18PX         0.59436   0.29718   0.29718   0.00000
 217       18PY         0.59436   0.29718   0.29718   0.00000
 218       18PZ         0.29729   0.14928   0.14801   0.00127
 219       19PX         0.00207   0.00103   0.00103   0.00000
 220       19PY         0.00207   0.00103   0.00103   0.00000
 221       19PZ         0.00228   0.00114   0.00114   0.00000
 222       20PX        -0.00028  -0.00014  -0.00014  -0.00000
 223       20PY        -0.00028  -0.00014  -0.00014  -0.00000
 224       20PZ        -0.00028  -0.00014  -0.00014  -0.00000
 225       21PX         0.06106   0.03053   0.03053   0.00000
 226       21PY         0.06106   0.03053   0.03053   0.00000
 227       21PZ         0.04164   0.02484   0.01679   0.00805
 228       22D 0        0.00206   0.00104   0.00102   0.00002
 229       22D+1        0.00081   0.00041   0.00041  -0.00000
 230       22D-1        0.00081   0.00041   0.00041  -0.00000
 231       22D+2       -0.00000   0.00000  -0.00000   0.00000
 232       22D-2       -0.00000   0.00000  -0.00000   0.00000
 233       23D 0        0.01405   0.00723   0.00682   0.00042
 234       23D+1        0.01054   0.00527   0.00527   0.00000
 235       23D-1        0.01054   0.00527   0.00527   0.00000
 236       23D+2       -0.00000  -0.00000  -0.00000   0.00000
 237       23D-2        0.00000   0.00000  -0.00000   0.00000
 238       24D 0        0.00001   0.00000   0.00000   0.00000
 239       24D+1        0.00000   0.00000   0.00000   0.00000
 240       24D-1        0.00000   0.00000   0.00000   0.00000
 241       24D+2       -0.00000  -0.00000   0.00000  -0.00000
 242       24D-2       -0.00000  -0.00000  -0.00000  -0.00000
 243       25D 0       -0.00029   0.00001  -0.00031   0.00032
 244       25D+1        0.00420   0.00210   0.00210   0.00000
 245       25D-1        0.00420   0.00210   0.00210  -0.00000
 246       25D+2        0.00000  -0.00000   0.00000  -0.00000
 247       25D-2        0.00000   0.00000  -0.00000   0.00000
 248       26F 0        0.00152   0.00077   0.00075   0.00002
 249       26F+1        0.00064   0.00032   0.00032  -0.00000
 250       26F-1        0.00064   0.00032   0.00032   0.00000
 251       26F+2        0.00000  -0.00000   0.00000  -0.00000
 252       26F-2       -0.00000  -0.00000   0.00000  -0.00000
 253       26F+3       -0.00000  -0.00000  -0.00000  -0.00000
 254       26F-3       -0.00000  -0.00000  -0.00000   0.00000
 255       27F 0        0.00122   0.00070   0.00052   0.00018
 256       27F+1        0.00101   0.00051   0.00051  -0.00000
 257       27F-1        0.00101   0.00051   0.00051   0.00000
 258       27F+2       -0.00000  -0.00000   0.00000  -0.00000
 259       27F-2       -0.00000  -0.00000  -0.00000  -0.00000
 260       27F+3       -0.00000  -0.00000  -0.00000   0.00000
 261       27F-3        0.00000   0.00000   0.00000   0.00000
          Condensed to atoms (all electrons):
               1          2
     1  Sc  10.189452  -0.471174
     2  O   -0.471174   7.752896
          Atomic-Atomic Spin Densities.
               1          2
     1  Sc   0.992996  -0.002383
     2  O   -0.002383   0.011771
 Mulliken charges and spin densities:
               1          2
     1  Sc   1.281722   0.990613
     2  O   -1.281722   0.009387
 Sum of Mulliken charges =  -0.00000   1.00000
 Mulliken charges and spin densities with hydrogens summed into heavy atoms:
               1          2
     1  Sc   1.281722   0.990613
     2  O   -1.281722   0.009387
 Electronic spatial extent (au):  <R**2>=             83.6929
 Charge=             -0.0000 electrons
 Dipole moment (field-independent basis, Debye):
    X=              0.0000    Y=              0.0000    Z=              1.4913  Tot=              1.4913
 Quadrupole moment (field-independent basis, Debye-Ang):
   XX=            -22.3734   YY=            -22.3734   ZZ=            -30.3227
   XY=              0.0000   XZ=              0.0000   YZ=              0.0000
 Traceless Quadrupole moment (field-independent basis, Debye-Ang):
   XX=              2.6498   YY=              2.6498   ZZ=             -5.2995
   XY=              0.0000   XZ=              0.0000   YZ=              0.0000
 Octapole moment (field-independent basis, Debye-Ang**2):
  XXX=              0.0000  YYY=              0.0000  ZZZ=            -18.1911  XYY=              0.0000
  XXY=              0.0000  XXZ=             -5.9045  XZZ=              0.0000  YZZ=              0.0000
  YYZ=             -5.9045  XYZ=              0.0000
 Hexadecapole moment (field-independent basis, Debye-Ang**3):
 XXXX=            -57.7645 YYYY=            -57.7645 ZZZZ=           -154.3823 XXXY=              0.0000
 XXXZ=              0.0000 YYYX=              0.0000 YYYZ=              0.0000 ZZZX=              0.0000
 ZZZY=              0.0000 XXYY=            -19.2548 XXZZ=            -35.1740 YYZZ=            -35.1740
 XXYZ=              0.0000 YYXZ=              0.0000 ZZXY=              0.0000
 N-N= 2.494692565766D+01 E-N=-1.844863937278D+02  KE= 3.123249400413D+01
 Symmetry A1   KE= 1.439532580070D+01
 Symmetry A2   KE= 5.476877216176D-50
 Symmetry B1   KE= 8.418584102110D+00
 Symmetry B2   KE= 8.418584101847D+00
 Symmetry A1   SP= 1.000000000000D+00
 Symmetry A2   SP= 6.921412276892D-50
 Symmetry B1   SP= 4.157932173128D-16
 Symmetry B2   SP=-7.064769449368D-16
 Orbital energies and kinetic energies (alpha):
                                 1                 2
   4         O                -1.553934          2.029515
   5         O                -1.094226          1.478103
   6         O                -0.526157          2.179777
   7         O                -0.526157          2.179777
   8         O                -0.462057          2.825822
   9         O                -0.209552          0.249055
  10         V                 0.008455          0.054129
  11         V                 0.008455          0.054129
  12         V                 0.022024          0.031367
  13         V                 0.022322          0.042770
  14         V                 0.037487          0.045398
 Total kinetic energy from orbitals= 3.148154873531D+01
                          Isotropic Fermi Contact Couplings
        Atom                 a.u.       MegaHertz       Gauss      10(-4) cm-1
     1  Sc(45)             0.00116       1.26226       0.45040       0.42104
     2  O(17)              0.00006      -0.03348      -0.01195      -0.01117
 --------------------------------------------------------
       Center         ----  Spin Dipole Couplings  ----
                      3XX-RR        3YY-RR        3ZZ-RR
 --------------------------------------------------------
     1   Atom       -0.029104     -0.029104      0.058207
     2   Atom       -0.006999     -0.006999      0.013999
 --------------------------------------------------------
                        XY            XZ            YZ
 --------------------------------------------------------
     1   Atom        0.000000      0.000000      0.000000
     2   Atom        0.000000      0.000000      0.000000
 --------------------------------------------------------


 ---------------------------------------------------------------------------------
              Anisotropic Spin Dipole Couplings in Principal Axis System
 ---------------------------------------------------------------------------------

       Atom             a.u.   MegaHertz   Gauss  10(-4) cm-1        Axes

              Baa    -0.0291    -3.778    -1.348    -1.260 -0.0000  1.0000  0.0000
     1 Sc(45) Bbb    -0.0291    -3.778    -1.348    -1.260  1.0000  0.0000  0.0000
              Bcc     0.0582     7.556     2.696     2.520  0.0000  0.0000  1.0000
 
              Baa    -0.0070     0.506     0.181     0.169 -0.0000  1.0000  0.0000
     2 O(17)  Bbb    -0.0070     0.506     0.181     0.169  1.0000  0.0000  0.0000
              Bcc     0.0140    -1.013    -0.361    -0.338  0.0000  0.0000  1.0000
 

 ---------------------------------------------------------------------------------

 No NMR shielding tensors so no spin-rotation constants.
 Leave Link  601 at Tue Feb 20 23:52:32 2018, MaxMem= 10737418240 cpu:             107.3 elap:               3.5
 (Enter /home1/apps/gaussian/16rA.03/g16/l9999.exe)

 Test job not archived.
 1\1\GINC-C426-042\SP\ROCCSD(T)-Full\Gen\O1Sc1(2)\AANNABE\20-Feb-2018\0
 \\#P ROCCSD(T)=(maxcyc=150, Full, SaveAmplitudes, ReadAmplitudes)/Gen 
 5d 7f SCF=(maxcycles=300) Integral(NoXCTest) MaxDisk=500GB Pop=Regular
  Pseudo=Read Guess=Read IOp(5/15=2)\\ScO\\0,2\Sc,0,0.,0.,0.\O,0,0.,0.,
 1.4\\Version=ES64L-G16RevA.03\State=2-SG\HF=-61.7969833\MP2=-62.467160
 4\MP3=-62.4540645\PUHF=-61.7969833\PMP2-0=-62.4671604\MP4SDQ=-62.46970
 31\CCSD=-62.461768\CCSD(T)=-62.494051\RMSD=7.633e-09\PG=C*V [C*(O1Sc1)
 ]\\@


 IT WAS AN ACT OF DESPARATION. FOR SIX YEARS I HAD STRUGGLED WITH THE
 BLACKBODY THEORY. I KNEW THE PROBLEM WAS FUNDAMENTAL, AND I KNEW
 THE ANSWER. I HAD TO FIND A THEORETICAL EXPLANATION AT ANY COST,
 EXCEPT FOR THE INVIOLABLITY OF THE TWO LAWS OF THERMODYNAMICS.
   -- MAX PLANCK, 1931
 Job cpu time:       0 days  9 hours 14 minutes 12.9 seconds.
 Elapsed time:       0 days  0 hours 17 minutes 24.1 seconds.
 File lengths (MBytes):  RWF=   3487 Int=      0 D2E=      0 Chk=     21 Scr=      1
 Normal termination of Gaussian 16 at Tue Feb 20 23:52:32 2018.
