 Entering Gaussian System, Link 0=g16
 Initial command:
 /home1/apps/gaussian/16rA.03/g16/l1.exe "/tmp/Gau-451952.inp" -scrdir="/tmp/"
 Entering Link 1 = /home1/apps/gaussian/16rA.03/g16/l1.exe PID=    451953.
  
 Copyright (c) 1988,1990,1992,1993,1995,1998,2003,2009,2016,
            Gaussian, Inc.  All Rights Reserved.
  
 This is part of the Gaussian(R) 16 program.  It is based on
 the Gaussian(R) 09 system (copyright 2009, Gaussian, Inc.),
 the Gaussian(R) 03 system (copyright 2003, Gaussian, Inc.),
 the Gaussian(R) 98 system (copyright 1998, Gaussian, Inc.),
 the Gaussian(R) 94 system (copyright 1995, Gaussian, Inc.),
 the Gaussian 92(TM) system (copyright 1992, Gaussian, Inc.),
 the Gaussian 90(TM) system (copyright 1990, Gaussian, Inc.),
 the Gaussian 88(TM) system (copyright 1988, Gaussian, Inc.),
 the Gaussian 86(TM) system (copyright 1986, Carnegie Mellon
 University), and the Gaussian 82(TM) system (copyright 1983,
 Carnegie Mellon University). Gaussian is a federally registered
 trademark of Gaussian, Inc.
  
 This software contains proprietary and confidential information,
 including trade secrets, belonging to Gaussian, Inc.
  
 This software is provided under written license and may be
 used, copied, transmitted, or stored only in accord with that
 written license.
  
 The following legend is applicable only to US Government
 contracts under FAR:
  
                    RESTRICTED RIGHTS LEGEND
  
 Use, reproduction and disclosure by the US Government is
 subject to restrictions as set forth in subparagraphs (a)
 and (c) of the Commercial Computer Software - Restricted
 Rights clause in FAR 52.227-19.
  
 Gaussian, Inc.
 340 Quinnipiac St., Bldg. 40, Wallingford CT 06492
  
  
 ---------------------------------------------------------------
 Warning -- This program may not be used in any manner that
 competes with the business of Gaussian, Inc. or will provide
 assistance to any competitor of Gaussian, Inc.  The licensee
 of this program is prohibited from giving any competitor of
 Gaussian, Inc. access to this program.  By using this program,
 the user acknowledges that Gaussian, Inc. is engaged in the
 business of creating and licensing software in the field of
 computational chemistry and represents and warrants to the
 licensee that it is not a competitor of Gaussian, Inc. and that
 it will not use this program in any manner prohibited above.
 ---------------------------------------------------------------
  

 Cite this work as:
 Gaussian 16, Revision A.03,
 M. J. Frisch, G. W. Trucks, H. B. Schlegel, G. E. Scuseria, 
 M. A. Robb, J. R. Cheeseman, G. Scalmani, V. Barone, 
 G. A. Petersson, H. Nakatsuji, X. Li, M. Caricato, A. V. Marenich, 
 J. Bloino, B. G. Janesko, R. Gomperts, B. Mennucci, H. P. Hratchian, 
 J. V. Ortiz, A. F. Izmaylov, J. L. Sonnenberg, D. Williams-Young, 
 F. Ding, F. Lipparini, F. Egidi, J. Goings, B. Peng, A. Petrone, 
 T. Henderson, D. Ranasinghe, V. G. Zakrzewski, J. Gao, N. Rega, 
 G. Zheng, W. Liang, M. Hada, M. Ehara, K. Toyota, R. Fukuda, 
 J. Hasegawa, M. Ishida, T. Nakajima, Y. Honda, O. Kitao, H. Nakai, 
 T. Vreven, K. Throssell, J. A. Montgomery, Jr., J. E. Peralta, 
 F. Ogliaro, M. J. Bearpark, J. J. Heyd, E. N. Brothers, K. N. Kudin, 
 V. N. Staroverov, T. A. Keith, R. Kobayashi, J. Normand, 
 K. Raghavachari, A. P. Rendell, J. C. Burant, S. S. Iyengar, 
 J. Tomasi, M. Cossi, J. M. Millam, M. Klene, C. Adamo, R. Cammi, 
 J. W. Ochterski, R. L. Martin, K. Morokuma, O. Farkas, 
 J. B. Foresman, and D. J. Fox, Gaussian, Inc., Wallingford CT, 2016.
 
 ******************************************
 Gaussian 16:  ES64L-G16RevA.03 25-Dec-2016
                 4-Apr-2018 
 ******************************************
 %MEM=160GB
 %CPU=0-31
 SetSPE:  set environment variable "MP_BIND" = "yes"
 SetSPE:  set environment variable "MP_BLIST" = "0,1,2,3,4,5,6,7,8,9,10,11,12,13,14,15,16,17,18,19,20,21,22,23,24,25,26,27,28,29,30,31"
 Will use up to   32 processors via shared memory.
 %RWF=/scratch/04843/aannabe/gaussian/
 %Int=/scratch/04843/aannabe/gaussian/
 %D2E=/scratch/04843/aannabe/gaussian/
 %NoSave
 %CHK=Mn
 ----------------------------------------------------------------------
 #P ROCCSD(T)=(maxcyc=150, Full)/Gen 5d 7f SCF=(maxcycles=300, NoVarAcc
 , VShift=200) MaxDisk=100GB Pop=Regular Pseudo=Read Guess=Read IOp(5/1
 5=2)
 ----------------------------------------------------------------------
 1/38=1,172=1/1;
 2/12=2,17=6,18=5,40=1/2;
 3/5=7,8=11,11=2,16=1,17=8,25=1,30=1,116=101/1,2,3;
 4/5=1/1;
 5/5=2,7=300,10=200,15=2,38=6/2;
 8/5=-1,6=4,9=120000,10=90/1,4;
 9/5=7,6=150,14=2/13;
 6//1;
 99/5=1,9=1/99;
 Leave Link    1 at Wed Apr  4 07:36:50 2018, MaxMem= 21474836480 cpu:               1.9 elap:               0.1
 (Enter /home1/apps/gaussian/16rA.03/g16/l101.exe)
 --
 Mn
 --
 Symbolic Z-matrix:
 Charge =  0 Multiplicity = 6
 Mn                    0.        0.        0. 
 
 ITRead=  0
 MicOpt= -1
 NAtoms=      1 NQM=        1 NQMF=       0 NMMI=      0 NMMIF=      0
                NMic=       0 NMicF=      0.
                    Isotopes and Nuclear Properties:
 (Nuclear quadrupole moments (NQMom) in fm**2, nuclear magnetic moments (NMagM)
  in nuclear magnetons)

  Atom         1
 IAtWgt=          55
 AtmWgt=  54.9380463
 NucSpn=           5
 AtZEff=  -0.0000000
 NQMom=   33.0000000
 NMagM=    3.4532000
 AtZNuc=  25.0000000
 Leave Link  101 at Wed Apr  4 07:36:50 2018, MaxMem= 21474836480 cpu:               2.8 elap:               0.1
 (Enter /home1/apps/gaussian/16rA.03/g16/l202.exe)
                          Input orientation:                          
 ---------------------------------------------------------------------
 Center     Atomic      Atomic             Coordinates (Angstroms)
 Number     Number       Type             X           Y           Z
 ---------------------------------------------------------------------
      1         25           0        0.000000    0.000000    0.000000
 ---------------------------------------------------------------------
 Stoichiometry    Mn(6)
 Framework group  OH[O(Mn)]
 Deg. of freedom     0
 Full point group                 OH      NOp  48
 Largest Abelian subgroup         D2H     NOp   8
 Largest concise Abelian subgroup C1      NOp   1
                         Standard orientation:                         
 ---------------------------------------------------------------------
 Center     Atomic      Atomic             Coordinates (Angstroms)
 Number     Number       Type             X           Y           Z
 ---------------------------------------------------------------------
      1         25           0        0.000000    0.000000    0.000000
 ---------------------------------------------------------------------
 Leave Link  202 at Wed Apr  4 07:36:50 2018, MaxMem= 21474836480 cpu:               1.1 elap:               0.1
 (Enter /home1/apps/gaussian/16rA.03/g16/l301.exe)
 General basis read from cards:  (5D, 7F)
 Centers:       1
 S 1 1.00
     Exponent=  1.0772300000D+04 Coefficients=  1.0000000000D+00
 S 1 1.00
     Exponent=  4.8955400000D+03 Coefficients=  1.0000000000D+00
 S 1 1.00
     Exponent=  2.3065600000D+03 Coefficients=  1.0000000000D+00
 S 1 1.00
     Exponent=  1.1195600000D+03 Coefficients=  1.0000000000D+00
 S 1 1.00
     Exponent=  5.5738100000D+02 Coefficients=  1.0000000000D+00
 S 1 1.00
     Exponent=  2.8377800000D+02 Coefficients=  1.0000000000D+00
 S 1 1.00
     Exponent=  1.4743600000D+02 Coefficients=  1.0000000000D+00
 S 1 1.00
     Exponent=  7.8022700000D+01 Coefficients=  1.0000000000D+00
 S 1 1.00
     Exponent=  4.1967900000D+01 Coefficients=  1.0000000000D+00
 S 1 1.00
     Exponent=  2.2877800000D+01 Coefficients=  1.0000000000D+00
 S 1 1.00
     Exponent=  1.2584500000D+01 Coefficients=  1.0000000000D+00
 S 1 1.00
     Exponent=  6.9417000000D+00 Coefficients=  1.0000000000D+00
 S 1 1.00
     Exponent=  3.8062900000D+00 Coefficients=  1.0000000000D+00
 S 1 1.00
     Exponent=  2.0503100000D+00 Coefficients=  1.0000000000D+00
 S 1 1.00
     Exponent=  1.0683800000D+00 Coefficients=  1.0000000000D+00
 S 1 1.00
     Exponent=  5.3660600000D-01 Coefficients=  1.0000000000D+00
 S 1 1.00
     Exponent=  1.8326000000D-01 Coefficients=  1.0000000000D+00
 S 1 1.00
     Exponent=  1.0529700000D-01 Coefficients=  1.0000000000D+00
 S 1 1.00
     Exponent=  5.1464000000D-02 Coefficients=  1.0000000000D+00
 S 1 1.00
     Exponent=  2.4678000000D-02 Coefficients=  1.0000000000D+00
 S 1 1.00
     Exponent=  5.8340000000D+00 Coefficients=  1.0000000000D+00
 S 1 1.00
     Exponent=  1.9879000000D+00 Coefficients=  1.0000000000D+00
 S 1 1.00
     Exponent=  1.1830000000D-02 Coefficients=  1.0000000000D+00
 P 1 1.00
     Exponent=  6.1141000000D+03 Coefficients=  1.0000000000D+00
 P 1 1.00
     Exponent=  2.3162600000D+03 Coefficients=  1.0000000000D+00
 P 1 1.00
     Exponent=  9.8969000000D+02 Coefficients=  1.0000000000D+00
 P 1 1.00
     Exponent=  4.5794200000D+02 Coefficients=  1.0000000000D+00
 P 1 1.00
     Exponent=  2.2364200000D+02 Coefficients=  1.0000000000D+00
 P 1 1.00
     Exponent=  1.1359400000D+02 Coefficients=  1.0000000000D+00
 P 1 1.00
     Exponent=  5.9562100000D+01 Coefficients=  1.0000000000D+00
 P 1 1.00
     Exponent=  3.2107200000D+01 Coefficients=  1.0000000000D+00
 P 1 1.00
     Exponent=  1.7710300000D+01 Coefficients=  1.0000000000D+00
 P 1 1.00
     Exponent=  9.9062100000D+00 Coefficients=  1.0000000000D+00
 P 1 1.00
     Exponent=  5.5224300000D+00 Coefficients=  1.0000000000D+00
 P 1 1.00
     Exponent=  3.0083200000D+00 Coefficients=  1.0000000000D+00
 P 1 1.00
     Exponent=  1.5987300000D+00 Coefficients=  1.0000000000D+00
 P 1 1.00
     Exponent=  8.3086800000D-01 Coefficients=  1.0000000000D+00
 P 1 1.00
     Exponent=  4.1353800000D-01 Coefficients=  1.0000000000D+00
 P 1 1.00
     Exponent=  1.7121400000D-01 Coefficients=  1.0000000000D+00
 P 1 1.00
     Exponent=  7.2122000000D-02 Coefficients=  1.0000000000D+00
 P 1 1.00
     Exponent=  3.0110000000D-02 Coefficients=  1.0000000000D+00
 P 1 1.00
     Exponent=  8.8318000000D+00 Coefficients=  1.0000000000D+00
 P 1 1.00
     Exponent=  2.6917000000D+00 Coefficients=  1.0000000000D+00
 P 1 1.00
     Exponent=  1.2570000000D-02 Coefficients=  1.0000000000D+00
 D 1 1.00
     Exponent=  4.4978500000D+02 Coefficients=  1.0000000000D+00
 D 1 1.00
     Exponent=  1.3275100000D+02 Coefficients=  1.0000000000D+00
 D 1 1.00
     Exponent=  5.0952800000D+01 Coefficients=  1.0000000000D+00
 D 1 1.00
     Exponent=  2.2159400000D+01 Coefficients=  1.0000000000D+00
 D 1 1.00
     Exponent=  1.0261200000D+01 Coefficients=  1.0000000000D+00
 D 1 1.00
     Exponent=  4.9780300000D+00 Coefficients=  1.0000000000D+00
 D 1 1.00
     Exponent=  2.4573000000D+00 Coefficients=  1.0000000000D+00
 D 1 1.00
     Exponent=  1.2010100000D+00 Coefficients=  1.0000000000D+00
 D 1 1.00
     Exponent=  5.7251600000D-01 Coefficients=  1.0000000000D+00
 D 1 1.00
     Exponent=  2.6259600000D-01 Coefficients=  1.0000000000D+00
 D 1 1.00
     Exponent=  1.1414000000D-01 Coefficients=  1.0000000000D+00
 D 1 1.00
     Exponent=  4.5642000000D-02 Coefficients=  1.0000000000D+00
 D 1 1.00
     Exponent=  5.9718000000D+00 Coefficients=  1.0000000000D+00
 D 1 1.00
     Exponent=  3.5428000000D+00 Coefficients=  1.0000000000D+00
 D 1 1.00
     Exponent=  1.8250000000D-02 Coefficients=  1.0000000000D+00
 F 1 1.00
     Exponent=  9.4747000000D+00 Coefficients=  1.0000000000D+00
 F 1 1.00
     Exponent=  4.1404000000D+00 Coefficients=  1.0000000000D+00
 F 1 1.00
     Exponent=  1.8093000000D+00 Coefficients=  1.0000000000D+00
 F 1 1.00
     Exponent=  7.9060000000D-01 Coefficients=  1.0000000000D+00
 F 1 1.00
     Exponent=  2.6140000000D-01 Coefficients=  1.0000000000D+00
 F 1 1.00
     Exponent=  8.6430000000D-02 Coefficients=  1.0000000000D+00
 G 1 1.00
     Exponent=  6.4908000000D+00 Coefficients=  1.0000000000D+00
 G 1 1.00
     Exponent=  3.1225000000D+00 Coefficients=  1.0000000000D+00
 G 1 1.00
     Exponent=  1.5022000000D+00 Coefficients=  1.0000000000D+00
 G 1 1.00
     Exponent=  5.3270000000D-01 Coefficients=  1.0000000000D+00
 G 1 1.00
     Exponent=  1.8890000000D-01 Coefficients=  1.0000000000D+00
 H 1 1.00
     Exponent=  6.0071000000D+00 Coefficients=  1.0000000000D+00
 H 1 1.00
     Exponent=  2.7692000000D+00 Coefficients=  1.0000000000D+00
 H 1 1.00
     Exponent=  1.0636000000D+00 Coefficients=  1.0000000000D+00
 H 1 1.00
     Exponent=  4.0851000000D-01 Coefficients=  1.0000000000D+00
 I 1 1.00
     Exponent=  6.0846000000D+00 Coefficients=  1.0000000000D+00
 I 1 1.00
     Exponent=  2.5736000000D+00 Coefficients=  1.0000000000D+00
 I 1 1.00
     Exponent=  1.0885500000D+00 Coefficients=  1.0000000000D+00
 ****
 ======================================================================================================
                                       Pseudopotential Parameters
 ======================================================================================================
  Center     Atomic      Valence      Angular      Power
  Number     Number     Electrons     Momentum     of R      Exponent        Coefficient   SO-Coeffient
 ======================================================================================================
    1         25           15
                                      D and up 
                                                     1       21.5539028       15.00000000    0.00000000
                                                     3       21.4715811      323.30854272    0.00000000
                                                     2       21.2730185     -161.98213395    0.00000000
                                                     2        7.6156466       -2.33888749    0.00000000
                                      S - D
                                                     2       19.0364190      245.43993397    0.00000000
                                                     2        8.3205574       34.00254981    0.00000000
                                      P - D
                                                     2       20.3136120      162.80829146    0.00000000
                                                     2        7.8000821       24.40767451    0.00000000
 ======================================================================================================
 Ernie: Thresh=  0.10000D-02 Tol=  0.10000D-05 Strict=F.
 There are   128 symmetry adapted cartesian basis functions of AG  symmetry.
 There are    48 symmetry adapted cartesian basis functions of B1G symmetry.
 There are    48 symmetry adapted cartesian basis functions of B2G symmetry.
 There are    48 symmetry adapted cartesian basis functions of B3G symmetry.
 There are    18 symmetry adapted cartesian basis functions of AU  symmetry.
 There are    63 symmetry adapted cartesian basis functions of B1U symmetry.
 There are    63 symmetry adapted cartesian basis functions of B2U symmetry.
 There are    63 symmetry adapted cartesian basis functions of B3U symmetry.
 There are    80 symmetry adapted basis functions of AG  symmetry.
 There are    34 symmetry adapted basis functions of B1G symmetry.
 There are    34 symmetry adapted basis functions of B2G symmetry.
 There are    34 symmetry adapted basis functions of B3G symmetry.
 There are    14 symmetry adapted basis functions of AU  symmetry.
 There are    45 symmetry adapted basis functions of B1U symmetry.
 There are    45 symmetry adapted basis functions of B2U symmetry.
 There are    45 symmetry adapted basis functions of B3U symmetry.
   331 basis functions,   479 primitive gaussians,   479 cartesian basis functions
    10 alpha electrons        5 beta electrons
       nuclear repulsion energy         0.0000000000 Hartrees.
 IExCor=    0 DFT=F Ex=HF Corr=None ExCW=0 ScaHFX=  1.000000
 ScaDFX=  1.000000  1.000000  1.000000  1.000000 ScalE2=  1.000000  1.000000
 IRadAn=      5 IRanWt=     -1 IRanGd=            0 ICorTp=0 IEmpDi=  4
 NAtoms=    1 NActive=    1 NUniq=    1 SFac= 1.00D+00 NAtFMM=   60 NAOKFM=F Big=F
 Integral buffers will be    131072 words long.
 Raffenetti 2 integral format.
 Two-electron integral symmetry is turned on.
 Leave Link  301 at Wed Apr  4 07:36:51 2018, MaxMem= 21474836480 cpu:               3.7 elap:               0.1
 (Enter /home1/apps/gaussian/16rA.03/g16/l302.exe)
 NPDir=0 NMtPBC=     1 NCelOv=     1 NCel=       1 NClECP=     1 NCelD=      1
         NCelK=      1 NCelE2=     1 NClLst=     1 CellRange=     0.0.
 One-electron integrals computed using PRISM.
 One-electron integral symmetry used in STVInt
  48 Symmetry operations used in ECPInt.
 ECPInt:  NShTT=    3003 NPrTT=    3003 LenC2=    3004 LenP2D=    3003.
 LDataN:  DoStor=T MaxTD1=12 Len= 1566
 NBasis=   331 RedAO= T EigKep=  3.50D-06  NBF=    80    34    34    34    14    45    45    45
 NBsUse=   326 1.00D-06 EigRej=  5.65D-07 NBFU=    78    34    34    34    14    44    44    44
 Leave Link  302 at Wed Apr  4 07:36:55 2018, MaxMem= 21474836480 cpu:             138.1 elap:               4.4
 (Enter /home1/apps/gaussian/16rA.03/g16/l303.exe)
 DipDrv:  MaxL=1.
 Leave Link  303 at Wed Apr  4 07:36:55 2018, MaxMem= 21474836480 cpu:               2.1 elap:               0.1
 (Enter /home1/apps/gaussian/16rA.03/g16/l401.exe)
 Initial guess from the checkpoint file:  "Mn.chk"
 B after Tr=     0.000000    0.000000    0.000000
         Rot=    1.000000    0.000000    0.000000    0.000000 Ang=   0.00 deg.
 Guess basis will be translated and rotated to current coordinates.
 JPrj=2 DoOrth=T DoCkMO=T.
 Initial guess orbital symmetries:
       Occupied  (A1G) (T1U) (T1U) (T1U) (A1G) (EG) (T2G) (T2G)
                 (EG) (T2G)
       Virtual   (T1U) (T1U) (T1U) (A1G) (T1U) (T1U) (T1U) (T2G)
                 (EG) (T2G) (EG) (T2G) (A1G) (T1U) (T1U) (T1U)
                 (T2G) (T2G) (EG) (EG) (T2G) (A1G) (?A) (?A) (?A)
                 (A2U) (?A) (?A) (?A) (T1U) (T1U) (T1U) (T2G) (EG)
                 (T2G) (T2G) (EG) (A1G) (?A) (?A) (?A) (A2U) (?A)
                 (?A) (?A) (T1U) (T1U) (T1U) (?B) (T2G) (?B) (?B)
                 (T2G) (?B) (?B) (T2G) (?B) (T2G) (EG) (T2G) (T2G)
                 (EG) (A1G) (?A) (?A) (A2U) (?A) (?A) (?A) (?A)
                 (T2G) (EG) (EG) (T2G) (T2G) (T1U) (T1U) (T1U)
                 (?B) (T2G) (T2G) (?B) (?B) (?B) (?B) (T2G) (?B)
                 (A1G) (EG) (T2G) (EG) (T2G) (T2G) (?A) (?A) (?A)
                 (A2U) (?A) (?A) (?A) (T1U) (T1U) (T1U) (?B) (T2G)
                 (?B) (?B) (T2G) (?B) (?B) (T2G) (?B) (EG) (EG)
                 (T2G) (T2G) (T2G) (A1G) (T1U) (T1U) (T1U) (EG)
                 (T2G) (EG) (T2G) (T2G) (A1G) (T1U) (T1U) (T1U)
                 (EG) (T2G) (T2G) (EG) (T2G) (A1G) (T1U) (T1U)
                 (T1U) (A1G) (T1U) (T1U) (T1U) (A1G) (EG) (T2G)
                 (EG) (T2G) (T2G) (T1U) (T1U) (T1U) (A1G) (T1U)
                 (T1U) (T1U) (A1G) (T1U) (T1U) (T1U) (A1G) (T1U)
                 (T1U) (T1U) (A1G) (T1U) (T1U) (T1U) (A1G) (A1G)
                 (T1U) (T1U) (T1U) (A1G) (EG) (EG) (T2G) (T2G)
                 (T2G) (EG) (EG) (?C) (?C) (?C) (?C) (T2G) (T2G)
                 (T2G) (EG) (EG) (?C) (?C) (?C) (?C) (EG) (EG)
                 (?C) (?C) (?C) (?C) (A1G) (T2G) (?B) (?B) (T2G)
                 (?D) (?D) (?D) (?B) (?B) (T2G) (?E) (?E) (?E)
                 (T2G) (?F) (?F) (?F) (T2G) (?B) (?B) (T2G) (?D)
                 (?D) (?D) (?B) (?B) (T2G) (?E) (?E) (?E) (T2G)
                 (?F) (?F) (?F) (T2G) (?B) (?B) (T2G) (?D) (?D)
                 (?D) (?B) (?B) (T2G) (?E) (?E) (?E) (T2G) (?F)
                 (?F) (?F) (A2U) (EU) (EU) (A2U) (EU) (EU) (EU)
                 (EU) (EU) (EU) (?A) (?A) (?F) (?F) (?F) (?A) (?A)
                 (?F) (?F) (?F) (?F) (?F) (?F) (?F) (?F) (?F) (T1U)
                 (T1U) (?A) (?A) (?F) (?F) (?F) (?A) (?A) (?F)
                 (?F) (?F) (?F) (?F) (?F) (?F) (?F) (?F) (T1U)
                 (T1U) (?A) (?A) (?F) (?F) (?F) (?A) (?A) (?F)
                 (?F) (?F) (?F) (?F) (?F) (?F) (?F) (?F) (T1U)
                 (T1U)
 The electronic state of the initial guess is 6-A1G.
 Leave Link  401 at Wed Apr  4 07:36:55 2018, MaxMem= 21474836480 cpu:               9.5 elap:               0.4
 (Enter /home1/apps/gaussian/16rA.03/g16/l502.exe)
 Keep R1 and R2 ints in memory in symmetry-blocked form, NReq=1888771360.
 FoFCou: FMM=F IPFlag=           0 FMFlag=           0 FMFlg1=           0
         NFxFlg=           0 DoJE=F BraDBF=F KetDBF=F FulRan=T
         wScrn=  0.000000 ICntrl=       600 IOpCl=  0 I1Cent=           0 NGrid=           0
         NMat0=    1 NMatS0=  54946 NMatT0=    0 NMatD0=    1 NMtDS0=    0 NMtDT0=    0
 Petite list used in FoFCou.
 Restricted open shell SCF:
 Using DIIS extrapolation, IDIIS=  1040.
 NGot= 21474836480 LenX= 21093001847 LenY= 21092771927
 Requested convergence on RMS density matrix=1.00D-08 within 300 cycles.
 Requested convergence on MAX density matrix=1.00D-06.
 Requested convergence on             energy=1.00D-06.
 Virtual orbitals will be shifted by   0.200 hartree.
 No special actions if energy rises.

 Cycle   1  Pass 1  IDiag  1:
 Density matrix breaks symmetry, PCut= 1.00D-07
 Density has only Abelian symmetry.
 E= -103.646930539289    
 DIIS: error= 1.76D-01 at cycle   1 NSaved=   1.
 NSaved= 1 IEnMin= 1 EnMin= -103.646930539289     IErMin= 1 ErrMin= 1.76D-01
 ErrMax= 1.76D-01  0.00D+00 EMaxC= 1.00D-01 BMatC= 3.28D+00 BMatP= 3.28D+00
 IDIUse=3 WtCom= 0.00D+00 WtEn= 1.00D+00
 Coeff-Com:  0.100D+01
 Coeff-En:   0.100D+01
 Coeff:      0.100D+01
 Gap=     0.131 Goal=   None    Shift=    0.200
 DSYEVD-2 returned Info=          69 IAlg= 4 N=    34 NDim=   326 NE2=    64701753 trying  DSYEV.
 GapD=    0.131 DampG=1.000 DampE=0.125 DampFc=0.1250 IDamp=-1.
 Damping current iteration by 1.25D-01
 RMSDP=5.59D-04 MaxDP=2.53D-02              OVMax= 2.75D-02

 Cycle   2  Pass 1  IDiag  1:
 Density matrix breaks symmetry, PCut= 1.00D-07
 Density has only Abelian symmetry.
 E= -103.653691153577     Delta-E=       -0.006760614288 Rises=F Damp=T
 DIIS: error= 1.54D-01 at cycle   2 NSaved=   2.
 NSaved= 2 IEnMin= 2 EnMin= -103.653691153577     IErMin= 2 ErrMin= 1.54D-01
 ErrMax= 1.54D-01  0.00D+00 EMaxC= 1.00D-01 BMatC= 2.49D+00 BMatP= 3.28D+00
 IDIUse=3 WtCom= 0.00D+00 WtEn= 1.00D+00
 Coeff-Com: -0.660D+01 0.760D+01
 Coeff-En:   0.000D+00 0.100D+01
 Coeff:      0.000D+00 0.100D+01
 Gap=     0.123 Goal=   None    Shift=    0.200
 RMSDP=4.91D-04 MaxDP=2.20D-02 DE=-6.76D-03 OVMax= 9.60D-03

 Cycle   3  Pass 1  IDiag  1:
 Density matrix breaks symmetry, PCut= 1.00D-07
 Density has only Abelian symmetry.
 E= -103.699048176972     Delta-E=       -0.045357023395 Rises=F Damp=F
 DIIS: error= 6.08D-03 at cycle   3 NSaved=   3.
 NSaved= 3 IEnMin= 3 EnMin= -103.699048176972     IErMin= 3 ErrMin= 6.08D-03
 ErrMax= 6.08D-03  0.00D+00 EMaxC= 1.00D-01 BMatC= 3.77D-03 BMatP= 2.49D+00
 IDIUse=3 WtCom= 9.39D-01 WtEn= 6.08D-02
 Coeff-Com:  0.105D+01-0.121D+01 0.116D+01
 Coeff-En:   0.000D+00 0.000D+00 0.100D+01
 Coeff:      0.988D+00-0.114D+01 0.115D+01
 Gap=     0.105 Goal=   None    Shift=    0.200
 RMSDP=7.38D-05 MaxDP=4.98D-03 DE=-4.54D-02 OVMax= 1.02D-02

 Cycle   4  Pass 1  IDiag  1:
 Density matrix breaks symmetry, PCut= 1.00D-07
 Density has only Abelian symmetry.
 E= -103.699565368344     Delta-E=       -0.000517191372 Rises=F Damp=F
 DIIS: error= 3.98D-03 at cycle   4 NSaved=   4.
 NSaved= 4 IEnMin= 4 EnMin= -103.699565368344     IErMin= 4 ErrMin= 3.98D-03
 ErrMax= 3.98D-03  0.00D+00 EMaxC= 1.00D-01 BMatC= 4.39D-04 BMatP= 3.77D-03
 IDIUse=3 WtCom= 9.60D-01 WtEn= 3.98D-02
 Coeff-Com:  0.591D+00-0.676D+00 0.200D+00 0.885D+00
 Coeff-En:   0.000D+00 0.000D+00 0.000D+00 0.100D+01
 Coeff:      0.568D+00-0.649D+00 0.192D+00 0.890D+00
 Gap=     0.107 Goal=   None    Shift=    0.200
 RMSDP=3.31D-05 MaxDP=2.41D-03 DE=-5.17D-04 OVMax= 5.29D-03

 Cycle   5  Pass 1  IDiag  1:
 Density matrix breaks symmetry, PCut= 1.00D-07
 Density has only Abelian symmetry.
 E= -103.699801309322     Delta-E=       -0.000235940978 Rises=F Damp=F
 DIIS: error= 3.00D-03 at cycle   5 NSaved=   5.
 NSaved= 5 IEnMin= 5 EnMin= -103.699801309322     IErMin= 5 ErrMin= 3.00D-03
 ErrMax= 3.00D-03  0.00D+00 EMaxC= 1.00D-01 BMatC= 2.29D-04 BMatP= 4.39D-04
 IDIUse=3 WtCom= 9.70D-01 WtEn= 3.00D-02
 Coeff-Com:  0.455D+00-0.520D+00 0.115D+00 0.571D-01 0.893D+00
 Coeff-En:   0.000D+00 0.000D+00 0.000D+00 0.000D+00 0.100D+01
 Coeff:      0.442D+00-0.505D+00 0.111D+00 0.554D-01 0.896D+00
 Gap=     0.108 Goal=   None    Shift=    0.200
 RMSDP=8.57D-06 MaxDP=1.30D-03 DE=-2.36D-04 OVMax= 8.05D-04

 Cycle   6  Pass 1  IDiag  1:
 Density matrix breaks symmetry, PCut= 1.00D-07
 Density has only Abelian symmetry.
 E= -103.699832774586     Delta-E=       -0.000031465265 Rises=F Damp=F
 DIIS: error= 2.66D-03 at cycle   6 NSaved=   6.
 NSaved= 6 IEnMin= 6 EnMin= -103.699832774586     IErMin= 6 ErrMin= 2.66D-03
 ErrMax= 2.66D-03  0.00D+00 EMaxC= 1.00D-01 BMatC= 1.73D-04 BMatP= 2.29D-04
 IDIUse=3 WtCom= 9.73D-01 WtEn= 2.66D-02
 Coeff-Com:  0.392D+00-0.448D+00 0.846D-01 0.735D-02 0.552D-01 0.909D+00
 Coeff-En:   0.000D+00 0.000D+00 0.000D+00 0.000D+00 0.000D+00 0.100D+01
 Coeff:      0.382D+00-0.436D+00 0.823D-01 0.716D-02 0.537D-01 0.911D+00
 Gap=     0.108 Goal=   None    Shift=    0.200
 RMSDP=4.67D-06 MaxDP=6.45D-04 DE=-3.15D-05 OVMax= 5.99D-04

 Cycle   7  Pass 1  IDiag  1:
 Density matrix breaks symmetry, PCut= 1.00D-07
 Density has only Abelian symmetry.
 E= -103.699857070441     Delta-E=       -0.000024295855 Rises=F Damp=F
 DIIS: error= 2.32D-03 at cycle   7 NSaved=   7.
 NSaved= 7 IEnMin= 7 EnMin= -103.699857070441     IErMin= 7 ErrMin= 2.32D-03
 ErrMax= 2.32D-03  0.00D+00 EMaxC= 1.00D-01 BMatC= 1.32D-04 BMatP= 1.73D-04
 IDIUse=3 WtCom= 9.77D-01 WtEn= 2.32D-02
 Coeff-Com:  0.309D+00-0.353D+00 0.635D-01 0.187D-01-0.518D-01-0.581D+00
 Coeff-Com:  0.159D+01
 Coeff-En:   0.000D+00 0.000D+00 0.000D+00 0.000D+00 0.000D+00 0.000D+00
 Coeff-En:   0.100D+01
 Coeff:      0.302D+00-0.345D+00 0.620D-01 0.183D-01-0.506D-01-0.568D+00
 Coeff:      0.158D+01
 Gap=     0.109 Goal=   None    Shift=    0.200
 RMSDP=3.83D-06 MaxDP=3.71D-04 DE=-2.43D-05 OVMax= 7.15D-04

 Cycle   8  Pass 1  IDiag  1:
 Density matrix breaks symmetry, PCut= 1.00D-07
 Density has only Abelian symmetry.
 E= -103.699883111265     Delta-E=       -0.000026040823 Rises=F Damp=F
 DIIS: error= 1.87D-03 at cycle   8 NSaved=   8.
 NSaved= 8 IEnMin= 8 EnMin= -103.699883111265     IErMin= 8 ErrMin= 1.87D-03
 ErrMax= 1.87D-03  0.00D+00 EMaxC= 1.00D-01 BMatC= 8.62D-05 BMatP= 1.32D-04
 IDIUse=3 WtCom= 9.81D-01 WtEn= 1.87D-02
 Coeff-Com:  0.276D+00-0.315D+00 0.572D-01 0.565D-02 0.154D-01-0.209D+00
 Coeff-Com:  0.315D+00 0.855D+00
 Coeff-En:   0.000D+00 0.000D+00 0.000D+00 0.000D+00 0.000D+00 0.000D+00
 Coeff-En:   0.000D+00 0.100D+01
 Coeff:      0.270D+00-0.309D+00 0.562D-01 0.555D-02 0.152D-01-0.205D+00
 Coeff:      0.309D+00 0.858D+00
 Gap=     0.109 Goal=   None    Shift=    0.200
 RMSDP=1.93D-06 MaxDP=1.87D-04 DE=-2.60D-05 OVMax= 4.18D-04

 Cycle   9  Pass 1  IDiag  1:
 Density matrix breaks symmetry, PCut= 1.00D-07
 Density has only Abelian symmetry.
 E= -103.699895217573     Delta-E=       -0.000012106309 Rises=F Damp=F
 DIIS: error= 1.65D-03 at cycle   9 NSaved=   9.
 NSaved= 9 IEnMin= 9 EnMin= -103.699895217573     IErMin= 9 ErrMin= 1.65D-03
 ErrMax= 1.65D-03  0.00D+00 EMaxC= 1.00D-01 BMatC= 6.69D-05 BMatP= 8.62D-05
 IDIUse=3 WtCom= 9.84D-01 WtEn= 1.65D-02
 Coeff-Com:  0.204D+00-0.233D+00 0.430D-01 0.810D-02 0.260D-01-0.123D+00
 Coeff-Com: -0.300D+00 0.286D-01 0.135D+01
 Coeff-En:   0.000D+00 0.000D+00 0.000D+00 0.000D+00 0.000D+00 0.000D+00
 Coeff-En:   0.000D+00 0.000D+00 0.100D+01
 Coeff:      0.200D+00-0.229D+00 0.423D-01 0.796D-02 0.256D-01-0.121D+00
 Coeff:     -0.295D+00 0.281D-01 0.134D+01
 Gap=     0.109 Goal=   None    Shift=    0.200
 RMSDP=3.18D-06 MaxDP=2.41D-04 DE=-1.21D-05 OVMax= 5.90D-04

 Cycle  10  Pass 1  IDiag  1:
 Density matrix breaks symmetry, PCut= 1.00D-07
 Density has only Abelian symmetry.
 E= -103.699910421914     Delta-E=       -0.000015204341 Rises=F Damp=F
 DIIS: error= 1.28D-03 at cycle  10 NSaved=  10.
 NSaved=10 IEnMin=10 EnMin= -103.699910421914     IErMin=10 ErrMin= 1.28D-03
 ErrMax= 1.28D-03  0.00D+00 EMaxC= 1.00D-01 BMatC= 4.00D-05 BMatP= 6.69D-05
 IDIUse=3 WtCom= 9.87D-01 WtEn= 1.28D-02
 Coeff-Com:  0.706D-01-0.806D-01 0.135D-01-0.781D-02 0.538D-01 0.229D+00
 Coeff-Com:  0.132D+00-0.292D+01 0.114D+01 0.237D+01
 Coeff-En:   0.000D+00 0.000D+00 0.000D+00 0.000D+00 0.000D+00 0.000D+00
 Coeff-En:   0.000D+00 0.000D+00 0.000D+00 0.100D+01
 Coeff:      0.697D-01-0.796D-01 0.133D-01-0.771D-02 0.531D-01 0.226D+00
 Coeff:      0.131D+00-0.289D+01 0.113D+01 0.236D+01
 Gap=     0.109 Goal=   None    Shift=    0.200
 RMSDP=5.67D-06 MaxDP=4.26D-04 DE=-1.52D-05 OVMax= 1.07D-03

 Cycle  11  Pass 1  IDiag  1:
 Density matrix breaks symmetry, PCut= 1.00D-07
 Density has only Abelian symmetry.
 E= -103.699928639284     Delta-E=       -0.000018217369 Rises=F Damp=F
 DIIS: error= 5.90D-04 at cycle  11 NSaved=  11.
 NSaved=11 IEnMin=11 EnMin= -103.699928639284     IErMin=11 ErrMin= 5.90D-04
 ErrMax= 5.90D-04  0.00D+00 EMaxC= 1.00D-01 BMatC= 8.59D-06 BMatP= 4.00D-05
 IDIUse=3 WtCom= 9.94D-01 WtEn= 5.90D-03
 Coeff-Com:  0.585D-01-0.669D-01 0.111D-01-0.912D-02 0.619D-01 0.181D+00
 Coeff-Com:  0.164D+00-0.314D+01 0.198D+01 0.140D+01 0.356D+00
 Coeff-En:   0.000D+00 0.000D+00 0.000D+00 0.000D+00 0.000D+00 0.000D+00
 Coeff-En:   0.000D+00 0.000D+00 0.000D+00 0.000D+00 0.100D+01
 Coeff:      0.582D-01-0.665D-01 0.110D-01-0.907D-02 0.615D-01 0.180D+00
 Coeff:      0.163D+00-0.312D+01 0.197D+01 0.139D+01 0.360D+00
 Gap=     0.109 Goal=   None    Shift=    0.200
 RMSDP=1.66D-06 MaxDP=1.39D-04 DE=-1.82D-05 OVMax= 3.98D-04

 Cycle  12  Pass 1  IDiag  1:
 Density matrix breaks symmetry, PCut= 1.00D-07
 Density has only Abelian symmetry.
 E= -103.699932026153     Delta-E=       -0.000003386869 Rises=F Damp=F
 DIIS: error= 4.15D-04 at cycle  12 NSaved=  12.
 NSaved=12 IEnMin=12 EnMin= -103.699932026153     IErMin=12 ErrMin= 4.15D-04
 ErrMax= 4.15D-04  0.00D+00 EMaxC= 1.00D-01 BMatC= 4.19D-06 BMatP= 8.59D-06
 IDIUse=3 WtCom= 9.96D-01 WtEn= 4.15D-03
 Coeff-Com: -0.291D-01 0.332D-01-0.518D-02-0.176D-01 0.813D-01-0.116D+00
 Coeff-Com: -0.793D+00 0.412D+01-0.403D+01 0.446D+00-0.235D+01 0.366D+01
 Coeff-En:   0.000D+00 0.000D+00 0.000D+00 0.000D+00 0.000D+00 0.000D+00
 Coeff-En:   0.000D+00 0.000D+00 0.000D+00 0.000D+00 0.000D+00 0.100D+01
 Coeff:     -0.290D-01 0.331D-01-0.516D-02-0.175D-01 0.810D-01-0.116D+00
 Coeff:     -0.789D+00 0.410D+01-0.401D+01 0.444D+00-0.234D+01 0.365D+01
 Gap=     0.109 Goal=   None    Shift=    0.200
 RMSDP=3.82D-06 MaxDP=1.90D-04 DE=-3.39D-06 OVMax= 7.28D-04

 Cycle  13  Pass 1  IDiag  1:
 Density matrix breaks symmetry, PCut= 1.00D-07
 Density has only Abelian symmetry.
 E= -103.699934724003     Delta-E=       -0.000002697850 Rises=F Damp=F
 DIIS: error= 5.99D-05 at cycle  13 NSaved=  13.
 NSaved=13 IEnMin=13 EnMin= -103.699934724003     IErMin=13 ErrMin= 5.99D-05
 ErrMax= 5.99D-05  0.00D+00 EMaxC= 1.00D-01 BMatC= 2.67D-07 BMatP= 4.19D-06
 IDIUse=1 WtCom= 1.00D+00 WtEn= 0.00D+00
 Coeff-Com: -0.441D-01 0.504D-01-0.791D-02-0.121D-01 0.777D-01-0.221D+00
 Coeff-Com: -0.537D+00 0.200D+01 0.234D+00-0.189D+01-0.148D+01 0.137D+01
 Coeff-Com:  0.146D+01
 Coeff:     -0.441D-01 0.504D-01-0.791D-02-0.121D-01 0.777D-01-0.221D+00
 Coeff:     -0.537D+00 0.200D+01 0.234D+00-0.189D+01-0.148D+01 0.137D+01
 Coeff:      0.146D+01
 Gap=     0.109 Goal=   None    Shift=    0.200
 RMSDP=1.44D-06 MaxDP=9.57D-05 DE=-2.70D-06 OVMax= 3.32D-04

 Cycle  14  Pass 1  IDiag  1:
 Density matrix breaks symmetry, PCut= 1.00D-07
 Density has only Abelian symmetry.
 E= -103.699934334666     Delta-E=        0.000000389337 Rises=F Damp=F
 DIIS: error= 2.05D-04 at cycle  14 NSaved=  14.
 NSaved=14 IEnMin=13 EnMin= -103.699934724003     IErMin=13 ErrMin= 5.99D-05
 ErrMax= 2.05D-04  0.00D+00 EMaxC= 1.00D-01 BMatC= 1.16D-06 BMatP= 2.67D-07
 IDIUse=1 WtCom= 1.00D+00 WtEn= 0.00D+00
 Coeff-Com: -0.477D-01 0.546D-01-0.861D-02-0.112D-01 0.715D-01-0.174D+00
 Coeff-Com: -0.458D+00 0.135D+01 0.641D+00-0.174D+01-0.650D+00 0.620D+00
 Coeff-Com:  0.389D+00 0.960D+00
 Coeff:     -0.477D-01 0.546D-01-0.861D-02-0.112D-01 0.715D-01-0.174D+00
 Coeff:     -0.458D+00 0.135D+01 0.641D+00-0.174D+01-0.650D+00 0.620D+00
 Coeff:      0.389D+00 0.960D+00
 Gap=     0.109 Goal=   None    Shift=    0.200
 RMSDP=6.14D-07 MaxDP=4.22D-05 DE= 3.89D-07 OVMax= 1.43D-04

 Cycle  15  Pass 1  IDiag  1:
 Density matrix breaks symmetry, PCut= 1.00D-07
 Density has only Abelian symmetry.
 E= -103.699933959234     Delta-E=        0.000000375432 Rises=F Damp=F
 DIIS: error= 2.61D-04 at cycle  15 NSaved=  15.
 NSaved=15 IEnMin=13 EnMin= -103.699934724003     IErMin=13 ErrMin= 5.99D-05
 ErrMax= 2.61D-04  0.00D+00 EMaxC= 1.00D-01 BMatC= 1.74D-06 BMatP= 2.67D-07
 IDIUse=1 WtCom= 1.00D+00 WtEn= 0.00D+00
 Coeff-Com: -0.268D-02 0.306D-02-0.414D-03-0.899D-03 0.233D-02 0.442D-01
 Coeff-Com:  0.143D+00-0.153D+00-0.948D+00 0.111D+01 0.563D+00 0.256D-01
 Coeff-Com: -0.134D+01-0.599D+00 0.216D+01
 Coeff:     -0.268D-02 0.306D-02-0.414D-03-0.899D-03 0.233D-02 0.442D-01
 Coeff:      0.143D+00-0.153D+00-0.948D+00 0.111D+01 0.563D+00 0.256D-01
 Coeff:     -0.134D+01-0.599D+00 0.216D+01
 Gap=     0.109 Goal=   None    Shift=    0.200
 RMSDP=1.70D-06 MaxDP=9.33D-05 DE= 3.75D-07 OVMax= 2.73D-04

 Cycle  16  Pass 1  IDiag  1:
 Density matrix breaks symmetry, PCut= 1.00D-07
 Density has only Abelian symmetry.
 E= -103.699934779111     Delta-E=       -0.000000819877 Rises=F Damp=F
 DIIS: error= 6.13D-05 at cycle  16 NSaved=  16.
 NSaved=16 IEnMin=16 EnMin= -103.699934779111     IErMin=13 ErrMin= 5.99D-05
 ErrMax= 6.13D-05  0.00D+00 EMaxC= 1.00D-01 BMatC= 1.06D-07 BMatP= 2.67D-07
 IDIUse=1 WtCom= 1.00D+00 WtEn= 0.00D+00
 Coeff-Com: -0.902D-03 0.103D-02-0.778D-05 0.700D-04 0.117D-02-0.147D-02
 Coeff-Com:  0.881D-01-0.526D-01-0.366D+00 0.284D+00 0.548D+00-0.234D+00
 Coeff-Com: -0.331D+00-0.321D+00 0.479D+00 0.905D+00
 Coeff:     -0.902D-03 0.103D-02-0.778D-05 0.700D-04 0.117D-02-0.147D-02
 Coeff:      0.881D-01-0.526D-01-0.366D+00 0.284D+00 0.548D+00-0.234D+00
 Coeff:     -0.331D+00-0.321D+00 0.479D+00 0.905D+00
 Gap=     0.109 Goal=   None    Shift=    0.200
 RMSDP=3.60D-07 MaxDP=3.15D-05 DE=-8.20D-07 OVMax= 8.68D-05

 Cycle  17  Pass 1  IDiag  1:
 Density matrix breaks symmetry, PCut= 1.00D-07
 Density has only Abelian symmetry.
 E= -103.699934851820     Delta-E=       -0.000000072709 Rises=F Damp=F
 DIIS: error= 2.05D-05 at cycle  17 NSaved=  17.
 NSaved=17 IEnMin=17 EnMin= -103.699934851820     IErMin=17 ErrMin= 2.05D-05
 ErrMax= 2.05D-05  0.00D+00 EMaxC= 1.00D-01 BMatC= 1.25D-08 BMatP= 1.06D-07
 IDIUse=1 WtCom= 1.00D+00 WtEn= 0.00D+00
 Coeff-Com:  0.227D-02-0.259D-02 0.491D-03 0.605D-03 0.809D-03-0.334D-01
 Coeff-Com:  0.606D-01 0.907D-03 0.997D-01-0.150D+00-0.594D-01 0.792D-01
 Coeff-Com:  0.162D+00 0.657D-01-0.786D-01-0.108D+00 0.960D+00
 Coeff:      0.227D-02-0.259D-02 0.491D-03 0.605D-03 0.809D-03-0.334D-01
 Coeff:      0.606D-01 0.907D-03 0.997D-01-0.150D+00-0.594D-01 0.792D-01
 Coeff:      0.162D+00 0.657D-01-0.786D-01-0.108D+00 0.960D+00
 Gap=     0.109 Goal=   None    Shift=    0.200
 RMSDP=2.04D-07 MaxDP=1.26D-05 DE=-7.27D-08 OVMax= 4.96D-05

 Cycle  18  Pass 1  IDiag  1:
 Density matrix breaks symmetry, PCut= 1.00D-07
 Density has only Abelian symmetry.
 E= -103.699934862767     Delta-E=       -0.000000010946 Rises=F Damp=F
 DIIS: error= 5.59D-06 at cycle  18 NSaved=  18.
 NSaved=18 IEnMin=18 EnMin= -103.699934862767     IErMin=18 ErrMin= 5.59D-06
 ErrMax= 5.59D-06  0.00D+00 EMaxC= 1.00D-01 BMatC= 2.10D-09 BMatP= 1.25D-08
 IDIUse=1 WtCom= 1.00D+00 WtEn= 0.00D+00
 Coeff-Com:  0.105D-02-0.120D-02 0.207D-03 0.211D-03-0.450D-03-0.454D-02
 Coeff-Com:  0.233D-01-0.262D-01 0.301D-01 0.144D-01-0.676D-01 0.123D-01
 Coeff-Com:  0.651D-01 0.918D-01 0.255D-01-0.900D-01 0.577D-03 0.925D+00
 Coeff:      0.105D-02-0.120D-02 0.207D-03 0.211D-03-0.450D-03-0.454D-02
 Coeff:      0.233D-01-0.262D-01 0.301D-01 0.144D-01-0.676D-01 0.123D-01
 Coeff:      0.651D-01 0.918D-01 0.255D-01-0.900D-01 0.577D-03 0.925D+00
 Gap=     0.109 Goal=   None    Shift=    0.200
 RMSDP=6.95D-08 MaxDP=7.50D-06 DE=-1.09D-08 OVMax= 1.18D-05

 Cycle  19  Pass 1  IDiag  1:
 Density matrix breaks symmetry, PCut= 1.00D-07
 Density has only Abelian symmetry.
 E= -103.699934863570     Delta-E=       -0.000000000804 Rises=F Damp=F
 DIIS: error= 4.58D-06 at cycle  19 NSaved=  19.
 NSaved=19 IEnMin=19 EnMin= -103.699934863570     IErMin=19 ErrMin= 4.58D-06
 ErrMax= 4.58D-06  0.00D+00 EMaxC= 1.00D-01 BMatC= 7.96D-10 BMatP= 2.10D-09
 IDIUse=1 WtCom= 1.00D+00 WtEn= 0.00D+00
 Coeff-Com:  0.142D-03-0.162D-03 0.213D-04 0.253D-04-0.580D-03 0.655D-02
 Coeff-Com: -0.984D-03-0.279D-01 0.720D-02 0.561D-01-0.372D-01-0.452D-01
 Coeff-Com:  0.522D-01 0.654D-01-0.437D-01 0.989D-01-0.136D+00-0.186D+00
 Coeff-Com:  0.119D+01
 Coeff:      0.142D-03-0.162D-03 0.213D-04 0.253D-04-0.580D-03 0.655D-02
 Coeff:     -0.984D-03-0.279D-01 0.720D-02 0.561D-01-0.372D-01-0.452D-01
 Coeff:      0.522D-01 0.654D-01-0.437D-01 0.989D-01-0.136D+00-0.186D+00
 Coeff:      0.119D+01
 Gap=     0.109 Goal=   None    Shift=    0.200
 RMSDP=4.25D-08 MaxDP=2.38D-06 DE=-8.04D-10 OVMax= 5.42D-06

 Cycle  20  Pass 1  IDiag  1:
 Density matrix breaks symmetry, PCut= 1.00D-07
 Density has only Abelian symmetry.
 E= -103.699934863938     Delta-E=       -0.000000000367 Rises=F Damp=F
 DIIS: error= 1.12D-06 at cycle  20 NSaved=  20.
 NSaved=20 IEnMin=20 EnMin= -103.699934863938     IErMin=20 ErrMin= 1.12D-06
 ErrMax= 1.12D-06  0.00D+00 EMaxC= 1.00D-01 BMatC= 5.98D-11 BMatP= 7.96D-10
 IDIUse=1 WtCom= 1.00D+00 WtEn= 0.00D+00
 Coeff-Com: -0.114D-03 0.130D-03-0.243D-04 0.927D-05-0.305D-03 0.469D-02
 Coeff-Com: -0.773D-02-0.174D-01 0.221D-01 0.215D-01-0.258D-01-0.524D-01
 Coeff-Com:  0.822D-01 0.255D-01-0.106D+00 0.134D+00 0.995D-03-0.444D+00
 Coeff-Com:  0.344D+00 0.102D+01
 Coeff:     -0.114D-03 0.130D-03-0.243D-04 0.927D-05-0.305D-03 0.469D-02
 Coeff:     -0.773D-02-0.174D-01 0.221D-01 0.215D-01-0.258D-01-0.524D-01
 Coeff:      0.822D-01 0.255D-01-0.106D+00 0.134D+00 0.995D-03-0.444D+00
 Coeff:      0.344D+00 0.102D+01
 Gap=     0.109 Goal=   None    Shift=    0.200
 RMSDP=1.69D-08 MaxDP=1.39D-06 DE=-3.67D-10 OVMax= 2.67D-06

 Cycle  21  Pass 1  IDiag  1:
 Density matrix breaks symmetry, PCut= 1.00D-07
 Density has only Abelian symmetry.
 E= -103.699934863977     Delta-E=       -0.000000000039 Rises=F Damp=F
 DIIS: error= 4.23D-07 at cycle  21 NSaved=  20.
 NSaved=20 IEnMin=20 EnMin= -103.699934863977     IErMin=20 ErrMin= 4.23D-07
 ErrMax= 4.23D-07  0.00D+00 EMaxC= 1.00D-01 BMatC= 6.29D-12 BMatP= 5.98D-11
 IDIUse=1 WtCom= 1.00D+00 WtEn= 0.00D+00
 Coeff-Com: -0.324D-08-0.254D-06 0.185D-04-0.197D-03 0.263D-02-0.544D-02
 Coeff-Com: -0.979D-02 0.156D-01 0.118D-01-0.192D-01-0.358D-01 0.595D-01
 Coeff-Com:  0.272D-01-0.920D-01 0.700D-01 0.297D-01-0.168D+00-0.257D-01
 Coeff-Com:  0.303D+00 0.836D+00
 Coeff:     -0.324D-08-0.254D-06 0.185D-04-0.197D-03 0.263D-02-0.544D-02
 Coeff:     -0.979D-02 0.156D-01 0.118D-01-0.192D-01-0.358D-01 0.595D-01
 Coeff:      0.272D-01-0.920D-01 0.700D-01 0.297D-01-0.168D+00-0.257D-01
 Coeff:      0.303D+00 0.836D+00
 Gap=     0.109 Goal=   None    Shift=    0.200
 RMSDP=5.40D-09 MaxDP=3.92D-07 DE=-3.94D-11 OVMax= 6.12D-07

 Density matrix breaks symmetry, PCut= 1.00D-07
 Density has only Abelian symmetry.
 SCF Done:  E(ROHF) =  -103.699934864     A.U. after   21 cycles
            NFock= 21  Conv=0.54D-08     -V/T= 2.7721
 <Sx>= 0.0000 <Sy>= 0.0000 <Sz>= 2.5000 <S**2>= 8.7500 S= 2.5000
 <L.S>=  0.00000000000    
 KE= 5.851957957470D+01 PE=-2.394604508424D+02 EE= 7.724093640373D+01
 Annihilation of the first spin contaminant:
 S**2 before annihilation     8.7500,   after     8.7500
 Leave Link  502 at Wed Apr  4 07:38:14 2018, MaxMem= 21474836480 cpu:            2437.2 elap:              78.5
 (Enter /home1/apps/gaussian/16rA.03/g16/l801.exe)
 Windowed orbitals will be sorted by symmetry type.
 Density matrix breaks symmetry, PCut= 1.00D-07
 Density has only Abelian symmetry.
 GenMOA:  NOpAll= 48 NOp2=8 NOpUse=  8 JSym2X=1
 FoFJK:  IHMeth= 1 ICntrl=       0 DoSepK=F KAlg= 0 I1Cent=           0 FoldK=F
 IRaf=         0 NMat=       1 IRICut=       1 DoRegI=T DoRafI=F ISym2E= 1 IDoP0=0 IntGTp=1.
 FoFCou: FMM=F IPFlag=           0 FMFlag=      100000 FMFlg1=           0
         NFxFlg=           0 DoJE=F BraDBF=F KetDBF=F FulRan=T
         wScrn=  0.000000 ICntrl=         0 IOpCl=  1 I1Cent=           0 NGrid=           0
         NMat0=    1 NMatS0=      1 NMatT0=    0 NMatD0=    1 NMtDS0=    0 NMtDT0=    0
 Petite list used in FoFCou.
 <Sx>= 0.0000 <Sy>= 0.0000 <Sz>= 2.5000 <S**2>= 8.7500 S= 2.5000
 Range of M.O.s used for correlation:     1   326
 NBasis=   331 NAE=    10 NBE=     5 NFC=     0 NFV=     0
 NROrb=    326 NOA=    10 NOB=     5 NVA=   316 NVB=   321

 **** Warning!!: The largest alpha MO coefficient is  0.16752240D+03


 **** Warning!!: The largest beta MO coefficient is  0.16745536D+03

 Singles contribution to E2=   -0.2896219135D-02
 Leave Link  801 at Wed Apr  4 07:38:28 2018, MaxMem= 21474836480 cpu:             442.8 elap:              13.9
 (Enter /home1/apps/gaussian/16rA.03/g16/l804.exe)
 Open-shell transformation, MDV= 21474836480 ITran=4 ISComp=2.
 Unit  1 TFree=       3309885 TCopy=       2522031.
 Semi-Direct transformation.
 ModeAB=           2 MOrb=            10 LenV=   21471415822
 LASXX=     21484034 LTotXX=    21484034 LenRXX=    21484034
 LTotAB=    21754440 MaxLAS=   374769600 LenRXY=   374769600
 NonZer=   384735420 LenScr=   579366912 LnRSAI=           0
 LnScr1=           0 LExtra=    10357532 Total=    985978078
 MaxDsk= 13421772800 SrtSym=           F ITran=            4
 DoSDTr:  NPSUse= 32
 JobTyp=1 Pass  1:  I=   1 to  10.
 (rs|ai) integrals will be sorted in core.
 Complete sort for first half transformation.
 First half transformation complete.
 Begin second half transformation for I=  10.
 Begin second half transformation for I=  10.
 Complete sort for second half transformation.
 Second half transformation complete.
 ModeAB=           2 MOrb=             5 LenV=   21471415822
 LASXX=     10897582 LTotXX=    10897582 LenRXX=   187384800
 LTotAB=    10356523 MaxLAS=   187384800 LenRXY=    10356523
 NonZer=   192367710 LenScr=   289683456 LnRSAI=           0
 LnScr1=           0 LExtra=   406611166 Total=    894035945
 MaxDsk= 13421772800 SrtSym=           F ITran=            4
 DoSDTr:  NPSUse= 32
 JobTyp=2 Pass  1:  I=   1 to   5.
 (rs|ai) integrals will be sorted in core.
 Complete sort for first half transformation.
 First half transformation complete.
 Complete sort for second half transformation.
 Second half transformation complete.
 Spin components of T(2) and E(2):
     alpha-alpha T2 =       0.2254547818D-01 E2=     -0.1545875624D+00
     alpha-beta  T2 =       0.6987242160D-01 E2=     -0.4108643294D+00
     beta-beta   T2 =       0.7345003059D-02 E2=     -0.4494283754D-01
 ANorm=    0.1049909209D+01
 E2 =    -0.6132909485D+00 EUMP2 =    -0.10431322581250D+03
 (S**2,0)=  0.87500D+01           (S**2,1)=  0.87500D+01
 E(PUHF)=      -0.10369993486D+03        E(PMP2)=      -0.10431322581D+03
 Leave Link  804 at Wed Apr  4 07:42:34 2018, MaxMem= 21474836480 cpu:            7848.4 elap:             245.9
 (Enter /home1/apps/gaussian/16rA.03/g16/l913.exe)
 CIDS:  MDV= 21474836480.
 IFCWin=0 IBDFC=1 NFBD=     0     0 NFCmp=     0     0 NFFFC=     0     0
 Using original routines for 1st iteration.
 Using DD4UQ or CC4UQ for 2nd and later iterations.
 Keep R2 and R3 ints in memory in symmetry-blocked form, NReq=1888788373.
 FoFCou: FMM=F IPFlag=           0 FMFlag=           0 FMFlg1=           0
         NFxFlg=           0 DoJE=F BraDBF=F KetDBF=F FulRan=T
         wScrn=  0.000000 ICntrl=       600 IOpCl=  0 I1Cent=           0 NGrid=           0
         NMat0=    1 NMatS0=  54946 NMatT0=    0 NMatD0=    1 NMtDS0=    0 NMtDT0=    0
 Petite list used in FoFCou.
 CIDS: In Core Option IDoMem=           1.
 CCSD(T)
 =======
 Iterations= 150 Convergence= 0.100D-06
 Produce multiple copies of IABC intergrals
 Iteration Nr.   1
 **********************
 DD1Dir will call FoFMem   1 times, MxPair=       156
 NAB=    50 NAA=    45 NBB=    10.
 DD1Dir will call FoFMem   1 times, MxPair=       156
 NAB=    50 NAA=    45 NBB=    10.
 MP4(R+Q)=  0.62002608D-02
 Maximum subspace dimension=  5
 A-vector RMS=  1.9823971D-04 Max=  4.7011288D-03 conv= 1.00D-05.
 RLE energy=       -0.6034031239
 E3=        0.37418791D-02        EROMP3=      -0.10430948393D+03
 E4(SDQ)=  -0.25163095D-02        ROMP4(SDQ)=  -0.10431200024D+03
 VARIATIONAL ENERGIES WITH THE FIRST-ORDER WAVEFUNCTION:
 DE(Corr)= -0.60323915     E(Corr)=     -104.30317401    
 NORM(A)=   0.10456474D+01
 Iteration Nr.   2
 **********************
 DD1Dir will call FoFMem   1 times, MxPair=       156
 NAB=    50 NAA=    45 NBB=    10.
 A-vector RMS=  2.0146111D-03 Max=  3.6388839D-02 conv= 1.00D-05.
 RLE energy=       -0.6023039667
 DE(Corr)= -0.59947485     E(CORR)=     -104.29940971     Delta= 3.76D-03
 NORM(A)=   0.10470760D+01
 Iteration Nr.   3
 **********************
 DD1Dir will call FoFMem   1 times, MxPair=       156
 NAB=    50 NAA=    45 NBB=    10.
 A-vector RMS=  1.5569729D-03 Max=  2.9330963D-02 conv= 1.00D-05.
 RLE energy=       -0.6074828958
 DE(Corr)= -0.60246507     E(CORR)=     -104.30239993     Delta=-2.99D-03
 NORM(A)=   0.10525532D+01
 Iteration Nr.   4
 **********************
 DD1Dir will call FoFMem   1 times, MxPair=       156
 NAB=    50 NAA=    45 NBB=    10.
 A-vector RMS=  1.0651313D-03 Max=  1.9362040D-02 conv= 1.00D-05.
 RLE energy=       -0.6137816824
 DE(Corr)= -0.60584457     E(CORR)=     -104.30577944     Delta=-3.38D-03
 NORM(A)=   0.10705243D+01
 Iteration Nr.   5
 **********************
 DD1Dir will call FoFMem   1 times, MxPair=       156
 NAB=    50 NAA=    45 NBB=    10.
 A-vector RMS=  3.5713820D-04 Max=  6.6111357D-03 conv= 1.00D-05.
 RLE energy=       -0.6123953983
 DE(Corr)= -0.61437927     E(CORR)=     -104.31431414     Delta=-8.53D-03
 NORM(A)=   0.10663285D+01
 Iteration Nr.   6
 **********************
 DD1Dir will call FoFMem   1 times, MxPair=       156
 NAB=    50 NAA=    45 NBB=    10.
 A-vector RMS=  4.7203009D-05 Max=  9.9035022D-04 conv= 1.00D-05.
 RLE energy=       -0.6121925343
 DE(Corr)= -0.61251392     E(CORR)=     -104.31244878     Delta= 1.87D-03
 NORM(A)=   0.10656143D+01
 Iteration Nr.   7
 **********************
 DD1Dir will call FoFMem   1 times, MxPair=       156
 NAB=    50 NAA=    45 NBB=    10.
 A-vector RMS=  5.7030657D-06 Max=  1.0993729D-04 conv= 1.00D-05.
 RLE energy=       -0.6121881500
 DE(Corr)= -0.61218657     E(CORR)=     -104.31212143     Delta= 3.27D-04
 NORM(A)=   0.10656416D+01
 Iteration Nr.   8
 **********************
 DD1Dir will call FoFMem   1 times, MxPair=       156
 NAB=    50 NAA=    45 NBB=    10.
 A-vector RMS=  4.1519509D-06 Max=  9.0952441D-05 conv= 1.00D-05.
 RLE energy=       -0.6121941498
 DE(Corr)= -0.61220011     E(CORR)=     -104.31213498     Delta=-1.35D-05
 NORM(A)=   0.10656061D+01
 Iteration Nr.   9
 **********************
 DD1Dir will call FoFMem   1 times, MxPair=       156
 NAB=    50 NAA=    45 NBB=    10.
 A-vector RMS=  2.0466750D-06 Max=  2.6866734D-05 conv= 1.00D-05.
 RLE energy=       -0.6121947996
 DE(Corr)= -0.61219098     E(CORR)=     -104.31212584     Delta= 9.14D-06
 NORM(A)=   0.10656091D+01
 Iteration Nr.  10
 **********************
 DD1Dir will call FoFMem   1 times, MxPair=       156
 NAB=    50 NAA=    45 NBB=    10.
 A-vector RMS=  1.2558214D-06 Max=  1.7462963D-05 conv= 1.00D-05.
 RLE energy=       -0.6121943565
 DE(Corr)= -0.61219461     E(CORR)=     -104.31212948     Delta=-3.63D-06
 NORM(A)=   0.10656062D+01
 Iteration Nr.  11
 **********************
 DD1Dir will call FoFMem   1 times, MxPair=       156
 NAB=    50 NAA=    45 NBB=    10.
 A-vector RMS=  4.7017712D-07 Max=  4.7394625D-06 conv= 1.00D-05.
 RLE energy=       -0.6121930818
 DE(Corr)= -0.61219312     E(CORR)=     -104.31212799     Delta= 1.49D-06
 NORM(A)=   0.10656056D+01
 Iteration Nr.  12
 **********************
 DD1Dir will call FoFMem   1 times, MxPair=       156
 NAB=    50 NAA=    45 NBB=    10.
 A-vector RMS=  1.0399099D-07 Max=  2.4117767D-06 conv= 1.00D-05.
 RLE energy=       -0.6121931730
 DE(Corr)= -0.61219323     E(CORR)=     -104.31212809     Delta=-1.05D-07
 NORM(A)=   0.10656060D+01
 Iteration Nr.  13
 **********************
 DD1Dir will call FoFMem   1 times, MxPair=       156
 NAB=    50 NAA=    45 NBB=    10.
 A-vector RMS=  8.4614677D-08 Max=  1.3351948D-06 conv= 1.00D-05.
 RLE energy=       -0.6121932254
 DE(Corr)= -0.61219317     E(CORR)=     -104.31212804     Delta= 5.48D-08
 NORM(A)=   0.10656065D+01
 CI/CC converged in   13 iterations to DelEn= 5.48D-08 Conv= 1.00D-07 ErrA1= 8.46D-08 Conv= 1.00D-05
 Wavefunction amplitudes converged. E(Corr)=     -104.31212804    
 Largest amplitude= 7.57D-02
 Time for triples=    11007.06 seconds.
 T4(CCSD)= -0.19476559D-01
 T5(CCSD)=  0.53927591D-03
 CCSD(T)= -0.10433106532D+03
 Discarding MO integrals.
 Leave Link  913 at Wed Apr  4 07:49:48 2018, MaxMem= 21474836480 cpu:           13786.4 elap:             434.0
 (Enter /home1/apps/gaussian/16rA.03/g16/l601.exe)
 Copying SCF densities to generalized density rwf, IOpCl= 0 IROHF=1.
 SCF density gives NOpUse=  8 NOpAll= 48.
 Marking SCF density as not fully symmetric.

 **********************************************************************

            Population analysis using the SCF density.

 **********************************************************************

 Orbital symmetries:
       Occupied  (A1G) (T1U) (T1U) (T1U) (A1G) (EG) (T2G) (T2G)
                 (T2G) (EG)
       Virtual   (T1U) (T1U) (T1U) (A1G) (EG) (T2G) (T2G) (T2G)
                 (EG) (T1U) (T1U) (T1U) (A1G) (T2G) (EG) (T2G)
                 (T2G) (EG) (T1U) (T1U) (T1U) (A1G) (?A) (?A) (?A)
                 (A2U) (?A) (?A) (?A) (EG) (T2G) (T2G) (T2G) (EG)
                 (T1U) (T1U) (T1U) (A1G) (T2G) (?B) (?B) (?B) (T2G)
                 (?B) (?B) (?B) (T2G) (?A) (?A) (?A) (A2U) (?A)
                 (?A) (?A) (EG) (T2G) (T2G) (T2G) (EG) (T1U) (T1U)
                 (T1U) (?C) (?C) (?C) (EU) (?C) (?C) (?C) (EU)
                 (?C) (?C) (?C) (A1G) (EG) (T2G) (T2G) (T2G) (EG)
                 (T2G) (?B) (?B) (?B) (T2G) (?B) (?B) (?B) (T2G)
                 (?A) (?A) (?A) (A2U) (?A) (?A) (?A) (T1U) (T1U)
                 (T1U) (EG) (T2G) (T2G) (T2G) (EG) (A1G) (?D) (?D)
                 (?D) (EU) (?D) (?D) (?D) (EU) (?D) (?D) (?D) (?A)
                 (?A) (?A) (A2U) (?A) (?A) (?A) (T2G) (?B) (?B)
                 (?B) (T2G) (?B) (?B) (?B) (T2G) (?E) (?F) (?F)
                 (?F) (?E) (?F) (?F) (?F) (?E) (?F) (?F) (?F) (?E)
                 (T1U) (T1U) (T1U) (EG) (T2G) (T2G) (T2G) (EG)
                 (?A) (?A) (?A) (A2U) (?A) (?A) (?A) (T2G) (?B)
                 (?B) (?B) (T2G) (?B) (?B) (?B) (T2G) (A1G) (?F)
                 (?F) (?F) (EU) (?F) (?F) (?F) (EU) (?F) (?F) (?F)
                 (?F) (?E) (?F) (?F) (?E) (?F) (?F) (?F) (?E) (?F)
                 (?F) (?F) (?E) (T1U) (T1U) (T1U) (T2G) (EG) (T2G)
                 (T2G) (EG) (T2G) (?B) (?B) (?B) (T2G) (?B) (?B)
                 (?B) (T2G) (T1U) (T1U) (T1U) (T2G) (T2G) (T2G)
                 (EG) (EG) (?A) (?A) (?A) (A2U) (?A) (?A) (?A)
                 (A1G) (?F) (?F) (?F) (EU) (?F) (?F) (?F) (EU)
                 (?F) (?F) (?F) (?E) (?F) (?F) (?F) (?E) (?F) (?F)
                 (?F) (?E) (?F) (?F) (?F) (?E) (T2G) (T2G) (T2G)
                 (EG) (EG) (T1U) (T1U) (T1U) (A1G) (T2G) (T2G)
                 (T2G) (EG) (EG) (T1U) (T1U) (T1U) (A1G) (T1U)
                 (T1U) (T1U) (T2G) (T2G) (T2G) (EG) (EG) (A1G)
                 (T1U) (T1U) (T1U) (A1G) (T2G) (T2G) (T2G) (EG)
                 (EG) (T1U) (T1U) (T1U) (A1G) (T1U) (T1U) (T1U)
                 (A1G) (T2G) (T2G) (T2G) (EG) (EG) (T1U) (T1U)
                 (T1U) (A1G) (T1U) (T1U) (T1U) (A1G) (A1G) (T1U)
                 (T1U) (T1U) (A1G) (T1U) (T1U) (T1U) (A1G)
 The electronic state is 6-A1G.
 Alpha  occ. eigenvalues --   -4.13019  -2.75773  -2.75773  -2.75773  -0.63846
 Alpha  occ. eigenvalues --   -0.63846  -0.63846  -0.63846  -0.63846  -0.26715
 Alpha virt. eigenvalues --    0.01719   0.01719   0.01719   0.02127   0.05596
 Alpha virt. eigenvalues --    0.05596   0.05596   0.05596   0.05596   0.05640
 Alpha virt. eigenvalues --    0.05640   0.05640   0.10440   0.17416   0.17416
 Alpha virt. eigenvalues --    0.17416   0.17416   0.17416   0.18645   0.18645
 Alpha virt. eigenvalues --    0.18645   0.32260   0.34860   0.34860   0.34860
 Alpha virt. eigenvalues --    0.34860   0.34860   0.34860   0.34860   0.45237
 Alpha virt. eigenvalues --    0.45237   0.45237   0.45237   0.45237   0.55157
 Alpha virt. eigenvalues --    0.55157   0.55157   0.86140   0.93699   0.93699
 Alpha virt. eigenvalues --    0.93699   0.93699   0.93699   0.93699   0.93699
 Alpha virt. eigenvalues --    0.93699   0.93699   1.06627   1.06627   1.06627
 Alpha virt. eigenvalues --    1.06627   1.06627   1.06627   1.06627   1.13124
 Alpha virt. eigenvalues --    1.13124   1.13124   1.13124   1.13124   1.55740
 Alpha virt. eigenvalues --    1.55740   1.55740   2.38958   2.38958   2.38958
 Alpha virt. eigenvalues --    2.38958   2.38958   2.38958   2.38958   2.38958
 Alpha virt. eigenvalues --    2.38958   2.38958   2.38958   2.39578   2.67588
 Alpha virt. eigenvalues --    2.67588   2.67588   2.67588   2.67588   2.74651
 Alpha virt. eigenvalues --    2.74651   2.74651   2.74651   2.74651   2.74651
 Alpha virt. eigenvalues --    2.74651   2.74651   2.74651   2.83045   2.83045
 Alpha virt. eigenvalues --    2.83045   2.83045   2.83045   2.83045   2.83045
 Alpha virt. eigenvalues --    4.03070   4.03070   4.03070   5.86464   5.86464
 Alpha virt. eigenvalues --    5.86464   5.86464   5.86464   6.56452   6.59265
 Alpha virt. eigenvalues --    6.59265   6.59265   6.59265   6.59265   6.59265
 Alpha virt. eigenvalues --    6.59265   6.59265   6.59265   6.59265   6.59265
 Alpha virt. eigenvalues --    6.75471   6.75471   6.75471   6.75471   6.75471
 Alpha virt. eigenvalues --    6.75471   6.75471   7.18027   7.18027   7.18027
 Alpha virt. eigenvalues --    7.18027   7.18027   7.18027   7.18027   7.18027
 Alpha virt. eigenvalues --    7.18027   7.27195   7.27195   7.27195   7.27195
 Alpha virt. eigenvalues --    7.27195   7.27195   7.27195   7.27195   7.27195
 Alpha virt. eigenvalues --    7.27195   7.27195   7.27195   7.27195   9.24636
 Alpha virt. eigenvalues --    9.24636   9.24636  11.75908  11.75908  11.75908
 Alpha virt. eigenvalues --   11.75908  11.75908  15.88520  15.88520  15.88520
 Alpha virt. eigenvalues --   15.88520  15.88520  15.88520  15.88520  16.32679
 Alpha virt. eigenvalues --   16.32679  16.32679  16.32679  16.32679  16.32679
 Alpha virt. eigenvalues --   16.32679  16.32679  16.32679  16.40645  16.60414
 Alpha virt. eigenvalues --   16.60414  16.60414  16.60414  16.60414  16.60414
 Alpha virt. eigenvalues --   16.60414  16.60414  16.60414  16.60414  16.60414
 Alpha virt. eigenvalues --   18.59313  18.59313  18.59313  18.59313  18.59313
 Alpha virt. eigenvalues --   18.59313  18.59313  18.59313  18.59313  18.59313
 Alpha virt. eigenvalues --   18.59313  18.59313  18.59313  19.00892  19.00892
 Alpha virt. eigenvalues --   19.00892  21.64620  21.64620  21.64620  21.64620
 Alpha virt. eigenvalues --   21.64620  35.50823  35.50823  35.50823  35.50823
 Alpha virt. eigenvalues --   35.50823  35.50823  35.50823  35.50823  35.50823
 Alpha virt. eigenvalues --   35.73283  35.73283  35.73283  37.37390  37.37390
 Alpha virt. eigenvalues --   37.37390  37.37390  37.37390  37.55601  37.55601
 Alpha virt. eigenvalues --   37.55601  37.55601  37.55601  37.55601  37.55601
 Alpha virt. eigenvalues --   37.74637  38.36345  38.36345  38.36345  38.36345
 Alpha virt. eigenvalues --   38.36345  38.36345  38.36345  38.36345  38.36345
 Alpha virt. eigenvalues --   38.36345  38.36345  44.58039  44.58039  44.58039
 Alpha virt. eigenvalues --   44.58039  44.58039  44.58039  44.58039  44.58039
 Alpha virt. eigenvalues --   44.58039  44.58039  44.58039  44.58039  44.58039
 Alpha virt. eigenvalues --   62.56850  62.56850  62.56850  62.56850  62.56850
 Alpha virt. eigenvalues --   63.37309  63.37309  63.37309  79.78513 108.96314
 Alpha virt. eigenvalues --  108.96314 108.96314 108.96314 108.96314 110.42161
 Alpha virt. eigenvalues --  110.42161 110.42161 145.55980 193.13314 193.13314
 Alpha virt. eigenvalues --  193.13314 221.91462 221.91462 221.91462 221.91462
 Alpha virt. eigenvalues --  221.91462 245.19435 342.82465 342.82465 342.82465
 Alpha virt. eigenvalues --  420.83637 567.05908 567.05908 567.05908 567.05908
 Alpha virt. eigenvalues --  567.05908 621.97872 621.97872 621.97872 739.93184
 Alpha virt. eigenvalues -- 1164.264091164.264091164.264091335.673491866.51768
 Alpha virt. eigenvalues -- 1866.517681866.517681866.517681866.517682272.45820
 Alpha virt. eigenvalues -- 2272.458202272.458202487.455074681.645684681.64568
 Alpha virt. eigenvalues -- 4681.645684792.769409584.37247********************
 Alpha virt. eigenvalues -- **************************************************
 Alpha virt. eigenvalues -- **********
     Molecular Orbital Coefficients:
                           1         2         3         4         5
                       (A1G)--O  (T1U)--O  (T1U)--O  (T1U)--O  (A1G)--O
     Eigenvalues --    -4.13019  -2.75773  -2.75773  -2.75773  -0.63846
   1 1   Mn 1S         -0.00000   0.00000   0.00000   0.00000   0.00000
   2        2S          0.00002   0.00000   0.00000   0.00000  -0.00000
   3        3S         -0.00005   0.00000   0.00000   0.00000   0.00001
   4        4S          0.00016   0.00000   0.00000   0.00000  -0.00003
   5        5S         -0.00042   0.00000   0.00000   0.00000   0.00009
   6        6S          0.00108   0.00000   0.00000   0.00000  -0.00023
   7        7S         -0.00279   0.00000   0.00000   0.00000   0.00061
   8        8S          0.00800   0.00000   0.00000   0.00000  -0.00178
   9        9S         -0.03032   0.00000   0.00000   0.00000   0.00701
  10       10S          0.11823   0.00000   0.00000   0.00000  -0.02870
  11       11S         -0.12140   0.00000   0.00000   0.00000   0.03152
  12       12S         -0.23304   0.00000   0.00000   0.00000   0.06098
  13       13S          0.03768   0.00000   0.00000   0.00000  -0.01476
  14       14S          0.20194   0.00000   0.00000   0.00000  -0.05622
  15       15S          0.58636   0.00000   0.00000   0.00000  -0.21906
  16       16S          0.22497   0.00000   0.00000   0.00000  -0.18783
  17       17S          0.01458   0.00000   0.00000   0.00000   0.11059
  18       18S         -0.00652   0.00000   0.00000   0.00000   0.42405
  19       19S          0.00298   0.00000   0.00000   0.00000   0.50159
  20       20S         -0.00100   0.00000   0.00000   0.00000   0.13557
  21       21S         -0.15637   0.00000   0.00000   0.00000   0.03894
  22       22S          0.21739   0.00000   0.00000   0.00000  -0.06131
  23       23S          0.00027   0.00000   0.00000   0.00000   0.00045
  24       24PX         0.00000  -0.00000   0.00000   0.00000   0.00000
  25       24PY         0.00000   0.00000   0.00000  -0.00000   0.00000
  26       24PZ         0.00000   0.00000  -0.00000   0.00000   0.00000
  27       25PX         0.00000   0.00001   0.00000   0.00000   0.00000
  28       25PY         0.00000   0.00000   0.00000   0.00001   0.00000
  29       25PZ         0.00000   0.00000   0.00001   0.00000   0.00000
  30       26PX         0.00000  -0.00002   0.00000   0.00000   0.00000
  31       26PY         0.00000   0.00000   0.00000  -0.00002   0.00000
  32       26PZ         0.00000   0.00000  -0.00002   0.00000   0.00000
  33       27PX         0.00000   0.00007   0.00000   0.00000   0.00000
  34       27PY         0.00000   0.00000   0.00000   0.00007   0.00000
  35       27PZ         0.00000   0.00000   0.00007   0.00000   0.00000
  36       28PX         0.00000  -0.00023   0.00000   0.00000   0.00000
  37       28PY         0.00000   0.00000   0.00000  -0.00023   0.00000
  38       28PZ         0.00000   0.00000  -0.00023   0.00000   0.00000
  39       29PX         0.00000   0.00073   0.00000   0.00000   0.00000
  40       29PY         0.00000   0.00000   0.00000   0.00073   0.00000
  41       29PZ         0.00000   0.00000   0.00073   0.00000   0.00000
  42       30PX         0.00000  -0.00252   0.00000   0.00000   0.00000
  43       30PY         0.00000   0.00000   0.00000  -0.00252   0.00000
  44       30PZ         0.00000   0.00000  -0.00252   0.00000   0.00000
  45       31PX         0.00000   0.01166   0.00000   0.00000   0.00000
  46       31PY         0.00000   0.00000   0.00000   0.01166   0.00000
  47       31PZ         0.00000   0.00000   0.01166   0.00000   0.00000
  48       32PX         0.00000  -0.02839   0.00000   0.00000   0.00000
  49       32PY         0.00000   0.00000   0.00000  -0.02839   0.00000
  50       32PZ         0.00000   0.00000  -0.02839   0.00000   0.00000
  51       33PX         0.00000  -0.02282   0.00000   0.00000   0.00000
  52       33PY         0.00000   0.00000   0.00000  -0.02282   0.00000
  53       33PZ         0.00000   0.00000  -0.02282   0.00000   0.00000
  54       34PX         0.00000   0.06592   0.00000   0.00000   0.00000
  55       34PY         0.00000   0.00000   0.00000   0.06592   0.00000
  56       34PZ         0.00000   0.00000   0.06592   0.00000   0.00000
  57       35PX         0.00000   0.15636   0.00000   0.00000   0.00000
  58       35PY         0.00000   0.00000   0.00000   0.15636   0.00000
  59       35PZ         0.00000   0.00000   0.15636   0.00000   0.00000
  60       36PX         0.00000   0.38773   0.00000   0.00000   0.00000
  61       36PY         0.00000   0.00000   0.00000   0.38773   0.00000
  62       36PZ         0.00000   0.00000   0.38773   0.00000   0.00000
  63       37PX         0.00000   0.32811   0.00000   0.00000   0.00000
  64       37PY         0.00000   0.00000   0.00000   0.32811   0.00000
  65       37PZ         0.00000   0.00000   0.32811   0.00000   0.00000
  66       38PX         0.00000   0.10658   0.00000   0.00000   0.00000
  67       38PY         0.00000   0.00000   0.00000   0.10658   0.00000
  68       38PZ         0.00000   0.00000   0.10658   0.00000   0.00000
  69       39PX         0.00000   0.00941   0.00000   0.00000   0.00000
  70       39PY         0.00000   0.00000   0.00000   0.00941   0.00000
  71       39PZ         0.00000   0.00000   0.00941   0.00000   0.00000
  72       40PX         0.00000  -0.00029   0.00000   0.00000   0.00000
  73       40PY         0.00000   0.00000   0.00000  -0.00029   0.00000
  74       40PZ         0.00000   0.00000  -0.00029   0.00000   0.00000
  75       41PX         0.00000   0.00039   0.00000   0.00000   0.00000
  76       41PY         0.00000   0.00000   0.00000   0.00039   0.00000
  77       41PZ         0.00000   0.00000   0.00039   0.00000   0.00000
  78       42PX         0.00000  -0.06254   0.00000   0.00000   0.00000
  79       42PY         0.00000   0.00000   0.00000  -0.06254   0.00000
  80       42PZ         0.00000   0.00000  -0.06254   0.00000   0.00000
  81       43PX         0.00000   0.11178   0.00000   0.00000   0.00000
  82       43PY         0.00000   0.00000   0.00000   0.11178   0.00000
  83       43PZ         0.00000   0.00000   0.11178   0.00000   0.00000
  84       44PX         0.00000  -0.00011   0.00000   0.00000   0.00000
  85       44PY         0.00000   0.00000   0.00000  -0.00011   0.00000
  86       44PZ         0.00000   0.00000  -0.00011   0.00000   0.00000
  87       45D 0        0.00000   0.00000   0.00000   0.00000   0.00000
  88       45D+1        0.00000   0.00000   0.00000   0.00000   0.00000
  89       45D-1        0.00000   0.00000   0.00000   0.00000   0.00000
  90       45D+2        0.00000   0.00000   0.00000   0.00000   0.00000
  91       45D-2        0.00000   0.00000   0.00000   0.00000   0.00000
  92       46D 0       -0.00000   0.00000   0.00000   0.00000  -0.00000
  93       46D+1        0.00000   0.00000   0.00000   0.00000   0.00000
  94       46D-1        0.00000   0.00000   0.00000   0.00000   0.00000
  95       46D+2       -0.00000   0.00000   0.00000   0.00000  -0.00000
  96       46D-2        0.00000   0.00000   0.00000   0.00000   0.00000
  97       47D 0        0.00000   0.00000   0.00000   0.00000   0.00000
  98       47D+1        0.00000   0.00000   0.00000   0.00000   0.00000
  99       47D-1        0.00000   0.00000   0.00000   0.00000   0.00000
 100       47D+2        0.00000   0.00000   0.00000   0.00000   0.00000
 101       47D-2        0.00000   0.00000   0.00000   0.00000   0.00000
 102       48D 0        0.00000   0.00000   0.00000   0.00000   0.00000
 103       48D+1        0.00000   0.00000   0.00000   0.00000   0.00000
 104       48D-1        0.00000   0.00000   0.00000   0.00000   0.00000
 105       48D+2        0.00000   0.00000   0.00000   0.00000   0.00000
 106       48D-2        0.00000   0.00000   0.00000   0.00000   0.00000
 107       49D 0        0.00000   0.00000   0.00000   0.00000   0.00000
 108       49D+1        0.00000   0.00000   0.00000   0.00000   0.00000
 109       49D-1        0.00000   0.00000   0.00000   0.00000   0.00000
 110       49D+2        0.00000   0.00000   0.00000   0.00000   0.00000
 111       49D-2        0.00000   0.00000   0.00000   0.00000   0.00000
 112       50D 0        0.00000   0.00000   0.00000   0.00000   0.00000
 113       50D+1        0.00000   0.00000   0.00000   0.00000   0.00000
 114       50D-1        0.00000   0.00000   0.00000   0.00000   0.00000
 115       50D+2        0.00000   0.00000   0.00000   0.00000   0.00000
 116       50D-2        0.00000   0.00000   0.00000   0.00000   0.00000
 117       51D 0        0.00000   0.00000   0.00000   0.00000   0.00000
 118       51D+1        0.00000   0.00000   0.00000   0.00000   0.00000
 119       51D-1        0.00000   0.00000   0.00000   0.00000   0.00000
 120       51D+2        0.00000   0.00000   0.00000   0.00000   0.00000
 121       51D-2        0.00000   0.00000   0.00000   0.00000   0.00000
 122       52D 0        0.00000   0.00000   0.00000   0.00000   0.00000
 123       52D+1        0.00000   0.00000   0.00000   0.00000   0.00000
 124       52D-1        0.00000   0.00000   0.00000   0.00000   0.00000
 125       52D+2        0.00000   0.00000   0.00000   0.00000   0.00000
 126       52D-2        0.00000   0.00000   0.00000   0.00000   0.00000
 127       53D 0        0.00000   0.00000   0.00000   0.00000   0.00000
 128       53D+1        0.00000   0.00000   0.00000   0.00000   0.00000
 129       53D-1        0.00000   0.00000   0.00000   0.00000   0.00000
 130       53D+2        0.00000   0.00000   0.00000   0.00000   0.00000
 131       53D-2        0.00000   0.00000   0.00000   0.00000   0.00000
 132       54D 0        0.00000   0.00000   0.00000   0.00000   0.00000
 133       54D+1        0.00000   0.00000   0.00000   0.00000   0.00000
 134       54D-1        0.00000   0.00000   0.00000   0.00000   0.00000
 135       54D+2        0.00000   0.00000   0.00000   0.00000  -0.00000
 136       54D-2        0.00000   0.00000   0.00000   0.00000   0.00000
 137       55D 0        0.00000   0.00000   0.00000   0.00000  -0.00000
 138       55D+1        0.00000   0.00000   0.00000   0.00000   0.00000
 139       55D-1        0.00000   0.00000   0.00000   0.00000   0.00000
 140       55D+2        0.00000   0.00000   0.00000   0.00000  -0.00000
 141       55D-2        0.00000   0.00000   0.00000   0.00000   0.00000
 142       56D 0       -0.00000   0.00000   0.00000   0.00000  -0.00000
 143       56D+1        0.00000   0.00000   0.00000   0.00000   0.00000
 144       56D-1        0.00000   0.00000   0.00000   0.00000   0.00000
 145       56D+2       -0.00000   0.00000   0.00000   0.00000  -0.00000
 146       56D-2        0.00000   0.00000   0.00000   0.00000   0.00000
 147       57D 0        0.00000   0.00000   0.00000   0.00000   0.00000
 148       57D+1        0.00000   0.00000   0.00000   0.00000   0.00000
 149       57D-1        0.00000   0.00000   0.00000   0.00000   0.00000
 150       57D+2        0.00000   0.00000   0.00000   0.00000   0.00000
 151       57D-2        0.00000   0.00000   0.00000   0.00000   0.00000
 152       58D 0        0.00000   0.00000   0.00000   0.00000   0.00000
 153       58D+1        0.00000   0.00000   0.00000   0.00000   0.00000
 154       58D-1        0.00000   0.00000   0.00000   0.00000   0.00000
 155       58D+2        0.00000   0.00000   0.00000   0.00000   0.00000
 156       58D-2        0.00000   0.00000   0.00000   0.00000   0.00000
 157       59D 0        0.00000   0.00000   0.00000   0.00000   0.00000
 158       59D+1        0.00000   0.00000   0.00000   0.00000   0.00000
 159       59D-1        0.00000   0.00000   0.00000   0.00000   0.00000
 160       59D+2        0.00000   0.00000   0.00000   0.00000   0.00000
 161       59D-2        0.00000   0.00000   0.00000   0.00000   0.00000
 162       60F 0        0.00000   0.00000   0.00000   0.00000   0.00000
 163       60F+1        0.00000  -0.00000   0.00000   0.00000   0.00000
 164       60F-1        0.00000   0.00000   0.00000   0.00000   0.00000
 165       60F+2        0.00000   0.00000   0.00000   0.00000   0.00000
 166       60F-2        0.00000   0.00000   0.00000   0.00000   0.00000
 167       60F+3        0.00000   0.00000   0.00000   0.00000   0.00000
 168       60F-3        0.00000   0.00000   0.00000   0.00000   0.00000
 169       61F 0        0.00000   0.00000  -0.00000   0.00000   0.00000
 170       61F+1        0.00000   0.00000   0.00000   0.00000   0.00000
 171       61F-1        0.00000   0.00000   0.00000  -0.00000   0.00000
 172       61F+2        0.00000   0.00000  -0.00000   0.00000   0.00000
 173       61F-2        0.00000   0.00000   0.00000   0.00000   0.00000
 174       61F+3        0.00000  -0.00000   0.00000   0.00000   0.00000
 175       61F-3        0.00000   0.00000   0.00000  -0.00000   0.00000
 176       62F 0        0.00000   0.00000   0.00000   0.00000   0.00000
 177       62F+1        0.00000  -0.00000   0.00000   0.00000   0.00000
 178       62F-1        0.00000   0.00000   0.00000   0.00000   0.00000
 179       62F+2        0.00000   0.00000   0.00000   0.00000   0.00000
 180       62F-2        0.00000   0.00000   0.00000   0.00000   0.00000
 181       62F+3        0.00000   0.00000   0.00000   0.00000   0.00000
 182       62F-3        0.00000   0.00000   0.00000   0.00000   0.00000
 183       63F 0        0.00000   0.00000   0.00000   0.00000   0.00000
 184       63F+1        0.00000  -0.00000   0.00000   0.00000   0.00000
 185       63F-1        0.00000   0.00000   0.00000   0.00000   0.00000
 186       63F+2        0.00000   0.00000   0.00000   0.00000   0.00000
 187       63F-2        0.00000   0.00000   0.00000   0.00000   0.00000
 188       63F+3        0.00000   0.00000   0.00000   0.00000   0.00000
 189       63F-3        0.00000   0.00000   0.00000   0.00000   0.00000
 190       64F 0        0.00000   0.00000   0.00000   0.00000   0.00000
 191       64F+1        0.00000   0.00000   0.00000   0.00000   0.00000
 192       64F-1        0.00000   0.00000   0.00000  -0.00000   0.00000
 193       64F+2        0.00000   0.00000  -0.00000   0.00000   0.00000
 194       64F-2        0.00000   0.00000   0.00000   0.00000   0.00000
 195       64F+3        0.00000  -0.00000   0.00000   0.00000   0.00000
 196       64F-3        0.00000   0.00000   0.00000  -0.00000   0.00000
 197       65F 0        0.00000   0.00000  -0.00000   0.00000   0.00000
 198       65F+1        0.00000   0.00000   0.00000   0.00000   0.00000
 199       65F-1        0.00000   0.00000   0.00000  -0.00000   0.00000
 200       65F+2        0.00000   0.00000  -0.00000   0.00000   0.00000
 201       65F-2        0.00000   0.00000   0.00000   0.00000   0.00000
 202       65F+3        0.00000  -0.00000   0.00000   0.00000   0.00000
 203       65F-3        0.00000   0.00000   0.00000  -0.00000   0.00000
 204       66G 0       -0.00000   0.00000   0.00000   0.00000   0.00000
 205       66G+1        0.00000   0.00000   0.00000   0.00000   0.00000
 206       66G-1        0.00000   0.00000   0.00000   0.00000   0.00000
 207       66G+2       -0.00000   0.00000   0.00000   0.00000   0.00000
 208       66G-2        0.00000   0.00000   0.00000   0.00000   0.00000
 209       66G+3        0.00000   0.00000   0.00000   0.00000   0.00000
 210       66G-3        0.00000   0.00000   0.00000   0.00000   0.00000
 211       66G+4        0.00000   0.00000   0.00000   0.00000  -0.00000
 212       66G-4        0.00000   0.00000   0.00000   0.00000   0.00000
 213       67G 0        0.00000   0.00000   0.00000   0.00000  -0.00000
 214       67G+1        0.00000   0.00000   0.00000   0.00000   0.00000
 215       67G-1        0.00000   0.00000   0.00000   0.00000   0.00000
 216       67G+2       -0.00000   0.00000   0.00000   0.00000  -0.00000
 217       67G-2        0.00000   0.00000   0.00000   0.00000   0.00000
 218       67G+3        0.00000   0.00000   0.00000   0.00000   0.00000
 219       67G-3        0.00000   0.00000   0.00000   0.00000   0.00000
 220       67G+4        0.00000   0.00000   0.00000   0.00000   0.00000
 221       67G-4        0.00000   0.00000   0.00000   0.00000   0.00000
 222       68G 0       -0.00000   0.00000   0.00000   0.00000   0.00000
 223       68G+1        0.00000   0.00000   0.00000   0.00000   0.00000
 224       68G-1        0.00000   0.00000   0.00000   0.00000   0.00000
 225       68G+2       -0.00000   0.00000   0.00000   0.00000   0.00000
 226       68G-2        0.00000   0.00000   0.00000   0.00000   0.00000
 227       68G+3        0.00000   0.00000   0.00000   0.00000   0.00000
 228       68G-3        0.00000   0.00000   0.00000   0.00000   0.00000
 229       68G+4        0.00000   0.00000   0.00000   0.00000  -0.00000
 230       68G-4        0.00000   0.00000   0.00000   0.00000   0.00000
 231       69G 0        0.00000   0.00000   0.00000   0.00000   0.00000
 232       69G+1        0.00000   0.00000   0.00000   0.00000   0.00000
 233       69G-1        0.00000   0.00000   0.00000   0.00000   0.00000
 234       69G+2        0.00000   0.00000   0.00000   0.00000   0.00000
 235       69G-2        0.00000   0.00000   0.00000   0.00000   0.00000
 236       69G+3        0.00000   0.00000   0.00000   0.00000   0.00000
 237       69G-3        0.00000   0.00000   0.00000   0.00000   0.00000
 238       69G+4       -0.00000   0.00000   0.00000   0.00000  -0.00000
 239       69G-4        0.00000   0.00000   0.00000   0.00000   0.00000
 240       70G 0        0.00000   0.00000   0.00000   0.00000   0.00000
 241       70G+1        0.00000   0.00000   0.00000   0.00000   0.00000
 242       70G-1        0.00000   0.00000   0.00000   0.00000   0.00000
 243       70G+2        0.00000   0.00000   0.00000   0.00000   0.00000
 244       70G-2        0.00000   0.00000   0.00000   0.00000   0.00000
 245       70G+3        0.00000   0.00000   0.00000   0.00000   0.00000
 246       70G-3        0.00000   0.00000   0.00000   0.00000   0.00000
 247       70G+4       -0.00000   0.00000   0.00000   0.00000  -0.00000
 248       70G-4        0.00000   0.00000   0.00000   0.00000   0.00000
 249       71H 0        0.00000   0.00000   0.00000   0.00000   0.00000
 250       71H+1        0.00000   0.00000   0.00000   0.00000   0.00000
 251       71H-1        0.00000   0.00000   0.00000   0.00000   0.00000
 252       71H+2        0.00000   0.00000   0.00000   0.00000   0.00000
 253       71H-2        0.00000   0.00000   0.00000   0.00000   0.00000
 254       71H+3        0.00000   0.00000   0.00000   0.00000   0.00000
 255       71H-3        0.00000   0.00000   0.00000   0.00000   0.00000
 256       71H+4        0.00000   0.00000  -0.00000   0.00000   0.00000
 257       71H-4        0.00000   0.00000   0.00000   0.00000   0.00000
 258       71H+5        0.00000  -0.00000   0.00000   0.00000   0.00000
 259       71H-5        0.00000   0.00000   0.00000  -0.00000   0.00000
 260       72H 0        0.00000   0.00000   0.00000   0.00000   0.00000
 261       72H+1        0.00000  -0.00000   0.00000   0.00000   0.00000
 262       72H-1        0.00000   0.00000   0.00000   0.00000   0.00000
 263       72H+2        0.00000   0.00000   0.00000   0.00000   0.00000
 264       72H-2        0.00000   0.00000   0.00000   0.00000   0.00000
 265       72H+3        0.00000   0.00000   0.00000   0.00000   0.00000
 266       72H-3        0.00000   0.00000   0.00000   0.00000   0.00000
 267       72H+4        0.00000   0.00000  -0.00000   0.00000   0.00000
 268       72H-4        0.00000   0.00000   0.00000   0.00000   0.00000
 269       72H+5        0.00000  -0.00000   0.00000   0.00000   0.00000
 270       72H-5        0.00000   0.00000   0.00000  -0.00000   0.00000
 271       73H 0        0.00000   0.00000  -0.00000   0.00000   0.00000
 272       73H+1        0.00000  -0.00000   0.00000   0.00000   0.00000
 273       73H-1        0.00000   0.00000   0.00000  -0.00000   0.00000
 274       73H+2        0.00000   0.00000  -0.00000   0.00000   0.00000
 275       73H-2        0.00000   0.00000   0.00000   0.00000   0.00000
 276       73H+3        0.00000  -0.00000   0.00000   0.00000   0.00000
 277       73H-3        0.00000   0.00000   0.00000  -0.00000   0.00000
 278       73H+4        0.00000   0.00000   0.00000   0.00000   0.00000
 279       73H-4        0.00000   0.00000   0.00000   0.00000   0.00000
 280       73H+5        0.00000   0.00000   0.00000   0.00000   0.00000
 281       73H-5        0.00000   0.00000   0.00000   0.00000   0.00000
 282       74H 0        0.00000   0.00000   0.00000   0.00000   0.00000
 283       74H+1        0.00000   0.00000   0.00000   0.00000   0.00000
 284       74H-1        0.00000   0.00000   0.00000   0.00000   0.00000
 285       74H+2        0.00000   0.00000   0.00000   0.00000   0.00000
 286       74H-2        0.00000   0.00000   0.00000   0.00000   0.00000
 287       74H+3        0.00000   0.00000   0.00000   0.00000   0.00000
 288       74H-3        0.00000   0.00000   0.00000   0.00000   0.00000
 289       74H+4        0.00000   0.00000  -0.00000   0.00000   0.00000
 290       74H-4        0.00000   0.00000   0.00000   0.00000   0.00000
 291       74H+5        0.00000  -0.00000   0.00000   0.00000   0.00000
 292       74H-5        0.00000   0.00000   0.00000  -0.00000   0.00000
 293       75I 0       -0.00000   0.00000   0.00000   0.00000  -0.00000
 294       75I+1        0.00000   0.00000   0.00000   0.00000   0.00000
 295       75I-1        0.00000   0.00000   0.00000   0.00000   0.00000
 296       75I+2        0.00000   0.00000   0.00000   0.00000  -0.00000
 297       75I-2        0.00000   0.00000   0.00000   0.00000   0.00000
 298       75I+3        0.00000   0.00000   0.00000   0.00000   0.00000
 299       75I-3        0.00000   0.00000   0.00000   0.00000   0.00000
 300       75I+4        0.00000   0.00000   0.00000   0.00000   0.00000
 301       75I-4        0.00000   0.00000   0.00000   0.00000   0.00000
 302       75I+5        0.00000   0.00000   0.00000   0.00000   0.00000
 303       75I-5        0.00000   0.00000   0.00000   0.00000   0.00000
 304       75I+6        0.00000   0.00000   0.00000   0.00000   0.00000
 305       75I-6        0.00000   0.00000   0.00000   0.00000   0.00000
 306       76I 0       -0.00000   0.00000   0.00000   0.00000  -0.00000
 307       76I+1        0.00000   0.00000   0.00000   0.00000   0.00000
 308       76I-1        0.00000   0.00000   0.00000   0.00000   0.00000
 309       76I+2        0.00000   0.00000   0.00000   0.00000  -0.00000
 310       76I-2        0.00000   0.00000   0.00000   0.00000   0.00000
[...]
 109       49D-1        0.03636   0.03636   0.00000   0.03636
 110       49D+2        0.03636   0.03636   0.00000   0.03636
 111       49D-2        0.03636   0.03636   0.00000   0.03636
 112       50D 0        0.07612   0.07612   0.00000   0.07612
 113       50D+1        0.07612   0.07612   0.00000   0.07612
 114       50D-1        0.07612   0.07612   0.00000   0.07612
 115       50D+2        0.07612   0.07612   0.00000   0.07612
 116       50D-2        0.07612   0.07612   0.00000   0.07612
 117       51D 0        0.22372   0.22372   0.00000   0.22372
 118       51D+1        0.22372   0.22372   0.00000   0.22372
 119       51D-1        0.22372   0.22372   0.00000   0.22372
 120       51D+2        0.22372   0.22372   0.00000   0.22372
 121       51D-2        0.22372   0.22372   0.00000   0.22372
 122       52D 0        0.28614   0.28614   0.00000   0.28614
 123       52D+1        0.28614   0.28614   0.00000   0.28614
 124       52D-1        0.28614   0.28614   0.00000   0.28614
 125       52D+2        0.28614   0.28614   0.00000   0.28614
 126       52D-2        0.28614   0.28614   0.00000   0.28614
 127       53D 0        0.21158   0.21158   0.00000   0.21158
 128       53D+1        0.21158   0.21158   0.00000   0.21158
 129       53D-1        0.21158   0.21158   0.00000   0.21158
 130       53D+2        0.21158   0.21158   0.00000   0.21158
 131       53D-2        0.21158   0.21158   0.00000   0.21158
 132       54D 0        0.08187   0.08187  -0.00000   0.08187
 133       54D+1        0.08187   0.08187  -0.00000   0.08187
 134       54D-1        0.08187   0.08187  -0.00000   0.08187
 135       54D+2        0.08187   0.08187  -0.00000   0.08187
 136       54D-2        0.08187   0.08187  -0.00000   0.08187
 137       55D 0        0.01003   0.01003   0.00000   0.01003
 138       55D+1        0.01003   0.01003   0.00000   0.01003
 139       55D-1        0.01003   0.01003   0.00000   0.01003
 140       55D+2        0.01003   0.01003   0.00000   0.01003
 141       55D-2        0.01003   0.01003   0.00000   0.01003
 142       56D 0        0.00010   0.00010   0.00000   0.00010
 143       56D+1        0.00010   0.00010   0.00000   0.00010
 144       56D-1        0.00010   0.00010   0.00000   0.00010
 145       56D+2        0.00010   0.00010   0.00000   0.00010
 146       56D-2        0.00010   0.00010   0.00000   0.00010
 147       57D 0        0.03469   0.03469   0.00000   0.03469
 148       57D+1        0.03469   0.03469   0.00000   0.03469
 149       57D-1        0.03469   0.03469   0.00000   0.03469
 150       57D+2        0.03469   0.03469   0.00000   0.03469
 151       57D-2        0.03469   0.03469   0.00000   0.03469
 152       58D 0        0.02914   0.02914   0.00000   0.02914
 153       58D+1        0.02914   0.02914   0.00000   0.02914
 154       58D-1        0.02914   0.02914   0.00000   0.02914
 155       58D+2        0.02914   0.02914   0.00000   0.02914
 156       58D-2        0.02914   0.02914   0.00000   0.02914
 157       59D 0        0.00000   0.00000  -0.00000   0.00000
 158       59D+1        0.00000   0.00000  -0.00000   0.00000
 159       59D-1        0.00000   0.00000  -0.00000   0.00000
 160       59D+2        0.00000   0.00000  -0.00000   0.00000
 161       59D-2        0.00000   0.00000  -0.00000   0.00000
 162       60F 0        0.00000   0.00000   0.00000  -0.00000
 163       60F+1        0.00000   0.00000   0.00000  -0.00000
 164       60F-1        0.00000   0.00000   0.00000  -0.00000
 165       60F+2        0.00000   0.00000   0.00000   0.00000
 166       60F-2        0.00000   0.00000   0.00000  -0.00000
 167       60F+3        0.00000   0.00000   0.00000   0.00000
 168       60F-3        0.00000   0.00000   0.00000   0.00000
 169       61F 0       -0.00000  -0.00000  -0.00000   0.00000
 170       61F+1       -0.00000  -0.00000  -0.00000   0.00000
 171       61F-1       -0.00000  -0.00000  -0.00000   0.00000
 172       61F+2       -0.00000  -0.00000  -0.00000  -0.00000
 173       61F-2       -0.00000  -0.00000  -0.00000   0.00000
 174       61F+3       -0.00000  -0.00000  -0.00000  -0.00000
 175       61F-3       -0.00000  -0.00000  -0.00000  -0.00000
 176       62F 0        0.00000   0.00000   0.00000  -0.00000
 177       62F+1        0.00000   0.00000   0.00000  -0.00000
 178       62F-1        0.00000   0.00000   0.00000  -0.00000
 179       62F+2        0.00000   0.00000   0.00000   0.00000
 180       62F-2        0.00000   0.00000   0.00000  -0.00000
 181       62F+3        0.00000   0.00000   0.00000   0.00000
 182       62F-3        0.00000   0.00000   0.00000   0.00000
 183       63F 0        0.00000   0.00000   0.00000  -0.00000
 184       63F+1        0.00000   0.00000   0.00000  -0.00000
 185       63F-1        0.00000   0.00000   0.00000  -0.00000
 186       63F+2        0.00000   0.00000   0.00000   0.00000
 187       63F-2        0.00000   0.00000   0.00000  -0.00000
 188       63F+3        0.00000   0.00000   0.00000   0.00000
 189       63F-3        0.00000   0.00000   0.00000   0.00000
 190       64F 0       -0.00000   0.00000  -0.00000   0.00000
 191       64F+1       -0.00000  -0.00000  -0.00000   0.00000
 192       64F-1       -0.00000  -0.00000  -0.00000   0.00000
 193       64F+2       -0.00000  -0.00000  -0.00000  -0.00000
 194       64F-2       -0.00000  -0.00000  -0.00000   0.00000
 195       64F+3       -0.00000  -0.00000  -0.00000  -0.00000
 196       64F-3       -0.00000  -0.00000  -0.00000  -0.00000
 197       65F 0        0.00000  -0.00000   0.00000  -0.00000
 198       65F+1        0.00000   0.00000   0.00000  -0.00000
 199       65F-1        0.00000   0.00000   0.00000  -0.00000
 200       65F+2        0.00000   0.00000   0.00000   0.00000
 201       65F-2        0.00000   0.00000   0.00000  -0.00000
 202       65F+3        0.00000   0.00000   0.00000   0.00000
 203       65F-3        0.00000   0.00000   0.00000  -0.00000
 204       66G 0        0.00000   0.00000   0.00000   0.00000
 205       66G+1        0.00000   0.00000   0.00000   0.00000
 206       66G-1        0.00000   0.00000   0.00000   0.00000
 207       66G+2        0.00000   0.00000   0.00000   0.00000
 208       66G-2       -0.00000  -0.00000   0.00000  -0.00000
 209       66G+3        0.00000   0.00000   0.00000   0.00000
 210       66G-3        0.00000   0.00000   0.00000   0.00000
 211       66G+4        0.00000   0.00000   0.00000   0.00000
 212       66G-4        0.00000   0.00000   0.00000   0.00000
 213       67G 0       -0.00000  -0.00000   0.00000  -0.00000
 214       67G+1       -0.00000  -0.00000  -0.00000  -0.00000
 215       67G-1       -0.00000  -0.00000  -0.00000  -0.00000
 216       67G+2       -0.00000  -0.00000  -0.00000  -0.00000
 217       67G-2       -0.00000  -0.00000  -0.00000  -0.00000
 218       67G+3       -0.00000  -0.00000  -0.00000  -0.00000
 219       67G-3       -0.00000  -0.00000  -0.00000  -0.00000
 220       67G+4       -0.00000  -0.00000  -0.00000  -0.00000
 221       67G-4       -0.00000  -0.00000  -0.00000  -0.00000
 222       68G 0        0.00000   0.00000   0.00000   0.00000
 223       68G+1        0.00000   0.00000   0.00000   0.00000
 224       68G-1        0.00000   0.00000   0.00000   0.00000
 225       68G+2        0.00000   0.00000   0.00000   0.00000
 226       68G-2        0.00000   0.00000   0.00000   0.00000
 227       68G+3        0.00000   0.00000   0.00000   0.00000
 228       68G-3        0.00000   0.00000   0.00000   0.00000
 229       68G+4        0.00000   0.00000   0.00000   0.00000
 230       68G-4        0.00000   0.00000   0.00000   0.00000
 231       69G 0        0.00000   0.00000   0.00000   0.00000
 232       69G+1        0.00000   0.00000   0.00000   0.00000
 233       69G-1        0.00000   0.00000   0.00000   0.00000
 234       69G+2        0.00000   0.00000   0.00000   0.00000
 235       69G-2        0.00000   0.00000   0.00000   0.00000
 236       69G+3        0.00000   0.00000   0.00000   0.00000
 237       69G-3        0.00000   0.00000   0.00000   0.00000
 238       69G+4        0.00000   0.00000   0.00000   0.00000
 239       69G-4        0.00000   0.00000   0.00000   0.00000
 240       70G 0        0.00000   0.00000   0.00000   0.00000
 241       70G+1        0.00000   0.00000   0.00000   0.00000
 242       70G-1        0.00000   0.00000   0.00000   0.00000
 243       70G+2        0.00000   0.00000   0.00000   0.00000
 244       70G-2        0.00000   0.00000   0.00000   0.00000
 245       70G+3        0.00000   0.00000   0.00000   0.00000
 246       70G-3        0.00000   0.00000   0.00000   0.00000
 247       70G+4        0.00000   0.00000   0.00000   0.00000
 248       70G-4        0.00000   0.00000   0.00000   0.00000
 249       71H 0        0.00000   0.00000   0.00000  -0.00000
 250       71H+1        0.00000  -0.00000   0.00000  -0.00000
 251       71H-1        0.00000   0.00000   0.00000  -0.00000
 252       71H+2        0.00000   0.00000   0.00000  -0.00000
 253       71H-2        0.00000   0.00000   0.00000  -0.00000
 254       71H+3        0.00000   0.00000   0.00000   0.00000
 255       71H-3        0.00000   0.00000   0.00000  -0.00000
 256       71H+4        0.00000   0.00000   0.00000   0.00000
 257       71H-4        0.00000   0.00000   0.00000  -0.00000
 258       71H+5        0.00000   0.00000   0.00000   0.00000
 259       71H-5        0.00000   0.00000   0.00000   0.00000
 260       72H 0        0.00000   0.00000   0.00000  -0.00000
 261       72H+1        0.00000   0.00000   0.00000  -0.00000
 262       72H-1        0.00000   0.00000   0.00000  -0.00000
 263       72H+2        0.00000   0.00000   0.00000  -0.00000
 264       72H-2        0.00000   0.00000   0.00000  -0.00000
 265       72H+3        0.00000   0.00000   0.00000   0.00000
 266       72H-3        0.00000   0.00000   0.00000  -0.00000
 267       72H+4        0.00000   0.00000   0.00000   0.00000
 268       72H-4        0.00000   0.00000   0.00000  -0.00000
 269       72H+5        0.00000   0.00000   0.00000   0.00000
 270       72H-5        0.00000   0.00000   0.00000   0.00000
 271       73H 0       -0.00000  -0.00000  -0.00000   0.00000
 272       73H+1       -0.00000   0.00000  -0.00000   0.00000
 273       73H-1       -0.00000  -0.00000  -0.00000   0.00000
 274       73H+2       -0.00000  -0.00000  -0.00000   0.00000
 275       73H-2       -0.00000  -0.00000  -0.00000   0.00000
 276       73H+3       -0.00000  -0.00000  -0.00000  -0.00000
 277       73H-3       -0.00000  -0.00000  -0.00000   0.00000
 278       73H+4       -0.00000  -0.00000  -0.00000  -0.00000
 279       73H-4       -0.00000  -0.00000  -0.00000   0.00000
 280       73H+5       -0.00000  -0.00000  -0.00000  -0.00000
 281       73H-5       -0.00000  -0.00000  -0.00000  -0.00000
 282       74H 0        0.00000   0.00000   0.00000  -0.00000
 283       74H+1        0.00000   0.00000   0.00000  -0.00000
 284       74H-1        0.00000   0.00000   0.00000  -0.00000
 285       74H+2        0.00000   0.00000   0.00000  -0.00000
 286       74H-2        0.00000   0.00000   0.00000  -0.00000
 287       74H+3        0.00000   0.00000   0.00000  -0.00000
 288       74H-3        0.00000   0.00000   0.00000  -0.00000
 289       74H+4        0.00000   0.00000   0.00000   0.00000
 290       74H-4        0.00000   0.00000   0.00000  -0.00000
 291       74H+5        0.00000   0.00000   0.00000   0.00000
 292       74H-5        0.00000   0.00000   0.00000   0.00000
 293       75I 0        0.00000   0.00000   0.00000   0.00000
 294       75I+1        0.00000   0.00000   0.00000   0.00000
 295       75I-1        0.00000   0.00000   0.00000   0.00000
 296       75I+2        0.00000   0.00000   0.00000   0.00000
 297       75I-2        0.00000   0.00000   0.00000   0.00000
 298       75I+3        0.00000   0.00000   0.00000   0.00000
 299       75I-3        0.00000   0.00000   0.00000   0.00000
 300       75I+4        0.00000   0.00000   0.00000   0.00000
 301       75I-4        0.00000   0.00000   0.00000   0.00000
 302       75I+5       -0.00000  -0.00000   0.00000  -0.00000
 303       75I-5       -0.00000  -0.00000   0.00000  -0.00000
 304       75I+6       -0.00000  -0.00000   0.00000  -0.00000
 305       75I-6       -0.00000  -0.00000   0.00000  -0.00000
 306       76I 0        0.00000   0.00000  -0.00000   0.00000
 307       76I+1        0.00000   0.00000  -0.00000   0.00000
 308       76I-1        0.00000   0.00000  -0.00000   0.00000
 309       76I+2        0.00000   0.00000  -0.00000   0.00000
 310       76I-2        0.00000   0.00000  -0.00000   0.00000
 311       76I+3        0.00000   0.00000   0.00000   0.00000
 312       76I-3        0.00000   0.00000  -0.00000   0.00000
 313       76I+4        0.00000   0.00000   0.00000   0.00000
 314       76I-4        0.00000   0.00000   0.00000   0.00000
 315       76I+5       -0.00000  -0.00000  -0.00000  -0.00000
 316       76I-5       -0.00000  -0.00000   0.00000  -0.00000
 317       76I+6       -0.00000  -0.00000  -0.00000  -0.00000
 318       76I-6       -0.00000  -0.00000  -0.00000  -0.00000
 319       77I 0        0.00000   0.00000   0.00000   0.00000
 320       77I+1        0.00000   0.00000   0.00000   0.00000
 321       77I-1        0.00000   0.00000   0.00000   0.00000
 322       77I+2        0.00000   0.00000   0.00000   0.00000
 323       77I-2        0.00000   0.00000   0.00000   0.00000
 324       77I+3        0.00000   0.00000   0.00000   0.00000
 325       77I-3        0.00000   0.00000   0.00000   0.00000
 326       77I+4        0.00000   0.00000   0.00000   0.00000
 327       77I-4        0.00000   0.00000   0.00000   0.00000
 328       77I+5        0.00000   0.00000   0.00000   0.00000
 329       77I-5        0.00000   0.00000   0.00000   0.00000
 330       77I+6        0.00000   0.00000   0.00000   0.00000
 331       77I-6        0.00000   0.00000   0.00000   0.00000
          Condensed to atoms (all electrons):
               1
     1  Mn  15.000000
          Atomic-Atomic Spin Densities.
               1
     1  Mn   5.000000
 Mulliken charges and spin densities:
               1          2
     1  Mn  -0.000000   5.000000
 Sum of Mulliken charges =  -0.00000   5.00000
 Mulliken charges and spin densities with hydrogens summed into heavy atoms:
               1          2
     1  Mn  -0.000000   5.000000
 Electronic spatial extent (au):  <R**2>=             41.8802
 Charge=             -0.0000 electrons
 Dipole moment (field-independent basis, Debye):
    X=              0.0000    Y=              0.0000    Z=              0.0000  Tot=              0.0000
 Quadrupole moment (field-independent basis, Debye-Ang):
   XX=            -18.7768   YY=            -18.7768   ZZ=            -18.7768
   XY=              0.0000   XZ=             -0.0000   YZ=             -0.0000
 Traceless Quadrupole moment (field-independent basis, Debye-Ang):
   XX=              0.0000   YY=             -0.0000   ZZ=              0.0000
   XY=              0.0000   XZ=             -0.0000   YZ=             -0.0000
 Octapole moment (field-independent basis, Debye-Ang**2):
  XXX=              0.0000  YYY=              0.0000  ZZZ=              0.0000  XYY=              0.0000
  XXY=              0.0000  XXZ=              0.0000  XZZ=              0.0000  YZZ=              0.0000
  YYZ=              0.0000  XYZ=              0.0000
 Hexadecapole moment (field-independent basis, Debye-Ang**3):
 XXXX=            -48.3666 YYYY=            -48.3666 ZZZZ=            -48.3666 XXXY=              0.0000
 XXXZ=             -0.0000 YYYX=              0.0000 YYYZ=             -0.0000 ZZZX=             -0.0000
 ZZZY=             -0.0000 XXYY=            -16.1222 XXZZ=            -16.1222 YYZZ=            -16.1222
 XXYZ=             -0.0000 YYXZ=             -0.0000 ZZXY=              0.0000
 N-N= 0.000000000000D+00 E-N=-2.394604544115D+02  KE= 5.851957957470D+01
 Symmetry AG   KE= 1.793577446307D+01
 Symmetry B1G  KE= 6.574519057792D+00
 Symmetry B2G  KE= 6.574519004522D+00
 Symmetry B3G  KE= 6.574519103270D+00
 Symmetry AU   KE= 1.263203591281D-49
 Symmetry B1U  KE= 6.953415982432D+00
 Symmetry B2U  KE= 6.953415975905D+00
 Symmetry B3U  KE= 6.953415988078D+00
 Symmetry AG   SP= 2.000000000000D+00
 Symmetry B1G  SP= 1.000000000000D+00
 Symmetry B2G  SP= 1.000000000000D+00
 Symmetry B3G  SP= 1.000000000000D+00
 Symmetry AU   SP=-2.251011721110D-50
 Symmetry B1U  SP= 1.256045539423D-15
 Symmetry B2U  SP= 1.248993548677D-15
 Symmetry B3U  SP=-1.622997918505D-15
 Orbital energies and kinetic energies (alpha):
                                 1                 2
   1         (A1G)--O         -4.130193          2.070402
   2         (T1U)--O         -2.757734          3.476708
   3         (T1U)--O         -2.757734          3.476708
   4         (T1U)--O         -2.757734          3.476708
   5         (A1G)--O         -0.638465          0.322966
   6         (EG)--O          -0.638465          6.574519
   7         (T2G)--O         -0.638465          6.574519
   8         (T2G)--O         -0.638465          6.574519
   9         (T2G)--O         -0.638465          6.574519
  10         (EG)--O          -0.267152          6.574519
  11         (T1U)--V          0.017195          0.056619
  12         (T1U)--V          0.017195          0.056619
  13         (T1U)--V          0.017195          0.056619
  14         (A1G)--V          0.021268          0.034659
  15         (EG)--V           0.055960          0.059590
 Total kinetic energy from orbitals= 9.139217484837D+01
                          Isotropic Fermi Contact Couplings
        Atom                 a.u.       MegaHertz       Gauss      10(-4) cm-1
     1  Mn(55)             0.00000       0.00000       0.00000       0.00000
 --------------------------------------------------------
       Center         ----  Spin Dipole Couplings  ----
                      3XX-RR        3YY-RR        3ZZ-RR
 --------------------------------------------------------
     1   Atom       -0.000000      0.000000      0.000000
 --------------------------------------------------------
                        XY            XZ            YZ
 --------------------------------------------------------
     1   Atom        0.000000      0.000000      0.000000
 --------------------------------------------------------


 ---------------------------------------------------------------------------------
              Anisotropic Spin Dipole Couplings in Principal Axis System
 ---------------------------------------------------------------------------------

       Atom             a.u.   MegaHertz   Gauss  10(-4) cm-1        Axes

              Baa    -0.0000    -0.000    -0.000    -0.000  1.0000  0.0000  0.0000
     1 Mn(55) Bbb     0.0000     0.000     0.000     0.000  0.0000  0.0000  1.0000
              Bcc     0.0000     0.000     0.000     0.000 -0.0000  1.0000  0.0000
 

 ---------------------------------------------------------------------------------

 No NMR shielding tensors so no spin-rotation constants.
 Leave Link  601 at Wed Apr  4 07:49:52 2018, MaxMem= 21474836480 cpu:             111.2 elap:               3.6
 (Enter /home1/apps/gaussian/16rA.03/g16/l9999.exe)

 Test job not archived.
 1\1\GINC-C506-093\SP\ROCCSD(T)-Full\Gen\Mn1(6)\AANNABE\04-Apr-2018\0\\
 #P ROCCSD(T)=(maxcyc=150, Full)/Gen 5d 7f SCF=(maxcycles=300, NoVarAcc
 , VShift=200) MaxDisk=100GB Pop=Regular Pseudo=Read Guess=Read IOp(5/1
 5=2)\\Mn\\0,6\Mn,0,0.,0.,0.\\Version=ES64L-G16RevA.03\State=6-A1G\HF=-
 103.6999349\MP2=-104.3132258\MP3=-104.3094839\PUHF=-103.6999349\PMP2-0
 =-104.3132258\MP4SDQ=-104.3120002\CCSD=-104.312128\CCSD(T)=-104.331065
 3\RMSD=5.400e-09\PG=OH [O(Mn1)]\\@


 Fatherhood is pretending the present you love most is soap-on-a-rope.
 -- Bill Cosby
 Job cpu time:       0 days  6 hours 53 minutes  7.7 seconds.
 Elapsed time:       0 days  0 hours 13 minutes  1.1 seconds.
 File lengths (MBytes):  RWF=   7527 Int=      0 D2E=      0 Chk=     13 Scr=      1
 Normal termination of Gaussian 16 at Wed Apr  4 07:49:52 2018.
