 Entering Gaussian System, Link 0=g16
 Initial command:
 /home1/apps/gaussian/16rA.03/g16/l1.exe "/tmp/Gau-191420.inp" -scrdir="/tmp/"
 Entering Link 1 = /home1/apps/gaussian/16rA.03/g16/l1.exe PID=    191421.
  
 Copyright (c) 1988,1990,1992,1993,1995,1998,2003,2009,2016,
            Gaussian, Inc.  All Rights Reserved.
  
 This is part of the Gaussian(R) 16 program.  It is based on
 the Gaussian(R) 09 system (copyright 2009, Gaussian, Inc.),
 the Gaussian(R) 03 system (copyright 2003, Gaussian, Inc.),
 the Gaussian(R) 98 system (copyright 1998, Gaussian, Inc.),
 the Gaussian(R) 94 system (copyright 1995, Gaussian, Inc.),
 the Gaussian 92(TM) system (copyright 1992, Gaussian, Inc.),
 the Gaussian 90(TM) system (copyright 1990, Gaussian, Inc.),
 the Gaussian 88(TM) system (copyright 1988, Gaussian, Inc.),
 the Gaussian 86(TM) system (copyright 1986, Carnegie Mellon
 University), and the Gaussian 82(TM) system (copyright 1983,
 Carnegie Mellon University). Gaussian is a federally registered
 trademark of Gaussian, Inc.
  
 This software contains proprietary and confidential information,
 including trade secrets, belonging to Gaussian, Inc.
  
 This software is provided under written license and may be
 used, copied, transmitted, or stored only in accord with that
 written license.
  
 The following legend is applicable only to US Government
 contracts under FAR:
  
                    RESTRICTED RIGHTS LEGEND
  
 Use, reproduction and disclosure by the US Government is
 subject to restrictions as set forth in subparagraphs (a)
 and (c) of the Commercial Computer Software - Restricted
 Rights clause in FAR 52.227-19.
  
 Gaussian, Inc.
 340 Quinnipiac St., Bldg. 40, Wallingford CT 06492
  
  
 ---------------------------------------------------------------
 Warning -- This program may not be used in any manner that
 competes with the business of Gaussian, Inc. or will provide
 assistance to any competitor of Gaussian, Inc.  The licensee
 of this program is prohibited from giving any competitor of
 Gaussian, Inc. access to this program.  By using this program,
 the user acknowledges that Gaussian, Inc. is engaged in the
 business of creating and licensing software in the field of
 computational chemistry and represents and warrants to the
 licensee that it is not a competitor of Gaussian, Inc. and that
 it will not use this program in any manner prohibited above.
 ---------------------------------------------------------------
  

 Cite this work as:
 Gaussian 16, Revision A.03,
 M. J. Frisch, G. W. Trucks, H. B. Schlegel, G. E. Scuseria, 
 M. A. Robb, J. R. Cheeseman, G. Scalmani, V. Barone, 
 G. A. Petersson, H. Nakatsuji, X. Li, M. Caricato, A. V. Marenich, 
 J. Bloino, B. G. Janesko, R. Gomperts, B. Mennucci, H. P. Hratchian, 
 J. V. Ortiz, A. F. Izmaylov, J. L. Sonnenberg, D. Williams-Young, 
 F. Ding, F. Lipparini, F. Egidi, J. Goings, B. Peng, A. Petrone, 
 T. Henderson, D. Ranasinghe, V. G. Zakrzewski, J. Gao, N. Rega, 
 G. Zheng, W. Liang, M. Hada, M. Ehara, K. Toyota, R. Fukuda, 
 J. Hasegawa, M. Ishida, T. Nakajima, Y. Honda, O. Kitao, H. Nakai, 
 T. Vreven, K. Throssell, J. A. Montgomery, Jr., J. E. Peralta, 
 F. Ogliaro, M. J. Bearpark, J. J. Heyd, E. N. Brothers, K. N. Kudin, 
 V. N. Staroverov, T. A. Keith, R. Kobayashi, J. Normand, 
 K. Raghavachari, A. P. Rendell, J. C. Burant, S. S. Iyengar, 
 J. Tomasi, M. Cossi, J. M. Millam, M. Klene, C. Adamo, R. Cammi, 
 J. W. Ochterski, R. L. Martin, K. Morokuma, O. Farkas, 
 J. B. Foresman, and D. J. Fox, Gaussian, Inc., Wallingford CT, 2016.
 
 ******************************************
 Gaussian 16:  ES64L-G16RevA.03 25-Dec-2016
                26-Mar-2018 
 ******************************************
 %mem=80GB
 %cpu=0-31
 SetSPE:  set environment variable "MP_BIND" = "yes"
 SetSPE:  set environment variable "MP_BLIST" = "0,1,2,3,4,5,6,7,8,9,10,11,12,13,14,15,16,17,18,19,20,21,22,23,24,25,26,27,28,29,30,31"
 Will use up to   32 processors via shared memory.
 %chk=qz.chk
 %rwf=/scratch/04843/gwang18/nio/
 ----------------------------------------------------------------------
 #P ROCCSD(T)=(MaxCyc=150, Full)/Gen SCF=(maxcycle=400) Pseudo=Read Int
 egral(NoXCTest) Pop=Regular MaxDisk=500GB Guess=Read IOp(5/15=2)
 ----------------------------------------------------------------------
 1/38=1,172=1/1;
 2/12=2,17=6,18=5,40=1/2;
 3/5=7,11=2,16=1,17=8,25=1,30=1,47=8,116=101/1,2,3;
 4/5=1/1;
 5/5=2,7=400,15=2,38=6/2;
 8/5=-1,6=4,9=120000,10=90/1,4;
 9/5=7,6=150,14=2/13;
 6//1;
 99/5=1,9=1/99;
 Leave Link    1 at Mon Mar 26 18:19:20 2018, MaxMem= 10737418240 cpu:               6.4 elap:               0.2
 (Enter /home1/apps/gaussian/16rA.03/g16/l101.exe)
 ---
 NiO
 ---
 Symbolic Z-matrix:
 Charge =  0 Multiplicity = 3
 Ni                    0.        0.        0. 
 O                     0.        0.        1.6 
 
 ITRead=  0  0
 MicOpt= -1 -1
 NAtoms=      2 NQM=        2 NQMF=       0 NMMI=      0 NMMIF=      0
                NMic=       0 NMicF=      0.
                    Isotopes and Nuclear Properties:
 (Nuclear quadrupole moments (NQMom) in fm**2, nuclear magnetic moments (NMagM)
  in nuclear magnetons)

  Atom         1           2
 IAtWgt=          58          16
 AtmWgt=  57.9353471  15.9949146
 NucSpn=           0           0
 AtZEff=  -0.0000000  -0.0000000
 NQMom=    0.0000000   0.0000000
 NMagM=    0.0000000   0.0000000
 AtZNuc=  28.0000000   8.0000000
 Leave Link  101 at Mon Mar 26 18:19:20 2018, MaxMem= 10737418240 cpu:               3.1 elap:               0.1
 (Enter /home1/apps/gaussian/16rA.03/g16/l202.exe)
                          Input orientation:                          
 ---------------------------------------------------------------------
 Center     Atomic      Atomic             Coordinates (Angstroms)
 Number     Number       Type             X           Y           Z
 ---------------------------------------------------------------------
      1         28           0        0.000000    0.000000    0.000000
      2          8           0        0.000000    0.000000    1.600000
 ---------------------------------------------------------------------
 Stoichiometry    NiO(3)
 Framework group  C*V[C*(ONi)]
 Deg. of freedom     1
 Full point group                 C*V     NOp   4
 Largest Abelian subgroup         C2V     NOp   4
 Largest concise Abelian subgroup C1      NOp   1
                         Standard orientation:                         
 ---------------------------------------------------------------------
 Center     Atomic      Atomic             Coordinates (Angstroms)
 Number     Number       Type             X           Y           Z
 ---------------------------------------------------------------------
      1         28           0        0.000000    0.000000    0.355556
      2          8           0        0.000000    0.000000   -1.244444
 ---------------------------------------------------------------------
 Rotational constants (GHZ):           0.0000000          15.7497599          15.7497599
 Leave Link  202 at Mon Mar 26 18:19:20 2018, MaxMem= 10737418240 cpu:               0.8 elap:               0.1
 (Enter /home1/apps/gaussian/16rA.03/g16/l301.exe)
 General basis read from cards:  (5D, 7F)
 Centers:       1
 S 1 1.00
     Exponent=  1.5503020000D+07 Coefficients=  1.0000000000D+00
 S 1 1.00
     Exponent=  2.3210710000D+06 Coefficients=  1.0000000000D+00
 S 1 1.00
     Exponent=  5.2818020000D+05 Coefficients=  1.0000000000D+00
 S 1 1.00
     Exponent=  1.4960400000D+05 Coefficients=  1.0000000000D+00
 S 1 1.00
     Exponent=  4.8809070000D+04 Coefficients=  1.0000000000D+00
 S 1 1.00
     Exponent=  1.7622390000D+04 Coefficients=  1.0000000000D+00
 S 1 1.00
     Exponent=  6.8742010000D+03 Coefficients=  1.0000000000D+00
 S 1 1.00
     Exponent=  2.8518570000D+03 Coefficients=  1.0000000000D+00
 S 1 1.00
     Exponent=  1.2443340000D+03 Coefficients=  1.0000000000D+00
 S 1 1.00
     Exponent=  5.6615470000D+02 Coefficients=  1.0000000000D+00
 S 1 1.00
     Exponent=  2.6678730000D+02 Coefficients=  1.0000000000D+00
 S 1 1.00
     Exponent=  1.2937520000D+02 Coefficients=  1.0000000000D+00
 S 1 1.00
     Exponent=  6.3651610000D+01 Coefficients=  1.0000000000D+00
 S 1 1.00
     Exponent=  2.9333020000D+01 Coefficients=  1.0000000000D+00
 S 1 1.00
     Exponent=  1.4822120000D+01 Coefficients=  1.0000000000D+00
 S 1 1.00
     Exponent=  7.4605130000D+00 Coefficients=  1.0000000000D+00
 S 1 1.00
     Exponent=  3.4135760000D+00 Coefficients=  1.0000000000D+00
 S 1 1.00
     Exponent=  1.6328840000D+00 Coefficients=  1.0000000000D+00
 S 1 1.00
     Exponent=  7.4357900000D-01 Coefficients=  1.0000000000D+00
 S 1 1.00
     Exponent=  1.7259200000D-01 Coefficients=  1.0000000000D+00
 S 1 1.00
     Exponent=  7.7420000000D-02 Coefficients=  1.0000000000D+00
 S 1 1.00
     Exponent=  3.3701000000D-02 Coefficients=  1.0000000000D+00
 S 1 1.00
     Exponent=  6.5001000000D+00 Coefficients=  1.0000000000D+00
 S 1 1.00
     Exponent=  1.7599000000D+00 Coefficients=  1.0000000000D+00
 S 1 1.00
     Exponent=  1.4670000000D-02 Coefficients=  1.0000000000D+00
 P 1 1.00
     Exponent=  4.5066620000D+04 Coefficients=  1.0000000000D+00
 P 1 1.00
     Exponent=  1.0662640000D+04 Coefficients=  1.0000000000D+00
 P 1 1.00
     Exponent=  3.4634310000D+03 Coefficients=  1.0000000000D+00
 P 1 1.00
     Exponent=  1.3266240000D+03 Coefficients=  1.0000000000D+00
 P 1 1.00
     Exponent=  5.6474140000D+02 Coefficients=  1.0000000000D+00
 P 1 1.00
     Exponent=  2.5882880000D+02 Coefficients=  1.0000000000D+00
 P 1 1.00
     Exponent=  1.2531150000D+02 Coefficients=  1.0000000000D+00
 P 1 1.00
     Exponent=  6.3242330000D+01 Coefficients=  1.0000000000D+00
 P 1 1.00
     Exponent=  3.2824060000D+01 Coefficients=  1.0000000000D+00
 P 1 1.00
     Exponent=  1.7396920000D+01 Coefficients=  1.0000000000D+00
 P 1 1.00
     Exponent=  9.3243940000D+00 Coefficients=  1.0000000000D+00
 P 1 1.00
     Exponent=  4.9388390000D+00 Coefficients=  1.0000000000D+00
 P 1 1.00
     Exponent=  2.5620250000D+00 Coefficients=  1.0000000000D+00
 P 1 1.00
     Exponent=  1.2992940000D+00 Coefficients=  1.0000000000D+00
 P 1 1.00
     Exponent=  6.3467800000D-01 Coefficients=  1.0000000000D+00
 P 1 1.00
     Exponent=  2.3226200000D-01 Coefficients=  1.0000000000D+00
 P 1 1.00
     Exponent=  9.1546000000D-02 Coefficients=  1.0000000000D+00
 P 1 1.00
     Exponent=  3.5643000000D-02 Coefficients=  1.0000000000D+00
 P 1 1.00
     Exponent=  1.0416500000D+01 Coefficients=  1.0000000000D+00
 P 1 1.00
     Exponent=  2.9093000000D+00 Coefficients=  1.0000000000D+00
 P 1 1.00
     Exponent=  1.3880000000D-02 Coefficients=  1.0000000000D+00
 D 1 1.00
     Exponent=  4.1434270000D+02 Coefficients=  1.0000000000D+00
 D 1 1.00
     Exponent=  1.2439260000D+02 Coefficients=  1.0000000000D+00
 D 1 1.00
     Exponent=  4.8115400000D+01 Coefficients=  1.0000000000D+00
 D 1 1.00
     Exponent=  2.0842000000D+01 Coefficients=  1.0000000000D+00
 D 1 1.00
     Exponent=  9.6221000000D+00 Coefficients=  1.0000000000D+00
 D 1 1.00
     Exponent=  4.6034000000D+00 Coefficients=  1.0000000000D+00
 D 1 1.00
     Exponent=  2.1963000000D+00 Coefficients=  1.0000000000D+00
 D 1 1.00
     Exponent=  1.0206000000D+00 Coefficients=  1.0000000000D+00
 D 1 1.00
     Exponent=  4.5440000000D-01 Coefficients=  1.0000000000D+00
 D 1 1.00
     Exponent=  1.9000000000D-01 Coefficients=  1.0000000000D+00
 D 1 1.00
     Exponent=  7.1500000000D-02 Coefficients=  1.0000000000D+00
 D 1 1.00
     Exponent=  6.9565000000D+00 Coefficients=  1.0000000000D+00
 D 1 1.00
     Exponent=  3.6674000000D+00 Coefficients=  1.0000000000D+00
 D 1 1.00
     Exponent=  2.6910000000D-02 Coefficients=  1.0000000000D+00
 F 1 1.00
     Exponent=  1.0379100000D+01 Coefficients=  1.0000000000D+00
 F 1 1.00
     Exponent=  4.4257000000D+00 Coefficients=  1.0000000000D+00
 F 1 1.00
     Exponent=  1.8872000000D+00 Coefficients=  1.0000000000D+00
 F 1 1.00
     Exponent=  6.5380000000D-01 Coefficients=  1.0000000000D+00
 F 1 1.00
     Exponent=  2.2650000000D-01 Coefficients=  1.0000000000D+00
 G 1 1.00
     Exponent=  8.5105000000D+00 Coefficients=  1.0000000000D+00
 G 1 1.00
     Exponent=  3.8307000000D+00 Coefficients=  1.0000000000D+00
 G 1 1.00
     Exponent=  1.5457000000D+00 Coefficients=  1.0000000000D+00
 G 1 1.00
     Exponent=  6.2370000000D-01 Coefficients=  1.0000000000D+00
 H 1 1.00
     Exponent=  7.7448000000D+00 Coefficients=  1.0000000000D+00
 H 1 1.00
     Exponent=  3.3495000000D+00 Coefficients=  1.0000000000D+00
 H 1 1.00
     Exponent=  1.4486000000D+00 Coefficients=  1.0000000000D+00
 ****
 Centers:       2
 S 1 1.00
     Exponent=  6.1420000000D+04 Coefficients=  1.0000000000D+00
 S 1 1.00
     Exponent=  9.1990000000D+03 Coefficients=  1.0000000000D+00
 S 1 1.00
     Exponent=  2.0910000000D+03 Coefficients=  1.0000000000D+00
 S 1 1.00
     Exponent=  5.9090000000D+02 Coefficients=  1.0000000000D+00
 S 1 1.00
     Exponent=  1.9230000000D+02 Coefficients=  1.0000000000D+00
 S 1 1.00
     Exponent=  6.9320000000D+01 Coefficients=  1.0000000000D+00
 S 1 1.00
     Exponent=  2.6970000000D+01 Coefficients=  1.0000000000D+00
 S 1 1.00
     Exponent=  1.1100000000D+01 Coefficients=  1.0000000000D+00
 S 1 1.00
     Exponent=  4.6820000000D+00 Coefficients=  1.0000000000D+00
 S 1 1.00
     Exponent=  1.4280000000D+00 Coefficients=  1.0000000000D+00
 S 1 1.00
     Exponent=  5.5470000000D-01 Coefficients=  1.0000000000D+00
 S 1 1.00
     Exponent=  2.0670000000D-01 Coefficients=  1.0000000000D+00
 S 1 1.00
     Exponent=  1.2974000000D+01 Coefficients=  1.0000000000D+00
 S 1 1.00
     Exponent=  3.4900000000D+01 Coefficients=  1.0000000000D+00
 S 1 1.00
     Exponent=  9.3881000000D+01 Coefficients=  1.0000000000D+00
 S 1 1.00
     Exponent=  6.9590000000D-02 Coefficients=  1.0000000000D+00
 P 1 1.00
     Exponent=  6.3420000000D+01 Coefficients=  1.0000000000D+00
 P 1 1.00
     Exponent=  1.4660000000D+01 Coefficients=  1.0000000000D+00
 P 1 1.00
     Exponent=  4.4590000000D+00 Coefficients=  1.0000000000D+00
 P 1 1.00
     Exponent=  1.5310000000D+00 Coefficients=  1.0000000000D+00
 P 1 1.00
     Exponent=  5.3020000000D-01 Coefficients=  1.0000000000D+00
 P 1 1.00
     Exponent=  1.7500000000D-01 Coefficients=  1.0000000000D+00
 P 1 1.00
     Exponent=  1.4475000000D+01 Coefficients=  1.0000000000D+00
 P 1 1.00
     Exponent=  4.2730000000D+01 Coefficients=  1.0000000000D+00
 P 1 1.00
     Exponent=  1.2614000000D+02 Coefficients=  1.0000000000D+00
 P 1 1.00
     Exponent=  5.3480000000D-02 Coefficients=  1.0000000000D+00
 D 1 1.00
     Exponent=  3.7750000000D+00 Coefficients=  1.0000000000D+00
 D 1 1.00
     Exponent=  1.3000000000D+00 Coefficients=  1.0000000000D+00
 D 1 1.00
     Exponent=  4.4400000000D-01 Coefficients=  1.0000000000D+00
 D 1 1.00
     Exponent=  1.4927000000D+01 Coefficients=  1.0000000000D+00
 D 1 1.00
     Exponent=  5.7544000000D+01 Coefficients=  1.0000000000D+00
 D 1 1.00
     Exponent=  1.5400000000D-01 Coefficients=  1.0000000000D+00
 F 1 1.00
     Exponent=  2.6660000000D+00 Coefficients=  1.0000000000D+00
 F 1 1.00
     Exponent=  8.5900000000D-01 Coefficients=  1.0000000000D+00
 F 1 1.00
     Exponent=  2.6483000000D+01 Coefficients=  1.0000000000D+00
 F 1 1.00
     Exponent=  3.2400000000D-01 Coefficients=  1.0000000000D+00
 G 1 1.00
     Exponent=  1.8460000000D+00 Coefficients=  1.0000000000D+00
 G 1 1.00
     Exponent=  7.1400000000D-01 Coefficients=  1.0000000000D+00
 ****
 ======================================================================================================
                                       Pseudopotential Parameters
 ======================================================================================================
  Center     Atomic      Valence      Angular      Power
  Number     Number     Electrons     Momentum     of R      Exponent        Coefficient   SO-Coeffient
 ======================================================================================================
    1         28           18
                                      D and up 
                                                     1       21.8180446       18.00000000    0.00000000
                                                     3       35.2110128      392.72480289    0.00000000
                                                     2       23.6992575     -150.77747349    0.00000000
                                                     2        9.0979779        0.87797910    0.00000000
                                      S - D
                                                     2       14.1241004       83.50736810    0.00000000
                                                     2       25.8110686      353.95993490    0.00000000
                                      P - D
                                                     2       10.0823891       44.99270171    0.00000000
                                                     2       37.6049913      268.79379402    0.00000000
    2          8            6
                                      P and up 
                                                     1       12.3099744        6.00000000    0.00000000
                                                     3       14.7696229       73.85984616    0.00000000
                                                     2       13.7141954      -47.87600504    0.00000000
                                      S - P
                                                     2       13.6551200       85.86406526    0.00000000
 ======================================================================================================
 Ernie: Thresh=  0.10000D-02 Tol=  0.10000D-05 Strict=F.
 There are   213 symmetry adapted cartesian basis functions of A1  symmetry.
 There are    56 symmetry adapted cartesian basis functions of A2  symmetry.
 There are   114 symmetry adapted cartesian basis functions of B1  symmetry.
 There are   114 symmetry adapted cartesian basis functions of B2  symmetry.
 There are   157 symmetry adapted basis functions of A1  symmetry.
 There are    47 symmetry adapted basis functions of A2  symmetry.
 There are    90 symmetry adapted basis functions of B1  symmetry.
 There are    90 symmetry adapted basis functions of B2  symmetry.
   384 basis functions,   497 primitive gaussians,   497 cartesian basis functions
    13 alpha electrons       11 beta electrons
       nuclear repulsion energy        35.7194617371 Hartrees.
 IExCor=    0 DFT=F Ex=HF Corr=None ExCW=0 ScaHFX=  1.000000
 ScaDFX=  1.000000  1.000000  1.000000  1.000000 ScalE2=  1.000000  1.000000
 IRadAn=      5 IRanWt=     -1 IRanGd=            0 ICorTp=0 IEmpDi=  4
 NAtoms=    2 NActive=    2 NUniq=    2 SFac= 1.00D+00 NAtFMM=   60 NAOKFM=F Big=F
 Integral buffers will be    131072 words long.
 Raffenetti 2 integral format.
 Two-electron integral symmetry is turned on.
 Leave Link  301 at Mon Mar 26 18:19:20 2018, MaxMem= 10737418240 cpu:               9.3 elap:               0.3
 (Enter /home1/apps/gaussian/16rA.03/g16/l302.exe)
 NPDir=0 NMtPBC=     1 NCelOv=     1 NCel=       1 NClECP=     1 NCelD=      1
         NCelK=      1 NCelE2=     1 NClLst=     1 CellRange=     0.0.
 One-electron integrals computed using PRISM.
 One-electron integral symmetry used in STVInt
   4 Symmetry operations used in ECPInt.
 ECPInt:  NShTT=    6105 NPrTT=    6105 LenC2=    5525 LenP2D=    5524.
 LDataN:  DoStor=T MaxTD1=10 Len=  848
 NBasis=   384 RedAO= T EigKep=  2.15D-06  NBF=   157    47    90    90
 NBsUse=   380 1.00D-06 EigRej=  8.69D-07 NBFU=   155    47    89    89
 Leave Link  302 at Mon Mar 26 18:19:23 2018, MaxMem= 10737418240 cpu:              79.6 elap:               2.5
 (Enter /home1/apps/gaussian/16rA.03/g16/l303.exe)
 DipDrv:  MaxL=1.
 Leave Link  303 at Mon Mar 26 18:19:23 2018, MaxMem= 10737418240 cpu:               3.8 elap:               0.2
 (Enter /home1/apps/gaussian/16rA.03/g16/l401.exe)
 Initial guess from the checkpoint file:  "qz.chk"
 B after Tr=     0.000000    0.000000    0.000000
         Rot=    1.000000    0.000000    0.000000    0.000000 Ang=   0.00 deg.
 Guess basis will be translated and rotated to current coordinates.
 JPrj=2 DoOrth=T DoCkMO=T.
 Initial guess orbital symmetries:
       Occupied  (SG) (PI) (PI) (SG) (SG) (SG) (DLTA) (DLTA) (PI)
                 (PI) (SG) (PI) (PI)
       Virtual   (SG) (PI) (PI) (SG) (SG) (PI) (PI) (SG) (DLTA)
                 (DLTA) (PI) (PI) (SG) (SG) (SG) (PI) (PI) (PI)
                 (PI) (SG) (DLTA) (DLTA) (SG) (PI) (PI) (SG) (SG)
                 (DLTA) (DLTA) (PI) (PI) (SG) (PI) (PI) (SG) (PI)
                 (PI) (SG) (PHI) (PHI) (DLTA) (DLTA) (PI) (PI)
                 (SG) (DLTA) (DLTA) (PI) (PI) (SG) (SG) (SG) (PHI)
                 (PHI) (DLTA) (DLTA) (DLTA) (DLTA) (PI) (PI) (SG)
                 (PI) (PI) (SG) (PI) (PI) (SG) (PI) (PI) (PHI)
                 (PHI) (SG) (DLTA) (DLTA) (PI) (PI) (DLTA) (DLTA)
                 (SG) (PI) (PI) (SG) (PHI) (PHI) (?A) (?A) (SG)
                 (DLTA) (DLTA) (PI) (PI) (SG) (PHI) (PHI) (DLTA)
                 (DLTA) (PI) (PI) (SG) (DLTA) (DLTA) (SG) (PI)
                 (PI) (PI) (PI) (SG) (SG) (DLTA) (DLTA) (PI) (PI)
                 (SG) (PHI) (PHI) (DLTA) (DLTA) (PI) (PI) (SG)
                 (PHI) (PHI) (?A) (?A) (DLTA) (DLTA) (PI) (PI)
                 (SG) (PI) (PI) (SG) (PI) (PI) (SG) (SG) (SG) (DLTA)
                 (DLTA) (PI) (PI) (SG) (DLTA) (DLTA) (PHI) (PHI)
                 (PI) (PI) (SG) (PI) (PI) (SG) (SG) (PHI) (PHI)
                 (DLTA) (DLTA) (?A) (?A) (PI) (PI) (SG) (DLTA)
                 (DLTA) (PI) (PI) (SG) (SG) (DLTA) (DLTA) (PI)
                 (PI) (SG) (PI) (PI) (SG) (PI) (PI) (SG) (DLTA)
                 (DLTA) (PI) (PI) (SG) (SG) (SG) (PI) (PI) (SG)
                 (PI) (PI) (SG) (SG) (DLTA) (DLTA) (PI) (PI) (SG)
                 (SG) (PI) (PI) (SG) (SG) (PI) (PI) (SG) (SG) (PI)
                 (PI) (SG) (SG) (DLTA) (DLTA) (PI) (PI) (SG) (SG)
                 (PI) (PI) (SG) (SG) (PI) (PI) (SG) (SG) (SG) (PI)
                 (PI) (SG) (SG) (SG) (PI) (PI) (SG) (SG) (PI) (PI)
                 (SG) (SG) (SG) (SG) (PI) (PI) (SG) (SG) (SG) (SG)
                 (SG) (DLTA) (SG) (SG) (DLTA) (SG) (SG) (SG) (SG)
                 (SG) (DLTA) (SG) (DLTA) (SG) (DLTA) (SG) (SG)
                 (SG) (?A) (DLTA) (DLTA) (SG) (SG) (?A) (DLTA)
                 (SG) (SG) (SG) (DLTA) (DLTA) (SG) (?A) (DLTA)
                 (DLTA) (DLTA) (SG) (DLTA) (SG) (SG) (?A) (?A)
                 (?A) (DLTA) (DLTA) (DLTA) (DLTA) (DLTA) (?A) (DLTA)
                 (DLTA) (?A) (DLTA) (DLTA) (DLTA) (?A) (DLTA) (DLTA)
                 (DLTA) (DLTA) (?A) (?A) (?A) (PI) (PI) (PI) (PI)
                 (PI) (PI) (PHI) (PI) (PHI) (PI) (PI) (PI) (PHI)
                 (PI) (?B) (PHI) (PI) (PI) (PHI) (PI) (PI) (PHI)
                 (PI) (PI) (PHI) (PHI) (?B) (PHI) (?B) (PI) (PI)
                 (PI) (PI) (PI) (PI) (PHI) (PI) (PHI) (PI) (PI)
                 (PI) (PHI) (PI) (?B) (PHI) (PI) (PI) (PHI) (PI)
                 (PI) (PHI) (PI) (PI) (PHI) (PHI) (?B) (PHI) (?B)
 The electronic state of the initial guess is 3-SG.
 Leave Link  401 at Mon Mar 26 18:19:24 2018, MaxMem= 10737418240 cpu:              25.0 elap:               0.9
 (Enter /home1/apps/gaussian/16rA.03/g16/l502.exe)
 Keep R1 and R2 ints in memory in symmetry-blocked form, NReq=3425113631.
 FoFCou: FMM=F IPFlag=           8 FMFlag=           0 FMFlg1=           0
         NFxFlg=           0 DoJE=F BraDBF=F KetDBF=F FulRan=T
         wScrn=  0.000000 ICntrl=       600 IOpCl=  0 I1Cent=           0 NGrid=           0
         NMat0=    1 NMatS0=  73920 NMatT0=    0 NMatD0=    1 NMtDS0=    0 NMtDT0=    0
 Petite list used in FoFCou.
 Restricted open shell SCF:
 Using DIIS extrapolation, IDIIS=  1040.
 NGot= 10737418240 LenX=  9351085953 LenY=  9350838447
 Requested convergence on RMS density matrix=1.00D-08 within 400 cycles.
 Requested convergence on MAX density matrix=1.00D-06.
 Requested convergence on             energy=1.00D-06.
 No special actions if energy rises.

 Cycle   1  Pass 1  IDiag  1:
 E= -184.715192379196    
 DIIS: error= 3.66D-01 at cycle   1 NSaved=   1.
 NSaved= 1 IEnMin= 1 EnMin= -184.715192379196     IErMin= 1 ErrMin= 3.66D-01
 ErrMax= 3.66D-01  0.00D+00 EMaxC= 1.00D-01 BMatC= 3.43D+01 BMatP= 3.43D+01
 IDIUse=3 WtCom= 0.00D+00 WtEn= 1.00D+00
 Coeff-Com:  0.100D+01
 Coeff-En:   0.100D+01
 Coeff:      0.100D+01
 Gap=     0.104 Goal=   None    Shift=    0.000
 GapD=    0.104 DampG=1.000 DampE=0.125 DampFc=0.1250 IDamp=-1.
 Damping current iteration by 1.25D-01
 RMSDP=1.58D-03 MaxDP=1.02D-01              OVMax= 4.73D-03

 Cycle   2  Pass 1  IDiag  1:
 E= -184.715366133675     Delta-E=       -0.000173754478 Rises=F Damp=T
 DIIS: error= 3.20D-01 at cycle   2 NSaved=   2.
 NSaved= 2 IEnMin= 2 EnMin= -184.715366133675     IErMin= 2 ErrMin= 3.20D-01
 ErrMax= 3.20D-01  0.00D+00 EMaxC= 1.00D-01 BMatC= 2.63D+01 BMatP= 3.43D+01
 IDIUse=3 WtCom= 0.00D+00 WtEn= 1.00D+00
 Coeff-Com: -0.700D+01 0.800D+01
 Coeff-En:   0.000D+00 0.100D+01
 Coeff:      0.000D+00 0.100D+01
 Gap=     0.103 Goal=   None    Shift=    0.000
 RMSDP=1.38D-03 MaxDP=8.94D-02 DE=-1.74D-04 OVMax= 6.11D-03

 Cycle   3  Pass 1  IDiag  1:
 E= -184.716598039499     Delta-E=       -0.001231905824 Rises=F Damp=F
 DIIS: error= 4.14D-04 at cycle   3 NSaved=   3.
 NSaved= 3 IEnMin= 3 EnMin= -184.716598039499     IErMin= 3 ErrMin= 4.14D-04
 ErrMax= 4.14D-04  0.00D+00 EMaxC= 1.00D-01 BMatC= 2.91D-05 BMatP= 2.63D+01
 IDIUse=3 WtCom= 9.96D-01 WtEn= 4.14D-03
 Coeff-Com: -0.909D+00 0.104D+01 0.870D+00
 Coeff-En:   0.000D+00 0.000D+00 0.100D+01
 Coeff:     -0.905D+00 0.103D+01 0.871D+00
 Gap=     0.103 Goal=   None    Shift=    0.000
 RMSDP=6.94D-05 MaxDP=5.39D-03 DE=-1.23D-03 OVMax= 5.53D-03

 Cycle   4  Pass 1  IDiag  1:
 E= -184.716613928832     Delta-E=       -0.000015889333 Rises=F Damp=F
 DIIS: error= 5.72D-04 at cycle   4 NSaved=   4.
 NSaved= 4 IEnMin= 4 EnMin= -184.716613928832     IErMin= 3 ErrMin= 4.14D-04
 ErrMax= 5.72D-04  0.00D+00 EMaxC= 1.00D-01 BMatC= 1.54D-05 BMatP= 2.91D-05
 IDIUse=3 WtCom= 9.94D-01 WtEn= 5.72D-03
 Coeff-Com: -0.681D+00 0.779D+00 0.428D+00 0.475D+00
 Coeff-En:   0.000D+00 0.000D+00 0.363D+00 0.637D+00
 Coeff:     -0.677D+00 0.774D+00 0.427D+00 0.476D+00
 Gap=     0.103 Goal=   None    Shift=    0.000
 RMSDP=2.64D-05 MaxDP=2.07D-03 DE=-1.59D-05 OVMax= 4.89D-03

 Cycle   5  Pass 1  IDiag  1:
 E= -184.716616306481     Delta-E=       -0.000002377649 Rises=F Damp=F
 DIIS: error= 2.99D-04 at cycle   5 NSaved=   5.
 NSaved= 5 IEnMin= 5 EnMin= -184.716616306481     IErMin= 5 ErrMin= 2.99D-04
 ErrMax= 2.99D-04  0.00D+00 EMaxC= 1.00D-01 BMatC= 1.11D-05 BMatP= 1.54D-05
 IDIUse=3 WtCom= 9.97D-01 WtEn= 2.99D-03
 Coeff-Com: -0.574D+00 0.655D+00 0.161D-01 0.316D+00 0.586D+00
 Coeff-En:   0.000D+00 0.000D+00 0.000D+00 0.474D+00 0.526D+00
 Coeff:     -0.572D+00 0.654D+00 0.160D-01 0.317D+00 0.585D+00
 Gap=     0.103 Goal=   None    Shift=    0.000
 RMSDP=1.07D-05 MaxDP=1.00D-03 DE=-2.38D-06 OVMax= 2.59D-03

 Cycle   6  Pass 1  IDiag  1:
 E= -184.716622241130     Delta-E=       -0.000005934649 Rises=F Damp=F
 DIIS: error= 2.64D-04 at cycle   6 NSaved=   6.
 NSaved= 6 IEnMin= 6 EnMin= -184.716622241130     IErMin= 6 ErrMin= 2.64D-04
 ErrMax= 2.64D-04  0.00D+00 EMaxC= 1.00D-01 BMatC= 6.64D-06 BMatP= 1.11D-05
 IDIUse=3 WtCom= 9.97D-01 WtEn= 2.64D-03
 Rare condition: small coef for last iteration:  0.000D+00
 Coeff-Com: -0.526D+00 0.602D+00-0.741D-01 0.148D+00 0.431D+00 0.420D+00
 Coeff-En:   0.000D+00 0.000D+00 0.000D+00 0.285D+00 0.192D+00 0.523D+00
 Coeff:     -0.526D+00 0.602D+00-0.741D-01 0.148D+00 0.431D+00 0.420D+00
 Gap=     0.103 Goal=   None    Shift=    0.000
 RMSDP=4.17D-06 MaxDP=4.47D-04 DE=-5.93D-06 OVMax= 1.12D-03

 Cycle   7  Pass 1  IDiag  1:
 E= -184.716624752980     Delta-E=       -0.000002511850 Rises=F Damp=F
 DIIS: error= 2.55D-04 at cycle   7 NSaved=   7.
 NSaved= 7 IEnMin= 7 EnMin= -184.716624752980     IErMin= 7 ErrMin= 2.55D-04
 ErrMax= 2.55D-04  0.00D+00 EMaxC= 1.00D-01 BMatC= 4.54D-06 BMatP= 6.64D-06
 IDIUse=3 WtCom= 9.97D-01 WtEn= 2.55D-03
 EnCoef did   100 forward-backward iterations
 Coeff-Com: -0.453D+00 0.518D+00-0.805D-01-0.204D-01 0.918D-01 0.224D+00
 Coeff-Com:  0.721D+00
 Coeff-En:   0.000D+00 0.000D+00 0.000D+00 0.458D+00 0.500D+00 0.000D+00
 Coeff-En:   0.422D-01
 Coeff:     -0.452D+00 0.516D+00-0.803D-01-0.192D-01 0.929D-01 0.223D+00
 Coeff:      0.719D+00
 Gap=     0.103 Goal=   None    Shift=    0.000
 RMSDP=3.78D-06 MaxDP=3.26D-04 DE=-2.51D-06 OVMax= 3.43D-04

 Cycle   8  Pass 1  IDiag  1:
 E= -184.716626110531     Delta-E=       -0.000001357551 Rises=F Damp=F
 DIIS: error= 1.98D-04 at cycle   8 NSaved=   8.
 NSaved= 8 IEnMin= 8 EnMin= -184.716626110531     IErMin= 8 ErrMin= 1.98D-04
 ErrMax= 1.98D-04  0.00D+00 EMaxC= 1.00D-01 BMatC= 3.11D-06 BMatP= 4.54D-06
 IDIUse=3 WtCom= 9.98D-01 WtEn= 1.98D-03
 EnCoef did   100 forward-backward iterations
 Coeff-Com: -0.387D+00 0.442D+00-0.607D-01-0.560D-01-0.242D-01 0.773D-01
 Coeff-Com:  0.405D+00 0.603D+00
 Coeff-En:   0.000D+00 0.000D+00 0.000D+00 0.316D+00 0.299D+00 0.000D+00
 Coeff-En:   0.113D-01 0.373D+00
 Coeff:     -0.386D+00 0.441D+00-0.606D-01-0.553D-01-0.235D-01 0.772D-01
 Coeff:      0.404D+00 0.603D+00
 Gap=     0.103 Goal=   None    Shift=    0.000
 RMSDP=2.23D-06 MaxDP=1.86D-04 DE=-1.36D-06 OVMax= 1.85D-04

 Cycle   9  Pass 1  IDiag  1:
 E= -184.716626834020     Delta-E=       -0.000000723488 Rises=F Damp=F
 DIIS: error= 1.66D-04 at cycle   9 NSaved=   9.
 NSaved= 9 IEnMin= 9 EnMin= -184.716626834020     IErMin= 9 ErrMin= 1.66D-04
 ErrMax= 1.66D-04  0.00D+00 EMaxC= 1.00D-01 BMatC= 2.27D-06 BMatP= 3.11D-06
 IDIUse=3 WtCom= 9.98D-01 WtEn= 1.66D-03
 EnCoef did    11 forward-backward iterations
 Coeff-Com: -0.307D+00 0.351D+00-0.411D-01-0.706D-01-0.923D-01-0.242D-01
 Coeff-Com:  0.142D+00 0.375D+00 0.667D+00
 Coeff-En:   0.000D+00 0.000D+00 0.000D+00 0.115D+00 0.411D-01 0.000D+00
 Coeff-En:   0.000D+00 0.000D+00 0.844D+00
 Coeff:     -0.307D+00 0.351D+00-0.410D-01-0.703D-01-0.921D-01-0.242D-01
 Coeff:      0.142D+00 0.374D+00 0.667D+00
 Gap=     0.103 Goal=   None    Shift=    0.000
 RMSDP=2.49D-06 MaxDP=2.20D-04 DE=-7.23D-07 OVMax= 2.11D-04

 Cycle  10  Pass 1  IDiag  1:
 E= -184.716627554112     Delta-E=       -0.000000720093 Rises=F Damp=F
 DIIS: error= 1.34D-04 at cycle  10 NSaved=  10.
 NSaved=10 IEnMin=10 EnMin= -184.716627554112     IErMin=10 ErrMin= 1.34D-04
 ErrMax= 1.34D-04  0.00D+00 EMaxC= 1.00D-01 BMatC= 1.43D-06 BMatP= 2.27D-06
 IDIUse=3 WtCom= 9.99D-01 WtEn= 1.34D-03
 Coeff-Com: -0.212D+00 0.243D+00-0.258D-01-0.513D-01-0.756D-01-0.401D-01
 Coeff-Com:  0.203D-01-0.660D-01 0.229D+00 0.979D+00
 Coeff-En:   0.000D+00 0.000D+00 0.000D+00 0.537D-01 0.000D+00 0.000D+00
 Coeff-En:   0.000D+00 0.000D+00 0.000D+00 0.946D+00
 Coeff:     -0.212D+00 0.242D+00-0.257D-01-0.511D-01-0.755D-01-0.400D-01
 Coeff:      0.203D-01-0.659D-01 0.229D+00 0.979D+00
 Gap=     0.103 Goal=   None    Shift=    0.000
 RMSDP=2.99D-06 MaxDP=2.62D-04 DE=-7.20D-07 OVMax= 2.48D-04

 Cycle  11  Pass 1  IDiag  1:
 E= -184.716628198300     Delta-E=       -0.000000644188 Rises=F Damp=F
 DIIS: error= 9.29D-05 at cycle  11 NSaved=  11.
 NSaved=11 IEnMin=11 EnMin= -184.716628198300     IErMin=11 ErrMin= 9.29D-05
 ErrMax= 9.29D-05  0.00D+00 EMaxC= 1.00D-01 BMatC= 6.87D-07 BMatP= 1.43D-06
 IDIUse=1 WtCom= 1.00D+00 WtEn= 0.00D+00
 Coeff-Com: -0.242D-01 0.276D-01-0.376D-02 0.550D-02 0.189D-01 0.183D-01
 Coeff-Com:  0.174D-01-0.495D+00-0.812D+00 0.559D+00 0.169D+01
 Coeff:     -0.242D-01 0.276D-01-0.376D-02 0.550D-02 0.189D-01 0.183D-01
 Coeff:      0.174D-01-0.495D+00-0.812D+00 0.559D+00 0.169D+01
 Gap=     0.103 Goal=   None    Shift=    0.000
 RMSDP=6.02D-06 MaxDP=5.21D-04 DE=-6.44D-07 OVMax= 4.92D-04

 Cycle  12  Pass 1  IDiag  1:
 E= -184.716628783564     Delta-E=       -0.000000585264 Rises=F Damp=F
 DIIS: error= 9.81D-06 at cycle  12 NSaved=  12.
 NSaved=12 IEnMin=12 EnMin= -184.716628783564     IErMin=12 ErrMin= 9.81D-06
 ErrMax= 9.81D-06  0.00D+00 EMaxC= 1.00D-01 BMatC= 9.49D-09 BMatP= 6.87D-07
 IDIUse=1 WtCom= 1.00D+00 WtEn= 0.00D+00
 Coeff-Com: -0.143D-01 0.163D-01-0.341D-02 0.659D-02 0.219D-01 0.249D-01
 Coeff-Com:  0.391D-01-0.200D+00-0.444D+00-0.487D-01 0.107D+01 0.535D+00
 Coeff:     -0.143D-01 0.163D-01-0.341D-02 0.659D-02 0.219D-01 0.249D-01
 Coeff:      0.391D-01-0.200D+00-0.444D+00-0.487D-01 0.107D+01 0.535D+00
 Gap=     0.103 Goal=   None    Shift=    0.000
 RMSDP=2.90D-07 MaxDP=2.79D-05 DE=-5.85D-07 OVMax= 3.00D-05

 Cycle  13  Pass 1  IDiag  1:
 E= -184.716628789317     Delta-E=       -0.000000005753 Rises=F Damp=F
 DIIS: error= 6.84D-06 at cycle  13 NSaved=  13.
 NSaved=13 IEnMin=13 EnMin= -184.716628789317     IErMin=13 ErrMin= 6.84D-06
 ErrMax= 6.84D-06  0.00D+00 EMaxC= 1.00D-01 BMatC= 3.14D-09 BMatP= 9.49D-09
 IDIUse=1 WtCom= 1.00D+00 WtEn= 0.00D+00
 Coeff-Com: -0.351D-02 0.401D-02-0.710D-03-0.123D-02-0.811D-03 0.206D-02
 Coeff-Com:  0.558D-02 0.809D-01 0.118D+00-0.245D+00-0.106D+00 0.886D-01
 Coeff-Com:  0.106D+01
 Coeff:     -0.351D-02 0.401D-02-0.710D-03-0.123D-02-0.811D-03 0.206D-02
 Coeff:      0.558D-02 0.809D-01 0.118D+00-0.245D+00-0.106D+00 0.886D-01
 Coeff:      0.106D+01
 Gap=     0.103 Goal=   None    Shift=    0.000
 RMSDP=3.67D-07 MaxDP=2.99D-05 DE=-5.75D-09 OVMax= 2.81D-05

 Cycle  14  Pass 1  IDiag  1:
 E= -184.716628792004     Delta-E=       -0.000000002687 Rises=F Damp=F
 DIIS: error= 1.46D-06 at cycle  14 NSaved=  14.
 NSaved=14 IEnMin=14 EnMin= -184.716628792004     IErMin=14 ErrMin= 1.46D-06
 ErrMax= 1.46D-06  0.00D+00 EMaxC= 1.00D-01 BMatC= 2.00D-10 BMatP= 3.14D-09
 IDIUse=1 WtCom= 1.00D+00 WtEn= 0.00D+00
 Coeff-Com: -0.319D-02 0.364D-02-0.149D-03-0.296D-02-0.639D-02-0.512D-02
 Coeff-Com: -0.710D-03 0.740D-01 0.111D+00-0.145D-01-0.294D+00-0.687D-01
 Coeff-Com:  0.163D+00 0.104D+01
 Coeff:     -0.319D-02 0.364D-02-0.149D-03-0.296D-02-0.639D-02-0.512D-02
 Coeff:     -0.710D-03 0.740D-01 0.111D+00-0.145D-01-0.294D+00-0.687D-01
 Coeff:      0.163D+00 0.104D+01
 Gap=     0.103 Goal=   None    Shift=    0.000
 RMSDP=2.84D-08 MaxDP=2.59D-06 DE=-2.69D-09 OVMax= 6.48D-06

 Cycle  15  Pass 1  IDiag  1:
 E= -184.716628792109     Delta-E=       -0.000000000105 Rises=F Damp=F
 DIIS: error= 1.31D-06 at cycle  15 NSaved=  15.
 NSaved=15 IEnMin=15 EnMin= -184.716628792109     IErMin=15 ErrMin= 1.31D-06
 ErrMax= 1.31D-06  0.00D+00 EMaxC= 1.00D-01 BMatC= 1.55D-10 BMatP= 2.00D-10
 IDIUse=1 WtCom= 1.00D+00 WtEn= 0.00D+00
 Coeff-Com:  0.930D-02-0.106D-01 0.153D-02 0.154D-02 0.726D-03-0.252D-02
 Coeff-Com: -0.705D-02-0.399D-01-0.776D-01 0.144D+00-0.890D-02-0.212D-01
 Coeff-Com: -0.446D+00-0.826D-01 0.154D+01
 Coeff:      0.930D-02-0.106D-01 0.153D-02 0.154D-02 0.726D-03-0.252D-02
 Coeff:     -0.705D-02-0.399D-01-0.776D-01 0.144D+00-0.890D-02-0.212D-01
 Coeff:     -0.446D+00-0.826D-01 0.154D+01
 Gap=     0.103 Goal=   None    Shift=    0.000
 RMSDP=3.96D-07 MaxDP=3.45D-05 DE=-1.05D-10 OVMax= 3.24D-05

 Cycle  16  Pass 1  IDiag  1:
 E= -184.716628791177     Delta-E=        0.000000000932 Rises=F Damp=F
 DIIS: error= 4.03D-06 at cycle  16 NSaved=  16.
 NSaved=16 IEnMin=15 EnMin= -184.716628792109     IErMin=15 ErrMin= 1.31D-06
 ErrMax= 4.03D-06  0.00D+00 EMaxC= 1.00D-01 BMatC= 1.31D-09 BMatP= 1.55D-10
 IDIUse=1 WtCom= 1.00D+00 WtEn= 0.00D+00
 Coeff-Com: -0.821D-03 0.939D-03-0.254D-03 0.922D-03 0.264D-02 0.292D-02
 Coeff-Com:  0.462D-02-0.324D-01-0.602D-01 0.410D-01 0.143D+00 0.157D-01
 Coeff-Com: -0.134D+00-0.708D+00 0.745D+00 0.978D+00
 Coeff:     -0.821D-03 0.939D-03-0.254D-03 0.922D-03 0.264D-02 0.292D-02
 Coeff:      0.462D-02-0.324D-01-0.602D-01 0.410D-01 0.143D+00 0.157D-01
 Coeff:     -0.134D+00-0.708D+00 0.745D+00 0.978D+00
 Gap=     0.103 Goal=   None    Shift=    0.000
 RMSDP=3.19D-07 MaxDP=2.80D-05 DE= 9.32D-10 OVMax= 2.62D-05

 Cycle  17  Pass 1  IDiag  1:
 E= -184.716628792290     Delta-E=       -0.000000001113 Rises=F Damp=F
 DIIS: error= 3.41D-07 at cycle  17 NSaved=  17.
 NSaved=17 IEnMin=17 EnMin= -184.716628792290     IErMin=17 ErrMin= 3.41D-07
 ErrMax= 3.41D-07  0.00D+00 EMaxC= 1.00D-01 BMatC= 1.01D-11 BMatP= 1.55D-10
 IDIUse=1 WtCom= 1.00D+00 WtEn= 0.00D+00
 Coeff-Com:  0.318D-03-0.364D-03-0.198D-04 0.345D-03 0.942D-03 0.101D-02
 Coeff-Com:  0.634D-03-0.352D-02-0.784D-02-0.181D-01 0.388D-01 0.936D-02
 Coeff-Com:  0.750D-01-0.189D+00-0.581D-01 0.163D+00 0.987D+00
 Coeff:      0.318D-03-0.364D-03-0.198D-04 0.345D-03 0.942D-03 0.101D-02
 Coeff:      0.634D-03-0.352D-02-0.784D-02-0.181D-01 0.388D-01 0.936D-02
 Coeff:      0.750D-01-0.189D+00-0.581D-01 0.163D+00 0.987D+00
 Gap=     0.103 Goal=   None    Shift=    0.000
 RMSDP=3.52D-08 MaxDP=3.17D-06 DE=-1.11D-09 OVMax= 3.00D-06

 Cycle  18  Pass 1  IDiag  1:
 E= -184.716628792299     Delta-E=       -0.000000000009 Rises=F Damp=F
 DIIS: error= 1.43D-07 at cycle  18 NSaved=  18.
 NSaved=18 IEnMin=18 EnMin= -184.716628792299     IErMin=18 ErrMin= 1.43D-07
 ErrMax= 1.43D-07  0.00D+00 EMaxC= 1.00D-01 BMatC= 1.60D-12 BMatP= 1.01D-11
 IDIUse=1 WtCom= 1.00D+00 WtEn= 0.00D+00
 Coeff-Com: -0.225D-03 0.257D-03-0.425D-04-0.852D-04-0.844D-04 0.325D-04
 Coeff-Com:  0.116D-03 0.430D-02 0.620D-02-0.132D-01-0.736D-02 0.356D-02
 Coeff-Com:  0.497D-01 0.258D-01-0.137D+00-0.124D+00 0.332D+00 0.860D+00
 Coeff:     -0.225D-03 0.257D-03-0.425D-04-0.852D-04-0.844D-04 0.325D-04
 Coeff:      0.116D-03 0.430D-02 0.620D-02-0.132D-01-0.736D-02 0.356D-02
 Coeff:      0.497D-01 0.258D-01-0.137D+00-0.124D+00 0.332D+00 0.860D+00
 Gap=     0.103 Goal=   None    Shift=    0.000
 RMSDP=1.72D-08 MaxDP=1.51D-06 DE=-8.58D-12 OVMax= 1.55D-06

 Cycle  19  Pass 1  IDiag  1:
 E= -184.716628792300     Delta-E=       -0.000000000001 Rises=F Damp=F
 DIIS: error= 1.09D-07 at cycle  19 NSaved=  19.
 NSaved=19 IEnMin=19 EnMin= -184.716628792300     IErMin=19 ErrMin= 1.09D-07
 ErrMax= 1.09D-07  0.00D+00 EMaxC= 1.00D-01 BMatC= 8.55D-13 BMatP= 1.60D-12
 IDIUse=1 WtCom= 1.00D+00 WtEn= 0.00D+00
 Coeff-Com: -0.265D-03 0.303D-03-0.311D-04-0.153D-03-0.291D-03-0.211D-03
 Coeff-Com: -0.169D-04 0.446D-02 0.666D-02-0.659D-02-0.157D-01 0.132D-02
 Coeff-Com:  0.241D-01 0.622D-01-0.958D-01-0.142D+00 0.501D-01 0.681D+00
 Coeff-Com:  0.431D+00
 Coeff:     -0.265D-03 0.303D-03-0.311D-04-0.153D-03-0.291D-03-0.211D-03
 Coeff:     -0.169D-04 0.446D-02 0.666D-02-0.659D-02-0.157D-01 0.132D-02
 Coeff:      0.241D-01 0.622D-01-0.958D-01-0.142D+00 0.501D-01 0.681D+00
 Coeff:      0.431D+00
 Gap=     0.103 Goal=   None    Shift=    0.000
 RMSDP=1.94D-09 MaxDP=1.64D-07 DE=-1.02D-12 OVMax= 4.11D-07

 SCF Done:  E(ROHF) =  -184.716628792     A.U. after   19 cycles
            NFock= 19  Conv=0.19D-08     -V/T= 2.5599
 <Sx>= 0.0000 <Sy>= 0.0000 <Sz>= 1.0000 <S**2>= 2.0000 S= 1.0000
 <L.S>=  0.00000000000    
 KE= 1.184175755275D+02 PE=-5.187759984725D+02 EE= 1.799223324156D+02
 Annihilation of the first spin contaminant:
 S**2 before annihilation     2.0000,   after     2.0000
 Leave Link  502 at Mon Mar 26 18:20:55 2018, MaxMem= 10737418240 cpu:            2354.8 elap:              91.0
 (Enter /home1/apps/gaussian/16rA.03/g16/l801.exe)
 Windowed orbitals will be sorted by symmetry type.
 GenMOA:  NOpAll=  4 NOp2=4 NOpUse=  4 JSym2X=1
 FoFJK:  IHMeth= 1 ICntrl=       0 DoSepK=F KAlg= 0 I1Cent=           0 FoldK=F
 IRaf=         0 NMat=       1 IRICut=       1 DoRegI=T DoRafI=F ISym2E= 1 IDoP0=0 IntGTp=1.
 FoFCou: FMM=F IPFlag=           8 FMFlag=      100000 FMFlg1=           0
         NFxFlg=           0 DoJE=F BraDBF=F KetDBF=F FulRan=T
         wScrn=  0.000000 ICntrl=         0 IOpCl=  1 I1Cent=           0 NGrid=           0
         NMat0=    1 NMatS0=      1 NMatT0=    0 NMatD0=    1 NMtDS0=    0 NMtDT0=    0
 Petite list used in FoFCou.
 <Sx>= 0.0000 <Sy>= 0.0000 <Sz>= 1.0000 <S**2>= 2.0000 S= 1.0000
 Range of M.O.s used for correlation:     1   380
 NBasis=   384 NAE=    13 NBE=    11 NFC=     0 NFV=     0
 NROrb=    380 NOA=    13 NOB=    11 NVA=   367 NVB=   369

 **** Warning!!: The largest alpha MO coefficient is  0.28153121D+03


 **** Warning!!: The largest beta MO coefficient is  0.28153144D+03

 Singles contribution to E2=   -0.7797131400D-02
 Leave Link  801 at Mon Mar 26 18:21:16 2018, MaxMem= 10737418240 cpu:             661.0 elap:              20.7
 (Enter /home1/apps/gaussian/16rA.03/g16/l804.exe)
 Open-shell transformation, MDV= 10737418240 ITran=4 ISComp=2.
 Unit  1 TFree=       4463989 TCopy=       3213523.
 Semi-Direct transformation.
 ModeAB=           4 MOrb=            13 LenV=   10733122958
 LASXX=     88669000 LTotXX=    88669000 LenRXX=   178270504
 LTotAB=    89601504 MaxLAS=   594988420 LenRXY=           0
 NonZer=   266939504 LenScr=   401980416 LnRSAI=   594988420
 LnScr1=   895982592 LExtra=    31672723 Total=   2102894655
 MaxDsk= 67108864000 SrtSym=           T ITran=            4
 DoSDTr:  NPSUse= 32
 JobTyp=1 Pass  1:  I=   1 to  13.
 (rs|ai) integrals will be sorted in core.
 Complete sort for first half transformation.
 First half transformation complete.
 Begin second half transformation for I=  10.
 Complete sort for second half transformation.
 Second half transformation complete.
 ModeAB=           4 MOrb=            11 LenV=   10733122958
 LASXX=     75478405 LTotXX=    75478405 LenRXX=   146587383
 LTotAB=    71108978 MaxLAS=   503451740 LenRXY=           0
 NonZer=   222065788 LenScr=   334405632 LnRSAI=   503451740
 LnScr1=   758139904 LExtra=   209943227 Total=   1952527886
 MaxDsk= 67108864000 SrtSym=           T ITran=            4
 DoSDTr:  NPSUse= 32
 JobTyp=2 Pass  1:  I=   1 to  11.
 (rs|ai) integrals will be sorted in core.
 Complete sort for first half transformation.
 First half transformation complete.
 Begin second half transformation for I=  10.
 Complete sort for second half transformation.
 Second half transformation complete.
 Spin components of T(2) and E(2):
     alpha-alpha T2 =       0.3527594026D-01 E2=     -0.2041110196D+00
     alpha-beta  T2 =       0.1564782792D+00 E2=     -0.8714605506D+00
     beta-beta   T2 =       0.3457378670D-01 E2=     -0.1542110558D+00
 ANorm=    0.1108636978D+01
 E2 =    -0.1237579757D+01 EUMP2 =    -0.18595420854971D+03
 (S**2,0)=  0.20000D+01           (S**2,1)=  0.20000D+01
 E(PUHF)=      -0.18471662879D+03        E(PMP2)=      -0.18595420855D+03
 Leave Link  804 at Mon Mar 26 18:33:33 2018, MaxMem= 10737418240 cpu:           23557.4 elap:             736.6
 (Enter /home1/apps/gaussian/16rA.03/g16/l913.exe)
 CIDS:  MDV= 10737418240.
 IFCWin=0 IBDFC=1 NFBD=     0     0 NFCmp=     0     0 NFFFC=     0     0
 Using original routines for 1st iteration.
 Using DD4UQ or CC4UQ for 2nd and later iterations.
 Keep R2 and R3 ints in memory in symmetry-blocked form, NReq=3425137565.
 FoFCou: FMM=F IPFlag=           8 FMFlag=           0 FMFlg1=           0
         NFxFlg=           0 DoJE=F BraDBF=F KetDBF=F FulRan=T
         wScrn=  0.000000 ICntrl=       600 IOpCl=  0 I1Cent=           0 NGrid=           0
         NMat0=    1 NMatS0=  73920 NMatT0=    0 NMatD0=    1 NMtDS0=    0 NMtDT0=    0
 Petite list used in FoFCou.
 CIDS: In Core Option IDoMem=           1.
 CCSD(T)
 =======
 Iterations= 150 Convergence= 0.100D-06
 Produce multiple copies of IABC intergrals
 Iteration Nr.   1
 **********************
 DD1Dir will call FoFMem   1 times, MxPair=       420
 NAB=   143 NAA=    78 NBB=    55.
 DD1Dir will call FoFMem   1 times, MxPair=       420
 NAB=   143 NAA=    78 NBB=    55.
 MP4(R+Q)= -0.11092879D+00
 Maximum subspace dimension=  5
 A-vector RMS=  1.7765819D-04 Max=  1.9777163D-02 conv= 1.00D-05.
 RLE energy=       -1.2234464281
 E3=        0.12495919D+00        EROMP3=      -0.18582924936D+03
 E4(SDQ)=  -0.94227201D-01        ROMP4(SDQ)=  -0.18592347656D+03
 VARIATIONAL ENERGIES WITH THE FIRST-ORDER WAVEFUNCTION:
 DE(Corr)=  -1.2232810     E(Corr)=     -185.93990975    
 NORM(A)=   0.11005827D+01
 Iteration Nr.   2
 **********************
 DD1Dir will call FoFMem   1 times, MxPair=       420
 NAB=   143 NAA=    78 NBB=    55.
 A-vector RMS=  5.4771215D-03 Max=  9.2413921D-02 conv= 1.00D-05.
 RLE energy=       -1.1824510682
 DE(Corr)=  -1.0956737     E(CORR)=     -185.81230251     Delta= 1.28D-01
 NORM(A)=   0.10936108D+01
 Iteration Nr.   3
 **********************
 DD1Dir will call FoFMem   1 times, MxPair=       420
 NAB=   143 NAA=    78 NBB=    55.
 A-vector RMS=  3.0152260D-03 Max=  5.2959339D-02 conv= 1.00D-05.
 RLE energy=       -1.1900052911
 DE(Corr)=  -1.1250751     E(CORR)=     -185.84170389     Delta=-2.94D-02
 NORM(A)=   0.11008656D+01
 Iteration Nr.   4
 **********************
 DD1Dir will call FoFMem   1 times, MxPair=       420
 NAB=   143 NAA=    78 NBB=    55.
 A-vector RMS=  3.8363156D-03 Max=  6.7543881D-02 conv= 1.00D-05.
 RLE energy=       35.3916170002
 DE(Corr)=  -1.1265283     E(CORR)=     -185.84315705     Delta=-1.45D-03
 NORM(A)=   0.35995864D+02
 Iteration Nr.   5
 **********************
 DD1Dir will call FoFMem   1 times, MxPair=       420
 NAB=   143 NAA=    78 NBB=    55.
 A-vector RMS=  2.3829741D+01 Max=  1.6259185D+03 conv= 1.00D-05.
 RLE energy=       -1.3203994430
 DE(Corr)=   35334.881     E(CORR)=      35150.164166     Delta= 3.53D+04
 NORM(A)=   0.13042900D+01
 Iteration Nr.   6
 **********************
 DD1Dir will call FoFMem   1 times, MxPair=       420
 NAB=   143 NAA=    78 NBB=    55.
 A-vector RMS=  1.1292076D-02 Max=  2.8916769D-01 conv= 1.00D-05.
 RLE energy=       -1.1472338726
 DE(Corr)=  -1.0126044     E(CORR)=     -185.72923318     Delta=-3.53D+04
 NORM(A)=   0.11455108D+01
 Iteration Nr.   7
 **********************
 DD1Dir will call FoFMem   1 times, MxPair=       420
 NAB=   143 NAA=    78 NBB=    55.
 A-vector RMS=  1.9485960D-03 Max=  1.1136034D-01 conv= 1.00D-05.
 RLE energy=       -1.1605818013
 DE(Corr)=  -1.1685081     E(CORR)=     -185.88513693     Delta=-1.56D-01
 NORM(A)=   0.11813555D+01
 Iteration Nr.   8
 **********************
 DD1Dir will call FoFMem   1 times, MxPair=       420
 NAB=   143 NAA=    78 NBB=    55.
 A-vector RMS=  2.2021571D-03 Max=  1.3031759D-01 conv= 1.00D-05.
 RLE energy=       -1.1569672424
 DE(Corr)=  -1.1679551     E(CORR)=     -185.88458393     Delta= 5.53D-04
 NORM(A)=   0.12419274D+01
 Iteration Nr.   9
 **********************
 DD1Dir will call FoFMem   1 times, MxPair=       420
 NAB=   143 NAA=    78 NBB=    55.
 A-vector RMS=  2.6498803D-03 Max=  1.6531220D-01 conv= 1.00D-05.
 RLE energy=       -1.1530067071
 DE(Corr)=  -1.1710073     E(CORR)=     -185.88763607     Delta=-3.05D-03
 NORM(A)=   0.12767293D+01
 Iteration Nr.  10
 **********************
 DD1Dir will call FoFMem   1 times, MxPair=       420
 NAB=   143 NAA=    78 NBB=    55.
 A-vector RMS=  2.2554287D-03 Max=  1.8056024D-01 conv= 1.00D-05.
 RLE energy=       -1.1505334312
 DE(Corr)=  -1.1751233     E(CORR)=     -185.89175211     Delta=-4.12D-03
 NORM(A)=   0.11271201D+01
 Iteration Nr.  11
 **********************
 DD1Dir will call FoFMem   1 times, MxPair=       420
 NAB=   143 NAA=    78 NBB=    55.
 A-vector RMS=  1.9180843D-03 Max=  3.4973612D-02 conv= 1.00D-05.
 RLE energy=       -1.1775854748
 DE(Corr)=  -1.1723142     E(CORR)=     -185.88894304     Delta= 2.81D-03
 NORM(A)=   0.11630855D+01
 Iteration Nr.  12
 **********************
 DD1Dir will call FoFMem   1 times, MxPair=       420
 NAB=   143 NAA=    78 NBB=    55.
 A-vector RMS=  1.7526156D-03 Max=  3.6994959D-02 conv= 1.00D-05.
 RLE energy=       -1.1775405611
 DE(Corr)=  -1.1698450     E(CORR)=     -185.88647377     Delta= 2.47D-03
 NORM(A)=   0.12150222D+01
 Iteration Nr.  13
 **********************
 DD1Dir will call FoFMem   1 times, MxPair=       420
 NAB=   143 NAA=    78 NBB=    55.
 A-vector RMS=  1.1559113D-03 Max=  2.5239152D-02 conv= 1.00D-05.
 RLE energy=       -1.1893380736
 DE(Corr)=  -1.1873658     E(CORR)=     -185.90399462     Delta=-1.75D-02
 NORM(A)=   0.12662660D+01
 Iteration Nr.  14
 **********************
 DD1Dir will call FoFMem   1 times, MxPair=       420
 NAB=   143 NAA=    78 NBB=    55.
 A-vector RMS=  5.1124639D-04 Max=  1.0322388D-02 conv= 1.00D-05.
 RLE energy=       -1.1951070502
 DE(Corr)=  -1.1899667     E(CORR)=     -185.90659548     Delta=-2.60D-03
 NORM(A)=   0.12925710D+01
 Iteration Nr.  15
 **********************
 DD1Dir will call FoFMem   1 times, MxPair=       420
 NAB=   143 NAA=    78 NBB=    55.
 A-vector RMS=  4.2401628D-04 Max=  7.0720862D-03 conv= 1.00D-05.
 RLE energy=       -1.1936461123
 DE(Corr)=  -1.1914658     E(CORR)=     -185.90809461     Delta=-1.50D-03
 NORM(A)=   0.13035240D+01
 Iteration Nr.  16
 **********************
 DD1Dir will call FoFMem   1 times, MxPair=       420
 NAB=   143 NAA=    78 NBB=    55.
 A-vector RMS=  1.9051576D-04 Max=  4.0541009D-03 conv= 1.00D-05.
 RLE energy=       -1.1941986100
 DE(Corr)=  -1.1946793     E(CORR)=     -185.91130806     Delta=-3.21D-03
 NORM(A)=   0.13045776D+01
 Iteration Nr.  17
 **********************
 DD1Dir will call FoFMem   1 times, MxPair=       420
 NAB=   143 NAA=    78 NBB=    55.
 A-vector RMS=  1.4931021D-04 Max=  3.2927719D-03 conv= 1.00D-05.
 RLE energy=       -1.1950583104
 DE(Corr)=  -1.1945066     E(CORR)=     -185.91113537     Delta= 1.73D-04
 NORM(A)=   0.13077898D+01
 Iteration Nr.  18
 **********************
 DD1Dir will call FoFMem   1 times, MxPair=       420
 NAB=   143 NAA=    78 NBB=    55.
 A-vector RMS=  8.7565428D-05 Max=  2.1445992D-03 conv= 1.00D-05.
 RLE energy=       -1.1944748607
 DE(Corr)=  -1.1943249     E(CORR)=     -185.91095373     Delta= 1.82D-04
 NORM(A)=   0.13091412D+01
 Iteration Nr.  19
 **********************
 DD1Dir will call FoFMem   1 times, MxPair=       420
 NAB=   143 NAA=    78 NBB=    55.
 A-vector RMS=  1.1305743D-04 Max=  3.8569264D-03 conv= 1.00D-05.
 RLE energy=       -1.1950156251
 DE(Corr)=  -1.1953103     E(CORR)=     -185.91193906     Delta=-9.85D-04
 NORM(A)=   0.13094308D+01
 Iteration Nr.  20
 **********************
 DD1Dir will call FoFMem   1 times, MxPair=       420
 NAB=   143 NAA=    78 NBB=    55.
 A-vector RMS=  4.4464416D-05 Max=  9.9442222D-04 conv= 1.00D-05.
 RLE energy=       -1.1951175190
 DE(Corr)=  -1.1948409     E(CORR)=     -185.91146973     Delta= 4.69D-04
 NORM(A)=   0.13100628D+01
 Iteration Nr.  21
 **********************
 DD1Dir will call FoFMem   1 times, MxPair=       420
 NAB=   143 NAA=    78 NBB=    55.
 A-vector RMS=  3.1234818D-05 Max=  7.2848499D-04 conv= 1.00D-05.
 RLE energy=       -1.1949860467
 DE(Corr)=  -1.1949590     E(CORR)=     -185.91158779     Delta=-1.18D-04
 NORM(A)=   0.13102384D+01
 Iteration Nr.  22
 **********************
 DD1Dir will call FoFMem   1 times, MxPair=       420
 NAB=   143 NAA=    78 NBB=    55.
 A-vector RMS=  2.8864032D-05 Max=  6.2857715D-04 conv= 1.00D-05.
 RLE energy=       -1.1950787127
 DE(Corr)=  -1.1951190     E(CORR)=     -185.91174775     Delta=-1.60D-04
 NORM(A)=   0.13100337D+01
 Iteration Nr.  23
 **********************
 DD1Dir will call FoFMem   1 times, MxPair=       420
 NAB=   143 NAA=    78 NBB=    55.
 A-vector RMS=  1.4701500D-05 Max=  3.4754990D-04 conv= 1.00D-05.
 RLE energy=       -1.1951033078
 DE(Corr)=  -1.1950337     E(CORR)=     -185.91166245     Delta= 8.53D-05
 NORM(A)=   0.13100559D+01
 Iteration Nr.  24
 **********************
 DD1Dir will call FoFMem   1 times, MxPair=       420
 NAB=   143 NAA=    78 NBB=    55.
 A-vector RMS=  1.8306822D-05 Max=  4.2987861D-04 conv= 1.00D-05.
 RLE energy=       -1.1949882958
 DE(Corr)=  -1.1950064     E(CORR)=     -185.91163515     Delta= 2.73D-05
 NORM(A)=   0.13098923D+01
 Iteration Nr.  25
 **********************
 DD1Dir will call FoFMem   1 times, MxPair=       420
 NAB=   143 NAA=    78 NBB=    55.
 A-vector RMS=  1.7063746D-05 Max=  4.3027365D-04 conv= 1.00D-05.
 RLE energy=       -1.1950694317
 DE(Corr)=  -1.1951071     E(CORR)=     -185.91173586     Delta=-1.01D-04
 NORM(A)=   0.13097195D+01
 Iteration Nr.  26
 **********************
 DD1Dir will call FoFMem   1 times, MxPair=       420
 NAB=   143 NAA=    78 NBB=    55.
 A-vector RMS=  1.1631455D-05 Max=  3.6569755D-04 conv= 1.00D-05.
 RLE energy=       -1.1950270782
 DE(Corr)=  -1.1949855     E(CORR)=     -185.91161426     Delta= 1.22D-04
 NORM(A)=   0.13096042D+01
 Iteration Nr.  27
 **********************
 DD1Dir will call FoFMem   1 times, MxPair=       420
 NAB=   143 NAA=    78 NBB=    55.
 A-vector RMS=  5.5882107D-06 Max=  1.1081526D-04 conv= 1.00D-05.
 RLE energy=       -1.1949879243
 DE(Corr)=  -1.1950055     E(CORR)=     -185.91163430     Delta=-2.00D-05
 NORM(A)=   0.13094996D+01
 Iteration Nr.  28
 **********************
 DD1Dir will call FoFMem   1 times, MxPair=       420
 NAB=   143 NAA=    78 NBB=    55.
 A-vector RMS=  6.1611635D-06 Max=  9.2827719D-05 conv= 1.00D-05.
 RLE energy=       -1.1949978258
 DE(Corr)=  -1.1950147     E(CORR)=     -185.91164347     Delta=-9.17D-06
 NORM(A)=   0.13093795D+01
 Iteration Nr.  29
 **********************
 DD1Dir will call FoFMem   1 times, MxPair=       420
 NAB=   143 NAA=    78 NBB=    55.
 A-vector RMS=  3.8200546D-06 Max=  9.2047747D-05 conv= 1.00D-05.
 RLE energy=       -1.1949900615
 DE(Corr)=  -1.1949837     E(CORR)=     -185.91161252     Delta= 3.10D-05
 NORM(A)=   0.13093582D+01
 Iteration Nr.  30
 **********************
 DD1Dir will call FoFMem   1 times, MxPair=       420
 NAB=   143 NAA=    78 NBB=    55.
 A-vector RMS=  3.2113711D-06 Max=  8.1263911D-05 conv= 1.00D-05.
 RLE energy=       -1.1949712342
 DE(Corr)=  -1.1949792     E(CORR)=     -185.91160799     Delta= 4.53D-06
 NORM(A)=   0.13093232D+01
 Iteration Nr.  31
 **********************
 DD1Dir will call FoFMem   1 times, MxPair=       420
 NAB=   143 NAA=    78 NBB=    55.
 A-vector RMS=  2.8000872D-06 Max=  5.3633542D-05 conv= 1.00D-05.
 RLE energy=       -1.1949846261
 DE(Corr)=  -1.1949902     E(CORR)=     -185.91161895     Delta=-1.10D-05
 NORM(A)=   0.13092783D+01
 Iteration Nr.  32
 **********************
 DD1Dir will call FoFMem   1 times, MxPair=       420
 NAB=   143 NAA=    78 NBB=    55.
 A-vector RMS=  2.9315055D-06 Max=  1.0047285D-04 conv= 1.00D-05.
 RLE energy=       -1.1949735491
 DE(Corr)=  -1.1949642     E(CORR)=     -185.91159297     Delta= 2.60D-05
 NORM(A)=   0.13092752D+01
 Iteration Nr.  33
 **********************
 DD1Dir will call FoFMem   1 times, MxPair=       420
 NAB=   143 NAA=    78 NBB=    55.
 A-vector RMS=  1.1188002D-06 Max=  2.5996877D-05 conv= 1.00D-05.
 RLE energy=       -1.1949691707
 DE(Corr)=  -1.1949728     E(CORR)=     -185.91160156     Delta=-8.59D-06
 NORM(A)=   0.13092639D+01
 Iteration Nr.  34
 **********************
 DD1Dir will call FoFMem   1 times, MxPair=       420
 NAB=   143 NAA=    78 NBB=    55.
 A-vector RMS=  9.5363163D-07 Max=  2.7416785D-05 conv= 1.00D-05.
 RLE energy=       -1.1949708587
 DE(Corr)=  -1.1949724     E(CORR)=     -185.91160123     Delta= 3.25D-07
 NORM(A)=   0.13092520D+01
 Iteration Nr.  35
 **********************
 DD1Dir will call FoFMem   1 times, MxPair=       420
 NAB=   143 NAA=    78 NBB=    55.
 A-vector RMS=  8.6996916D-07 Max=  1.8530687D-05 conv= 1.00D-05.
 RLE energy=       -1.1949694830
 DE(Corr)=  -1.1949679     E(CORR)=     -185.91159666     Delta= 4.57D-06
 NORM(A)=   0.13092557D+01
 Iteration Nr.  36
 **********************
 DD1Dir will call FoFMem   1 times, MxPair=       420
 NAB=   143 NAA=    78 NBB=    55.
 A-vector RMS=  7.3408498D-07 Max=  2.0203453D-05 conv= 1.00D-05.
 RLE energy=       -1.1949661144
 DE(Corr)=  -1.1949680     E(CORR)=     -185.91159679     Delta=-1.32D-07
 NORM(A)=   0.13092527D+01
 Iteration Nr.  37
 **********************
 DD1Dir will call FoFMem   1 times, MxPair=       420
 NAB=   143 NAA=    78 NBB=    55.
 A-vector RMS=  6.9706031D-07 Max=  1.9426458D-05 conv= 1.00D-05.
 RLE energy=       -1.1949699488
 DE(Corr)=  -1.1949705     E(CORR)=     -185.91159932     Delta=-2.52D-06
 NORM(A)=   0.13092515D+01
 Iteration Nr.  38
 **********************
 DD1Dir will call FoFMem   1 times, MxPair=       420
 NAB=   143 NAA=    78 NBB=    55.
 A-vector RMS=  6.3912393D-07 Max=  1.4777782D-05 conv= 1.00D-05.
 RLE energy=       -1.1949672831
 DE(Corr)=  -1.1949659     E(CORR)=     -185.91159466     Delta= 4.66D-06
 NORM(A)=   0.13092565D+01
 Iteration Nr.  39
 **********************
 DD1Dir will call FoFMem   1 times, MxPair=       420
 NAB=   143 NAA=    78 NBB=    55.
 A-vector RMS=  4.9277645D-07 Max=  1.7637546D-05 conv= 1.00D-05.
 RLE energy=       -1.1949677077
 DE(Corr)=  -1.1949694     E(CORR)=     -185.91159823     Delta=-3.57D-06
 NORM(A)=   0.13092584D+01
 Iteration Nr.  40
 **********************
 DD1Dir will call FoFMem   1 times, MxPair=       420
 NAB=   143 NAA=    78 NBB=    55.
 A-vector RMS=  2.7645393D-07 Max=  5.6152987D-06 conv= 1.00D-05.
 RLE energy=       -1.1949691854
 DE(Corr)=  -1.1949691     E(CORR)=     -185.91159792     Delta= 3.08D-07
 NORM(A)=   0.13092598D+01
 Iteration Nr.  41
 **********************
 DD1Dir will call FoFMem   1 times, MxPair=       420
 NAB=   143 NAA=    78 NBB=    55.
 A-vector RMS=  2.9427054D-07 Max=  5.0063323D-06 conv= 1.00D-05.
 RLE energy=       -1.1949691971
 DE(Corr)=  -1.1949684     E(CORR)=     -185.91159720     Delta= 7.23D-07
 NORM(A)=   0.13092634D+01
 Iteration Nr.  42
 **********************
 DD1Dir will call FoFMem   1 times, MxPair=       420
 NAB=   143 NAA=    78 NBB=    55.
 A-vector RMS=  2.1772638D-07 Max=  6.6142050D-06 conv= 1.00D-05.
 RLE energy=       -1.1949689191
 DE(Corr)=  -1.1949690     E(CORR)=     -185.91159778     Delta=-5.80D-07
 NORM(A)=   0.13092642D+01
 Iteration Nr.  43
 **********************
 DD1Dir will call FoFMem   1 times, MxPair=       420
 NAB=   143 NAA=    78 NBB=    55.
 A-vector RMS=  1.7388975D-07 Max=  3.4766831D-06 conv= 1.00D-05.
 RLE energy=       -1.1949700102
 DE(Corr)=  -1.1949698     E(CORR)=     -185.91159856     Delta=-7.82D-07
 NORM(A)=   0.13092645D+01
 Iteration Nr.  44
 **********************
 DD1Dir will call FoFMem   1 times, MxPair=       420
 NAB=   143 NAA=    78 NBB=    55.
 A-vector RMS=  1.3585370D-07 Max=  2.3701030D-06 conv= 1.00D-05.
 RLE energy=       -1.1949693527
 DE(Corr)=  -1.1949690     E(CORR)=     -185.91159779     Delta= 7.70D-07
 NORM(A)=   0.13092660D+01
 Iteration Nr.  45
 **********************
 DD1Dir will call FoFMem   1 times, MxPair=       420
 NAB=   143 NAA=    78 NBB=    55.
 A-vector RMS=  1.4690374D-07 Max=  4.9079740D-06 conv= 1.00D-05.
 RLE energy=       -1.1949696814
 DE(Corr)=  -1.1949701     E(CORR)=     -185.91159892     Delta=-1.13D-06
 NORM(A)=   0.13092659D+01
 Iteration Nr.  46
 **********************
 DD1Dir will call FoFMem   1 times, MxPair=       420
 NAB=   143 NAA=    78 NBB=    55.
 A-vector RMS=  5.8681950D-08 Max=  1.4512565D-06 conv= 1.00D-05.
 RLE energy=       -1.1949699285
 DE(Corr)=  -1.1949699     E(CORR)=     -185.91159866     Delta= 2.60D-07
 NORM(A)=   0.13092656D+01
 Iteration Nr.  47
 **********************
 DD1Dir will call FoFMem   1 times, MxPair=       420
 NAB=   143 NAA=    78 NBB=    55.
 A-vector RMS=  4.7985234D-08 Max=  1.2103603D-06 conv= 1.00D-05.
 RLE energy=       -1.1949698691
 DE(Corr)=  -1.1949697     E(CORR)=     -185.91159854     Delta= 1.26D-07
 NORM(A)=   0.13092658D+01
 Iteration Nr.  48
 **********************
 DD1Dir will call FoFMem   1 times, MxPair=       420
 NAB=   143 NAA=    78 NBB=    55.
 A-vector RMS=  4.7527727D-08 Max=  1.1430157D-06 conv= 1.00D-05.
 RLE energy=       -1.1949698121
 DE(Corr)=  -1.1949698     E(CORR)=     -185.91159864     Delta=-1.03D-07
 NORM(A)=   0.13092656D+01
 Iteration Nr.  49
 **********************
 DD1Dir will call FoFMem   1 times, MxPair=       420
 NAB=   143 NAA=    78 NBB=    55.
 A-vector RMS=  3.0801504D-08 Max=  9.6308889D-07 conv= 1.00D-05.
 RLE energy=       -1.1949700862
 DE(Corr)=  -1.1949699     E(CORR)=     -185.91159871     Delta=-7.55D-08
 NORM(A)=   0.13092650D+01
 CI/CC converged in   49 iterations to DelEn=-7.55D-08 Conv= 1.00D-07 ErrA1= 3.08D-08 Conv= 1.00D-05
 Wavefunction amplitudes converged. E(Corr)=     -185.91159871    
 Dominant configurations:
 ***********************
 Spin Case        I    J    A    B          Value
    BB            6        12           -0.100731D+00
    BB           11        12            0.113467D+00
    BB            9        18            0.107972D+00
    BB            9        26            0.283298D+00
    BB            9        34           -0.271946D+00
    BB           10        17            0.107972D+00
    BB           10        27            0.283298D+00
    BB           10        35           -0.271946D+00
 Largest amplitude= 2.83D-01
 Time for triples=   176578.48 seconds.
 T4(CCSD)= -0.10958061D+00
 T5(CCSD)=  0.45870424D-01
 CCSD(T)= -0.18597530890D+03
 Discarding MO integrals.
 Leave Link  913 at Mon Mar 26 20:57:38 2018, MaxMem= 10737418240 cpu:          275361.7 elap:            8644.8
 (Enter /home1/apps/gaussian/16rA.03/g16/l601.exe)
 Copying SCF densities to generalized density rwf, IOpCl= 0 IROHF=1.

 **********************************************************************

            Population analysis using the SCF density.

 **********************************************************************

 Orbital symmetries:
       Occupied  (SG) (PI) (PI) (SG) (SG) (SG) (DLTA) (DLTA) (PI)
                 (PI) (SG) (PI) (PI)
       Virtual   (SG) (PI) (PI) (SG) (SG) (PI) (PI) (SG) (DLTA)
                 (DLTA) (PI) (PI) (SG) (SG) (PI) (PI) (SG) (SG)
                 (PI) (PI) (DLTA) (DLTA) (PI) (PI) (SG) (SG) (SG)
                 (DLTA) (DLTA) (PI) (PI) (SG) (DLTA) (DLTA) (PI)
                 (PI) (SG) (PI) (PI) (PHI) (PHI) (SG) (DLTA) (DLTA)
                 (PI) (PI) (SG) (PI) (PI) (SG) (SG) (PHI) (PHI)
                 (DLTA) (DLTA) (DLTA) (DLTA) (PI) (PI) (SG) (PI)
                 (PI) (DLTA) (DLTA) (SG) (SG) (PI) (PI) (SG) (PI)
                 (PI) (PHI) (PHI) (DLTA) (DLTA) (PI) (PI) (SG)
                 (?A) (?A) (PHI) (PHI) (PI) (PI) (SG) (DLTA) (DLTA)
                 (SG) (PI) (PI) (?A) (?A) (PHI) (PHI) (SG) (SG)
                 (PHI) (PHI) (PI) (PI) (DLTA) (DLTA) (DLTA) (DLTA)
                 (SG) (SG) (DLTA) (DLTA) (PI) (PI) (DLTA) (DLTA)
                 (PI) (PI) (SG) (PI) (PI) (SG) (PI) (PI) (SG) (PHI)
                 (PHI) (DLTA) (DLTA) (PI) (PI) (SG) (?A) (?A) (PHI)
                 (PHI) (DLTA) (DLTA) (?A) (?A) (?B) (?B) (SG) (PHI)
                 (PHI) (PI) (PI) (DLTA) (DLTA) (PI) (PI) (SG) (SG)
                 (PI) (PI) (DLTA) (DLTA) (PI) (PI) (SG) (?A) (?A)
                 (SG) (PHI) (PHI) (DLTA) (DLTA) (PI) (PI) (SG)
                 (PHI) (PHI) (DLTA) (DLTA) (SG) (DLTA) (DLTA) (PI)
                 (PI) (PI) (PI) (SG) (PI) (PI) (SG) (SG) (PHI)
                 (PHI) (DLTA) (DLTA) (PI) (PI) (SG) (PHI) (PHI)
                 (?A) (?A) (DLTA) (DLTA) (PI) (PI) (SG) (DLTA)
                 (DLTA) (PI) (PI) (SG) (?A) (?A) (PHI) (PHI) (?B)
                 (?B) (DLTA) (DLTA) (PI) (PI) (SG) (SG) (PI) (PI)
                 (PI) (PI) (SG) (SG) (SG) (DLTA) (DLTA) (PI) (PI)
                 (SG) (PHI) (PHI) (DLTA) (DLTA) (PI) (PI) (SG)
                 (PHI) (PHI) (?A) (?A) (DLTA) (DLTA) (PI) (PI)
                 (SG) (DLTA) (DLTA) (PI) (PI) (SG) (?A) (?A) (PHI)
                 (PHI) (?B) (?B) (DLTA) (DLTA) (PI) (PI) (SG) (SG)
                 (PI) (PI) (SG) (DLTA) (DLTA) (PI) (PI) (SG) (SG)
                 (PI) (PI) (SG) (PHI) (PHI) (DLTA) (DLTA) (PI)
                 (PI) (SG) (PI) (PI) (SG) (DLTA) (DLTA) (PI) (PI)
                 (SG) (SG) (SG) (PI) (PI) (SG) (PI) (PI) (SG) (DLTA)
                 (DLTA) (PI) (PI) (SG) (SG) (DLTA) (DLTA) (PI)
                 (PI) (SG) (SG) (PI) (PI) (SG) (SG) (PI) (PI) (SG)
                 (SG) (DLTA) (DLTA) (PI) (PI) (SG) (SG) (PI) (PI)
                 (SG) (SG) (PI) (PI) (SG) (SG) (SG) (PI) (PI) (SG)
                 (DLTA) (DLTA) (PI) (PI) (SG) (SG) (SG) (PI) (PI)
                 (SG) (SG) (PI) (PI) (SG) (SG) (SG) (PI) (PI) (SG)
                 (SG) (SG) (PI) (PI) (SG) (SG) (SG) (PI) (PI) (SG)
                 (SG) (SG) (SG) (SG) (SG)
 The electronic state is 3-SG.
 Alpha  occ. eigenvalues --   -5.21958  -3.50677  -3.42223  -3.42223  -1.17255
 Alpha  occ. eigenvalues --   -0.79749  -0.79749  -0.72951  -0.70569  -0.70569
 Alpha  occ. eigenvalues --   -0.38274  -0.38274  -0.37617
 Alpha virt. eigenvalues --   -0.05217   0.01883   0.01883   0.01961   0.03888
 Alpha virt. eigenvalues --    0.06922   0.06922   0.07576   0.08018   0.08018
 Alpha virt. eigenvalues --    0.09203   0.09203   0.12873   0.14957   0.21949
 Alpha virt. eigenvalues --    0.21949   0.22277   0.23952   0.24914   0.24914
 Alpha virt. eigenvalues --    0.25616   0.25616   0.30094   0.30094   0.37121
 Alpha virt. eigenvalues --    0.48419   0.55634   0.59120   0.59120   0.62993
 Alpha virt. eigenvalues --    0.62993   0.65136   0.70813   0.70813   0.71456
 Alpha virt. eigenvalues --    0.71456   0.74169   0.79560   0.79560   0.83602
 Alpha virt. eigenvalues --    0.83602   0.94022   0.95992   0.95992   0.96691
 Alpha virt. eigenvalues --    0.96691   0.98703   1.15475   1.15475   1.40387
 Alpha virt. eigenvalues --    1.47341   1.47998   1.47998   1.68073   1.68073
 Alpha virt. eigenvalues --    1.72199   1.72199   1.72260   1.72260   1.73252
 Alpha virt. eigenvalues --    1.88308   1.88308   1.91939   1.91939   2.00825
 Alpha virt. eigenvalues --    2.11238   2.15811   2.15811   2.22773   2.26617
 Alpha virt. eigenvalues --    2.26617   2.51374   2.51374   2.53413   2.53413
 Alpha virt. eigenvalues --    2.76887   2.76887   2.76899   2.85622   2.85622
 Alpha virt. eigenvalues --    2.88887   2.88887   2.96173   2.96173   3.19841
 Alpha virt. eigenvalues --    3.23357   3.23357   3.57413   3.72698   3.72698
 Alpha virt. eigenvalues --    3.79305   3.79305   3.99987   3.99987   4.10402
 Alpha virt. eigenvalues --    4.14112   4.22816   4.22816   4.26753   4.26753
 Alpha virt. eigenvalues --    4.36492   4.36492   4.39402   4.39402   4.53715
 Alpha virt. eigenvalues --    4.59819   4.62277   4.62277   4.71738   4.71738
 Alpha virt. eigenvalues --    4.74913   4.74913   4.81555   4.81555   5.29174
 Alpha virt. eigenvalues --    5.53071   5.53071   5.89670   6.16239   6.16239
 Alpha virt. eigenvalues --    6.41549   6.54066   6.54066   6.61777   6.61777
 Alpha virt. eigenvalues --    7.00130   7.00130   7.60430   7.82365   7.82365
 Alpha virt. eigenvalues --    7.84392   7.84392   7.93697   7.93697   7.98556
 Alpha virt. eigenvalues --    7.98556   8.00576   8.00576   8.04952   8.08041
 Alpha virt. eigenvalues --    8.08041   8.16376   8.16376   8.54556   8.54556
 Alpha virt. eigenvalues --    8.82180   8.82180   8.85164   9.67857   9.78133
 Alpha virt. eigenvalues --    9.78133  10.01944  10.01944  10.06083  10.06083
 Alpha virt. eigenvalues --   10.39733  10.78180  10.78180  10.83752  10.84499
 Alpha virt. eigenvalues --   10.84499  11.01274  11.01274  11.26765  11.26765
 Alpha virt. eigenvalues --   11.46797  12.01919  12.01919  12.16624  12.16624
 Alpha virt. eigenvalues --   12.65020  12.77059  12.77059  12.77309  12.77309
 Alpha virt. eigenvalues --   13.16238  13.16238  13.46686  14.07613  14.07613
 Alpha virt. eigenvalues --   14.51485  14.96437  16.06375  16.06375  16.09038
 Alpha virt. eigenvalues --   16.09038  16.52221  16.52221  17.09377  18.91271
 Alpha virt. eigenvalues --   18.91271  18.93894  18.93894  19.00863  19.00863
 Alpha virt. eigenvalues --   19.11638  19.11638  19.20553  19.55957  19.55957
 Alpha virt. eigenvalues --   19.62932  19.62932  20.02768  20.50458  20.50458
 Alpha virt. eigenvalues --   20.53047  20.53047  20.55822  20.55822  20.71970
 Alpha virt. eigenvalues --   20.71970  21.10188  21.10188  21.18815  24.16547
 Alpha virt. eigenvalues --   28.05139  28.05139  28.41349  28.41349  28.97998
 Alpha virt. eigenvalues --   29.19066  34.39984  35.32687  35.32687  35.35968
 Alpha virt. eigenvalues --   35.35968  35.68706  38.77876  38.77876  38.78131
 Alpha virt. eigenvalues --   38.78131  39.09226  39.09226  39.39488  43.54089
 Alpha virt. eigenvalues --   43.54089  43.58381  43.58381  43.60773  43.60773
 Alpha virt. eigenvalues --   43.68521  43.68521  43.77644  46.78299  46.78299
 Alpha virt. eigenvalues --   46.97796  46.97796  47.50279  48.35082  48.35082
 Alpha virt. eigenvalues --   48.35229  48.35229  48.41616  48.41616  48.44886
 Alpha virt. eigenvalues --   48.44886  48.65487  48.65487  48.84712  52.66814
 Alpha virt. eigenvalues --   54.59445  54.59445  55.60918  60.94502  60.94502
 Alpha virt. eigenvalues --   60.97181  60.97181  61.33845  67.80311  69.51713
 Alpha virt. eigenvalues --   69.51713  70.51190 103.01640 103.01640 103.02270
 Alpha virt. eigenvalues --  103.02270 103.07484 103.07484 103.08458 105.07400
 Alpha virt. eigenvalues --  105.07400 105.75583 106.52120 106.52120 106.54856
 Alpha virt. eigenvalues --  106.54856 106.80718 118.79128 121.27554 154.29958
 Alpha virt. eigenvalues --  154.29958 155.13755 203.14820 203.14820 203.89011
 Alpha virt. eigenvalues --  206.76747 206.76747 206.88163 206.88163 207.18926
 Alpha virt. eigenvalues --  209.60383 215.76874 215.76874 215.80373 215.80373
 Alpha virt. eigenvalues --  216.03522 241.73023 324.54068 324.54068 325.27884
 Alpha virt. eigenvalues --  357.56731 383.87614 383.87614 384.58927 414.23989
 Alpha virt. eigenvalues --  543.89843 543.89843 543.93690 543.93690 544.11011
 Alpha virt. eigenvalues --  611.71525 690.80720 690.80720 691.44403 708.70608
 Alpha virt. eigenvalues --  717.52424 717.52424 718.350791089.605451283.79477
 Alpha virt. eigenvalues -- 1372.935431372.935431373.657801744.464901744.46490
 Alpha virt. eigenvalues -- 1744.496071744.496071744.608562261.954122455.55805
 Alpha virt. eigenvalues -- 2761.640732761.640732762.317054972.736395984.03008
 Alpha virt. eigenvalues -- 5984.030085984.644036140.65825********************
 Alpha virt. eigenvalues -- **************************************************
 Alpha virt. eigenvalues -- **************************************************
 Alpha virt. eigenvalues -- **************************************************
 Alpha virt. eigenvalues -- ********************
     Molecular Orbital Coefficients:
                           7         8         9        10        11
                           O         O         O         O         O
     Eigenvalues --    -0.79749  -0.72951  -0.70569  -0.70569  -0.38274
   1 1   Ni 1S         -0.00000   0.00000   0.00000   0.00000   0.00000
   2        2S          0.00000   0.00000   0.00000   0.00000  -0.00000
   3        3S         -0.00000   0.00000   0.00000   0.00000   0.00000
   4        4S          0.00000   0.00000   0.00000   0.00000  -0.00000
   5        5S         -0.00000   0.00000   0.00000   0.00000   0.00000
   6        6S          0.00000   0.00000   0.00000   0.00000  -0.00000
   7        7S         -0.00000   0.00000   0.00000   0.00000   0.00000
   8        8S          0.00000   0.00000   0.00000   0.00000  -0.00001
   9        9S         -0.00000   0.00000   0.00000   0.00000   0.00002
  10       10S          0.00000   0.00000   0.00000   0.00000  -0.00005
  11       11S         -0.00000   0.00000   0.00000   0.00000   0.00016
  12       12S          0.00000   0.00000   0.00000   0.00000  -0.00056
  13       13S         -0.00000   0.00000   0.00000   0.00000   0.00304
  14       14S          0.00000   0.00000   0.00000   0.00000  -0.02252
  15       15S         -0.00000   0.00000   0.00000   0.00000   0.03528
  16       16S          0.00000   0.00000   0.00000   0.00000   0.17533
  17       17S          0.00000   0.00000   0.00000   0.00000  -0.04134
  18       18S         -0.00000   0.00000   0.00000   0.00000  -0.18911
  19       19S          0.00000   0.00000   0.00000   0.00000  -0.14595
  20       20S          0.00000   0.00000   0.00000   0.00000   0.30173
  21       21S          0.00000   0.00000   0.00000   0.00000   0.28236
  22       22S          0.00000   0.00000   0.00000   0.00000   0.04227
  23       23S         -0.00000   0.00000   0.00000   0.00000  -0.11293
  24       24S          0.00000   0.00000   0.00000   0.00000  -0.02370
  25       25S         -0.00000   0.00000   0.00000   0.00000  -0.00066
  26       26PX         0.00000   0.00000   0.00000   0.00000   0.00000
  27       26PY         0.00000   0.00000   0.00000   0.00000   0.00000
  28       26PZ        -0.00000   0.00000   0.00000   0.00000  -0.00000
  29       27PX         0.00000   0.00000   0.00000  -0.00000   0.00000
  30       27PY         0.00000   0.00000  -0.00000   0.00000   0.00000
  31       27PZ         0.00000   0.00000   0.00000   0.00000   0.00000
  32       28PX         0.00000   0.00000   0.00000   0.00000   0.00000
  33       28PY         0.00000   0.00000   0.00000   0.00000   0.00000
  34       28PZ        -0.00000   0.00000   0.00000   0.00000  -0.00000
  35       29PX         0.00000   0.00000   0.00000  -0.00000   0.00000
  36       29PY         0.00000   0.00000  -0.00000   0.00000   0.00000
  37       29PZ         0.00000   0.00000   0.00000   0.00000   0.00000
  38       30PX         0.00000   0.00000   0.00000   0.00000   0.00000
  39       30PY         0.00000   0.00000   0.00000   0.00000   0.00000
  40       30PZ        -0.00000   0.00000   0.00000   0.00000  -0.00001
  41       31PX         0.00000   0.00000   0.00000  -0.00002   0.00000
  42       31PY         0.00000   0.00000  -0.00002   0.00000   0.00000
  43       31PZ         0.00000   0.00000   0.00000   0.00000   0.00003
  44       32PX         0.00000   0.00000   0.00000   0.00008   0.00000
  45       32PY         0.00000   0.00000   0.00008   0.00000   0.00000
  46       32PZ         0.00000   0.00000   0.00000   0.00000  -0.00013
  47       33PX         0.00000   0.00000   0.00000  -0.00055   0.00000
  48       33PY         0.00000   0.00000  -0.00055   0.00000   0.00000
  49       33PZ         0.00000   0.00000   0.00000   0.00000   0.00082
  50       34PX         0.00000   0.00000   0.00000   0.00224   0.00000
  51       34PY         0.00000   0.00000   0.00224   0.00000   0.00000
  52       34PZ        -0.00000   0.00000   0.00000   0.00000  -0.00324
  53       35PX         0.00000   0.00000   0.00000   0.00194   0.00000
  54       35PY         0.00000   0.00000   0.00194   0.00000   0.00000
  55       35PZ        -0.00000   0.00000   0.00000   0.00000  -0.00182
  56       36PX         0.00000   0.00000   0.00000   0.00250   0.00000
  57       36PY         0.00000   0.00000   0.00250   0.00000   0.00000
  58       36PZ        -0.00000   0.00000   0.00000   0.00000   0.00056
  59       37PX         0.00000   0.00000   0.00000  -0.01393   0.00000
  60       37PY         0.00000   0.00000  -0.01393   0.00000   0.00000
  61       37PZ         0.00000   0.00000   0.00000   0.00000   0.01962
  62       38PX         0.00000   0.00000   0.00000  -0.01287   0.00000
  63       38PY         0.00000   0.00000  -0.01287   0.00000   0.00000
  64       38PZ         0.00000   0.00000   0.00000   0.00000   0.03109
  65       39PX         0.00000   0.00000   0.00000  -0.03729   0.00000
  66       39PY         0.00000   0.00000  -0.03729   0.00000   0.00000
  67       39PZ         0.00000   0.00000   0.00000   0.00000   0.04800
  68       40PX         0.00000   0.00000   0.00000  -0.00159   0.00000
  69       40PY         0.00000   0.00000  -0.00159   0.00000   0.00000
  70       40PZ        -0.00000   0.00000   0.00000   0.00000  -0.00265
  71       41PX         0.00000   0.00000   0.00000   0.05480   0.00000
  72       41PY         0.00000   0.00000   0.05480   0.00000   0.00000
  73       41PZ        -0.00000   0.00000   0.00000   0.00000  -0.06749
  74       42PX         0.00000   0.00000   0.00000   0.05897   0.00000
  75       42PY         0.00000   0.00000   0.05897   0.00000   0.00000
  76       42PZ        -0.00000   0.00000   0.00000   0.00000  -0.02162
  77       43PX         0.00000   0.00000   0.00000   0.00483   0.00000
  78       43PY         0.00000   0.00000   0.00483   0.00000   0.00000
  79       43PZ        -0.00000   0.00000   0.00000   0.00000   0.00502
  80       44PX         0.00000   0.00000   0.00000  -0.00147   0.00000
  81       44PY         0.00000   0.00000  -0.00147   0.00000   0.00000
  82       44PZ         0.00000   0.00000   0.00000   0.00000  -0.00238
  83       45PX         0.00000   0.00000   0.00000  -0.01642   0.00000
  84       45PY         0.00000   0.00000  -0.01642   0.00000   0.00000
  85       45PZ         0.00000   0.00000   0.00000   0.00000   0.00969
  86       46PX         0.00000   0.00000   0.00000  -0.00131   0.00000
  87       46PY         0.00000   0.00000  -0.00131   0.00000   0.00000
  88       46PZ        -0.00000   0.00000   0.00000   0.00000  -0.00144
  89       47D 0        0.00000   0.00000   0.00000   0.00000   0.00000
  90       47D+1        0.00000   0.00000   0.00000   0.00000   0.00000
  91       47D-1        0.00000   0.00000   0.00000   0.00000   0.00000
  92       47D+2       -0.00001   0.00000   0.00000   0.00000   0.00000
  93       47D-2        0.00000  -0.00001   0.00000   0.00000   0.00000
  94       48D 0       -0.00000   0.00000   0.00000   0.00000  -0.00003
  95       48D+1        0.00000   0.00000   0.00000  -0.00003   0.00000
  96       48D-1        0.00000   0.00000  -0.00003   0.00000   0.00000
  97       48D+2        0.00013   0.00000   0.00000   0.00000  -0.00000
  98       48D-2        0.00000   0.00013   0.00000   0.00000   0.00000
  99       49D 0       -0.00000   0.00000   0.00000   0.00000  -0.00057
 100       49D+1        0.00000   0.00000   0.00000  -0.00050   0.00000
 101       49D-1        0.00000   0.00000  -0.00050   0.00000   0.00000
 102       49D+2        0.00261   0.00000   0.00000   0.00000   0.00000
 103       49D-2        0.00000   0.00261   0.00000   0.00000   0.00000
 104       50D 0       -0.00000   0.00000   0.00000   0.00000  -0.01223
 105       50D+1        0.00000   0.00000   0.00000  -0.01088   0.00000
 106       50D-1        0.00000   0.00000  -0.01088   0.00000   0.00000
 107       50D+2        0.05581   0.00000   0.00000   0.00000   0.00000
 108       50D-2        0.00000   0.05581   0.00000   0.00000   0.00000
 109       51D 0       -0.00000   0.00000   0.00000   0.00000  -0.03534
 110       51D+1        0.00000   0.00000   0.00000  -0.03104   0.00000
 111       51D-1        0.00000   0.00000  -0.03104   0.00000   0.00000
 112       51D+2        0.16086   0.00000   0.00000   0.00000   0.00000
 113       51D-2        0.00000   0.16086   0.00000   0.00000   0.00000
 114       52D 0       -0.00000   0.00000   0.00000   0.00000  -0.06474
 115       52D+1        0.00000   0.00000   0.00000  -0.05337   0.00000
 116       52D-1        0.00000   0.00000  -0.05337   0.00000   0.00000
 117       52D+2        0.28463   0.00000   0.00000   0.00000   0.00000
 118       52D-2        0.00000   0.28463   0.00000   0.00000   0.00000
 119       53D 0       -0.00000   0.00000   0.00000   0.00000  -0.07142
 120       53D+1        0.00000   0.00000   0.00000  -0.06206   0.00000
 121       53D-1        0.00000   0.00000  -0.06206   0.00000   0.00000
 122       53D+2        0.31679   0.00000   0.00000   0.00000   0.00000
 123       53D-2        0.00000   0.31679   0.00000   0.00000   0.00000
 124       54D 0       -0.00000   0.00000   0.00000   0.00000  -0.06151
 125       54D+1        0.00000   0.00000   0.00000  -0.06246   0.00000
 126       54D-1        0.00000   0.00000  -0.06246   0.00000   0.00000
 127       54D+2        0.29628   0.00000   0.00000   0.00000   0.00000
 128       54D-2        0.00000   0.29628   0.00000   0.00000   0.00000
 129       55D 0       -0.00000   0.00000   0.00000   0.00000  -0.03248
 130       55D+1        0.00000   0.00000   0.00000  -0.06020   0.00000
 131       55D-1        0.00000   0.00000  -0.06020   0.00000   0.00000
 132       55D+2        0.20871   0.00000   0.00000   0.00000   0.00000
 133       55D-2        0.00000   0.20871   0.00000   0.00000   0.00000
 134       56D 0       -0.00000   0.00000   0.00000   0.00000  -0.00159
[...]
 165       61F-3        0.00000   0.00000   0.00000  -0.00000
 166       62F 0        0.00006   0.00003   0.00003  -0.00000
 167       62F+1        0.00001   0.00001   0.00000   0.00000
 168       62F-1        0.00001   0.00001   0.00000   0.00000
 169       62F+2        0.00001   0.00000   0.00000  -0.00000
 170       62F-2        0.00001   0.00000   0.00000  -0.00000
 171       62F+3        0.00000   0.00000   0.00000   0.00000
 172       62F-3        0.00000   0.00000   0.00000   0.00000
 173       63F 0        0.00037   0.00018   0.00018  -0.00000
 174       63F+1        0.00012   0.00009   0.00003   0.00006
 175       63F-1        0.00012   0.00009   0.00003   0.00006
 176       63F+2        0.00004   0.00002   0.00002  -0.00000
 177       63F-2        0.00004   0.00002   0.00002  -0.00000
 178       63F+3        0.00000   0.00000   0.00000   0.00000
 179       63F-3       -0.00000  -0.00000   0.00000  -0.00000
 180       64F 0        0.00365   0.00183   0.00183  -0.00000
 181       64F+1        0.00353   0.00217   0.00136   0.00081
 182       64F-1        0.00353   0.00217   0.00136   0.00081
 183       64F+2        0.00021   0.00011   0.00011  -0.00000
 184       64F-2        0.00021   0.00011   0.00011  -0.00000
 185       64F+3       -0.00000  -0.00000  -0.00000   0.00000
 186       64F-3        0.00000   0.00000  -0.00000   0.00000
 187       65F 0        0.00161   0.00081   0.00081  -0.00000
 188       65F+1        0.00606   0.00376   0.00230   0.00145
 189       65F-1        0.00606   0.00376   0.00230   0.00145
 190       65F+2        0.00016   0.00008   0.00008  -0.00000
 191       65F-2        0.00016   0.00008   0.00008   0.00000
 192       65F+3        0.00000   0.00000  -0.00000   0.00000
 193       65F-3        0.00000   0.00000   0.00000   0.00000
 194       66G 0        0.00000   0.00000   0.00000  -0.00000
 195       66G+1        0.00000   0.00000   0.00000   0.00000
 196       66G-1        0.00000   0.00000   0.00000   0.00000
 197       66G+2        0.00000   0.00000   0.00000   0.00000
 198       66G-2        0.00000   0.00000   0.00000  -0.00000
 199       66G+3        0.00000   0.00000   0.00000   0.00000
 200       66G-3       -0.00000  -0.00000   0.00000  -0.00000
 201       66G+4        0.00000   0.00000   0.00000   0.00000
 202       66G-4        0.00000   0.00000   0.00000  -0.00000
 203       67G 0        0.00001   0.00000   0.00000  -0.00000
 204       67G+1        0.00000   0.00000   0.00000   0.00000
 205       67G-1        0.00000   0.00000   0.00000   0.00000
 206       67G+2        0.00000   0.00000   0.00000  -0.00000
 207       67G-2        0.00000   0.00000   0.00000  -0.00000
 208       67G+3        0.00000   0.00000   0.00000   0.00000
 209       67G-3       -0.00000  -0.00000   0.00000  -0.00000
 210       67G+4        0.00000   0.00000   0.00000   0.00000
 211       67G-4        0.00000   0.00000   0.00000   0.00000
 212       68G 0        0.00012   0.00006   0.00006  -0.00000
 213       68G+1        0.00006   0.00003   0.00003  -0.00001
 214       68G-1        0.00006   0.00003   0.00003  -0.00001
 215       68G+2        0.00000   0.00000   0.00000  -0.00000
 216       68G-2        0.00000   0.00000   0.00000  -0.00000
 217       68G+3       -0.00000  -0.00000  -0.00000   0.00000
 218       68G-3        0.00000   0.00000  -0.00000   0.00000
 219       68G+4        0.00000   0.00000   0.00000   0.00000
 220       68G-4        0.00000   0.00000   0.00000  -0.00000
 221       69G 0        0.00069   0.00035   0.00035   0.00000
 222       69G+1        0.00101   0.00049   0.00052  -0.00003
 223       69G-1        0.00101   0.00049   0.00052  -0.00003
 224       69G+2        0.00000   0.00000   0.00000   0.00000
 225       69G-2        0.00000   0.00000   0.00000  -0.00000
 226       69G+3       -0.00000   0.00000  -0.00000   0.00000
 227       69G-3        0.00000  -0.00000   0.00000  -0.00000
 228       69G+4       -0.00000  -0.00000  -0.00000   0.00000
 229       69G-4        0.00000   0.00000   0.00000  -0.00000
 230       70H 0        0.00000   0.00000   0.00000  -0.00000
 231       70H+1        0.00000   0.00000   0.00000   0.00000
 232       70H-1        0.00000   0.00000   0.00000   0.00000
 233       70H+2       -0.00000  -0.00000  -0.00000  -0.00000
 234       70H-2       -0.00000  -0.00000  -0.00000   0.00000
 235       70H+3        0.00000   0.00000  -0.00000   0.00000
 236       70H-3       -0.00000  -0.00000   0.00000  -0.00000
 237       70H+4       -0.00000  -0.00000  -0.00000   0.00000
 238       70H-4        0.00000   0.00000   0.00000  -0.00000
 239       70H+5       -0.00000  -0.00000   0.00000  -0.00000
 240       70H-5       -0.00000  -0.00000  -0.00000  -0.00000
 241       71H 0       -0.00000  -0.00000  -0.00000   0.00000
 242       71H+1       -0.00000  -0.00000  -0.00000   0.00000
 243       71H-1       -0.00000  -0.00000  -0.00000   0.00000
 244       71H+2       -0.00000  -0.00000  -0.00000  -0.00000
 245       71H-2       -0.00000  -0.00000  -0.00000   0.00000
 246       71H+3        0.00000   0.00000   0.00000  -0.00000
 247       71H-3        0.00000  -0.00000   0.00000  -0.00000
 248       71H+4       -0.00000  -0.00000  -0.00000  -0.00000
 249       71H-4        0.00000   0.00000   0.00000  -0.00000
 250       71H+5       -0.00000   0.00000  -0.00000   0.00000
 251       71H-5       -0.00000  -0.00000  -0.00000  -0.00000
 252       72H 0        0.00007   0.00003   0.00003  -0.00000
 253       72H+1        0.00004   0.00002   0.00002  -0.00000
 254       72H-1        0.00004   0.00002   0.00002  -0.00000
 255       72H+2        0.00000   0.00000   0.00000   0.00000
 256       72H-2        0.00000   0.00000   0.00000   0.00000
 257       72H+3        0.00000  -0.00000   0.00000  -0.00000
 258       72H-3       -0.00000  -0.00000  -0.00000  -0.00000
 259       72H+4        0.00000   0.00000   0.00000  -0.00000
 260       72H-4       -0.00000  -0.00000  -0.00000   0.00000
 261       72H+5        0.00000   0.00000  -0.00000   0.00000
 262       72H-5       -0.00000   0.00000  -0.00000   0.00000
 263 2   O  1S         -0.00000  -0.00000  -0.00000   0.00000
 264        2S          0.00000   0.00000   0.00000   0.00000
 265        3S         -0.00000  -0.00000  -0.00000   0.00000
 266        4S          0.00000   0.00000   0.00000  -0.00000
 267        5S         -0.00000  -0.00000  -0.00000   0.00000
 268        6S         -0.00009  -0.00005  -0.00005  -0.00000
 269        7S         -0.00084  -0.00042  -0.00042  -0.00000
 270        8S         -0.09330  -0.04665  -0.04665  -0.00000
 271        9S         -0.07590  -0.03795  -0.03795   0.00000
 272       10S          0.43449   0.21724   0.21724  -0.00000
 273       11S          1.07030   0.53515   0.53515  -0.00000
 274       12S          0.54221   0.27110   0.27110  -0.00000
 275       13S          0.05673   0.02837   0.02837   0.00000
 276       14S          0.00049   0.00025   0.00025  -0.00000
 277       15S          0.00004   0.00002   0.00002   0.00000
 278       16S          0.02928   0.01464   0.01464  -0.00000
 279       17PX        -0.00016  -0.00008  -0.00008  -0.00001
 280       17PY        -0.00016  -0.00008  -0.00008  -0.00001
 281       17PZ        -0.00014  -0.00007  -0.00007   0.00000
 282       18PX        -0.11476  -0.05938  -0.05539  -0.00399
 283       18PY        -0.11476  -0.05938  -0.05539  -0.00399
 284       18PZ        -0.10172  -0.05086  -0.05086   0.00000
 285       19PX         0.13743   0.07133   0.06611   0.00522
 286       19PY         0.13743   0.07133   0.06611   0.00522
 287       19PZ         0.10963   0.05481   0.05481  -0.00000
 288       20PX         0.46391   0.24018   0.22373   0.01645
 289       20PY         0.46391   0.24018   0.22373   0.01645
 290       20PZ         0.38404   0.19202   0.19202  -0.00000
 291       21PX         0.69683   0.35820   0.33863   0.01958
 292       21PY         0.69683   0.35820   0.33863   0.01958
 293       21PZ         0.56598   0.28299   0.28299  -0.00000
 294       22PX         0.43039   0.22137   0.20902   0.01234
 295       22PY         0.43039   0.22137   0.20902   0.01234
 296       22PZ         0.32086   0.16043   0.16043  -0.00000
 297       23PX         0.13233   0.06849   0.06384   0.00465
 298       23PY         0.13233   0.06849   0.06384   0.00465
 299       23PZ         0.11597   0.05799   0.05799   0.00000
 300       24PX         0.00061   0.00032   0.00029   0.00002
 301       24PY         0.00061   0.00032   0.00029   0.00002
 302       24PZ         0.00053   0.00027   0.00027  -0.00000
 303       25PX         0.00001   0.00000   0.00000   0.00000
 304       25PY         0.00001   0.00000   0.00000   0.00000
 305       25PZ         0.00001   0.00000   0.00000  -0.00000
 306       26PX         0.04158   0.02202   0.01955   0.00247
 307       26PY         0.04158   0.02202   0.01955   0.00247
 308       26PZ         0.03630   0.01815   0.01815  -0.00000
 309       27D 0        0.00009   0.00005   0.00005  -0.00000
 310       27D+1        0.00006   0.00003   0.00003   0.00000
 311       27D-1        0.00006   0.00003   0.00003   0.00000
 312       27D+2        0.00000   0.00000   0.00000  -0.00000
 313       27D-2        0.00000   0.00000   0.00000  -0.00000
 314       28D 0        0.00200   0.00100   0.00100  -0.00000
 315       28D+1        0.00114   0.00061   0.00053   0.00008
 316       28D-1        0.00114   0.00061   0.00053   0.00008
 317       28D+2        0.00003   0.00002   0.00002  -0.00000
 318       28D-2        0.00003   0.00002   0.00002  -0.00000
 319       29D 0        0.00328   0.00164   0.00164   0.00000
 320       29D+1        0.00619   0.00294   0.00324  -0.00030
 321       29D-1        0.00619   0.00294   0.00324  -0.00030
 322       29D+2        0.00032   0.00016   0.00016  -0.00000
 323       29D-2        0.00032   0.00016   0.00016  -0.00000
 324       30D 0        0.00000   0.00000   0.00000  -0.00000
 325       30D+1        0.00000   0.00000   0.00000   0.00000
 326       30D-1        0.00000   0.00000   0.00000   0.00000
 327       30D+2        0.00000   0.00000   0.00000  -0.00000
 328       30D-2        0.00000   0.00000   0.00000   0.00000
 329       31D 0       -0.00000  -0.00000  -0.00000   0.00000
 330       31D+1       -0.00000  -0.00000  -0.00000  -0.00000
 331       31D-1       -0.00000  -0.00000  -0.00000  -0.00000
 332       31D+2       -0.00000  -0.00000  -0.00000   0.00000
 333       31D-2       -0.00000  -0.00000  -0.00000   0.00000
 334       32D 0        0.00103   0.00051   0.00051  -0.00000
 335       32D+1        0.00367   0.00168   0.00199  -0.00031
 336       32D-1        0.00367   0.00168   0.00199  -0.00031
 337       32D+2        0.00008   0.00004   0.00004  -0.00000
 338       32D-2        0.00008   0.00004   0.00004  -0.00000
 339       33F 0        0.00004   0.00002   0.00002  -0.00000
 340       33F+1        0.00002   0.00001   0.00001   0.00000
 341       33F-1        0.00002   0.00001   0.00001   0.00000
 342       33F+2        0.00000   0.00000   0.00000   0.00000
 343       33F-2        0.00000   0.00000   0.00000   0.00000
 344       33F+3        0.00000   0.00000   0.00000   0.00000
 345       33F-3        0.00000   0.00000   0.00000   0.00000
 346       34F 0        0.00097   0.00048   0.00048  -0.00000
 347       34F+1        0.00069   0.00039   0.00030   0.00009
 348       34F-1        0.00069   0.00039   0.00030   0.00009
 349       34F+2        0.00009   0.00005   0.00005  -0.00000
 350       34F-2        0.00009   0.00005   0.00005  -0.00000
 351       34F+3        0.00000   0.00000  -0.00000   0.00000
 352       34F-3        0.00000   0.00000  -0.00000   0.00000
 353       35F 0        0.00000   0.00000   0.00000  -0.00000
 354       35F+1        0.00000   0.00000   0.00000   0.00000
 355       35F-1        0.00000   0.00000   0.00000   0.00000
 356       35F+2        0.00000   0.00000   0.00000  -0.00000
 357       35F-2        0.00000   0.00000   0.00000  -0.00000
 358       35F+3       -0.00000  -0.00000  -0.00000  -0.00000
 359       35F-3        0.00000   0.00000   0.00000  -0.00000
 360       36F 0       -0.00113  -0.00057  -0.00057   0.00000
 361       36F+1        0.00060   0.00018   0.00042  -0.00023
 362       36F-1        0.00060   0.00018   0.00042  -0.00023
 363       36F+2        0.00014   0.00007   0.00007  -0.00000
 364       36F-2        0.00014   0.00007   0.00007  -0.00000
 365       36F+3        0.00000   0.00000   0.00000  -0.00000
 366       36F-3        0.00000   0.00000   0.00000  -0.00000
 367       37G 0        0.00005   0.00003   0.00003  -0.00000
 368       37G+1        0.00002   0.00002   0.00001   0.00001
 369       37G-1        0.00002   0.00002   0.00001   0.00001
 370       37G+2        0.00000   0.00000   0.00000  -0.00000
 371       37G-2        0.00000   0.00000   0.00000  -0.00000
 372       37G+3       -0.00000  -0.00000  -0.00000   0.00000
 373       37G-3       -0.00000   0.00000  -0.00000   0.00000
 374       37G+4       -0.00000  -0.00000  -0.00000  -0.00000
 375       37G-4        0.00000   0.00000   0.00000  -0.00000
 376       38G 0        0.00012   0.00006   0.00006  -0.00000
 377       38G+1        0.00022   0.00013   0.00009   0.00004
 378       38G-1        0.00022   0.00013   0.00009   0.00004
 379       38G+2        0.00006   0.00003   0.00003  -0.00000
 380       38G-2        0.00006   0.00003   0.00003  -0.00000
 381       38G+3       -0.00000   0.00000  -0.00000   0.00000
 382       38G-3        0.00000   0.00000   0.00000  -0.00000
 383       38G+4        0.00000   0.00000  -0.00000   0.00000
 384       38G-4        0.00000   0.00000   0.00000  -0.00000
          Condensed to atoms (all electrons):
               1          2
     1  Ni  16.702422   0.293264
     2  O    0.293264   6.711050
          Atomic-Atomic Spin Densities.
               1          2
     1  Ni   1.922095  -0.034334
     2  O   -0.034334   0.146573
 Mulliken charges and spin densities:
               1          2
     1  Ni   1.004314   1.887761
     2  O   -1.004314   0.112239
 Sum of Mulliken charges =  -0.00000   2.00000
 Mulliken charges and spin densities with hydrogens summed into heavy atoms:
               1          2
     1  Ni   1.004314   1.887761
     2  O   -1.004314   0.112239
 Electronic spatial extent (au):  <R**2>=             84.2392
 Charge=             -0.0000 electrons
 Dipole moment (field-independent basis, Debye):
    X=              0.0000    Y=              0.0000    Z=              7.9991  Tot=              7.9991
 Quadrupole moment (field-independent basis, Debye-Ang):
   XX=            -18.3578   YY=            -18.3578   ZZ=            -21.0283
   XY=              0.0000   XZ=              0.0000   YZ=              0.0000
 Traceless Quadrupole moment (field-independent basis, Debye-Ang):
   XX=              0.8902   YY=              0.8902   ZZ=             -1.7803
   XY=              0.0000   XZ=              0.0000   YZ=              0.0000
 Octapole moment (field-independent basis, Debye-Ang**2):
  XXX=              0.0000  YYY=              0.0000  ZZZ=             23.6869  XYY=              0.0000
  XXY=              0.0000  XXZ=              5.8314  XZZ=              0.0000  YZZ=              0.0000
  YYZ=              5.8314  XYZ=              0.0000
 Hexadecapole moment (field-independent basis, Debye-Ang**3):
 XXXX=            -19.7285 YYYY=            -19.7285 ZZZZ=            -89.2256 XXXY=              0.0000
 XXXZ=              0.0000 YYYX=              0.0000 YYYZ=              0.0000 ZZZX=              0.0000
 ZZZY=              0.0000 XXYY=             -6.5762 XXZZ=            -17.5882 YYZZ=            -17.5882
 XXYZ=              0.0000 YYXZ=              0.0000 ZZXY=              0.0000
 N-N= 3.571946173710D+01 E-N=-5.187759984847D+02  KE= 1.184175755275D+02
 Symmetry A1   KE= 5.519478781518D+01
 Symmetry A2   KE= 1.747300304903D+01
 Symmetry B1   KE= 2.287489230099D+01
 Symmetry B2   KE= 2.287489236151D+01
 Symmetry A1   SP=-1.275565508747D-15
 Symmetry A2   SP=-1.979147060523D-16
 Symmetry B1   SP= 1.000000000000D+00
 Symmetry B2   SP= 1.000000000000D+00
 Orbital energies and kinetic energies (alpha):
                                 1                 2
   7         O                -0.797488          8.736502
   8         O                -0.729508          8.736502
   9         O                -0.705685          2.211180
  10         O                -0.705685          2.211180
  11         O                -0.382741          2.065275
  12         O                -0.382741          8.865985
  13         O                -0.376169          8.865985
  14         V                -0.052174          0.594007
  15         V                 0.018827          0.076320
  16         V                 0.018827          0.076320
  17         V                 0.019614          0.174749
  18         V                 0.038878          0.046795
 Total kinetic energy from orbitals= 1.361495461175D+02
                          Isotropic Fermi Contact Couplings
        Atom                 a.u.       MegaHertz       Gauss      10(-4) cm-1
     1  Ni(61)             0.00000      -0.00000      -0.00000      -0.00000
     2  O(17)             -0.00000       0.00000       0.00000       0.00000
 --------------------------------------------------------
       Center         ----  Spin Dipole Couplings  ----
                      3XX-RR        3YY-RR        3ZZ-RR
 --------------------------------------------------------
     1   Atom       -1.731695     -1.731695      3.463389
     2   Atom        0.033524      0.033524     -0.067049
 --------------------------------------------------------
                        XY            XZ            YZ
 --------------------------------------------------------
     1   Atom        0.000000      0.000000      0.000000
     2   Atom        0.000000      0.000000      0.000000
 --------------------------------------------------------


 ---------------------------------------------------------------------------------
              Anisotropic Spin Dipole Couplings in Principal Axis System
 ---------------------------------------------------------------------------------

       Atom             a.u.   MegaHertz   Gauss  10(-4) cm-1        Axes

              Baa    -1.7317    82.709    29.513    27.589  1.0000  0.0000  0.0000
     1 Ni(61) Bbb    -1.7317    82.709    29.513    27.589 -0.0000  1.0000  0.0000
              Bcc     3.4634  -165.418   -59.025   -55.178  0.0000  0.0000  1.0000
 
              Baa    -0.0670     4.852     1.731     1.618  0.0000  0.0000  1.0000
     2 O(17)  Bbb     0.0335    -2.426    -0.866    -0.809  1.0000  0.0000  0.0000
              Bcc     0.0335    -2.426    -0.866    -0.809 -0.0000  1.0000  0.0000
 

 ---------------------------------------------------------------------------------

 No NMR shielding tensors so no spin-rotation constants.
 Leave Link  601 at Mon Mar 26 20:57:47 2018, MaxMem= 10737418240 cpu:             239.8 elap:               7.8
 (Enter /home1/apps/gaussian/16rA.03/g16/l9999.exe)

 Test job not archived.
 1\1\GINC-C448-121\SP\ROCCSD(T)-Full\Gen\Ni1O1(3)\GWANG18\26-Mar-2018\0
 \\#P ROCCSD(T)=(MaxCyc=150, Full)/Gen SCF=(maxcycle=400) Pseudo=Read I
 ntegral(NoXCTest) Pop=Regular MaxDisk=500GB Guess=Read IOp(5/15=2)\\Ni
 O\\0,3\Ni,0,0.,0.,0.\O,0,0.,0.,1.6\\Version=ES64L-G16RevA.03\State=3-S
 G\HF=-184.7166288\MP2=-185.9542085\MP3=-185.8292494\PUHF=-184.7166288\
 PMP2-0=-185.9542085\MP4SDQ=-185.9234766\CCSD=-185.9115987\CCSD(T)=-185
 .9753089\RMSD=1.945e-09\PG=C*V [C*(O1Ni1)]\\@


 BE NOT THE FIRST BY WHOM THE NEW ARE TRIED,
 NOR YET THE THE LAST TO LAY THE OLD ASIDE.

                          -- ALEXANDER POPE
 Job cpu time:       3 days 11 hours 58 minutes 29.0 seconds.
 Elapsed time:       0 days  2 hours 38 minutes 25.5 seconds.
 File lengths (MBytes):  RWF=  16049 Int=      0 D2E=      0 Chk=     19 Scr=      1
 Normal termination of Gaussian 16 at Mon Mar 26 20:57:47 2018.
