
 Primary working directories    : /tmp/cmelton
 Secondary working directories  : /tmp/cmelton
 Wavefunction directory         : /remote/cmelton/wfu/
 Main file repository           : /tmp/cmelton/

 SHA1      : 4c1979699e6aeda0524d0210415ba82a958648b0
 NAME      : 2012.1.39
 ARCHNAME  : Linux/x86_64
 FC        : /projects/sems/install/rhel6-x86_64/sems/compiler/intel/16.0.1/base/bin/ifort
 FCVERSION : 16.0.1
 BLASLIB   : -L/projects/sems/install/rhel6-x86_64/sems/compiler/intel/16.0.1/base/compilers_and_libraries_2016.1.150/linux/mkl/lib/intel64 -lmkl_intel_ilp64 -lmkl_sequential -lmkl_core
 id        : sandiacon

 Nodes           nprocs
 breve.sandia.gov    1

 Using customized tuning parameters: mindgm=7; mindgv=16; mindgc=1; mindgr=1; noblas=0; minvec=7
 default implementation of scratch files=df  

 ***,Calculation for Be atom, singlet and triplet
 memory,512,m
 gthresh,twoint=1.0E-12
 geometry={
 1
 Zn
 Zn  0.0 0.0 0.0
 }
 
 basis={
 ecp,Zn,10,2,0;
 3;1,5.25282726,20.00000000;3,5.85433298,105.05654526;2,5.80452897,-105.08806248;
 1;2,12.52174964,123.87006927;
 1;2,11.56019052,72.33499364;
 Including file /remote/cmelton/data/corrECP/Zn/bfd/basis/aug-cc-pwCVQZ-dk.basis
 }
 
 Including file /remote/cmelton/data/corrECP/Zn/bfd/basis/states.proc
 
 do i=1,15
     if (i.eq.1) then
         Is2dten
     else if (i.eq.2) then
         IIs1dten
     else if (i.eq.3) then
         IIs2d9
     else if (i.eq.4) then
         IIIdten
     else if (i.eq.5) then
         IVd9
     else if (i.eq.6) then
         Vd8
     else if (i.eq.7) then
         VId7
     else if (i.eq.8) then
         VIId6
     else if (i.eq.9) then
         VIIId5
     else if (i.eq.10) then
         IXd4
     else if (i.eq.11) then
         Xd3
     else if (i.eq.12) then
         XId2
     else if (i.eq.13) then
         XIId1
     else if (i.eq.14) then
         XIII
     else if (i.eq.15) then
         XIX
     endif
     scf(i)=energy
     _CC_NORM_MAX=2.0
     {rccsd(t),maxit=100;core}
     ccsd(i)=energy
 enddo
 
 table,scf,ccsd
 save
 type,csv

 Variables initialized (782), CPU time= 0.01 sec
 Commands  initialized (547), CPU time= 0.00 sec, 517 directives.
 Default parameters read. Elapsed time= 0.08 sec

 Checking input...
 Passed
1


                                         ***  PROGRAM SYSTEM MOLPRO  ***
                         Copyright, University College Cardiff Consultants Limited, 2008

                                    Version 2012.1 linked Aug  2 2016 14:07:26


 **********************************************************************************************************************************
 LABEL *   Calculation for Be atom, singlet and triplet                                  
 Linux-3.10.0-693.11.6.el7.x86_64/breve.sandia.gov(x86_64) 64 bit serial version         DATE: 25-Jan-18          TIME: 14:53:26  
 **********************************************************************************************************************************

 SHA1:             4c1979699e6aeda0524d0210415ba82a958648b0
 **********************************************************************************************************************************

 THRESHOLDS:

 ZERO    =  1.00D-12  ONEINT  =  1.00D-12  TWOINT  =  1.00D-12  PREFAC  =  1.00D-14  LOCALI  =  1.00D-09  EORDER  =  1.00D-04
 ENERGY  =  0.00D+00  ETEST   =  0.00D+00  EDENS   =  0.00D+00  THRDEDEF=  1.00D-06  GRADIENT=  1.00D-02  STEP    =  1.00D-03
 ORBITAL =  1.00D-05  CIVEC   =  1.00D-05  COEFF   =  1.00D-04  PRINTCI =  5.00D-02  PUNCHCI =  9.90D+01  OPTGRAD =  3.00D-04
 OPTENERG=  1.00D-06  OPTSTEP =  3.00D-04  THRGRAD =  1.00D-10  COMPRESS=  1.00D-11  VARMIN  =  1.00D-07  VARMAX  =  1.00D-03
 THRDOUB =  0.00D+00  THRDIV  =  1.00D-05  THRRED  =  1.00D-07  THRPSP  =  1.00D+00  THRDC   =  1.00D-10  THRCS   =  1.00D-10
 THRNRM  =  1.00D-08  THREQ   =  0.00D+00  THRDE   =  1.00D+00  THRREF  =  1.00D-05  SPARFAC =  1.00D+00  THRDLP  =  1.00D-07
 THRDIA  =  1.00D-10  THRDLS  =  1.00D-07  THRGPS  =  0.00D+00  THRKEX  =  0.00D+00  THRDIS  =  2.00D-01  THRVAR  =  1.00D-10
 THRLOC  =  1.00D-06  THRGAP  =  1.00D-06  THRLOCT = -1.00D+00  THRGAPT = -1.00D+00  THRORB  =  1.00D-06  THRMLTP =  0.00D+00
 THRCPQCI=  1.00D-10  KEXTA   =  0.00D+00  THRCOARS=  0.00D+00  SYMTOL  =  1.00D-06  GRADTOL =  1.00D-06  THROVL  =  1.00D-08
 THRORTH =  1.00D-08  GRID    =  1.00D-06  GRIDMAX =  1.00D-03  DTMAX   =  0.00D+00  THROCCDE=  1.00D-01  THROCCDE=  1.00D-01



Geometry recognized as XYZ


 Variable memory set to  512000000 words,  buffer space   230000 words

 SETTING BASIS          =    USERDEF

 DO I                   =         1.00000000   

 Running procedure=IS2DTEN


 Recomputing integrals since basis changed


 Using spherical harmonics


1PROGRAM * SEWARD (Integral evaluation for generally contracted gaussian basis sets)     Author: Roland Lindh, 1990

 Geometry written to block  1 of record 700

 Orientation using atomic masses  
 Molecule type: Atom
 Symmetry elements: X,Y,Z
 Rotational constants:       0.0000000      0.0000000      0.0000000 GHz  (calculated with average atomic masses)

 Point group  D2h 



 ATOMIC COORDINATES

 NR  ATOM    CHARGE       X              Y              Z

   1  ZN     20.00    0.000000000    0.000000000    0.000000000

 NUCLEAR CHARGE:                   20
 NUMBER OF PRIMITIVE AOS:         344
 NUMBER OF SYMMETRY AOS:          261
 NUMBER OF CONTRACTIONS:          261   (  64Ag  +  40B3u +  40B2u +  22B1g +  40B1u +  22B2g +  22B3g +  11Au  )
 NUMBER OF CORE ORBITALS:           4   (   1Ag  +   1B3u +   1B2u +   0B1g +   1B1u +   0B2g +   0B3g +   0Au  )
 NUMBER OF VALENCE ORBITALS:        6   (   3Ag  +   0B3u +   0B2u +   1B1g +   0B1u +   1B2g +   1B3g +   0Au  )


 NUCLEAR REPULSION ENERGY    0.00000000

 EXTRA SYMMETRY OF AOS IN SYMMETRY 1:   1 1 1 1 1 1 1 1 1 1   1 1 1 1 1 1 1 1 1 1   1 1 1 1 2 3 2 3 2 3   2 3 2 3 2 3 2 3 2 3
                                        2 3 2 3 2 3 2 3 2 3   2 3 4 5 6 4 5 6 4 5   6 4 5 6
 EXTRA SYMMETRY OF AOS IN SYMMETRY 2:   1 1 1 1 1 1 1 1 1 1   1 1 1 1 1 1 1 1 1 1   1 2 3 2 3 2 3 2 3 2   3 4 5 6 4 5 6 4 5 6
 EXTRA SYMMETRY OF AOS IN SYMMETRY 3:   1 1 1 1 1 1 1 1 1 1   1 1 1 1 1 1 1 1 1 1   1 2 3 2 3 2 3 2 3 2   3 4 5 6 4 5 6 4 5 6
 EXTRA SYMMETRY OF AOS IN SYMMETRY 4:   1 1 1 1 1 1 1 1 1 1   1 1 1 1 2 3 2 3 2 3   2 3
 EXTRA SYMMETRY OF AOS IN SYMMETRY 5:   1 1 1 1 1 1 1 1 1 1   1 1 1 1 1 1 1 1 1 1   1 2 3 2 3 2 3 2 3 2   3 4 5 6 4 5 6 4 5 6
 EXTRA SYMMETRY OF AOS IN SYMMETRY 6:   1 1 1 1 1 1 1 1 1 1   1 1 1 1 2 3 2 3 2 3   2 3
 EXTRA SYMMETRY OF AOS IN SYMMETRY 7:   1 1 1 1 1 1 1 1 1 1   1 1 1 1 2 3 2 3 2 3   2 3
 EXTRA SYMMETRY OF AOS IN SYMMETRY 8:   1 1 1 1 1 2 3 2 3 2   3

 Eigenvalues of metric

         1 0.805E-05 0.805E-05 0.116E-04 0.275E-03 0.424E-03 0.424E-03 0.814E-03 0.206E-02
         2 0.110E-05 0.107E-04 0.466E-03 0.199E-02 0.540E-02 0.130E-01 0.247E-01 0.438E-01
         3 0.110E-05 0.107E-04 0.466E-03 0.199E-02 0.540E-02 0.130E-01 0.247E-01 0.438E-01
         4 0.805E-05 0.424E-03 0.735E-02 0.235E-01 0.587E-01 0.118E+00 0.140E+00 0.140E+00
         5 0.110E-05 0.107E-04 0.466E-03 0.199E-02 0.540E-02 0.130E-01 0.247E-01 0.438E-01
         6 0.805E-05 0.424E-03 0.735E-02 0.235E-01 0.587E-01 0.118E+00 0.140E+00 0.140E+00
         7 0.805E-05 0.424E-03 0.735E-02 0.235E-01 0.587E-01 0.118E+00 0.140E+00 0.140E+00
         8 0.105E+00 0.216E+00 0.216E+00 0.336E+00 0.767E+00 0.845E+00 0.845E+00 0.149E+01


 Contracted 2-electron integrals neglected if value below      1.0D-12
 AO integral compression algorithm  1   Integral accuracy      1.0D-12

     400.032 MB (compressed) written to integral file ( 41.5%)


 NUMBER OF SORTED TWO-ELECTRON INTEGRALS:   75531073.     BUFFER LENGTH:  32768
 NUMBER OF SEGMENTS:   5  SEGMENT LENGTH:   15999360      RECORD LENGTH: 524288

 Memory used in sort:      16.56 MW

 SORT1 READ   120371041. AND WROTE    45087169. INTEGRALS IN    132 RECORDS. CPU TIME:     2.54 SEC, REAL TIME:     2.97 SEC
 SORT2 READ    45087169. AND WROTE    75531073. INTEGRALS IN   1526 RECORDS. CPU TIME:     1.09 SEC, REAL TIME:     1.37 SEC

 FILE SIZES:   FILE 1:   409.2 MBYTE,  FILE 4:   553.7 MBYTE,   TOTAL:    962.9 MBYTE

 OPERATOR DM      FOR CENTER  0  COORDINATES:    0.000000    0.000000    0.000000


 **********************************************************************************************************************************
 DATASETS  * FILE   NREC   LENGTH (MB)   RECORD NAMES
              1      20      234.62       500      610      700      900      950      970     1000      129      960     1100   
                                          VAR    BASINP    GEOM    SYMINP    ZMAT    AOBASIS   BASIS     P2S    ABASIS      S 
                                         1400     1410     1420     1200     1210     1080     1600     1650     1300     1700   
                                           T        V       ECP      H0       H01     AOSYM     SMH    MOLCAS    ERIS     OPER   

 PROGRAMS   *        TOTAL       INT
 CPU TIMES  *        30.36     30.19
 REAL TIME  *        32.04 SEC
 DISK USED  *       965.79 MB      
 **********************************************************************************************************************************

1PROGRAM * RHF-SCF (CLOSED SHELL)       Authors: W. Meyer, H.-J. Werner


 NUMBER OF ELECTRONS:      10+   10-    SPACE SYMMETRY=1    SPIN SYMMETRY: Singlet 
 CONVERGENCE THRESHOLDS:    1.00E-05 (Density)    1.00E-07 (Energy)
 MAX. NUMBER OF ITERATIONS:       60
 INTERPOLATION TYPE:            DIIS
 INTERPOLATION STEPS:              2 (START)      1 (STEP)
 LEVEL SHIFTS:                  0.00 (CLOSED)  0.00 (OPEN) 

 Number of closed-shell orbitals:   10 (   4   1   1   1   1   1   1   0 )


 Orbital guess generated from atomic densities. Full valence occupancy:    4   1   1   1   1   1   1   0


 Molecular orbital dump at record        2100.2

 ITERATION    DDIFF          GRAD             ENERGY        2-EL.EN.            DIPOLE MOMENTS         DIIS   ORB.
    1      0.000D+00      0.000D+00      -226.00368506    371.334950    0.00000    0.00000    0.00000    0    start
    2      0.000D+00      0.165D-01      -226.00481420    363.356109    0.00000    0.00000    0.00000    1    diag
    3      0.219D-02      0.140D-01      -226.02214915    368.113064    0.00000    0.00000    0.00000    2    diag
    4      0.168D-02      0.201D-02      -226.02255217    367.494647    0.00000    0.00000    0.00000    3    diag
    5      0.141D-03      0.753D-04      -226.02255292    367.509347    0.00000    0.00000    0.00000    4    diag
    6      0.292D-04      0.124D-04      -226.02255296    367.513941    0.00000    0.00000    0.00000    5    diag
    7      0.778D-05      0.935D-06      -226.02255296    367.513749    0.00000    0.00000    0.00000    0    orth

 Final occupancy:   4   1   1   1   1   1   1   0

 !RHF STATE 1.1 Energy               -226.022552959453
 Nuclear energy                         0.00000000
 One-electron energy                 -409.77942741
 Two-electron energy                  183.75687445
 Virial quotient                       -1.55867171
 !RHF STATE 1.1 Dipole moment           0.00000000     0.00000000     0.00000000
 Dipole moment /Debye                   0.00000000     0.00000000     0.00000000

 Orbital energies:

         1.1          2.1          3.1          4.1          5.1          6.1
     -5.542998    -0.756923    -0.756923    -0.298485     0.032457     0.175848

         1.2          2.2          3.2
     -3.835581     0.024647     0.077971

         1.3          2.3          3.3
     -3.835581     0.024647     0.077971

         1.4          2.4          3.4
     -0.756923     0.188629     0.588857

         1.5          2.5          3.5
     -3.835581     0.024647     0.077971

         1.6          2.6          3.6
     -0.756923     0.188629     0.588857

         1.7          2.7          3.7
     -0.756923     0.188629     0.588857

         1.8          2.8
      1.097939     3.256659

 HOMO      4.1    -0.298485 =      -8.1222eV
 LUMO      2.2     0.024647 =       0.6707eV
 LUMO-HOMO         0.323132 =       8.7929eV


 **********************************************************************************************************************************
 DATASETS  * FILE   NREC   LENGTH (MB)   RECORD NAMES
              1      20      234.62       500      610      700      900      950      970     1000      129      960     1100   
                                          VAR    BASINP    GEOM    SYMINP    ZMAT    AOBASIS   BASIS     P2S    ABASIS      S 
                                         1400     1410     1420     1200     1210     1080     1600     1650     1300     1700   
                                           T        V       ECP      H0       H01     AOSYM     SMH    MOLCAS    ERIS     OPER   

              2       5        5.59       200      700     1000      520     2100   
                                        OPTIONS   GEOM     BASIS   MCVARS     RHF  

 PROGRAMS   *        TOTAL       RHF       INT
 CPU TIMES  *        31.62      1.26     30.19
 REAL TIME  *        33.44 SEC
 DISK USED  *       965.79 MB      
 **********************************************************************************************************************************
 SETTING SCF(1)         =      -226.02255296  AU                              
 SETTING _CC_NORM_MAX   =         2.00000000                                  


1PROGRAM * CCSD (Restricted open-shell coupled cluster)     Authors: C. Hampel, H.-J. Werner, 1991, M. Deegan, P.J. Knowles, 1992


 Convergence thresholds:  THRVAR = 1.00D-08  THRDEN = 1.00D-06

 CCSD(T)     terms to be evaluated (factor= 1.000)


 Number of closed-shell orbitals:  10 (   4   1   1   1   1   1   1   0 )
 Number of external orbitals:     251 (  60  39  39  21  39  21  21  11 )

 Memory could be reduced to 37.79 Mwords without degradation in triples

 Number of N-1 electron functions:              20
 Number of N-2 electron functions:             190
 Number of singly external CSFs:               840
 Number of doubly external CSFs:           1204696
 Total number of CSFs:                     1205536

 Molecular orbitals read from record     2100.2  Type=RHF/CANONICAL (state 1.1)

 Integral transformation finished. Total CPU:   0.99 sec, npass=  1  Memory used:   7.11 MW

 Starting RMP2 calculation

 Wavefunction is spin-projected

 ITER.      SQ.NORM     CORR.ENERGY   TOTAL ENERGY   ENERGY CHANGE        DEN1      VAR(S)    VAR(P)  DIIS     TIME
   1      1.12018736    -1.09640026  -227.11895322    -1.09640026    -0.00114803  0.78D-11  0.66D-03  1  1     1.05
   2      1.12181626    -1.09760331  -227.12015627    -0.00120305    -0.00001300  0.46D-12  0.13D-04  2  2     1.12
   3      1.12205845    -1.09770510  -227.12025806    -0.00010179    -0.00000004  0.11D-13  0.40D-07  3  3     1.18
   4      1.12206644    -1.09770663  -227.12025959    -0.00000153    -0.00000000  0.44D-15  0.21D-09  4  4     1.25
   5      1.12206652    -1.09770662  -227.12025958     0.00000001    -0.00000000  0.16D-16  0.83D-12  5  5     1.32

 Norm of t1 vector:      0.00001526      S-energy:    -0.00000000      T1 diagnostic:  0.00000241
 Norm of t2 vector:      0.34938019      P-energy:    -1.09770662
                                         Alpha-Beta:  -0.77050879
                                         Alpha-Alpha: -0.16359892
                                         Beta-Beta:   -0.16359892

 Spin contamination <S**2-Sz**2-Sz>     0.00000000
  Reference energy                   -226.022552959453
  RHF-RMP2 correlation energy          -1.097706622955
 !RHF-RMP2 energy                    -227.120259582408
 (NB above energy spin projected)

 Starting RCCSD calculation

 ITER.      SQ.NORM     CORR.ENERGY   TOTAL ENERGY   ENERGY CHANGE        DEN1      VAR(S)    VAR(P)  DIIS     TIME
   1      1.10322876    -0.98186340  -227.00441636    -0.98186340    -0.04790539  0.72D-02  0.63D-02  0  0     3.24
   2      1.12081443    -1.02426166  -227.04681462    -0.04239826    -0.00677821  0.10D-02  0.15D-02  1  1     5.16
   3      1.12366552    -1.01669531  -227.03924827     0.00756635    -0.00060052  0.31D-03  0.20D-03  2  2     7.11
   4      1.12831505    -1.01815474  -227.04070770    -0.00145943    -0.00013458  0.71D-04  0.50D-04  3  3     9.09
   5      1.13277052    -1.01957697  -227.04212993    -0.00142223    -0.00000724  0.48D-05  0.19D-05  4  4    11.05
   6      1.13353889    -1.01970947  -227.04226243    -0.00013249    -0.00000065  0.31D-06  0.18D-06  5  5    13.02
   7      1.13369883    -1.01972526  -227.04227822    -0.00001579    -0.00000007  0.53D-07  0.19D-07  6  6    14.98
   8      1.13372322    -1.01972848  -227.04228144    -0.00000322    -0.00000001  0.80D-08  0.43D-08  6  1    16.91
   9      1.13372865    -1.01972966  -227.04228262    -0.00000119    -0.00000000  0.33D-09  0.39D-09  6  2    18.87
  10      1.13372765    -1.01972934  -227.04228230     0.00000032    -0.00000000  0.72D-11  0.50D-10  6  3    20.80

 Norm of t1 vector:      0.11682198      S-energy:    -0.00000052      T1 diagnostic:  0.01847118
                                                                       D1 diagnostic:  0.06453604
 Norm of t2 vector:      0.34652601      P-energy:    -1.01972882
                                         Alpha-Beta:  -0.74289622
                                         Alpha-Alpha: -0.13841630
                                         Beta-Beta:   -0.13841630

 Doubles amplitudes (print threshold =  0.500E-01):

         I         J         SYM. A    SYM. B    A         B      T(IJ, AB) [Alpha-Beta]

         4         4         2         2         2         2     -0.05222396
         4         4         3         3         2         2     -0.05222396
         4         4         5         5         2         2     -0.05222396

 Spin contamination <S**2-Sz**2-Sz>     0.00000000

 Memory could be reduced to 40.20 Mwords without degradation in triples
 

  Correlated core orbitals:             1.1       1.2       1.3       1.5
  Orbital energies:                    -5.5430   -3.8356   -3.8356   -3.8356
 
  RCCSD core-core energy               -0.129653092414
  RCCSD core-valence energy            -0.380048281542
  RCCSD valence correlation energy     -0.510027969449
 

 RESULTS
 =======

  Reference energy                   -226.022552959453
  RCCSD singles energy                 -0.000000522287
  RCCSD pair energy                    -1.019728821119
  RCCSD correlation energy             -1.019729343406
  Triples (T) contribution             -0.030125380350
  Total correlation energy             -1.049854723756
 
  RHF-RCCSD energy                   -227.042282302859
  RHF-RCCSD[T] energy                -227.075394169080
  RHF-RCCSD-T energy                 -227.071883007951
 !RHF-RCCSD(T) energy                -227.072407683209

 Program statistics:

 Available memory in ccsd:               511999000
 Min. memory needed in ccsd:               3527430
 Max. memory used in ccsd:                 5008612
 Max. memory used in cckext:               3815622 (10 integral passes)
 Max. memory used in cckint:               7108914 ( 1 integral passes)



 **********************************************************************************************************************************
 DATASETS  * FILE   NREC   LENGTH (MB)   RECORD NAMES
              1      20      234.62       500      610      700      900      950      970     1000      129      960     1100   
                                          VAR    BASINP    GEOM    SYMINP    ZMAT    AOBASIS   BASIS     P2S    ABASIS      S 
                                         1400     1410     1420     1200     1210     1080     1600     1650     1300     1700   
                                           T        V       ECP      H0       H01     AOSYM     SMH    MOLCAS    ERIS     OPER   

              2       5        5.59       200      700     1000      520     2100   
                                        OPTIONS   GEOM     BASIS   MCVARS     RHF  

 PROGRAMS   *        TOTAL  RCCSD(T)       RHF       INT
 CPU TIMES  *       129.12     97.49      1.26     30.19
 REAL TIME  *       135.63 SEC
 DISK USED  *       965.79 MB      
 **********************************************************************************************************************************
 SETTING CCSD(1)        =      -227.07240768  AU                              

 DO I                   =         2.00000000   

 Running procedure=IIS1DTEN

1PROGRAM * RHF-SCF (OPEN SHELL)       Authors: W. Meyer, H.-J. Werner


 NUMBER OF ELECTRONS:      10+    9-    SPACE SYMMETRY=1    SPIN SYMMETRY: Doublet 
 CONVERGENCE THRESHOLDS:    1.00E-05 (Density)    1.00E-07 (Energy)
 MAX. NUMBER OF ITERATIONS:       60
 INTERPOLATION TYPE:            DIIS
 INTERPOLATION STEPS:              2 (START)      1 (STEP)
 LEVEL SHIFTS:                 -0.30 (CLOSED)  0.00 (OPEN) 


 Singly occupied orbitals:      4.1
 
 Extra symmetries of mos in symmetry 1:   1   3   2   1
 Orbital guess generated from atomic densities. Full valence occupancy:    4   1   1   1   1   1   1   0


 Molecular orbital dump at record        4202.2

 ITERATION    DDIFF          GRAD             ENERGY        2-EL.EN.            DIPOLE MOMENTS         DIIS   ORB.
    1      0.000D+00      0.000D+00      -225.71482171    355.673922    0.00000    0.00000    0.00000    0    start
    2      0.000D+00      0.151D-01      -225.72988631    351.993203    0.00000    0.00000    0.00000    1    diag,B
    3      0.281D-02      0.810D-02      -225.73567975    354.827333    0.00000    0.00000    0.00000    2    diag,B
    4      0.110D-02      0.218D-02      -225.73642004    354.338365    0.00000    0.00000    0.00000    3    diag,B
    5      0.565D-03      0.186D-03      -225.73647364    354.404512    0.00000    0.00000    0.00000    4    diag,B
    6      0.304D-03      0.313D-04      -225.73647484    354.412088    0.00000    0.00000    0.00000    5    diag,B
    7      0.548D-04      0.393D-05      -225.73647485    354.412091    0.00000    0.00000    0.00000    6    fixocc
    8      0.458D-05      0.431D-06      -225.73647485    354.412171    0.00000    0.00000    0.00000    0    orth

 Final alpha occupancy:   4   1   1   1   1   1   1   0
 Final beta  occupancy:   3   1   1   1   1   1   1   0

 !RHF STATE 1.1 Energy               -225.736474848526
 Nuclear energy                         0.00000000
 One-electron energy                 -402.94256017
 Two-electron energy                  177.20608533
 Virial quotient                       -1.55435361
 !RHF STATE 1.1 Dipole moment           0.00000000     0.00000000     0.00000000
 Dipole moment /Debye                   0.00000000     0.00000000     0.00000000

 ELECTRON ORBITALS
 =================


   Orb  Occ    Energy  Couls-En    Coefficients

                                   1 1s      1 1s      1 1s      1 1s      1 1s      1 1s      1 1s      1 1s      1 1s      1 1s   
                                   1 1s      1 1s      1 1s      1 1s      1 1s      1 1s      1 1s      1 1s      1 1s      1 1s   
                                   1 1s      1 1s      1 1s      1 1s      1 3d0     1 3d2+    1 3d0     1 3d2+    1 3d0     1 3d2+ 
                                   1 3d0     1 3d2+    1 3d0     1 3d2+    1 3d0     1 3d2+    1 3d0     1 3d2+    1 3d0     1 3d2+ 
                                   1 3d0     1 3d2+    1 3d0     1 3d2+    1 3d0     1 3d2+    1 3d0     1 3d2+    1 3d0     1 3d2+ 
                                   1 3d0     1 3d2+    1 5g0     1 5g4+    1 5g2+    1 5g0     1 5g4+    1 5g2+    1 5g0     1 5g4+ 
                                   1 5g2+    1 5g0     1 5g4+    1 5g2+ 

   1.1   2    -5.8864  -31.7303 -0.000000  0.000000 -0.000000  0.000000 -0.000002  0.000008 -0.000030  0.000098 -0.000296  0.000845
                                -0.002266  0.005720 -0.013789  0.043284 -0.040028 -0.425357  0.716527  0.750332  0.284339  0.016364
                                -0.009433  0.004705 -0.415756 -0.001339  0.000000  0.000000 -0.000000 -0.000000  0.000000 -0.000000
                                -0.000000 -0.000000  0.000000 -0.000000  0.000000 -0.000000  0.000000 -0.000000 -0.000000 -0.000000
                                 0.000000 -0.000000 -0.000000 -0.000000  0.000000 -0.000000 -0.000000 -0.000000 -0.000000  0.000000
                                 0.000000 -0.000000 -0.000000 -0.000000 -0.000000  0.000000 -0.000000 -0.000000 -0.000000  0.000000
                                -0.000000  0.000000 -0.000000  0.000000

   2.1   2    -1.1041  -20.8894 -0.000000  0.000000  0.000000 -0.000000  0.000000 -0.000000  0.000000 -0.000000  0.000000 -0.000000
                                 0.000000 -0.000000  0.000000 -0.000000  0.000000  0.000000 -0.000000 -0.000000 -0.000000  0.000000
                                 0.000000 -0.000000  0.000000  0.000000 -0.000000 -0.000001  0.000003  0.000008 -0.000022 -0.000062
                                 0.000638  0.001835  0.022951  0.065962  0.046298  0.133060  0.088568  0.254546  0.099338  0.285497
                                 0.081348  0.233796  0.046003  0.132213  0.009355  0.026885  0.029649  0.085211  0.011812  0.033946
                                -0.000196 -0.000563  0.000000  0.000000  0.000000  0.000000  0.000000  0.000000 -0.000000 -0.000000
                                -0.000000  0.000000 -0.000000  0.000000

   3.1   2    -1.1041  -20.8894  0.000000 -0.000000  0.000000 -0.000000  0.000000  0.000000 -0.000000  0.000000 -0.000000  0.000000
                                -0.000000  0.000000  0.000000 -0.000000  0.000000 -0.000000 -0.000000  0.000000  0.000000 -0.000000
                                -0.000000 -0.000000  0.000000  0.000000 -0.000001  0.000000  0.000008 -0.000003 -0.000062  0.000022
                                 0.001835 -0.000638  0.065962 -0.022951  0.133060 -0.046298  0.254546 -0.088568  0.285497 -0.099338
                                 0.233796 -0.081348  0.132213 -0.046003  0.026885 -0.009355  0.085211 -0.029649  0.033946 -0.011812
                                -0.000563  0.000196  0.000000 -0.000000  0.000000  0.000000 -0.000000 -0.000000 -0.000000  0.000000
                                -0.000000  0.000000  0.000000 -0.000000

   4.1   +    -0.6230   -9.4759  0.000000 -0.000000  0.000000 -0.000000  0.000001 -0.000002  0.000009 -0.000029  0.000087 -0.000249
                                 0.000671 -0.001702  0.004152 -0.013662  0.019604  0.108339 -0.209674 -0.285017 -0.220421  0.550623
                                 0.587578  0.025883  0.120459  0.003886 -0.000000  0.000000  0.000000 -0.000000 -0.000000  0.000000
                                 0.000000 -0.000000 -0.000000 -0.000000 -0.000000 -0.000000 -0.000000 -0.000000 -0.000000 -0.000000
                                -0.000000 -0.000000 -0.000000 -0.000000 -0.000000 -0.000000  0.000000 -0.000000  0.000000 -0.000000
                                 0.000000  0.000000  0.000000 -0.000000  0.000000  0.000000  0.000000 -0.000000 -0.000000  0.000000
                                 0.000000  0.000000 -0.000000 -0.000000

   5.1   0    -0.0943   -3.0221 -0.000000  0.000000 -0.000000  0.000000 -0.000000  0.000001 -0.000003  0.000010 -0.000030  0.000087
                                -0.000232  0.000584 -0.001401  0.004461 -0.007210 -0.025977  0.024267  0.058131  0.083086 -0.210009
                                -0.339569 -0.388290  0.012529  1.438786  0.000000  0.000000 -0.000000 -0.000000  0.000000  0.000000
                                -0.000000 -0.000000  0.000000 -0.000000  0.000000  0.000000  0.000000 -0.000000 -0.000000 -0.000000
                                 0.000000 -0.000000 -0.000000 -0.000000  0.000000  0.000000 -0.000000 -0.000000 -0.000000 -0.000000
                                -0.000000 -0.000000 -0.000000 -0.000000 -0.000000  0.000000  0.000000  0.000000 -0.000000 -0.000000
                                -0.000000 -0.000000  0.000000  0.000000

   6.1   0    -0.0013   -3.9910  0.000000 -0.000000  0.000000 -0.000000  0.000000 -0.000000  0.000000 -0.000000  0.000000 -0.000000
                                 0.000000 -0.000000  0.000000 -0.000000  0.000000 -0.000000  0.000000  0.000000 -0.000000  0.000000
                                -0.000000  0.000000 -0.000000 -0.000000 -0.000006  0.000000  0.000046 -0.000000 -0.000253  0.000002
                                 0.001178 -0.000008 -0.018407  0.000125 -0.214280  0.001459 -0.146404  0.000997  0.029316 -0.000200
                                -0.095549  0.000651  0.127415 -0.000868 -0.217381  0.001481  0.113308 -0.000772  0.176665 -0.001203
                                 1.118988 -0.007622 -0.000000 -0.000000 -0.000000  0.000000  0.000000 -0.000000 -0.000000 -0.000000
                                 0.000000  0.000000  0.000000 -0.000000

                                   1 2px     1 2px     1 2px     1 2px     1 2px     1 2px     1 2px     1 2px     1 2px     1 2px  
                                   1 2px     1 2px     1 2px     1 2px     1 2px     1 2px     1 2px     1 2px     1 2px     1 2px  
                                   1 2px     1 4f1+    1 4f3+    1 4f1+    1 4f3+    1 4f1+    1 4f3+    1 4f1+    1 4f3+    1 4f1+ 
                                   1 4f3+    1 6h1+    1 6h3+    1 6h5+    1 6h1+    1 6h3+    1 6h5+    1 6h1+    1 6h3+    1 6h5+ 


   1.2   2    -4.1822  -28.2737  0.000000 -0.000000  0.000000 -0.000002  0.000008 -0.000028  0.000094 -0.000320  0.001502 -0.002678
                                 0.099550  0.223493  0.410683  0.354507  0.152946  0.012975 -0.001944  0.000842 -0.131742 -0.024011
                                -0.000259  0.000000  0.000000 -0.000000  0.000000  0.000000 -0.000000 -0.000000  0.000000  0.000000
                                -0.000000  0.000000  0.000000  0.000000 -0.000000  0.000000  0.000000  0.000000 -0.000000 -0.000000

   2.2   0    -0.1809   -6.3047 -0.000000  0.000000 -0.000000  0.000000 -0.000001  0.000004 -0.000013  0.000044 -0.000222  0.000406
                                -0.023257 -0.034868 -0.063752 -0.070414 -0.018176  0.195526  0.513292  0.403549  0.025700 -0.004527
                                 0.036005  0.000000 -0.000000  0.000000  0.000000  0.000000  0.000000  0.000000 -0.000000  0.000000
                                -0.000000  0.000000 -0.000000 -0.000000  0.000000 -0.000000 -0.000000  0.000000  0.000000  0.000000

   3.2   0    -0.0607   -2.5624  0.000000 -0.000000  0.000000 -0.000002  0.000007 -0.000022  0.000071 -0.000224  0.000806 -0.003828
                                -0.022115  0.036339  0.119943  0.012622  0.021999 -0.114955 -0.224163 -0.463553  0.016989 -0.092512
                                 1.276874  0.000000 -0.000000 -0.000000  0.000000  0.000000 -0.000000  0.000000  0.000000  0.000000
                                -0.000000  0.000000  0.000000 -0.000000  0.000000  0.000000  0.000000  0.000000 -0.000000 -0.000000

                                   1 2py     1 2py     1 2py     1 2py     1 2py     1 2py     1 2py     1 2py     1 2py     1 2py  
                                   1 2py     1 2py     1 2py     1 2py     1 2py     1 2py     1 2py     1 2py     1 2py     1 2py  
                                   1 2py     1 4f1-    1 4f3-    1 4f1-    1 4f3-    1 4f1-    1 4f3-    1 4f1-    1 4f3-    1 4f1- 
                                   1 4f3-    1 6h1-    1 6h3-    1 6h5-    1 6h1-    1 6h3-    1 6h5-    1 6h1-    1 6h3-    1 6h5- 


   1.3   2    -4.1822  -28.2737  0.000000 -0.000000  0.000000 -0.000002  0.000008 -0.000028  0.000094 -0.000320  0.001502 -0.002678
                                 0.099550  0.223493  0.410683  0.354507  0.152946  0.012975 -0.001944  0.000842 -0.131742 -0.024011
                                -0.000259  0.000000  0.000000  0.000000  0.000000  0.000000 -0.000000 -0.000000 -0.000000  0.000000
                                 0.000000  0.000000  0.000000  0.000000 -0.000000  0.000000  0.000000  0.000000  0.000000 -0.000000

   2.3   0    -0.1809   -6.3047 -0.000000  0.000000 -0.000000  0.000000 -0.000001  0.000004 -0.000013  0.000044 -0.000222  0.000406
                                -0.023257 -0.034868 -0.063752 -0.070414 -0.018176  0.195526  0.513292  0.403549  0.025700 -0.004527
                                 0.036005  0.000000  0.000000  0.000000 -0.000000  0.000000  0.000000  0.000000 -0.000000  0.000000
                                -0.000000  0.000000 -0.000000 -0.000000  0.000000 -0.000000  0.000000  0.000000  0.000000 -0.000000

   3.3   0    -0.0607   -2.5624  0.000000 -0.000000  0.000000 -0.000002  0.000007 -0.000022  0.000071 -0.000224  0.000806 -0.003828
                                -0.022115  0.036339  0.119943  0.012622  0.021999 -0.114955 -0.224163 -0.463553  0.016989 -0.092512
                                 1.276874  0.000000  0.000000 -0.000000 -0.000000  0.000000 -0.000000  0.000000  0.000000 -0.000000
                                 0.000000  0.000000  0.000000  0.000000  0.000000 -0.000000 -0.000000  0.000000 -0.000000 -0.000000

                                   1 3d2-    1 3d2-    1 3d2-    1 3d2-    1 3d2-    1 3d2-    1 3d2-    1 3d2-    1 3d2-    1 3d2- 
                                   1 3d2-    1 3d2-    1 3d2-    1 3d2-    1 5g2-    1 5g4-    1 5g2-    1 5g4-    1 5g2-    1 5g4- 
                                   1 5g2-    1 5g4- 

   1.4   2    -1.1041  -20.8894 -0.000001  0.000008 -0.000065  0.001943  0.069841  0.140885  0.269514  0.302285  0.247544  0.139987
                                 0.028466  0.090222  0.035943 -0.000596  0.000000  0.000000  0.000000  0.000000 -0.000000 -0.000000
                                 0.000000 -0.000000

   2.4   0    -0.0013   -3.9910 -0.000006  0.000046 -0.000253  0.001178 -0.018407 -0.214285 -0.146408  0.029316 -0.095551  0.127418
                                -0.217386  0.113310  0.176669  1.119014 -0.000000 -0.000000  0.000000 -0.000000 -0.000000  0.000000
                                 0.000000 -0.000000

   3.4   0     0.3339   -5.2516  0.000023 -0.000175  0.000967 -0.005497  0.025577  0.706227  0.379248 -0.289936  0.226691 -0.512101
                                 1.817717 -0.471827 -0.673119 -1.088284  0.000000 -0.000000 -0.000000 -0.000000  0.000000  0.000000
                                -0.000000 -0.000000

                                   1 2pz     1 2pz     1 2pz     1 2pz     1 2pz     1 2pz     1 2pz     1 2pz     1 2pz     1 2pz  
                                   1 2pz     1 2pz     1 2pz     1 2pz     1 2pz     1 2pz     1 2pz     1 2pz     1 2pz     1 2pz  
                                   1 2pz     1 4f0     1 4f2+    1 4f0     1 4f2+    1 4f0     1 4f2+    1 4f0     1 4f2+    1 4f0  
                                   1 4f2+    1 6h2+    1 6h4+    1 6h0     1 6h2+    1 6h4+    1 6h0     1 6h2+    1 6h4+    1 6h0  


   1.5   2    -4.1822  -28.2737  0.000000 -0.000000  0.000000 -0.000002  0.000008 -0.000028  0.000094 -0.000320  0.001502 -0.002678
                                 0.099550  0.223493  0.410683  0.354507  0.152946  0.012975 -0.001944  0.000842 -0.131742 -0.024011
                                -0.000259  0.000000  0.000000  0.000000  0.000000 -0.000000 -0.000000  0.000000 -0.000000  0.000000
                                 0.000000  0.000000  0.000000  0.000000  0.000000  0.000000 -0.000000 -0.000000 -0.000000  0.000000

   2.5   0    -0.1809   -6.3047 -0.000000  0.000000 -0.000000  0.000000 -0.000001  0.000004 -0.000013  0.000044 -0.000222  0.000406
                                -0.023257 -0.034868 -0.063752 -0.070414 -0.018176  0.195526  0.513292  0.403549  0.025700 -0.004527
                                 0.036005  0.000000 -0.000000 -0.000000  0.000000  0.000000  0.000000 -0.000000 -0.000000  0.000000
                                -0.000000 -0.000000 -0.000000  0.000000 -0.000000  0.000000  0.000000  0.000000  0.000000  0.000000

   3.5   0    -0.0607   -2.5624  0.000000 -0.000000  0.000000 -0.000002  0.000007 -0.000022  0.000071 -0.000224  0.000806 -0.003828
                                -0.022115  0.036339  0.119943  0.012622  0.021999 -0.114955 -0.224163 -0.463553  0.016989 -0.092512
                                 1.276874  0.000000 -0.000000 -0.000000 -0.000000  0.000000 -0.000000  0.000000 -0.000000  0.000000
                                 0.000000  0.000000 -0.000000 -0.000000  0.000000  0.000000  0.000000 -0.000000  0.000000  0.000000

                                   1 3d1+    1 3d1+    1 3d1+    1 3d1+    1 3d1+    1 3d1+    1 3d1+    1 3d1+    1 3d1+    1 3d1+ 
                                   1 3d1+    1 3d1+    1 3d1+    1 3d1+    1 5g1+    1 5g3+    1 5g1+    1 5g3+    1 5g1+    1 5g3+ 
                                   1 5g1+    1 5g3+ 

   1.6   2    -1.1041  -20.8894 -0.000001  0.000008 -0.000065  0.001943  0.069841  0.140885  0.269514  0.302285  0.247544  0.139987
                                 0.028466  0.090222  0.035943 -0.000596  0.000000  0.000000  0.000000  0.000000 -0.000000 -0.000000
                                 0.000000 -0.000000

   2.6   0    -0.0013   -3.9910 -0.000006  0.000046 -0.000253  0.001178 -0.018407 -0.214285 -0.146408  0.029316 -0.095551  0.127418
                                -0.217386  0.113310  0.176669  1.119014 -0.000000  0.000000  0.000000 -0.000000 -0.000000  0.000000
                                 0.000000 -0.000000

   3.6   0     0.3339   -5.2516  0.000023 -0.000175  0.000967 -0.005497  0.025577  0.706227  0.379248 -0.289936  0.226691 -0.512101
                                 1.817717 -0.471827 -0.673119 -1.088284  0.000000 -0.000000 -0.000000  0.000000  0.000000  0.000000
                                -0.000000 -0.000000

                                   1 3d1-    1 3d1-    1 3d1-    1 3d1-    1 3d1-    1 3d1-    1 3d1-    1 3d1-    1 3d1-    1 3d1- 
                                   1 3d1-    1 3d1-    1 3d1-    1 3d1-    1 5g1-    1 5g3-    1 5g1-    1 5g3-    1 5g1-    1 5g3- 
                                   1 5g1-    1 5g3- 

   1.7   2    -1.1041  -20.8894 -0.000001  0.000008 -0.000065  0.001943  0.069841  0.140885  0.269514  0.302285  0.247544  0.139987
                                 0.028466  0.090222  0.035943 -0.000596  0.000000  0.000000  0.000000  0.000000 -0.000000 -0.000000
                                 0.000000 -0.000000

   2.7   0    -0.0013   -3.9910 -0.000006  0.000046 -0.000253  0.001178 -0.018407 -0.214285 -0.146408  0.029316 -0.095551  0.127418
                                -0.217386  0.113310  0.176669  1.119014 -0.000000 -0.000000  0.000000  0.000000 -0.000000 -0.000000
                                 0.000000 -0.000000

   3.7   0     0.3339   -5.2516  0.000023 -0.000175  0.000967 -0.005497  0.025577  0.706227  0.379248 -0.289936  0.226691 -0.512101
                                 1.817717 -0.471827 -0.673119 -1.088284  0.000000  0.000000 -0.000000 -0.000000  0.000000  0.000000
                                -0.000000 -0.000000

                                   1 4f2-    1 4f2-    1 4f2-    1 4f2-    1 4f2-    1 6h4-    1 6h2-    1 6h4-    1 6h2-    1 6h4- 
                                   1 6h2- 

   1.8   0     0.7947   -5.5534  0.004821 -0.012518  0.053445 -0.123622  1.058757 -0.000000  0.000000  0.000000  0.000000 -0.000000
                                -0.000000

   2.8   0     2.9130   -5.9672 -0.006064  0.085023 -0.094907  1.241640 -0.601166 -0.000000  0.000000  0.000000  0.000000 -0.000000
                                -0.000000

 HOMO      4.1    -0.622967 =     -16.9518eV
 LUMO      2.2    -0.180891 =      -4.9223eV
 LUMO-HOMO         0.442076 =      12.0295eV


 **********************************************************************************************************************************
 DATASETS  * FILE   NREC   LENGTH (MB)   RECORD NAMES
              1      20      234.62       500      610      700      900      950      970     1000      129      960     1100   
                                          VAR    BASINP    GEOM    SYMINP    ZMAT    AOBASIS   BASIS     P2S    ABASIS      S 
                                         1400     1410     1420     1200     1210     1080     1600     1650     1300     1700   
                                           T        V       ECP      H0       H01     AOSYM     SMH    MOLCAS    ERIS     OPER   

              2       6        8.60       200      700     1000      520     2100     4202   
                                        OPTIONS   GEOM     BASIS   MCVARS     RHF      RHF  

 PROGRAMS   *        TOTAL       RHF  RCCSD(T)       RHF       INT
 CPU TIMES  *       130.73      1.62     97.49      1.26     30.19
 REAL TIME  *       137.40 SEC
 DISK USED  *       965.79 MB      
 **********************************************************************************************************************************

1PROGRAM * POP (Mulliken population analysis)

 
 Density matrix read from record         4202.2  Type=RHF/CHARGE (state 1.1)
 
 Population analysis by basis function type

 Unique atom        s        p        d        f        g    Total    Charge
   1  ZN      3.00000  6.00000 10.00000  0.00000  0.00000 19.00000  + 1.00000


 **********************************************************************************************************************************
 DATASETS  * FILE   NREC   LENGTH (MB)   RECORD NAMES
              1      20      234.62       500      610      700      900      950      970     1000      129      960     1100   
                                          VAR    BASINP    GEOM    SYMINP    ZMAT    AOBASIS   BASIS     P2S    ABASIS      S 
                                         1400     1410     1420     1200     1210     1080     1600     1650     1300     1700   
                                           T        V       ECP      H0       H01     AOSYM     SMH    MOLCAS    ERIS     OPER   

              2       6        8.60       200      700     1000      520     2100     4202   
                                        OPTIONS   GEOM     BASIS   MCVARS     RHF      RHF  

 PROGRAMS   *        TOTAL       POP       RHF  RCCSD(T)       RHF       INT
 CPU TIMES  *       130.73      0.00      1.62     97.49      1.26     30.19
 REAL TIME  *       137.42 SEC
 DISK USED  *       965.79 MB      
 **********************************************************************************************************************************

1PROGRAM * MULTI (Direct Multiconfiguration SCF)       Authors: P.J. Knowles, H.-J. Werner (1984)     S.T. Elbert (1988)


 Number of closed-shell orbitals:   9 (   3   1   1   1   1   1   1   0 )
 Number of active  orbitals:        1 (   1   0   0   0   0   0   0   0 )
 Number of external orbitals:     251 (  60  39  39  21  39  21  21  11 )

 State symmetry 1

 Orbital occupancy restrictions for symmetry 1
  1      1       2                               

 Number of electrons:     1    Spin symmetry=Doublet   Space symmetry=1
 Number of states:        1
 Number of CSFs:          1
 
 Maximum number of shells:             1
 Maximum number of spin couplings:     1

 Storage for configuration lists       2, coupling coefficients      1, address lists      7

 Molecular orbitals read from record     4202.2  Type=RHF/CANONICAL (state 1.1)
 *** IN SYMMETRY 1 ORBITAL  2 SYMMETRY CONTAMINATION OF 0.258D+00 HAS BEEN REMOVED
 *** IN SYMMETRY 1 ORBITAL  3 SYMMETRY CONTAMINATION OF 0.258D+00 HAS BEEN REMOVED

 EXTRA SYMMETRY OF MOS IN SYMMETRY 1:   1 3 2 1 1 2 3 1 3 2   1 3 2 1 5 4 6 3 2 1   2 3 5 4 6 2 3 1 5 4   6 2 3 1 4 5 6 2 3 1
                                        2 3 1 2 3 1 2 3 1 2   3 1 1 2 3 1 1 1 1 1   1 1 1 1
 EXTRA SYMMETRY OF MOS IN SYMMETRY 2:   1 1 1 1 1 2 3 1 3 2   1 2 3 6 4 5 1 2 3 6   5 4 1 1 2 3 5 4 6 1   1 1 1 1 1 1 1 1 1 1
 EXTRA SYMMETRY OF MOS IN SYMMETRY 3:   1 1 1 1 1 2 3 1 2 3   1 3 2 6 5 4 1 3 2 4   5 6 1 1 2 3 5 4 6 1   1 1 1 1 1 1 1 1 1 1
 EXTRA SYMMETRY OF MOS IN SYMMETRY 4:   1 1 1 1 3 2 1 1 3 2   1 3 2 1 2 3 1 1 1 1   1 1
 EXTRA SYMMETRY OF MOS IN SYMMETRY 5:   1 1 1 1 1 3 2 1 2 3   1 3 2 4 6 5 1 2 3 5   6 4 1 1 3 2 6 4 5 1   1 1 1 1 1 1 1 1 1 1
 EXTRA SYMMETRY OF MOS IN SYMMETRY 6:   1 1 1 1 3 2 1 1 3 2   1 3 2 1 2 3 1 1 1 1   1 1
 EXTRA SYMMETRY OF MOS IN SYMMETRY 7:   1 1 1 1 3 2 1 1 3 2   1 3 2 1 2 3 1 1 1 1   1 1
 EXTRA SYMMETRY OF MOS IN SYMMETRY 8:   1 1 1 2 3 1 2 3 1 3   2

 Wavefunction dump at record             5202.2

 Convergence thresholds  0.10E-01 (gradient)  0.10E-05 (energy)  0.10E-02 (step length)

 Number of orbital rotations:      423   (     3 Core/Active    360 Core/Virtual   0 Active/Active     60 Active/Virtual)
 Total number of variables:        424


 ITER. MIC  NCI  NEG     ENERGY(VAR)     ENERGY(PROJ)   ENERGY CHANGE     GRAD(0)  GRAD(ORB)   GRAD(CI)     STEP       TIME

   1   24    4    0    -225.73647485    -225.73647485   -0.00000000    0.00000892 0.00000000 0.00000000  0.26D-05      0.76

 ** WVFN ****  CONVERGENCE REACHED, FINAL GRADIENT:  0.75D-07


 First order charge density matrix for state 1.1 saved on record  5202.2 (density set 1)

 Results for state 1.1
 =====================

 !MCSCF STATE 1.1 Energy             -225.736474848540
 Nuclear energy                         0.00000000
 Kinetic energy                       145.22847975
 One electron energy                 -402.94252508
 Two electron energy                  177.20605023
 Virial ratio                           2.55435404

 !MCSCF STATE 1.1 Dipole moment         0.00000000     0.00000000     0.00000000
 Dipole moment /Debye                   0.00000000     0.00000000     0.00000000


 NATURAL ORBITALS
 ================

   Orb     Occ        Energy       Coefficients

                                   1 1s      1 1s      1 1s      1 1s      1 1s      1 1s      1 1s      1 1s      1 1s      1 1s   
                                   1 1s      1 1s      1 1s      1 1s      1 1s      1 1s      1 1s      1 1s      1 1s      1 1s   
                                   1 1s      1 1s      1 1s      1 1s      1 3d0     1 3d2+    1 3d0     1 3d2+    1 3d0     1 3d2+ 
                                   1 3d0     1 3d2+    1 3d0     1 3d2+    1 3d0     1 3d2+    1 3d0     1 3d2+    1 3d0     1 3d2+ 
                                   1 3d0     1 3d2+    1 3d0     1 3d2+    1 3d0     1 3d2+    1 3d0     1 3d2+    1 3d0     1 3d2+ 
                                   1 3d0     1 3d2+    1 5g0     1 5g4+    1 5g2+    1 5g0     1 5g4+    1 5g2+    1 5g0     1 5g4+ 
                                   1 5g2+    1 5g0     1 5g4+    1 5g2+ 

   1.1  2.00000    -5.886373    -0.000000  0.000000 -0.000000  0.000000 -0.000002  0.000008 -0.000030  0.000098 -0.000296  0.000845
                                -0.002266  0.005720 -0.013789  0.043284 -0.040028 -0.425357  0.716527  0.750332  0.284339  0.016364
                                -0.009433  0.004705 -0.415756 -0.001339  0.000000  0.000000  0.000000  0.000000  0.000000  0.000000
                                 0.000000  0.000000  0.000000  0.000000  0.000000  0.000000  0.000000  0.000000  0.000000  0.000000
                                 0.000000  0.000000  0.000000  0.000000  0.000000  0.000000  0.000000  0.000000  0.000000  0.000000
                                 0.000000  0.000000  0.000000  0.000000  0.000000  0.000000  0.000000  0.000000  0.000000  0.000000
                                 0.000000  0.000000  0.000000  0.000000

   2.1  2.00000    -1.104142     0.000000  0.000000  0.000000  0.000000  0.000000  0.000000  0.000000  0.000000  0.000000  0.000000
                                 0.000000  0.000000  0.000000  0.000000  0.000000  0.000000  0.000000  0.000000  0.000000  0.000000
                                 0.000000  0.000000  0.000000  0.000000  0.000000 -0.000001  0.000000  0.000008  0.000000 -0.000065
                                 0.000000  0.001943  0.000000  0.069841  0.000000  0.140885  0.000000  0.269515  0.000000  0.302285
                                 0.000000  0.247544  0.000000  0.139987  0.000000  0.028466  0.000000  0.090222  0.000000  0.035942
                                 0.000000 -0.000595  0.000000  0.000000  0.000000  0.000000  0.000000  0.000000  0.000000  0.000000
                                 0.000000  0.000000  0.000000  0.000000

   3.1  2.00000    -1.104142     0.000000  0.000000  0.000000  0.000000  0.000000  0.000000  0.000000  0.000000  0.000000  0.000000
                                 0.000000  0.000000  0.000000  0.000000  0.000000  0.000000  0.000000  0.000000  0.000000  0.000000
                                 0.000000  0.000000  0.000000  0.000000 -0.000001  0.000000  0.000008  0.000000 -0.000065  0.000000
                                 0.001943  0.000000  0.069841  0.000000  0.140885  0.000000  0.269515  0.000000  0.302285  0.000000
                                 0.247544  0.000000  0.139987  0.000000  0.028466  0.000000  0.090222  0.000000  0.035942  0.000000
                                -0.000595  0.000000  0.000000  0.000000  0.000000  0.000000  0.000000  0.000000  0.000000  0.000000
                                 0.000000  0.000000  0.000000  0.000000

   4.1  1.00000    -0.443724     0.000000 -0.000000  0.000000 -0.000000  0.000001 -0.000002  0.000009 -0.000029  0.000087 -0.000249
                                 0.000671 -0.001702  0.004152 -0.013662  0.019604  0.108339 -0.209674 -0.285017 -0.220421  0.550622
                                 0.587578  0.025885  0.120459  0.003886  0.000000  0.000000  0.000000  0.000000  0.000000  0.000000
                                 0.000000  0.000000  0.000000  0.000000  0.000000  0.000000  0.000000  0.000000  0.000000  0.000000
                                 0.000000  0.000000  0.000000  0.000000  0.000000  0.000000  0.000000  0.000000  0.000000  0.000000
                                 0.000000  0.000000  0.000000  0.000000  0.000000  0.000000  0.000000  0.000000  0.000000  0.000000
                                 0.000000  0.000000  0.000000  0.000000

                                   1 2px     1 2px     1 2px     1 2px     1 2px     1 2px     1 2px     1 2px     1 2px     1 2px  
                                   1 2px     1 2px     1 2px     1 2px     1 2px     1 2px     1 2px     1 2px     1 2px     1 2px  
                                   1 2px     1 4f1+    1 4f3+    1 4f1+    1 4f3+    1 4f1+    1 4f3+    1 4f1+    1 4f3+    1 4f1+ 
                                   1 4f3+    1 6h1+    1 6h3+    1 6h5+    1 6h1+    1 6h3+    1 6h5+    1 6h1+    1 6h3+    1 6h5+ 


   1.2  2.00000    -4.182215     0.000000 -0.000000  0.000000 -0.000002  0.000008 -0.000028  0.000094 -0.000320  0.001502 -0.002678
                                 0.099550  0.223493  0.410683  0.354507  0.152946  0.012975 -0.001944  0.000842 -0.131742 -0.024011
                                -0.000259  0.000000  0.000000  0.000000  0.000000  0.000000  0.000000  0.000000  0.000000  0.000000
                                 0.000000  0.000000  0.000000  0.000000  0.000000  0.000000  0.000000  0.000000  0.000000  0.000000

                                   1 2py     1 2py     1 2py     1 2py     1 2py     1 2py     1 2py     1 2py     1 2py     1 2py  
                                   1 2py     1 2py     1 2py     1 2py     1 2py     1 2py     1 2py     1 2py     1 2py     1 2py  
                                   1 2py     1 4f1-    1 4f3-    1 4f1-    1 4f3-    1 4f1-    1 4f3-    1 4f1-    1 4f3-    1 4f1- 
                                   1 4f3-    1 6h1-    1 6h3-    1 6h5-    1 6h1-    1 6h3-    1 6h5-    1 6h1-    1 6h3-    1 6h5- 


   1.3  2.00000    -4.182215     0.000000 -0.000000  0.000000 -0.000002  0.000008 -0.000028  0.000094 -0.000320  0.001502 -0.002678
                                 0.099550  0.223493  0.410683  0.354507  0.152946  0.012975 -0.001944  0.000842 -0.131742 -0.024011
                                -0.000259  0.000000  0.000000  0.000000  0.000000  0.000000  0.000000  0.000000  0.000000  0.000000
                                 0.000000  0.000000  0.000000  0.000000  0.000000  0.000000  0.000000  0.000000  0.000000  0.000000

                                   1 3d2-    1 3d2-    1 3d2-    1 3d2-    1 3d2-    1 3d2-    1 3d2-    1 3d2-    1 3d2-    1 3d2- 
                                   1 3d2-    1 3d2-    1 3d2-    1 3d2-    1 5g2-    1 5g4-    1 5g2-    1 5g4-    1 5g2-    1 5g4- 
                                   1 5g2-    1 5g4- 

   1.4  2.00000    -1.104142    -0.000001  0.000008 -0.000065  0.001943  0.069841  0.140885  0.269515  0.302285  0.247544  0.139987
                                 0.028466  0.090222  0.035942 -0.000595  0.000000  0.000000  0.000000  0.000000  0.000000  0.000000
                                 0.000000  0.000000

                                   1 2pz     1 2pz     1 2pz     1 2pz     1 2pz     1 2pz     1 2pz     1 2pz     1 2pz     1 2pz  
                                   1 2pz     1 2pz     1 2pz     1 2pz     1 2pz     1 2pz     1 2pz     1 2pz     1 2pz     1 2pz  
                                   1 2pz     1 4f0     1 4f2+    1 4f0     1 4f2+    1 4f0     1 4f2+    1 4f0     1 4f2+    1 4f0  
                                   1 4f2+    1 6h2+    1 6h4+    1 6h0     1 6h2+    1 6h4+    1 6h0     1 6h2+    1 6h4+    1 6h0  


   1.5  2.00000    -4.182215     0.000000 -0.000000  0.000000 -0.000002  0.000008 -0.000028  0.000094 -0.000320  0.001502 -0.002678
                                 0.099550  0.223493  0.410683  0.354507  0.152946  0.012975 -0.001944  0.000842 -0.131742 -0.024011
                                -0.000259  0.000000  0.000000  0.000000  0.000000  0.000000  0.000000  0.000000  0.000000  0.000000
                                 0.000000  0.000000  0.000000  0.000000  0.000000  0.000000  0.000000  0.000000  0.000000  0.000000

                                   1 3d1+    1 3d1+    1 3d1+    1 3d1+    1 3d1+    1 3d1+    1 3d1+    1 3d1+    1 3d1+    1 3d1+ 
                                   1 3d1+    1 3d1+    1 3d1+    1 3d1+    1 5g1+    1 5g3+    1 5g1+    1 5g3+    1 5g1+    1 5g3+ 
                                   1 5g1+    1 5g3+ 

   1.6  2.00000    -1.104142    -0.000001  0.000008 -0.000065  0.001943  0.069841  0.140885  0.269515  0.302285  0.247544  0.139987
                                 0.028466  0.090222  0.035942 -0.000595  0.000000  0.000000  0.000000  0.000000  0.000000  0.000000
                                 0.000000  0.000000

                                   1 3d1-    1 3d1-    1 3d1-    1 3d1-    1 3d1-    1 3d1-    1 3d1-    1 3d1-    1 3d1-    1 3d1- 
                                   1 3d1-    1 3d1-    1 3d1-    1 3d1-    1 5g1-    1 5g3-    1 5g1-    1 5g3-    1 5g1-    1 5g3- 
                                   1 5g1-    1 5g3- 

   1.7  2.00000    -1.104142    -0.000001  0.000008 -0.000065  0.001943  0.069841  0.140885  0.269515  0.302285  0.247544  0.139987
                                 0.028466  0.090222  0.035942 -0.000595  0.000000  0.000000  0.000000  0.000000  0.000000  0.000000
                                 0.000000  0.000000

 Total charge:   1.000000000000
 

 EXTRA SYMMETRY OF MOS IN SYMMETRY 1:   1 3 2 1 1 2 3 1 2 3   1 3 2 1 4 5 6 2 3 1   2 3 4 5 6 3 2 1 4 5   6 3 2 1 6 5 4 2 3 1
                                        2 3 1 3 2 1 2 3 1 2   3 1 1 2 3 1 1 1 1 1   1 1 1 1
 EXTRA SYMMETRY OF MOS IN SYMMETRY 2:   1 1 1 1 1 3 2 1 2 3   1 3 2 4 6 5 1 3 2 5   6 4 1 1 3 2 4 5 6 1   1 1 1 1 1 1 1 1 1 1
 EXTRA SYMMETRY OF MOS IN SYMMETRY 3:   1 1 1 1 1 2 3 1 2 3   1 3 2 4 5 6 1 2 3 6   5 4 1 1 3 2 5 4 6 1   1 1 1 1 1 1 1 1 1 1
 EXTRA SYMMETRY OF MOS IN SYMMETRY 4:   1 1 1 1 3 2 1 1 2 3   1 3 2 1 3 2 1 1 1 1   1 1
 EXTRA SYMMETRY OF MOS IN SYMMETRY 5:   1 1 1 1 1 2 3 1 2 3   1 2 3 4 6 5 1 3 2 6   5 4 1 1 2 3 6 4 5 1   1 1 1 1 1 1 1 1 1 1
 EXTRA SYMMETRY OF MOS IN SYMMETRY 6:   1 1 1 1 3 2 1 1 2 3   1 3 2 1 2 3 1 1 1 1   1 1
 EXTRA SYMMETRY OF MOS IN SYMMETRY 7:   1 1 1 1 2 3 1 1 2 3   1 3 2 1 3 2 1 1 1 1   1 1
 EXTRA SYMMETRY OF MOS IN SYMMETRY 8:   1 1 1 3 2 1 3 2 1 2   3

 Natural orbital dump at molpro section  5202.2    (Orbital set 2)


 CI vector
 =========

 /             1.0000000

 TOTAL ENERGIES                      -225.73647485



 **********************************************************************************************************************************
 DATASETS  * FILE   NREC   LENGTH (MB)   RECORD NAMES
              1      21      240.75       500      610      700      900      950      970     1000      129      960     1100   
                                          VAR    BASINP    GEOM    SYMINP    ZMAT    AOBASIS   BASIS     P2S    ABASIS      S 
                                         1400     1410     1420     1200     1210     1080     1600     1650     1300     1700   
                                           T        V       ECP      H0       H01     AOSYM     SMH    MOLCAS    ERIS     OPER   
                                         1380   
                                         JKOP   

              2       7       11.43       200      700     1000      520     2100     4202     5202   
                                        OPTIONS   GEOM     BASIS   MCVARS     RHF      RHF     MCSCF   

 PROGRAMS   *        TOTAL     MULTI       POP       RHF  RCCSD(T)       RHF       INT
 CPU TIMES  *       132.27      1.54      0.00      1.62     97.49      1.26     30.19
 REAL TIME  *       139.21 SEC
 DISK USED  *       965.79 MB      
 **********************************************************************************************************************************

1PROGRAM * RHF-SCF (OPEN SHELL)       Authors: W. Meyer, H.-J. Werner


 NUMBER OF ELECTRONS:      10+    9-    SPACE SYMMETRY=1    SPIN SYMMETRY: Doublet 
 CONVERGENCE THRESHOLDS:    1.00E-05 (Density)    1.00E-07 (Energy)
 MAX. NUMBER OF ITERATIONS:        0
 INTERPOLATION TYPE:            DIIS
 INTERPOLATION STEPS:              2 (START)      1 (STEP)
 LEVEL SHIFTS:                 -0.30 (CLOSED)  0.00 (OPEN) 


 Singly occupied orbitals:      4.1
 Molecular orbitals read from record     5202.2  Type=MCSCF/NATURAL (state 1.1)

 Molecular orbital dump at record        2102.2

 ITERATION    DDIFF          GRAD             ENERGY        2-EL.EN.            DIPOLE MOMENTS         DIIS   ORB.
    1      0.000D+00      0.000D+00      -225.73647485    354.412100    0.00000    0.00000    0.00000    0    start

 Final alpha occupancy:   4   1   1   1   1   1   1   0
 Final beta  occupancy:   3   1   1   1   1   1   1   0

 !RHF STATE 1.1 Energy               -225.736474848540
 Nuclear energy                         0.00000000
 One-electron energy                 -402.94252508
 Two-electron energy                  177.20605023
 Virial quotient                       -1.55435404
 !RHF STATE 1.1 Dipole moment           0.00000000     0.00000000     0.00000000
 Dipole moment /Debye                   0.00000000     0.00000000     0.00000000

 Orbital energies:

         1.1          2.1          3.1          4.1          5.1          6.1
     -5.886373    -1.104142    -1.104142    -0.443724    -0.091627     0.002102

         1.2          2.2          3.2
     -4.182215    -0.155673    -0.057066

         1.3          2.3          3.3
     -4.182215    -0.155673    -0.057066

         1.4          2.4          3.4
     -1.104142     0.002102     0.343552

         1.5          2.5          3.5
     -4.182215    -0.155673    -0.057066

         1.6          2.6          3.6
     -1.104142     0.002102     0.343552

         1.7          2.7          3.7
     -1.104142     0.002102     0.343552

         1.8          2.8
      0.805073     2.919289

 HOMO      4.1    -0.443724 =     -12.0744eV
 LUMO      2.2    -0.155673 =      -4.2361eV
 LUMO-HOMO         0.288052 =       7.8383eV


 **********************************************************************************************************************************
 DATASETS  * FILE   NREC   LENGTH (MB)   RECORD NAMES
              1      21      240.75       500      610      700      900      950      970     1000      129      960     1100   
                                          VAR    BASINP    GEOM    SYMINP    ZMAT    AOBASIS   BASIS     P2S    ABASIS      S 
                                         1400     1410     1420     1200     1210     1080     1600     1650     1300     1700   
                                           T        V       ECP      H0       H01     AOSYM     SMH    MOLCAS    ERIS     OPER   
                                         1380   
                                         JKOP   

              2       8       14.32       200      700     1000      520     2100     4202     5202     2102   
                                        OPTIONS   GEOM     BASIS   MCVARS     RHF      RHF     MCSCF     RHF  

 PROGRAMS   *        TOTAL       RHF     MULTI       POP       RHF  RCCSD(T)       RHF       INT
 CPU TIMES  *       132.47      0.20      1.54      0.00      1.62     97.49      1.26     30.19
 REAL TIME  *       139.45 SEC
 DISK USED  *       965.79 MB      
 **********************************************************************************************************************************
 SETTING SCF(2)         =      -225.73647485  AU                              
 SETTING _CC_NORM_MAX   =         2.00000000                                  


1PROGRAM * CCSD (Restricted open-shell coupled cluster)     Authors: C. Hampel, H.-J. Werner, 1991, M. Deegan, P.J. Knowles, 1992


 Convergence thresholds:  THRVAR = 1.00D-08  THRDEN = 1.00D-06

 CCSD(T)     terms to be evaluated (factor= 1.000)


 Number of closed-shell orbitals:   9 (   3   1   1   1   1   1   1   0 )
 Number of active  orbitals:        1 (   1   0   0   0   0   0   0   0 )
 Number of external orbitals:     251 (  60  39  39  21  39  21  21  11 )

 Memory could be reduced to 39.18 Mwords without degradation in triples

 Number of N-1 electron functions:              19
 Number of N-2 electron functions:             171
 Number of singly external CSFs:               787
 Number of doubly external CSFs:           1087440
 Total number of CSFs:                     1088227

 Molecular orbitals read from record     2102.2  Type=RHF/CANONICAL (state 1.1)

 Integral transformation finished. Total CPU:   1.08 sec, npass=  1  Memory used:   7.11 MW

 Starting RMP2 calculation

 Wavefunction is spin-projected

 ITER.      SQ.NORM     CORR.ENERGY   TOTAL ENERGY   ENERGY CHANGE        DEN1      VAR(S)    VAR(P)  DIIS     TIME
   1      1.08871678    -1.04174319  -226.77821804    -1.04174319    -0.00048662  0.70D-06  0.11D-03  1  1     1.15
   2      1.08895198    -1.04224437  -226.77871922    -0.00050118    -0.00000048  0.27D-08  0.19D-06  2  2     1.20
   3      1.08895995    -1.04225296  -226.77872780    -0.00000859    -0.00000000  0.51D-11  0.33D-09  3  3     1.26
   4      1.08896009    -1.04225300  -226.77872785    -0.00000004    -0.00000000  0.61D-14  0.51D-12  4  4     1.32

 Norm of t1 vector:      0.01042991      S-energy:    -0.00024688      T1 diagnostic:  0.00001409
 Norm of t2 vector:      0.29807936      P-energy:    -1.04200612
                                         Alpha-Beta:  -0.72850988
                                         Alpha-Alpha: -0.16397672
                                         Beta-Beta:   -0.14951952

 Spin contamination <S**2-Sz**2-Sz>     0.00000000
  Reference energy                   -225.736474848540
  RHF-RMP2 correlation energy          -1.042252998491
 !RHF-RMP2 energy                    -226.778727847031
 (NB above energy spin projected)

 Starting RCCSD calculation

 ITER.      SQ.NORM     CORR.ENERGY   TOTAL ENERGY   ENERGY CHANGE        DEN1      VAR(S)    VAR(P)  DIIS     TIME
   1      1.06921188    -0.93767192  -226.67414677    -0.93767192    -0.03945204  0.42D-02  0.41D-02  0  0     3.26
   2      1.07724350    -0.97249587  -226.70897072    -0.03482395    -0.00455864  0.53D-03  0.70D-03  1  1     5.16
   3      1.07672910    -0.96575054  -226.70222539     0.00674533    -0.00018228  0.91D-04  0.15D-04  2  2     7.07
   4      1.07748309    -0.96626232  -226.70273716    -0.00051177    -0.00002909  0.15D-04  0.33D-05  3  3     8.98
   5      1.07810206    -0.96671015  -226.70318500    -0.00044783    -0.00000174  0.12D-05  0.14D-06  4  4    10.95
   6      1.07823005    -0.96674580  -226.70322065    -0.00003565    -0.00000010  0.32D-07  0.17D-07  5  5    12.88
   7      1.07825012    -0.96674823  -226.70322308    -0.00000243    -0.00000001  0.25D-08  0.56D-09  6  6    14.80
   8      1.07825274    -0.96674894  -226.70322379    -0.00000071    -0.00000000  0.12D-09  0.53D-10  6  1    16.76

 Norm of t1 vector:      0.07099173      S-energy:    -0.00029155      T1 diagnostic:  0.01134363
                                                                       D1 diagnostic:  0.02917801
 Norm of t2 vector:      0.27057885      P-energy:    -0.96645739
                                         Alpha-Beta:  -0.69944019
                                         Alpha-Alpha: -0.14058590
                                         Beta-Beta:   -0.12643130

 Spin contamination <S**2-Sz**2-Sz>     0.00000000

 Memory could be reduced to 40.30 Mwords without degradation in triples
 

  Correlated core orbitals:             1.1       1.2       1.3       1.5
  Orbital energies:                    -5.8945   -4.1863   -4.1863   -4.1863
 
  RCCSD core-core energy               -0.129958786351
  RCCSD core-valence energy            -0.378582100073
  RCCSD valence correlation energy     -0.458208055263
 

 RESULTS
 =======

  Reference energy                   -225.736474848540
  RCCSD singles energy                 -0.000291553181
  RCCSD pair energy                    -0.966457388506
  RCCSD correlation energy             -0.966748941687
  Triples (T) contribution             -0.023520072910
  Total correlation energy             -0.990269014597
 
  RHF-RCCSD energy                   -226.703223790226
  RHF-RCCSD[T] energy                -226.728921295760
  RHF-RCCSD-T energy                 -226.726377024680
 !RHF-RCCSD(T) energy                -226.726743863136

 Program statistics:

 Available memory in ccsd:               511999000
 Min. memory needed in ccsd:               3220784
 Max. memory used in ccsd:                 4547683
 Max. memory used in cckext:               3456068 ( 8 integral passes)
 Max. memory used in cckint:               7109900 ( 1 integral passes)



 **********************************************************************************************************************************
 DATASETS  * FILE   NREC   LENGTH (MB)   RECORD NAMES
              1      21      240.75       500      610      700      900      950      970     1000      129      960     1100   
                                          VAR    BASINP    GEOM    SYMINP    ZMAT    AOBASIS   BASIS     P2S    ABASIS      S 
                                         1400     1410     1420     1200     1210     1080     1600     1650     1300     1700   
                                           T        V       ECP      H0       H01     AOSYM     SMH    MOLCAS    ERIS     OPER   
                                         1380   
                                         JKOP   

              2       8       14.32       200      700     1000      520     2100     4202     5202     2102   
                                        OPTIONS   GEOM     BASIS   MCVARS     RHF      RHF     MCSCF     RHF  

 PROGRAMS   *        TOTAL  RCCSD(T)       RHF     MULTI       POP       RHF  RCCSD(T)       RHF       INT
 CPU TIMES  *       216.42     83.94      0.20      1.54      0.00      1.62     97.49      1.26     30.19
 REAL TIME  *       227.21 SEC
 DISK USED  *       965.79 MB      
 **********************************************************************************************************************************
 SETTING CCSD(2)        =      -226.72674386  AU                              

 DO I                   =         3.00000000   

 Running procedure=IIS2D9

1PROGRAM * RHF-SCF (OPEN SHELL)       Authors: W. Meyer, H.-J. Werner


 NUMBER OF ELECTRONS:      10+    9-    SPACE SYMMETRY=4    SPIN SYMMETRY: Doublet 
 CONVERGENCE THRESHOLDS:    1.00E-05 (Density)    1.00E-07 (Energy)
 MAX. NUMBER OF ITERATIONS:       60
 INTERPOLATION TYPE:            DIIS
 INTERPOLATION STEPS:              2 (START)      1 (STEP)
 LEVEL SHIFTS:                 -0.30 (CLOSED)  0.00 (OPEN) 


 Singly occupied orbitals:      1.4
 
 Extra symmetries of mos in symmetry 1:   1   1   3   2
 Orbital guess generated from atomic densities. Full valence occupancy:    4   1   1   1   1   1   1   0


 Molecular orbital dump at record        4202.2

 ITERATION    DDIFF          GRAD             ENERGY        2-EL.EN.            DIPOLE MOMENTS         DIIS   ORB.
    1      0.000D+00      0.000D+00      -225.34342854    332.831996    0.00000    0.00000    0.00000    0    start
    2      0.000D+00      0.280D-01      -225.44902408    347.727059    0.00000    0.00000    0.00000    1    diag,B
    3      0.174D-01      0.201D-01      -225.48529514    343.732472    0.00000    0.00000    0.00000    2    diag,B
    4      0.314D-02      0.188D-02      -225.48894992    344.153941    0.00000    0.00000    0.00000    3    diag,B
    5      0.268D-02      0.744D-03      -225.48982666    344.457045    0.00000    0.00000    0.00000    4    diag,B
    6      0.172D-02      0.162D-03      -225.48986657    344.511776    0.00000    0.00000    0.00000    5    diag,B
    7      0.448D-03      0.202D-04      -225.48986687    344.514135    0.00000    0.00000    0.00000    6    fixocc
    8      0.727D-04      0.240D-05      -225.48986687    344.513994    0.00000    0.00000    0.00000    7    diag,B
    9      0.616D-05      0.503D-06      -225.48986687    344.513948    0.00000    0.00000    0.00000    0    orth

 Final alpha occupancy:   4   1   1   1   1   1   1   0
 Final beta  occupancy:   4   1   1   0   1   1   1   0

 !RHF STATE 1.4 Energy               -225.489866873117
 Nuclear energy                         0.00000000
 One-electron energy                 -397.74684079
 Two-electron energy                  172.25697392
 Virial quotient                       -1.58580004
 !RHF STATE 1.4 Dipole moment           0.00000000     0.00000000     0.00000000
 Dipole moment /Debye                   0.00000000     0.00000000     0.00000000

 ELECTRON ORBITALS
 =================


   Orb  Occ    Energy  Couls-En    Coefficients

                                   1 1s      1 1s      1 1s      1 1s      1 1s      1 1s      1 1s      1 1s      1 1s      1 1s   
                                   1 1s      1 1s      1 1s      1 1s      1 1s      1 1s      1 1s      1 1s      1 1s      1 1s   
                                   1 1s      1 1s      1 1s      1 1s      1 3d0     1 3d2+    1 3d0     1 3d2+    1 3d0     1 3d2+ 
                                   1 3d0     1 3d2+    1 3d0     1 3d2+    1 3d0     1 3d2+    1 3d0     1 3d2+    1 3d0     1 3d2+ 
                                   1 3d0     1 3d2+    1 3d0     1 3d2+    1 3d0     1 3d2+    1 3d0     1 3d2+    1 3d0     1 3d2+ 
                                   1 3d0     1 3d2+    1 5g0     1 5g4+    1 5g2+    1 5g0     1 5g4+    1 5g2+    1 5g0     1 5g4+ 
                                   1 5g2+    1 5g0     1 5g4+    1 5g2+ 

   1.1   2    -6.1957  -32.1116 -0.000000  0.000000 -0.000000  0.000000 -0.000002  0.000008 -0.000030  0.000098 -0.000297  0.000847
                                -0.002274  0.005743 -0.013858  0.043606 -0.040380 -0.431356  0.736860  0.774847  0.263113  0.011510
                                -0.007006  0.003374 -0.433098 -0.000964 -0.000000  0.000000  0.000000 -0.000000 -0.000000  0.000000
                                -0.000015 -0.000000 -0.000529  0.000000 -0.002032  0.000000 -0.003404  0.000000 -0.002115 -0.000000
                                -0.000112 -0.000000  0.000047 -0.000000 -0.000002  0.000000 -0.000149 -0.000000  0.000279 -0.000000
                                 0.000000  0.000000 -0.000028  0.000187  0.000000 -0.000024  0.000185 -0.000000 -0.000081  0.000509
                                 0.000000 -0.000036  0.000214 -0.000000

   2.1   2    -0.6820  -10.0238  0.000000 -0.000000  0.000000 -0.000000  0.000001 -0.000002  0.000007 -0.000024  0.000072 -0.000206
                                 0.000559 -0.001440  0.003628 -0.012652  0.015601  0.137448 -0.387330 -0.444169 -0.154020  0.717668
                                 0.421716  0.031851  0.344083 -0.003908  0.000000  0.000000 -0.000000 -0.000000  0.000000  0.000000
                                 0.000007 -0.000000  0.000271 -0.000000  0.000900 -0.000000  0.001650 -0.000000  0.000794 -0.000000
                                -0.002634 -0.000000 -0.006307 -0.000000 -0.004246 -0.000000  0.000140 -0.000000 -0.000174 -0.000000
                                -0.000377  0.000000  0.000001 -0.000014  0.000000 -0.000017  0.000085  0.000000  0.000000  0.000009
                                 0.000000  0.000084 -0.000329  0.000000

   3.1   2    -1.4380  -21.7145 -0.000000 -0.000000  0.000000  0.000000 -0.000000  0.000000 -0.000000  0.000000 -0.000000 -0.000000
                                 0.000000 -0.000000  0.000000 -0.000000  0.000000  0.000000 -0.000000 -0.000000 -0.000000  0.000000
                                 0.000000 -0.000000  0.000000  0.000000  0.000000 -0.000001 -0.000000  0.000008  0.000000 -0.000068
                                -0.000000  0.002020 -0.000000  0.073003 -0.000000  0.147227 -0.000000  0.282697 -0.000000  0.312659
                                -0.000000  0.235822 -0.000000  0.103201 -0.000000  0.011741 -0.000000  0.094271 -0.000000  0.037007
                                -0.000000 -0.000239  0.000000  0.000000 -0.000281  0.000000  0.000000 -0.000675  0.000000  0.000000
                                -0.000983  0.000000 -0.000000 -0.000588

   4.1   2    -1.3670  -21.5526 -0.000000  0.000000 -0.000000  0.000000 -0.000000  0.000000 -0.000000  0.000001 -0.000002  0.000005
                                -0.000013  0.000033 -0.000076  0.000211 -0.000241 -0.001316 -0.001665 -0.000795  0.004597  0.003713
                                -0.001430  0.000748  0.004044 -0.000219 -0.000001 -0.000000  0.000009  0.000000 -0.000068 -0.000000
                                 0.002023  0.000000  0.072561  0.000000  0.146128  0.000000  0.279908  0.000000  0.310672  0.000000
                                 0.238839  0.000000  0.110284  0.000000  0.014253  0.000000  0.093407  0.000000  0.036735  0.000000
                                -0.000344 -0.000000 -0.000420 -0.000078 -0.000000 -0.001023 -0.000119 -0.000000 -0.001487 -0.000265
                                -0.000000 -0.000909 -0.000286 -0.000000

   5.1   0    -0.0986   -3.1208 -0.000000  0.000000 -0.000000  0.000000 -0.000000  0.000001 -0.000002  0.000008 -0.000024  0.000068
                                -0.000184  0.000468 -0.001154  0.003883 -0.005538 -0.033606  0.079084  0.105355  0.057014 -0.260923
                                -0.323645 -0.215626 -0.058956  1.325584  0.000000  0.000000 -0.000000 -0.000000  0.000000  0.000000
                                -0.000005 -0.000000 -0.000160 -0.000000 -0.000264 -0.000000 -0.000763 -0.000000 -0.000543 -0.000000
                                 0.001004 -0.000000  0.002216 -0.000000  0.002199 -0.000000 -0.000285 -0.000000 -0.000163 -0.000000
                                -0.000116 -0.000000  0.000006 -0.000027  0.000000  0.000013 -0.000063  0.000000 -0.000015  0.000086
                                 0.000000 -0.000059  0.000275  0.000000

   6.1   0    -0.0038   -4.0333  0.000000 -0.000000  0.000000  0.000000 -0.000000 -0.000000  0.000000 -0.000000  0.000000 -0.000000
                                 0.000000 -0.000000  0.000000 -0.000000  0.000000 -0.000000  0.000000  0.000000 -0.000000  0.000000
                                -0.000000  0.000000 -0.000000 -0.000000 -0.000000 -0.000006  0.000000  0.000045 -0.000000 -0.000246
                                 0.000000  0.001158 -0.000000 -0.017460 -0.000000 -0.207468 -0.000000 -0.140874  0.000000  0.030767
                                -0.000000 -0.087883  0.000000  0.139067 -0.000000 -0.191445  0.000000  0.110748  0.000000  0.172191
                                 0.000000  1.099198  0.000000 -0.000000  0.000032  0.000000 -0.000000  0.000044  0.000000 -0.000000
                                 0.000132 -0.000000  0.000000 -0.000261

                                   1 2px     1 2px     1 2px     1 2px     1 2px     1 2px     1 2px     1 2px     1 2px     1 2px  
                                   1 2px     1 2px     1 2px     1 2px     1 2px     1 2px     1 2px     1 2px     1 2px     1 2px  
                                   1 2px     1 4f1+    1 4f3+    1 4f1+    1 4f3+    1 4f1+    1 4f3+    1 4f1+    1 4f3+    1 4f1+ 
                                   1 4f3+    1 6h1+    1 6h3+    1 6h5+    1 6h1+    1 6h3+    1 6h5+    1 6h1+    1 6h3+    1 6h5+ 


   1.2   2    -4.4727  -28.6596  0.000000 -0.000000  0.000000 -0.000002  0.000008 -0.000026  0.000088 -0.000301  0.001444 -0.002305
                                 0.104824  0.224211  0.411407  0.357794  0.137621  0.009798 -0.001208  0.000545 -0.136817 -0.015956
                                -0.000166 -0.000125  0.000689 -0.000834  0.001629 -0.000974  0.002753  0.000009  0.001873  0.000056
                                 0.000024  0.000011  0.000010 -0.000076  0.000023  0.000021 -0.000154 -0.000002 -0.000006  0.000021

   2.2   0    -0.2002   -6.8895  0.000000 -0.000000  0.000000 -0.000000  0.000002 -0.000006  0.000019 -0.000054  0.000106 -0.001435
                                -0.046293 -0.030165 -0.023153 -0.099681  0.009461  0.275915  0.526031  0.325178  0.046655 -0.061442
                                 0.015835  0.000072  0.000034  0.000372  0.000221  0.000173  0.000087 -0.001420 -0.000632 -0.003322
                                -0.000806 -0.000007 -0.000008  0.000049 -0.000018 -0.000019  0.000121  0.000045  0.000046 -0.000286

   3.2   0    -0.0644   -2.5915  0.000000 -0.000000  0.000000 -0.000001  0.000004 -0.000013  0.000041 -0.000130  0.000484 -0.002143
                                -0.005725  0.027439  0.077131  0.025878  0.006045 -0.134511 -0.227683 -0.319704  0.002599 -0.045730
                                 1.212368 -0.000029 -0.000013 -0.000144 -0.000087 -0.000066 -0.000030  0.000611  0.000268  0.001283
                                 0.000334  0.000003  0.000003 -0.000019  0.000007  0.000007 -0.000047 -0.000018 -0.000019  0.000115

                                   1 2py     1 2py     1 2py     1 2py     1 2py     1 2py     1 2py     1 2py     1 2py     1 2py  
                                   1 2py     1 2py     1 2py     1 2py     1 2py     1 2py     1 2py     1 2py     1 2py     1 2py  
                                   1 2py     1 4f1-    1 4f3-    1 4f1-    1 4f3-    1 4f1-    1 4f3-    1 4f1-    1 4f3-    1 4f1- 
                                   1 4f3-    1 6h1-    1 6h3-    1 6h5-    1 6h1-    1 6h3-    1 6h5-    1 6h1-    1 6h3-    1 6h5- 


   1.3   2    -4.4727  -28.6596  0.000000 -0.000000  0.000000 -0.000002  0.000008 -0.000026  0.000088 -0.000301  0.001444 -0.002305
                                 0.104824  0.224211  0.411407  0.357794  0.137621  0.009798 -0.001208  0.000545 -0.136817 -0.015956
                                -0.000166 -0.000125 -0.000689 -0.000834 -0.001629 -0.000974 -0.002753  0.000009 -0.001873  0.000056
[...]
                                          RHF      RHF  

 PROGRAMS   *        TOTAL       RHF  RCCSD(T)       RHF     MULTI       POP       RHF  RCCSD(T)       RHF     MULTI       POP
 CPU TIMES  *       714.36      1.16     15.09      0.20      2.25      0.01      2.68     18.13      0.22      2.35      0.00
 REAL TIME  *       760.31 SEC
 DISK USED  *       965.79 MB      
 **********************************************************************************************************************************
 SETTING SCF(14)        =      -165.90147859  AU                              
 SETTING _CC_NORM_MAX   =         2.00000000                                  


1PROGRAM * CCSD (Restricted open-shell coupled cluster)     Authors: C. Hampel, H.-J. Werner, 1991, M. Deegan, P.J. Knowles, 1992


 Convergence thresholds:  THRVAR = 1.00D-08  THRDEN = 1.00D-06

 CCSD(T)     terms to be evaluated (factor= 1.000)


 Number of closed-shell orbitals:   4 (   1   1   1   0   1   0   0   0 )
 Number of external orbitals:     257 (  63  39  39  22  39  22  22  11 )

 Memory could be reduced to 24.01 Mwords without degradation in triples

 Number of N-1 electron functions:               8
 Number of N-2 electron functions:              28
 Number of singly external CSFs:               360
 Number of doubly external CSFs:            193942
 Total number of CSFs:                      194302

 Molecular orbitals read from record     2105.2  Type=RHF/CANONICAL (state 1.1)

 Integral transformation finished. Total CPU:   0.85 sec, npass=  1  Memory used:   3.16 MW

 Starting RMP2 calculation

 Wavefunction is spin-projected

 ITER.      SQ.NORM     CORR.ENERGY   TOTAL ENERGY   ENERGY CHANGE        DEN1      VAR(S)    VAR(P)  DIIS     TIME
   1      1.04080534    -0.46457054  -166.36604912    -0.46457054    -0.00016401  0.45D-18  0.18D-04  1  1     0.86
   2      1.04084376    -0.46473809  -166.36621668    -0.00016756    -0.00000000  0.22D-22  0.16D-09  2  2     0.87
   3      1.04084383    -0.46473830  -166.36621689    -0.00000021    -0.00000000  0.16D-26  0.23D-14  3  3     0.88

 Norm of t1 vector:      0.00000005      S-energy:    -0.00000000      T1 diagnostic:  0.00000001
 Norm of t2 vector:      0.20209857      P-energy:    -0.46473830
                                         Alpha-Beta:  -0.35096149
                                         Alpha-Alpha: -0.05688841
                                         Beta-Beta:   -0.05688841

 Spin contamination <S**2-Sz**2-Sz>     0.00000000
  Reference energy                   -165.901478586961
  RHF-RMP2 correlation energy          -0.464738302500
 !RHF-RMP2 energy                    -166.366216889461
 (NB above energy spin projected)

 Starting RCCSD calculation

 ITER.      SQ.NORM     CORR.ENERGY   TOTAL ENERGY   ENERGY CHANGE        DEN1      VAR(S)    VAR(P)  DIIS     TIME
   1      1.04533749    -0.48597539  -166.38745398    -0.48597539    -0.00542440  0.45D-04  0.38D-03  1  1     2.03
   2      1.04673858    -0.49153234  -166.39301093    -0.00555695    -0.00011405  0.33D-07  0.12D-04  2  2     3.13
   3      1.04692802    -0.49205579  -166.39353438    -0.00052345    -0.00000328  0.33D-08  0.30D-06  3  3     4.29
   4      1.04695055    -0.49209972  -166.39357831    -0.00004393    -0.00000003  0.98D-10  0.22D-08  4  4     5.41
   5      1.04695205    -0.49210283  -166.39358142    -0.00000311    -0.00000000  0.30D-12  0.16D-10  5  5     6.52
   6      1.04695203    -0.49210267  -166.39358125     0.00000016    -0.00000000  0.33D-14  0.13D-12  6  6     7.64

 Norm of t1 vector:      0.00772633      S-energy:     0.00000000      T1 diagnostic:  0.00193158
                                                                       D1 diagnostic:  0.00313920
 Norm of t2 vector:      0.21654637      P-energy:    -0.49210267
                                         Alpha-Beta:  -0.38079125
                                         Alpha-Alpha: -0.05565571
                                         Beta-Beta:   -0.05565571

 Spin contamination <S**2-Sz**2-Sz>     0.00000000

 Memory could be reduced to 24.19 Mwords without degradation in triples
 

  Correlated core orbitals:             1.1       1.2       1.3       1.5
  Orbital energies:                   -17.2800  -15.3975  -15.3975  -15.3975
 
  RCCSD core-core energy               -0.492102665523
 

 RESULTS
 =======

  Reference energy                   -165.901478586961
  RCCSD singles energy                  0.000000000187
  RCCSD pair energy                    -0.492102665710
  RCCSD correlation energy             -0.492102665523
  Triples (T) contribution             -0.010187458842
  Total correlation energy             -0.502290124365
 
  RHF-RCCSD energy                   -166.393581252483
  RHF-RCCSD[T] energy                -166.403815087297
  RHF-RCCSD-T energy                 -166.403710410433
 !RHF-RCCSD(T) energy                -166.403768711326

 Program statistics:

 Available memory in ccsd:               511999732
 Min. memory needed in ccsd:                795168
 Max. memory used in ccsd:                 1001200
 Max. memory used in cckext:                890754 ( 6 integral passes)
 Max. memory used in cckint:               3157327 ( 1 integral passes)



 **********************************************************************************************************************************
 DATASETS  * FILE   NREC   LENGTH (MB)   RECORD NAMES
              1      21      240.75       500      610      700      900      950      970     1000      129      960     1100   
                                          VAR    BASINP    GEOM    SYMINP    ZMAT    AOBASIS   BASIS     P2S    ABASIS      S 
                                         1400     1410     1420     1200     1210     1080     1600     1650     1300     1700   
                                           T        V       ECP      H0       H01     AOSYM     SMH    MOLCAS    ERIS     OPER   
                                         1380   
                                         JKOP   

              2      22       49.72       200      700     1000      520     2100     4202     5202     2102     5202(1)  2104   
                                        OPTIONS   GEOM     BASIS   MCVARS     RHF      RHF     MCSCF     RHF     MCSCF     RHF  
                                         2107     2109     5202(2)  2111     2113     2115     2117     2119     2121     2123   
                                          RHF      RHF     MCSCF     RHF      RHF      RHF      RHF      RHF      RHF      RHF  
                                         2125     2105   
                                          RHF      RHF  

 PROGRAMS   *        TOTAL  RCCSD(T)       RHF  RCCSD(T)       RHF     MULTI       POP       RHF  RCCSD(T)       RHF     MULTI
 CPU TIMES  *       726.81     12.45      1.16     15.09      0.20      2.25      0.01      2.68     18.13      0.22      2.35
 REAL TIME  *       773.68 SEC
 DISK USED  *       965.79 MB      
 **********************************************************************************************************************************
 SETTING CCSD(14)       =      -166.40376871  AU                              

 DO I                   =        15.00000000   

 Running procedure=XIX

1PROGRAM * RHF-SCF (CLOSED SHELL)       Authors: W. Meyer, H.-J. Werner


 NUMBER OF ELECTRONS:       1+    1-    SPACE SYMMETRY=1    SPIN SYMMETRY: Singlet 
 CONVERGENCE THRESHOLDS:    1.00E-05 (Density)    1.00E-07 (Energy)
 MAX. NUMBER OF ITERATIONS:       60
 INTERPOLATION TYPE:            DIIS
 INTERPOLATION STEPS:              2 (START)      1 (STEP)
 LEVEL SHIFTS:                  0.00 (CLOSED)  0.00 (OPEN) 



 Orbital guess generated from atomic densities. Full valence occupancy:    4   1   1   1   1   1   1   0


 Molecular orbital dump at record        2106.2

 ITERATION    DDIFF          GRAD             ENERGY        2-EL.EN.            DIPOLE MOMENTS         DIIS   ORB.
    1      0.000D+00      0.000D+00       -50.38189940      2.653301    0.00000    0.00000    0.00000    0    start
    2      0.000D+00      0.401D+00       -52.20165214      3.183638    0.00000    0.00000    0.00000    1    diag
    3      0.236D-01      0.241D-01       -52.20779545      3.213814    0.00000    0.00000    0.00000    2    diag
    4      0.213D-02      0.149D-03       -52.20779564      3.213982    0.00000    0.00000    0.00000    3    diag
    5      0.405D-04      0.299D-05       -52.20779564      3.213979    0.00000    0.00000    0.00000    4    diag
    6      0.540D-06      0.498D-07       -52.20779564      3.213979    0.00000    0.00000    0.00000    0    orth

 Final occupancy:   1   0   0   0   0   0   0   0

 !RHF STATE 1.1 Energy                -52.207795641530
 Nuclear energy                         0.00000000
 One-electron energy                  -53.81478510
 Two-electron energy                    1.60698946
 Virial quotient                       -6.29805855
 !RHF STATE 1.1 Dipole moment           0.00000000     0.00000000     0.00000000
 Dipole moment /Debye                   0.00000000     0.00000000     0.00000000

 Orbital energies:

         1.1          2.1          3.1
    -25.300403   -19.792915   -19.792915

         1.2          2.2
    -22.644953   -11.983330

         1.3          2.3
    -22.644953   -11.983330

         1.4          2.4
    -19.792915   -10.458042

         1.5          2.5
    -22.644953   -11.983330

         1.6          2.6
    -19.792915   -10.458042

         1.7          2.7
    -19.792915   -10.458042

         1.8          2.8
    -10.353424    -6.641059

 HOMO      1.1   -25.300403 =    -688.4590eV
 LUMO      1.2   -22.644953 =    -616.2005eV
 LUMO-HOMO         2.655450 =      72.2585eV


 **********************************************************************************************************************************
 DATASETS  * FILE   NREC   LENGTH (MB)   RECORD NAMES
              1      21      240.75       500      610      700      900      950      970     1000      129      960     1100   
                                          VAR    BASINP    GEOM    SYMINP    ZMAT    AOBASIS   BASIS     P2S    ABASIS      S 
                                         1400     1410     1420     1200     1210     1080     1600     1650     1300     1700   
                                           T        V       ECP      H0       H01     AOSYM     SMH    MOLCAS    ERIS     OPER   
                                         1380   
                                         JKOP   

              2      23       52.64       200      700     1000      520     2100     4202     5202     2102     5202(1)  2104   
                                        OPTIONS   GEOM     BASIS   MCVARS     RHF      RHF     MCSCF     RHF     MCSCF     RHF  
                                         2107     2109     5202(2)  2111     2113     2115     2117     2119     2121     2123   
                                          RHF      RHF     MCSCF     RHF      RHF      RHF      RHF      RHF      RHF      RHF  
                                         2125     2105     2106   
                                          RHF      RHF      RHF  

 PROGRAMS   *        TOTAL       RHF  RCCSD(T)       RHF  RCCSD(T)       RHF     MULTI       POP       RHF  RCCSD(T)       RHF
 CPU TIMES  *       728.01      1.19     12.45      1.16     15.09      0.20      2.25      0.01      2.68     18.13      0.22
 REAL TIME  *       775.05 SEC
 DISK USED  *       965.79 MB      
 **********************************************************************************************************************************
 SETTING SCF(15)        =       -52.20779564  AU                              
 SETTING _CC_NORM_MAX   =         2.00000000                                  


1PROGRAM * CCSD (Restricted open-shell coupled cluster)     Authors: C. Hampel, H.-J. Werner, 1991, M. Deegan, P.J. Knowles, 1992


 Convergence thresholds:  THRVAR = 1.00D-08  THRDEN = 1.00D-06

 CCSD(T)     terms to be evaluated (factor= 1.000)


 Number of closed-shell orbitals:   1 (   1   0   0   0   0   0   0   0 )
 Number of external orbitals:     260 (  63  40  40  22  40  22  22  11 )

 Memory could be reduced to 17.28 Mwords without degradation in triples

 Number of N-1 electron functions:               2
 Number of N-2 electron functions:               1
 Number of singly external CSFs:               126
 Number of doubly external CSFs:             10591
 Total number of CSFs:                       10717

 Molecular orbitals read from record     2106.2  Type=RHF/CANONICAL (state 1.1)

 Integral transformation finished. Total CPU:   0.43 sec, npass=  1  Memory used:   1.34 MW

 Starting RMP2 calculation

 Wavefunction is spin-projected

 ITER.      SQ.NORM     CORR.ENERGY   TOTAL ENERGY   ENERGY CHANGE        DEN1      VAR(S)    VAR(P)  DIIS     TIME
   1      1.01751138    -0.10757608   -52.31537173    -0.10757608    -0.00011264  0.63D-21  0.20D-04  1  1     0.44
   2      1.01755425    -0.10769274   -52.31548838    -0.00011665    -0.00000000  0.35D-24  0.21D-09  2  2     0.44
   3      1.01755432    -0.10769287   -52.31548851    -0.00000013    -0.00000000  0.46D-29  0.23D-14  3  3     0.44

 Norm of t1 vector:      0.00000000      S-energy:    -0.00000000      T1 diagnostic:  0.00000000
 Norm of t2 vector:      0.13249271      P-energy:    -0.10769287
                                         Alpha-Beta:  -0.10769287
                                         Alpha-Alpha:  0.00000000
                                         Beta-Beta:    0.00000000

 Spin contamination <S**2-Sz**2-Sz>     0.00000000
  Reference energy                    -52.207795641529
  RHF-RMP2 correlation energy          -0.107692867476
 !RHF-RMP2 energy                     -52.315488509006
 (NB above energy spin projected)

 Starting RCCSD calculation

 ITER.      SQ.NORM     CORR.ENERGY   TOTAL ENERGY   ENERGY CHANGE        DEN1      VAR(S)    VAR(P)  DIIS     TIME
   1      1.02790511    -0.12943323   -52.33722887    -0.12943323    -0.01010407  0.64D-05  0.17D-02  1  1     0.70
   2      1.03606413    -0.14318732   -52.35098296    -0.01375409    -0.00038284  0.52D-08  0.52D-04  2  2     0.95
   3      1.03784755    -0.14565275   -52.35344839    -0.00246543    -0.00000386  0.75D-09  0.36D-06  3  3     1.20
   4      1.03783317    -0.14560483   -52.35340048     0.00004792    -0.00000001  0.22D-11  0.76D-09  4  4     1.44
   5      1.03783891    -0.14561384   -52.35340948    -0.00000901    -0.00000000  0.36D-13  0.24D-12  5  5     1.68
   6      1.03783868    -0.14561348   -52.35340912     0.00000037    -0.00000000  0.11D-15  0.34D-14  6  6     1.92

 Norm of t1 vector:      0.00369279      S-energy:    -0.00000000      T1 diagnostic:  0.00184640
                                                                       D1 diagnostic:  0.00261120
 Norm of t2 vector:      0.19448662      P-energy:    -0.14561348
                                         Alpha-Beta:  -0.14561348
                                         Alpha-Alpha:  0.00000000
                                         Beta-Beta:    0.00000000

 Doubles amplitudes (print threshold =  0.500E-01):

         I         J         SYM. A    SYM. B    A         B      T(IJ, AB) [Alpha-Beta]

         1         1         2         2         1         1     -0.11093896
         1         1         3         3         1         1     -0.11093896
         1         1         5         5         1         1     -0.11093896

 Spin contamination <S**2-Sz**2-Sz>     0.00000000

 Memory could be reduced to 17.09 Mwords without degradation in triples
 

  Correlated core orbitals:             1.1
  Orbital energies:                   -25.3004
 
  RCCSD core-core energy               -0.145613476520
 

 RESULTS
 =======

  Reference energy                    -52.207795641529
  RCCSD singles energy                 -0.000000000112
  RCCSD pair energy                    -0.145613476409
  RCCSD correlation energy             -0.145613476520
  Triples (T) contribution              0.000000000000
  Total correlation energy             -0.145613476520
 
  RHF-RCCSD energy                    -52.353409118050
  RHF-RCCSD[T] energy                 -52.353409118050
  RHF-RCCSD-T energy                  -52.353409118050
 !RHF-RCCSD(T) energy                 -52.353409118050

 Program statistics:

 Available memory in ccsd:               511999882
 Min. memory needed in ccsd:                300021
 Max. memory used in ccsd:                  300021
 Max. memory used in cckext:                405262 ( 6 integral passes)
 Max. memory used in cckint:               1335267 ( 1 integral passes)



 **********************************************************************************************************************************
 DATASETS  * FILE   NREC   LENGTH (MB)   RECORD NAMES
              1      21      240.75       500      610      700      900      950      970     1000      129      960     1100   
                                          VAR    BASINP    GEOM    SYMINP    ZMAT    AOBASIS   BASIS     P2S    ABASIS      S 
                                         1400     1410     1420     1200     1210     1080     1600     1650     1300     1700   
                                           T        V       ECP      H0       H01     AOSYM     SMH    MOLCAS    ERIS     OPER   
                                         1380   
                                         JKOP   

              2      23       52.64       200      700     1000      520     2100     4202     5202     2102     5202(1)  2104   
                                        OPTIONS   GEOM     BASIS   MCVARS     RHF      RHF     MCSCF     RHF     MCSCF     RHF  
                                         2107     2109     5202(2)  2111     2113     2115     2117     2119     2121     2123   
                                          RHF      RHF     MCSCF     RHF      RHF      RHF      RHF      RHF      RHF      RHF  
                                         2125     2105     2106   
                                          RHF      RHF      RHF  

 PROGRAMS   *        TOTAL  RCCSD(T)       RHF  RCCSD(T)       RHF  RCCSD(T)       RHF     MULTI       POP       RHF  RCCSD(T)
 CPU TIMES  *       730.06      2.05      1.19     12.45      1.16     15.09      0.20      2.25      0.01      2.68     18.13
 REAL TIME  *       777.39 SEC
 DISK USED  *       965.79 MB      
 **********************************************************************************************************************************
 SETTING CCSD(15)       =       -52.35340912  AU                              
 Output type csv         
                                                                                                                                                                                                                                                                

        SCF,CCSD
   -226.02255296,   -227.07240768
   -225.73647485,   -226.72674386
   -225.48613184,   -226.44661907
   -225.11727234,   -226.06600650
   -223.75219079,   -224.60745553
   -221.65056640,   -222.41874036
   -218.66295423,   -219.35922603
   -214.71064990,   -215.34718041
   -209.80337071,   -210.37659500
   -203.41923079,   -203.97589840
   -195.93247158,   -196.46527704
   -187.20399316,   -187.72266201
   -177.17918359,   -177.69371514
   -165.90147859,   -166.40376871
    -52.20779564,    -52.35340912
                                                  

        RCCSD(T)        RHF-SCF         RCCSD(T)        RHF-SCF         RCCSD(T)        RHF-SCF         MULTI           RHF-SCF 
    -52.35340912    -52.20779564   -166.40376871   -165.90147859   -177.69371514   -177.17918359   -177.17918359   -177.18245827
 **********************************************************************************************************************************
 Variable memory released
